<LesHouchesEvents version="3.0">
<header>
<!--
#*********************************************************************
#                                                                    *
#                        MadGraph5_aMC@NLO                           *
#                                                                    *
#                           Going Beyond                             *
#                                                                    *
#                   http://madgraph.hep.uiuc.edu                     *
#                   http://madgraph.phys.ucl.ac.be                   *
#                   http://amcatnlo.cern.ch                          *
#                                                                    *
#                     The MadGraph5_aMC@NLO team                     *
#                                                                    *
#....................................................................*
#                                                                    *
# This file contains all the information necessary to reproduce      *
# the events generated:                                              *
#                                                                    *
# 1. software version                                                *
# 2. proc_card          : code generation info including model       *
# 3. param_card         : model primary parameters in the LH format  *
# 4. run_card           : running parameters (collider and cuts)     *
# 5. pythia_card        : present only if pythia has been run        *
# 6. pgs_card           : present only if pgs has been run           *
# 7. delphes_cards      : present only if delphes has been run       *
#                                                                    *
#                                                                    *
#*********************************************************************
-->
<MGVersion>
#5.2.2.3
</MGVersion>
<MG5ProcCard>
#************************************************************
#*                     MadGraph5_aMC@NLO                    *
#*                                                          *
#*                *                       *                 *
#*                  *        * *        *                   *
#*                    * * * * 5 * * * *                     *
#*                  *        * *        *                   *
#*                *                       *                 *
#*                                                          *
#*                                                          *
#*         VERSION 2.2.3                 2015-02-10         *
#*                                                          *
#*    The MadGraph5_aMC@NLO Development Team - Find us at   *
#*    https://server06.fynu.ucl.ac.be/projects/madgraph     *
#*                                                          *
#************************************************************
#*                                                          *
#*               Command File for MadGraph5_aMC@NLO         *
#*                                                          *
#*     run as ./bin/mg5_aMC  filename                       *
#*                                                          *
#************************************************************
set group_subprocesses Auto
set ignore_six_quark_processes False
set loop_optimized_output True
set gauge unitary
set complex_mass_scheme False
import model sm
define p = g u c d s u~ c~ d~ s~
define j = g u c d s u~ c~ d~ s~
define l+ = e+ mu+
define l- = e- mu-
define vl = ve vm vt
define vl~ = ve~ vm~ vt~
import model Zprime_UFO
generate p p > zph, zph > j j
add process p p > zph, zph > b b~
output Dijet_signal
</MG5ProcCard>
<MGProcCard>
#*********************************************************************
#                        MadGraph/MadEvent                           *
#                   http://madgraph.hep.uiuc.edu                     *
#                                                                    *
#                          proc_card.dat                             *
#*********************************************************************
#                                                                    *
#            This Files is generated by MADGRAPH 5                   *
#                                                                    *
# WARNING: This Files is generated for MADEVENT (compatibility issue)*
#          This files is NOT a valid MG4 proc_card.dat               *
#          Running this in MG4 will NEVER reproduce the result of MG5*
#                                                                    *
#*********************************************************************
#*********************************************************************
# Process(es) requested : mg2 input                                  *
#*********************************************************************
# Begin PROCESS # This is TAG. Do not modify this line
p p > zph , zph > j j           #Process
# Be carefull the coupling are here in MG5 convention
          
end_coup           # End the couplings input

done               # this tells MG there are no more procs
# End PROCESS  # This is TAG. Do not modify this line
#*********************************************************************
# Model information                                                  *
#*********************************************************************
# Begin MODEL  # This is TAG. Do not modify this line
Zprime_UFO
# End   MODEL  # This is TAG. Do not modify this line
#*********************************************************************
# Start multiparticle definitions                                    *
#*********************************************************************
# Begin MULTIPARTICLES # This is TAG. Do not modify this line

# End  MULTIPARTICLES # This is TAG. Do not modify this line
</MGProcCard>
<MGRunCard>
#*********************************************************************
#                       MadGraph5_aMC@NLO                            *
#                                                                    *
#                     run_card.dat MadEvent                          *
#                                                                    *
#  This file is used to set the parameters of the run.               *
#                                                                    *
#  Some notation/conventions:                                        *
#                                                                    *
#   Lines starting with a '# ' are info or comments                  *
#                                                                    *
#   mind the format:   value    = variable     ! comment             *
#*********************************************************************
#
#*******************                                                 
# Running parameters
#*******************                                                 
#                                                                    
#*********************************************************************
# Tag name for the run (one word)                                    *
#*********************************************************************
  tag_1     = run_tag ! name of the run 
#*********************************************************************
# Run to generate the grid pack                                      *
#*********************************************************************
  .false.     = gridpack  !True = setting up the grid pack
#*********************************************************************
# Number of events and rnd seed                                      *
# Warning: Do not generate more than 1M events in a single run       *
# If you want to run Pythia, avoid more than 50k events in a run.    *
#*********************************************************************
  2000 = nevents ! Number of unweighted events requested 
 1146 = iseed   ! rnd seed (0=assigned automatically=default))
#*********************************************************************
# Collider type and energy                                           *
# lpp: 0=No PDF, 1=proton, -1=antiproton, 2=photon from proton,      *
#                                         3=photon from electron     *
#*********************************************************************
        1     = lpp1    ! beam 1 type 
        1     = lpp2    ! beam 2 type
     4000     = ebeam1  ! beam 1 total energy in GeV
     4000     = ebeam2  ! beam 2 total energy in GeV
#*********************************************************************
# Beam polarization from -100 (left-handed) to 100 (right-handed)    *
#*********************************************************************
        0     = polbeam1 ! beam polarization for beam 1
        0     = polbeam2 ! beam polarization for beam 2
#*********************************************************************
# PDF CHOICE: this automatically fixes also alpha_s and its evol.    *
#*********************************************************************
 'nn23lo1'    = pdlabel     ! PDF set                                     
 230000    = lhaid     ! if pdlabel=lhapdf, this is the lhapdf number
#*********************************************************************
# Renormalization and factorization scales                           *
#*********************************************************************
 F        = fixed_ren_scale  ! if .true. use fixed ren scale
 F        = fixed_fac_scale  ! if .true. use fixed fac scale
 91.1880  = scale            ! fixed ren scale
 91.1880  = dsqrt_q2fact1    ! fixed fact scale for pdf1
 91.1880  = dsqrt_q2fact2    ! fixed fact scale for pdf2
 1        = scalefact        ! scale factor for event-by-event scales
#*********************************************************************
# Matching - Warning! ickkw > 1 is still beta
#*********************************************************************
 0        = ickkw            ! 0 no matching, 1 MLM, 2 CKKW matching
 1        = highestmult      ! for ickkw=2, highest mult group
 1        = ktscheme         ! for ickkw=1, 1 Durham kT, 2 Pythia pTE
 1        = alpsfact         ! scale factor for QCD emission vx
 F        = chcluster        ! cluster only according to channel diag
 T        = pdfwgt           ! for ickkw=1, perform pdf reweighting
 5        = asrwgtflavor     ! highest quark flavor for a_s reweight
 T        = clusinfo         ! include clustering tag in output
 3.0      = lhe_version       ! Change the way clustering information pass to shower.        
#*********************************************************************
#**********************************************************
#
#**********************************************************
# Automatic ptj and mjj cuts if xqcut > 0
# (turn off for VBF and single top processes)
#**********************************************************
   T  = auto_ptj_mjj  ! Automatic setting of ptj and mjj
#**********************************************************
#                                                                    
#**********************************
# BW cutoff (M+/-bwcutoff*Gamma)
#**********************************
  15  = bwcutoff      ! (M+/-bwcutoff*Gamma)
#**********************************************************
# Apply pt/E/eta/dr/mij cuts on decay products or not
# (note that etmiss/ptll/ptheavy/ht/sorted cuts always apply)
#**********************************************************
   T  = cut_decays    ! Cut decay products 
#*************************************************************
# Number of helicities to sum per event (0 = all helicities)
# 0 gives more stable result, but longer run time (needed for
# long decay chains e.g.).
# Use >=2 if most helicities contribute, e.g. pure QCD.
#*************************************************************
   0  = nhel          ! Number of helicities used per event
#*******************                                                 
# Standard Cuts
#*******************                                                 
#                                                                    
#*********************************************************************
# Minimum and maximum pt's (for max, -1 means no cut)                *
#*********************************************************************
 20  = ptj       ! minimum pt for the jets 
  0  = ptb       ! minimum pt for the b 
 10  = pta       ! minimum pt for the photons 
 10  = ptl       ! minimum pt for the charged leptons 
  0  = misset    ! minimum missing Et (sum of neutrino's momenta)
  0  = ptheavy   ! minimum pt for one heavy final state
 1.0 = ptonium   ! minimum pt for the quarkonium states
 -1  = ptjmax    ! maximum pt for the jets
 -1  = ptbmax    ! maximum pt for the b
 -1  = ptamax    ! maximum pt for the photons
 -1  = ptlmax    ! maximum pt for the charged leptons
 -1  = missetmax ! maximum missing Et (sum of neutrino's momenta)
#*********************************************************************
# Minimum and maximum E's (in the center of mass frame)              *
#*********************************************************************
  0  = ej     ! minimum E for the jets 
  0  = eb     ! minimum E for the b 
  0  = ea     ! minimum E for the photons 
  0  = el     ! minimum E for the charged leptons 
 -1   = ejmax ! maximum E for the jets
 -1   = ebmax ! maximum E for the b
 -1   = eamax ! maximum E for the photons
 -1   = elmax ! maximum E for the charged leptons
#*********************************************************************
# Maximum and minimum absolute rapidity (for max, -1 means no cut)   *
#*********************************************************************
   5  = etaj    ! max rap for the jets 
  -1  = etab    ! max rap for the b
 2.5  = etaa    ! max rap for the photons 
 2.5  = etal    ! max rap for the charged leptons 
 0.6  = etaonium ! max rap for the quarkonium states
   0  = etajmin ! min rap for the jets
   0  = etabmin ! min rap for the b
   0  = etaamin ! min rap for the photons
   0  = etalmin ! main rap for the charged leptons
#*********************************************************************
# Minimum and maximum DeltaR distance                                *
#*********************************************************************
 0.4 = drjj    ! min distance between jets 
 0   = drbb    ! min distance between b's 
 0.4 = drll    ! min distance between leptons 
 0.4 = draa    ! min distance between gammas 
 0   = drbj    ! min distance between b and jet 
 0.4 = draj    ! min distance between gamma and jet 
 0.4 = drjl    ! min distance between jet and lepton 
 0   = drab    ! min distance between gamma and b 
 0   = drbl    ! min distance between b and lepton 
 0.4 = dral    ! min distance between gamma and lepton 
 -1  = drjjmax ! max distance between jets
 -1  = drbbmax ! max distance between b's
 -1  = drllmax ! max distance between leptons
 -1  = draamax ! max distance between gammas
 -1  = drbjmax ! max distance between b and jet
 -1  = drajmax ! max distance between gamma and jet
 -1  = drjlmax ! max distance between jet and lepton
 -1  = drabmax ! max distance between gamma and b
 -1  = drblmax ! max distance between b and lepton
 -1  = dralmax ! maxdistance between gamma and lepton
#*********************************************************************
# Minimum and maximum invariant mass for pairs                       *
# WARNING: for four lepton final state mmll cut require to have      *
#          different lepton masses for each flavor!                  *           
#*********************************************************************
 0   = mmjj    ! min invariant mass of a jet pair 
 0   = mmbb    ! min invariant mass of a b pair 
 0   = mmaa    ! min invariant mass of gamma gamma pair
 0   = mmll    ! min invariant mass of l+l- (same flavour) lepton pair
 -1  = mmjjmax ! max invariant mass of a jet pair
 -1  = mmbbmax ! max invariant mass of a b pair
 -1  = mmaamax ! max invariant mass of gamma gamma pair
 -1  = mmllmax ! max invariant mass of l+l- (same flavour) lepton pair
#*********************************************************************
# Minimum and maximum invariant mass for all letpons                 *
#*********************************************************************
 0   = mmnl    ! min invariant mass for all letpons (l+- and vl) 
 -1  = mmnlmax ! max invariant mass for all letpons (l+- and vl) 
#*********************************************************************
# Minimum and maximum pt for 4-momenta sum of leptons                *
#*********************************************************************
 0   = ptllmin  ! Minimum pt for 4-momenta sum of leptons(l and vl)
 -1  = ptllmax  ! Maximum pt for 4-momenta sum of leptons(l and vl)
#*********************************************************************
# Inclusive cuts                                                     *
#*********************************************************************
 0  = xptj ! minimum pt for at least one jet  
 0  = xptb ! minimum pt for at least one b 
 0  = xpta ! minimum pt for at least one photon 
 0  = xptl ! minimum pt for at least one charged lepton 
#*********************************************************************
# Control the pt's of the jets sorted by pt                          *
#*********************************************************************
 0   = ptj1min ! minimum pt for the leading jet in pt
 0   = ptj2min ! minimum pt for the second jet in pt
 0   = ptj3min ! minimum pt for the third jet in pt
 0   = ptj4min ! minimum pt for the fourth jet in pt
 -1  = ptj1max ! maximum pt for the leading jet in pt 
 -1  = ptj2max ! maximum pt for the second jet in pt
 -1  = ptj3max ! maximum pt for the third jet in pt
 -1  = ptj4max ! maximum pt for the fourth jet in pt
 0   = cutuse  ! reject event if fails any (0) / all (1) jet pt cuts
#*********************************************************************
# Control the pt's of leptons sorted by pt                           *
#*********************************************************************
 0   = ptl1min ! minimum pt for the leading lepton in pt
 0   = ptl2min ! minimum pt for the second lepton in pt
 0   = ptl3min ! minimum pt for the third lepton in pt
 0   = ptl4min ! minimum pt for the fourth lepton in pt
 -1  = ptl1max ! maximum pt for the leading lepton in pt 
 -1  = ptl2max ! maximum pt for the second lepton in pt
 -1  = ptl3max ! maximum pt for the third lepton in pt
 -1  = ptl4max ! maximum pt for the fourth lepton in pt
#*********************************************************************
# Control the Ht(k)=Sum of k leading jets                            *
#*********************************************************************
 0   = htjmin ! minimum jet HT=Sum(jet pt)
 -1  = htjmax ! maximum jet HT=Sum(jet pt)
 0   = ihtmin  !inclusive Ht for all partons (including b)
 -1  = ihtmax  !inclusive Ht for all partons (including b)
 0   = ht2min ! minimum Ht for the two leading jets
 0   = ht3min ! minimum Ht for the three leading jets
 0   = ht4min ! minimum Ht for the four leading jets
 -1  = ht2max ! maximum Ht for the two leading jets
 -1  = ht3max ! maximum Ht for the three leading jets
 -1  = ht4max ! maximum Ht for the four leading jets
#***********************************************************************
# Photon-isolation cuts, according to hep-ph/9801442                   *
# When ptgmin=0, all the other parameters are ignored                  *
# When ptgmin>0, pta and draj are not going to be used                 *
#***********************************************************************
   0 = ptgmin ! Min photon transverse momentum
 0.4 = R0gamma ! Radius of isolation code
 1.0 = xn ! n parameter of eq.(3.4) in hep-ph/9801442
 1.0 = epsgamma ! epsilon_gamma parameter of eq.(3.4) in hep-ph/9801442
 .true. = isoEM ! isolate photons from EM energy (photons and leptons)
#*********************************************************************
# WBF cuts                                                           *
#*********************************************************************
 0   = xetamin ! minimum rapidity for two jets in the WBF case  
 0   = deltaeta ! minimum rapidity for two jets in the WBF case 
#*********************************************************************
# KT DURHAM CUT                                                      *
#*********************************************************************
 -1    =  ktdurham        
 0.4  =  dparameter 
#*********************************************************************
# maximal pdg code for quark to be considered as a light jet         *
# (otherwise b cuts are applied)                                     *
#*********************************************************************
 4 = maxjetflavor    ! Maximum jet pdg code
#*********************************************************************
# Jet measure cuts                                                   *
#*********************************************************************
 0   = xqcut   ! minimum kt jet measure between partons
#*********************************************************************
#
#*********************************************************************
# Store info for systematics studies                                 *
# WARNING: If use_syst is T, matched Pythia output is                *
#          meaningful ONLY if plotted taking matchscale              *
#          reweighting into account!                                 *
#*********************************************************************
   F  = use_syst      ! Enable systematics studies
#
#**************************************
# Parameter of the systematics study
#  will be used by SysCalc (if installed)
#**************************************                                  
#
0.5 1 2 = sys_scalefact  # factorization/renormalization scale factor
0.5 1 2 = sys_alpsfact  # \alpha_s emission scale factors
30 50 = sys_matchscale # variation of merging scale
# PDF sets and number of members (0 or none for all members).
CT10nlo.LHgrid = sys_pdf # matching scales
# MSTW2008nlo68cl.LHgrid 1  = sys_pdf
</MGRunCard>
<slha>
######################################################################
## PARAM_CARD AUTOMATICALY GENERATED BY MG5 FOLLOWING UFO MODEL   ####
######################################################################
##                                                                  ##
##  Width set on Auto will be computed following the information    ##
##        present in the decay.py files of the model.               ##
##        See  arXiv:1402.1178 for more details.                    ##
##                                                                  ##
######################################################################

###################################
## INFORMATION FOR CKMBLOCK
###################################
Block ckmblock 
    1 2.277360e-01 # cabi 

###################################
## INFORMATION FOR FRBLOCK
###################################
Block frblock 
    1 6.000000e-01 # gz 

###################################
## INFORMATION FOR MASS
###################################
Block mass 
    1 5.040000e-03 # MD 
    2 2.550000e-03 # MU 
    3 1.010000e-01 # MS 
    4 1.270000e+00 # MC 
    5 4.700000e+00 # MB 
    6 1.720000e+02 # MT 
   11 5.110000e-04 # Me 
   13 1.056600e-01 # MM 
   15 1.777000e+00 # MTA 
   23 9.118760e+01 # MZ 
   25 1.200000e+02 # MH 
  10030 5.000000e+02 # MZph 
  10031 3.000000e+02 # MZpl 
## Dependent parameters, given by model restrictions.
## Those values should be edited following the 
## analytical expression. MG5 ignores those values 
## but they are important for interfacing the output of MG5
## to external program such as Pythia.
  12 0.000000 # ve : 0.0 
  14 0.000000 # vm : 0.0 
  16 0.000000 # vt : 0.0 
  21 0.000000 # g : 0.0 
  22 0.000000 # a : 0.0 
  24 79.824360 # w+ : cmath.sqrt(MZ__exp__2/2. + cmath.sqrt(MZ__exp__4/4. - (aEW*cmath.pi*MZ__exp__2)/(Gf*sqrt__2))) 

###################################
## INFORMATION FOR SMINPUTS
###################################
Block sminputs 
    1 1.279000e+02 # aEWM1 
    2 1.166370e-05 # Gf 
    3 1.184000e-01 # aS 

###################################
## INFORMATION FOR YUKAWA
###################################
Block yukawa 
    1 5.040000e-03 # ymdo 
    2 2.550000e-03 # ymup 
    3 1.010000e-01 # yms 
    4 1.270000e+00 # ymc 
    5 4.700000e+00 # ymb 
    6 1.720000e+02 # ymt 
   11 5.110000e-04 # yme 
   13 1.056600e-01 # ymm 
   15 1.777000e+00 # ymtau 

###################################
## INFORMATION FOR DECAY
###################################
DECAY   6 1.508336e+00 # WT 
DECAY  23 2.495200e+00 # WZ 
DECAY  24 2.085000e+00 # WW 
DECAY  25 5.753088e-03 # WH 
## Dependent parameters, given by model restrictions.
## Those values should be edited following the 
## analytical expression. MG5 ignores those values 
## but they are important for interfacing the output of MG5
## to external program such as Pythia.
DECAY  1 0.000000 # d : 0.0 
DECAY  2 0.000000 # u : 0.0 
DECAY  3 0.000000 # s : 0.0 
DECAY  4 0.000000 # c : 0.0 
DECAY  5 0.000000 # b : 0.0 
DECAY  11 0.000000 # e- : 0.0 
DECAY  12 0.000000 # ve : 0.0 
DECAY  13 0.000000 # mu- : 0.0 
DECAY  14 0.000000 # vm : 0.0 
DECAY  15 0.000000 # ta- : 0.0 
DECAY  16 0.000000 # vt : 0.0 
DECAY  21 0.000000 # g : 0.0 
DECAY  22 0.000000 # a : 0.0 
DECAY  10030 0.308725 # zph : (gz__exp__2*MZph*(5 + cmath.sqrt(1 - (4*MT__exp__2)/MZph__exp__2)))/(144.*cmath.pi) 
DECAY  10031 0.132629 # zpl : (5*gz__exp__2*MZpl)/(144.*cmath.pi) 
#===========================================================
# QUANTUM NUMBERS OF NEW STATE(S) (NON SM PDG CODE)
#===========================================================

Block QNUMBERS 10030  # zph 
        1 0  # 3 times electric charge
        2 3  # number of spin states (2S+1)
        3 1  # colour rep (1: singlet, 3: triplet, 8: octet)
        4 0  # Particle/Antiparticle distinction (0=own anti)
Block QNUMBERS 10031  # zpl 
        1 0  # 3 times electric charge
        2 3  # number of spin states (2S+1)
        3 1  # colour rep (1: singlet, 3: triplet, 8: octet)
        4 0  # Particle/Antiparticle distinction (0=own anti)
</slha>
## END BANNER##
<MGGenerationInfo>
#  Number of Events        :         4209
#  Integrated weight (pb)  :  0.14444E+02
#  Max wgt                 :  0.46316E-02
#  Average wgt             :  0.34317E-02
</MGGenerationInfo>
</header>
<init>
     2212     2212  0.40000000000E+04  0.40000000000E+04 0 0  247000  247000 2   1
  0.14427152546E+02  0.26952525914E-01  0.46316190000E-02   0
</init>
<event>
 5   0  0.4451135E-02  0.5004677E+03  0.7818609E-02  0.1013657E+00
       -2   -1    0    0    0  501  0.00000000000E+00  0.00000000000E+00  0.58404610343E+02  0.58404610399E+02  0.25500000920E-02 0. -1.
        2   -1    0    0  501    0  0.00000000000E+00  0.00000000000E+00 -0.10721237676E+04  0.10721237676E+04  0.25500000920E-02 0.  1.
    10030    2    1    2    0    0  0.00000000000E+00  0.00000000000E+00 -0.10137191573E+04  0.11305283780E+04  0.50046766498E+03 0.  0.
        1    1    3    3  502    0  0.12669681741E+03 -0.70358674999E+02 -0.46043083672E+02  0.15206048885E+03  0.50400001928E-02 0. -1.
       -1    1    3    3    0  502 -0.12669681741E+03  0.70358674999E+02 -0.96767607362E+03  0.97846788919E+03  0.50400001928E-02 0.  1.
</event>
<event>
 5   0  0.1805500E-02  0.5017565E+03  0.7818609E-02  0.1013321E+00
        3   -1    0    0  501    0  0.00000000000E+00  0.00000000000E+00  0.81804139514E+02  0.81804201864E+02  0.10100000352E+00 0. -1.
       -3   -1    0    0    0  501  0.00000000000E+00  0.00000000000E+00 -0.76939712034E+03  0.76939712697E+03  0.10100000352E+00 0.  1.
    10030    2    1    2    0    0  0.00000000000E+00  0.00000000000E+00 -0.68759298082E+03  0.85120132883E+03  0.50175650960E+03 0.  0.
        1    1    3    3  502    0  0.22929527360E+03  0.92777209519E+02 -0.27270832937E+03  0.36817627033E+03  0.50400001928E-02 0.  1.
       -1    1    3    3    0  502 -0.22929527360E+03 -0.92777209519E+02 -0.41488465145E+03  0.48302505850E+03  0.50400001928E-02 0. -1.
</event>
<event>
 5   0  0.4451135E-02  0.5021890E+03  0.7818609E-02  0.1013209E+00
        2   -1    0    0  501    0  0.00000000000E+00  0.00000000000E+00  0.95311266787E+03  0.95311266787E+03  0.25500000920E-02 0.  1.
       -2   -1    0    0    0  501  0.00000000000E+00  0.00000000000E+00 -0.66150056803E+02  0.66150056853E+02  0.25500000920E-02 0. -1.
    10030    2    1    2    0    0  0.00000000000E+00  0.00000000000E+00  0.88696261106E+03  0.10192627247E+04  0.50218903670E+03 0.  0.
        1    1    3    3  502    0 -0.22197273266E+03 -0.33916902737E+02  0.67154458418E+03  0.70809206951E+03  0.50400001928E-02 0.  1.
       -1    1    3    3    0  502  0.22197273266E+03  0.33916902737E+02  0.21541802688E+03  0.31117065521E+03  0.50400001928E-02 0. -1.
</event>
<event>
 5   0  0.4409622E-02  0.5042459E+03  0.7818609E-02  0.1012677E+00
        2   -1    0    0  501    0  0.00000000000E+00  0.00000000000E+00  0.25617681607E+03  0.25617681608E+03  0.25500000920E-02 0. -1.
       -2   -1    0    0    0  501  0.00000000000E+00  0.00000000000E+00 -0.24813327764E+03  0.24813327765E+03  0.25500000920E-02 0.  1.
    10030    2    1    2    0    0  0.00000000000E+00  0.00000000000E+00  0.80435384264E+01  0.50431009373E+03  0.50424594409E+03 0.  0.
        3    1    3    3  502    0  0.19679951615E+03 -0.14819861486E+03  0.57629929979E+02  0.25301007497E+03  0.10100000352E+00 0. -1.
       -3    1    3    3    0  502 -0.19679951615E+03  0.14819861486E+03 -0.49586391552E+02  0.25130001877E+03  0.10100000352E+00 0.  1.
</event>
<event>
 5   0  0.4451135E-02  0.4984672E+03  0.7818609E-02  0.1014180E+00
        2   -1    0    0  501    0  0.00000000000E+00  0.00000000000E+00  0.31045064581E+03  0.31045064583E+03  0.25500000920E-02 0. -1.
       -2   -1    0    0    0  501  0.00000000000E+00  0.00000000000E+00 -0.20008777724E+03  0.20008777726E+03  0.25500000920E-02 0.  1.
    10030    2    1    2    0    0  0.00000000000E+00  0.00000000000E+00  0.11036286857E+03  0.51053842309E+03  0.49846716912E+03 0.  0.
        1    1    3    3  502    0 -0.67913739095E+02 -0.19045522313E+03  0.20442184056E+03  0.28753044517E+03  0.50400001928E-02 0. -1.
       -1    1    3    3    0  502  0.67913739095E+02  0.19045522313E+03 -0.94058971995E+02  0.22300797791E+03  0.50400001928E-02 0.  1.
</event>
<event>
 5   0  0.4409622E-02  0.4958975E+03  0.7818609E-02  0.1014855E+00
        2   -1    0    0  501    0  0.00000000000E+00  0.00000000000E+00  0.19460916019E+04  0.19460916019E+04  0.25500000920E-02 0. -1.
       -2   -1    0    0    0  501  0.00000000000E+00  0.00000000000E+00 -0.31590800734E+02  0.31590800837E+02  0.25500000920E-02 0.  1.
    10030    2    1    2    0    0  0.00000000000E+00  0.00000000000E+00  0.19145008011E+04  0.19776824027E+04  0.49589753824E+03 0.  0.
        3    1    3    3  502    0  0.92575201418E+02  0.22990447382E+03  0.98610467190E+03  0.10167736568E+04  0.10100000352E+00 0.  1.
       -3    1    3    3    0  502 -0.92575201418E+02 -0.22990447382E+03  0.92839612922E+03  0.96090874590E+03  0.10100000352E+00 0. -1.
</event>
<event>
 5   0  0.2643185E-02  0.4997487E+03  0.7818609E-02  0.1013845E+00
       -1   -1    0    0    0  501  0.00000000000E+00  0.00000000000E+00  0.31440050682E+03  0.31440050686E+03  0.50400001928E-02 0. -1.
        1   -1    0    0  501    0  0.00000000000E+00  0.00000000000E+00 -0.19859122187E+03  0.19859122193E+03  0.50400001928E-02 0.  1.
    10030    2    1    2    0    0  0.00000000000E+00  0.00000000000E+00  0.11580928495E+03  0.51299172879E+03  0.49974866015E+03 0.  0.
        1    1    3    3  502    0 -0.92948874966E+02  0.13747031043E+03  0.24966947104E+03  0.29978729860E+03  0.50400001928E-02 0. -1.
       -1    1    3    3    0  502  0.92948874966E+02 -0.13747031043E+03 -0.13386018609E+03  0.21320443019E+03  0.50400001928E-02 0.  1.
</event>
<event>
 5   0  0.2779445E-02  0.5147959E+03  0.7818609E-02  0.1009988E+00
        1   -1    0    0  501    0  0.00000000000E+00  0.00000000000E+00  0.81114403197E+03  0.81114403198E+03  0.50400001928E-02 0.  1.
       -1   -1    0    0    0  501  0.00000000000E+00  0.00000000000E+00 -0.81679324483E+02  0.81679324638E+02  0.50400001928E-02 0. -1.
    10030    2    1    2    0    0  0.00000000000E+00  0.00000000000E+00  0.72946470748E+03  0.89282335662E+03  0.51479586893E+03 0.  0.
        3    1    3    3  502    0  0.17754923188E+03 -0.15358818242E+03  0.18167578999E+03  0.29684871971E+03  0.10100000352E+00 0. -1.
       -3    1    3    3    0  502 -0.17754923188E+03  0.15358818242E+03  0.54778891749E+03  0.59597463691E+03  0.10100000352E+00 0.  1.
</event>
<event>
 5   0  0.4451135E-02  0.5037629E+03  0.7818609E-02  0.1012801E+00
        2   -1    0    0  501    0  0.00000000000E+00  0.00000000000E+00  0.64944824520E+03  0.64944824521E+03  0.25500000920E-02 0. -1.
       -2   -1    0    0    0  501  0.00000000000E+00  0.00000000000E+00 -0.97689470448E+02  0.97689470481E+02  0.25500000920E-02 0.  1.
    10030    2    1    2    0    0  0.00000000000E+00  0.00000000000E+00  0.55175877475E+03  0.74713771569E+03  0.50376286156E+03 0.  0.
        1    1    3    3  502    0  0.10190415630E+03  0.74379575924E+02  0.59921004984E+03  0.61234750121E+03  0.50400001928E-02 0. -1.
       -1    1    3    3    0  502 -0.10190415630E+03 -0.74379575924E+02 -0.47451275087E+02  0.13479021448E+03  0.50400001928E-02 0.  1.
</event>
<event>
 5   0  0.1805500E-02  0.5006925E+03  0.7818609E-02  0.1013598E+00
        4   -1    0    0  501    0  0.00000000000E+00  0.00000000000E+00  0.10609433186E+04  0.10609440787E+04  0.12699999809E+01 0. -1.
       -4   -1    0    0    0  501  0.00000000000E+00  0.00000000000E+00 -0.59065521322E+02  0.59079173226E+02  0.12699999809E+01 0.  1.
    10030    2    1    2    0    0  0.00000000000E+00  0.00000000000E+00  0.10018777972E+04  0.11200232519E+04  0.50069248469E+03 0.  0.
        3    1    3    3  502    0 -0.10254259862E+03  0.10940551731E+03  0.52495296678E+02  0.15887201807E+03  0.10100000352E+00 0.  1.
       -3    1    3    3    0  502  0.10254259862E+03 -0.10940551731E+03  0.94938250057E+03  0.96115123385E+03  0.10100000352E+00 0. -1.
</event>
<event>
 5   0  0.4451135E-02  0.4998223E+03  0.7818609E-02  0.1013825E+00
        2   -1    0    0  501    0  0.00000000000E+00  0.00000000000E+00  0.38127183275E+03  0.38127183276E+03  0.25500000920E-02 0.  1.
       -2   -1    0    0    0  501  0.00000000000E+00  0.00000000000E+00 -0.16380857295E+03  0.16380857297E+03  0.25500000920E-02 0. -1.
    10030    2    1    2    0    0  0.00000000000E+00  0.00000000000E+00  0.21746325980E+03  0.54508040573E+03  0.49982234779E+03 0.  0.
        1    1    3    3  502    0  0.11502797755E+03 -0.58868271322E+02  0.34201386728E+03  0.36560962026E+03  0.50400001928E-02 0.  1.
       -1    1    3    3    0  502 -0.11502797755E+03  0.58868271322E+02 -0.12455060749E+03  0.17947078547E+03  0.50400001928E-02 0. -1.
</event>
<event>
 5   0  0.1805500E-02  0.5003434E+03  0.7818609E-02  0.1013689E+00
        4   -1    0    0  501    0  0.00000000000E+00  0.00000000000E+00  0.94568293138E+02  0.94576820453E+02  0.12699999809E+01 0.  1.
       -4   -1    0    0    0  501  0.00000000000E+00  0.00000000000E+00 -0.66176711785E+03  0.66176833648E+03  0.12699999809E+01 0. -1.
    10030    2    1    2    0    0  0.00000000000E+00  0.00000000000E+00 -0.56719882471E+03  0.75634515693E+03  0.50034337176E+03 0.  0.
        4    1    3    3  502    0  0.15729580380E+03  0.90084475693E+02 -0.54423155987E+03  0.57362599863E+03  0.12699999809E+01 0. -1.
       -4    1    3    3    0  502 -0.15729580380E+03 -0.90084475693E+02 -0.22967264843E+02  0.18271915830E+03  0.12699999809E+01 0.  1.
</event>
<event>
 5   0  0.4631619E-02  0.4983825E+03  0.7818609E-02  0.1014202E+00
        2   -1    0    0  501    0  0.00000000000E+00  0.00000000000E+00  0.65456440377E+03  0.65456440378E+03  0.25500000920E-02 0.  1.
       -2   -1    0    0    0  501  0.00000000000E+00  0.00000000000E+00 -0.94866582656E+02  0.94866582690E+02  0.25500000920E-02 0. -1.
    10030    2    1    2    0    0  0.00000000000E+00  0.00000000000E+00  0.55969782112E+03  0.74943098647E+03  0.49838253633E+03 0.  0.
        5    1    3    3  502    0 -0.13620524059E+03  0.15151449062E+03  0.49549444496E+03  0.53576612754E+03  0.46999998093E+01 0. -1.
       -5    1    3    3    0  502  0.13620524059E+03 -0.15151449062E+03  0.64203376155E+02  0.21366485893E+03  0.46999998093E+01 0.  1.
</event>
<event>
 5   0  0.2715483E-02  0.5059212E+03  0.7818609E-02  0.1012245E+00
        1   -1    0    0  501    0  0.00000000000E+00  0.00000000000E+00  0.76546770196E+03  0.76546770198E+03  0.50400001928E-02 0.  1.
       -1   -1    0    0    0  501  0.00000000000E+00  0.00000000000E+00 -0.83594715287E+02  0.83594715439E+02  0.50400001928E-02 0. -1.
    10030    2    1    2    0    0  0.00000000000E+00  0.00000000000E+00  0.68187298667E+03  0.84906241741E+03  0.50592115859E+03 0.  0.
        5    1    3    3  502    0 -0.51075770571E+02 -0.24501155177E+03  0.40208494481E+03  0.47363887898E+03  0.46999998093E+01 0.  1.
       -5    1    3    3    0  502  0.51075770571E+02  0.24501155177E+03  0.27978804186E+03  0.37542353843E+03  0.46999998093E+01 0. -1.
</event>
<event>
 5   0  0.1805500E-02  0.4998512E+03  0.7818609E-02  0.1013818E+00
       -3   -1    0    0    0  501  0.00000000000E+00  0.00000000000E+00  0.51576298392E+03  0.51576299381E+03  0.10100000352E+00 0.  1.
        3   -1    0    0  501    0  0.00000000000E+00  0.00000000000E+00 -0.12110755350E+03  0.12110759561E+03  0.10100000352E+00 0. -1.
    10030    2    1    2    0    0  0.00000000000E+00  0.00000000000E+00  0.39465543042E+03  0.63687058942E+03  0.49985121677E+03 0.  0.
        2    1    3    3  502    0 -0.11954119479E+03 -0.21545004321E+03  0.25068874027E+03  0.35150200977E+03  0.25500000920E-02 0.  1.
       -2    1    3    3    0  502  0.11954119479E+03  0.21545004321E+03  0.14396669015E+03  0.28536857965E+03  0.25500000920E-02 0. -1.
</event>
<event>
 5   0  0.1805500E-02  0.5000344E+03  0.7818609E-02  0.1013770E+00
       -3   -1    0    0    0  501  0.00000000000E+00  0.00000000000E+00  0.25310981703E+03  0.25310983718E+03  0.10100000352E+00 0. -1.
        3   -1    0    0  501    0  0.00000000000E+00  0.00000000000E+00 -0.24696233826E+03  0.24696235891E+03  0.10100000352E+00 0.  1.
    10030    2    1    2    0    0  0.00000000000E+00  0.00000000000E+00  0.61474787707E+01  0.50007219610E+03  0.50003440863E+03 0.  0.
        3    1    3    3  502    0 -0.91456280873E+02 -0.12937501365E+03 -0.19034833947E+03  0.24765832513E+03  0.10100000352E+00 0.  1.
       -3    1    3    3    0  502  0.91456280873E+02  0.12937501365E+03  0.19649581824E+03  0.25241387096E+03  0.10100000352E+00 0. -1.
</event>
<event>
 5   0  0.2643185E-02  0.5093962E+03  0.7818609E-02  0.1011355E+00
        1   -1    0    0  501    0  0.00000000000E+00  0.00000000000E+00  0.12113860487E+03  0.12113860497E+03  0.50400001928E-02 0.  1.
       -1   -1    0    0    0  501  0.00000000000E+00  0.00000000000E+00 -0.53551148086E+03  0.53551148089E+03  0.50400001928E-02 0. -1.
    10030    2    1    2    0    0  0.00000000000E+00  0.00000000000E+00 -0.41437287600E+03  0.65665008586E+03  0.50939616694E+03 0.  0.
        1    1    3    3  502    0 -0.16271615238E+03 -0.96534875592E+02 -0.42699396759E+03  0.46703252225E+03  0.50400001928E-02 0. -1.
       -1    1    3    3    0  502  0.16271615238E+03  0.96534875592E+02  0.12621091591E+02  0.18961756361E+03  0.50400001928E-02 0.  1.
</event>
<event>
 5   0  0.2779445E-02  0.5003643E+03  0.7818609E-02  0.1013684E+00
        1   -1    0    0  501    0  0.00000000000E+00  0.00000000000E+00  0.68493754755E+03  0.68493754757E+03  0.50400001928E-02 0. -1.
       -1   -1    0    0    0  501  0.00000000000E+00  0.00000000000E+00 -0.91382220122E+02  0.91382220261E+02  0.50400001928E-02 0.  1.
    10030    2    1    2    0    0  0.00000000000E+00  0.00000000000E+00  0.59355532743E+03  0.77631976783E+03  0.50036432248E+03 0.  0.
        3    1    3    3  502    0 -0.21039474924E+03 -0.64754567144E+02  0.11233724039E+03  0.24714119498E+03  0.10100000352E+00 0.  1.
       -3    1    3    3    0  502  0.21039474924E+03  0.64754567144E+02  0.48121808704E+03  0.52917857286E+03  0.10100000352E+00 0. -1.
</event>
<event>
 5   0  0.2779445E-02  0.5000136E+03  0.7818609E-02  0.1013775E+00
       -1   -1    0    0    0  501  0.00000000000E+00  0.00000000000E+00  0.12016407304E+03  0.12016407315E+03  0.50400001928E-02 0. -1.
        1   -1    0    0  501    0  0.00000000000E+00  0.00000000000E+00 -0.52015040948E+03  0.52015040950E+03  0.50400001928E-02 0.  1.
    10030    2    1    2    0    0  0.00000000000E+00  0.00000000000E+00 -0.39998633643E+03  0.64031448265E+03  0.50001356718E+03 0.  0.
        3    1    3    3  502    0 -0.41470889917E+02 -0.50359014020E+02  0.10907212863E+03  0.12709289692E+03  0.10100000352E+00 0. -1.
       -3    1    3    3    0  502  0.41470889917E+02  0.50359014020E+02 -0.50905846506E+03  0.51322158573E+03  0.10100000352E+00 0.  1.
</event>
<event>
 5   0  0.4451135E-02  0.4966555E+03  0.7818609E-02  0.1014656E+00
       -2   -1    0    0    0  501  0.00000000000E+00  0.00000000000E+00  0.81251146426E+02  0.81251146466E+02  0.25500000920E-02 0. -1.
        2   -1    0    0  501    0  0.00000000000E+00  0.00000000000E+00 -0.75896367697E+03  0.75896367697E+03  0.25500000920E-02 0.  1.
    10030    2    1    2    0    0  0.00000000000E+00  0.00000000000E+00 -0.67771253054E+03  0.84021482344E+03  0.49665548972E+03 0.  0.
        1    1    3    3  502    0  0.21779274289E+03  0.11930135002E+03 -0.33814277719E+03  0.41953191626E+03  0.50400001928E-02 0. -1.
       -1    1    3    3    0  502 -0.21779274289E+03 -0.11930135002E+03 -0.33956975335E+03  0.42068290718E+03  0.50400001928E-02 0.  1.
</event>
<event>
 5   0  0.2723308E-02  0.4994646E+03  0.7818609E-02  0.1013919E+00
        1   -1    0    0  501    0  0.00000000000E+00  0.00000000000E+00  0.40181762555E+03  0.40181762558E+03  0.50400001928E-02 0.  1.
       -1   -1    0    0    0  501  0.00000000000E+00  0.00000000000E+00 -0.15521029256E+03  0.15521029264E+03  0.50400001928E-02 0. -1.
    10030    2    1    2    0    0  0.00000000000E+00  0.00000000000E+00  0.24660733298E+03  0.55702791822E+03  0.49946463839E+03 0.  0.
        4    1    3    3  502    0  0.84587846152E+02 -0.23495838618E+03  0.12105334793E+03  0.27751769835E+03  0.12699999809E+01 0.  1.
       -4    1    3    3    0  502 -0.84587846152E+02  0.23495838618E+03  0.12555398505E+03  0.27951021987E+03  0.12699999809E+01 0. -1.
</event>
<event>
 5   0  0.2643185E-02  0.5002173E+03  0.7818609E-02  0.1013722E+00
        1   -1    0    0  501    0  0.00000000000E+00  0.00000000000E+00  0.75096427220E+03  0.75096427221E+03  0.50400001928E-02 0. -1.
       -1   -1    0    0    0  501  0.00000000000E+00  0.00000000000E+00 -0.83298682999E+02  0.83298683152E+02  0.50400001928E-02 0.  1.
    10030    2    1    2    0    0  0.00000000000E+00  0.00000000000E+00  0.66766558920E+03  0.83426295537E+03  0.50021729248E+03 0.  0.
        1    1    3    3  502    0 -0.59972193911E+02 -0.21936036184E+03  0.50746604952E+03  0.55609120100E+03  0.50400001928E-02 0. -1.
       -1    1    3    3    0  502  0.59972193911E+02  0.21936036184E+03  0.16019953967E+03  0.27817175436E+03  0.50400001928E-02 0.  1.
</event>
<event>
 5   0  0.4534223E-02  0.5004238E+03  0.7818609E-02  0.1013668E+00
        2   -1    0    0  501    0  0.00000000000E+00  0.00000000000E+00  0.68186936455E+03  0.68186936456E+03  0.25500000920E-02 0.  1.
       -2   -1    0    0    0  501  0.00000000000E+00  0.00000000000E+00 -0.91815238004E+02  0.91815238040E+02  0.25500000920E-02 0. -1.
    10030    2    1    2    0    0  0.00000000000E+00  0.00000000000E+00  0.59005412655E+03  0.77368460260E+03  0.50042381242E+03 0.  0.
        2    1    3    3  502    0 -0.24233624000E+03  0.10570736951E+02  0.38992288737E+03  0.45921503873E+03  0.25500000920E-02 0.  1.
       -2    1    3    3    0  502  0.24233624000E+03 -0.10570736951E+02  0.20013123918E+03  0.31446956387E+03  0.25500000920E-02 0. -1.
</event>
<event>
 5   0  0.2779445E-02  0.5027917E+03  0.7818609E-02  0.1013053E+00
        1   -1    0    0  501    0  0.00000000000E+00  0.00000000000E+00  0.59659812773E+03  0.59659812775E+03  0.50400001928E-02 0.  1.
       -1   -1    0    0    0  501  0.00000000000E+00  0.00000000000E+00 -0.10593373232E+03  0.10593373244E+03  0.50400001928E-02 0. -1.
    10030    2    1    2    0    0  0.00000000000E+00  0.00000000000E+00  0.49066439542E+03  0.70253186019E+03  0.50279167222E+03 0.  0.
        3    1    3    3  502    0  0.14577429692E+03  0.15495221194E+03  0.58184973785E+02  0.22055800825E+03  0.10100000352E+00 0. -1.
       -3    1    3    3    0  502 -0.14577429692E+03 -0.15495221194E+03  0.43247942163E+03  0.48197385195E+03  0.10100000352E+00 0.  1.
</event>
<event>
 5   0  0.1805500E-02  0.5004579E+03  0.7818609E-02  0.1013659E+00
        3   -1    0    0  501    0  0.00000000000E+00  0.00000000000E+00  0.22863817273E+03  0.22863819504E+03  0.10100000352E+00 0.  1.
       -3   -1    0    0    0  501  0.00000000000E+00  0.00000000000E+00 -0.27385859667E+03  0.27385861529E+03  0.10100000352E+00 0. -1.
    10030    2    1    2    0    0  0.00000000000E+00  0.00000000000E+00 -0.45220423942E+02  0.50249681033E+03  0.50045794794E+03 0.  0.
        2    1    3    3  502    0 -0.87018002597E+02  0.14535484019E+01  0.21295225309E+03  0.23004979392E+03  0.25500000920E-02 0.  1.
       -2    1    3    3    0  502  0.87018002597E+02 -0.14535484019E+01 -0.25817267703E+03  0.27244701641E+03  0.25500000920E-02 0. -1.
</event>
<event>
 5   0  0.4409622E-02  0.5011731E+03  0.7818609E-02  0.1013473E+00
        2   -1    0    0  501    0  0.00000000000E+00  0.00000000000E+00  0.40629121684E+03  0.40629121685E+03  0.25500000920E-02 0. -1.
       -2   -1    0    0    0  501  0.00000000000E+00  0.00000000000E+00 -0.15455324595E+03  0.15455324597E+03  0.25500000920E-02 0.  1.
    10030    2    1    2    0    0  0.00000000000E+00  0.00000000000E+00  0.25173797089E+03  0.56084446283E+03  0.50117312926E+03 0.  0.
        3    1    3    3  502    0  0.14635720139E+03 -0.10535792309E+02 -0.10144740862E+03  0.17839007886E+03  0.10100000352E+00 0.  1.
       -3    1    3    3    0  502 -0.14635720139E+03  0.10535792309E+02  0.35318537951E+03  0.38245438397E+03  0.10100000352E+00 0. -1.
</event>
<event>
 5   0  0.2723308E-02  0.5006585E+03  0.7818609E-02  0.1013607E+00
        1   -1    0    0  501    0  0.00000000000E+00  0.00000000000E+00  0.12959991957E+04  0.12959991957E+04  0.50400001928E-02 0.  1.
       -1   -1    0    0    0  501  0.00000000000E+00  0.00000000000E+00 -0.48352456550E+02  0.48352456813E+02  0.50400001928E-02 0. -1.
    10030    2    1    2    0    0  0.00000000000E+00  0.00000000000E+00  0.12476467391E+04  0.13443516525E+04  0.50065854624E+03 0.  0.
        4    1    3    3  502    0  0.20852298321E+03  0.11458601057E+03  0.41494322333E+03  0.47832131442E+03  0.12699999809E+01 0. -1.
       -4    1    3    3    0  502 -0.20852298321E+03 -0.11458601057E+03  0.83270351580E+03  0.86603033808E+03  0.12699999809E+01 0.  1.
</event>
<event>
 5   0  0.4534223E-02  0.5036526E+03  0.7818609E-02  0.1012830E+00
        2   -1    0    0  501    0  0.00000000000E+00  0.00000000000E+00  0.99619639713E+03  0.99619639714E+03  0.25500000920E-02 0. -1.
       -2   -1    0    0    0  501  0.00000000000E+00  0.00000000000E+00 -0.63658610719E+02  0.63658610770E+02  0.25500000920E-02 0.  1.
    10030    2    1    2    0    0  0.00000000000E+00  0.00000000000E+00  0.93253778642E+03  0.10598550079E+04  0.50365257340E+03 0.  0.
        2    1    3    3  502    0 -0.37624433424E+02 -0.19463062139E+03  0.13945367814E+03  0.24237162607E+03  0.25500000920E-02 0.  1.
       -2    1    3    3    0  502  0.37624433424E+02  0.19463062139E+03  0.79308410828E+03  0.81748338184E+03  0.25500000920E-02 0. -1.
</event>
<event>
 5   0  0.2719671E-02  0.5004086E+03  0.7818609E-02  0.1013672E+00
        1   -1    0    0  501    0  0.00000000000E+00  0.00000000000E+00  0.30657068320E+03  0.30657068324E+03  0.50400001928E-02 0.  1.
       -1   -1    0    0    0  501  0.00000000000E+00  0.00000000000E+00 -0.20420148445E+03  0.20420148451E+03  0.50400001928E-02 0. -1.
    10030    2    1    2    0    0  0.00000000000E+00  0.00000000000E+00  0.10236919875E+03  0.51077216775E+03  0.50040858755E+03 0.  0.
        2    1    3    3  502    0  0.18851938998E+03  0.15172230045E+03  0.11608581394E+03  0.26839361590E+03  0.25500000920E-02 0.  1.
       -2    1    3    3    0  502 -0.18851938998E+03 -0.15172230045E+03 -0.13716615189E+02  0.24237855184E+03  0.25500000920E-02 0. -1.
</event>
<event>
 5   0  0.4409622E-02  0.4962156E+03  0.7818609E-02  0.1014771E+00
       -2   -1    0    0    0  501  0.00000000000E+00  0.00000000000E+00  0.27964111105E+03  0.27964111106E+03  0.25500000920E-02 0.  1.
        2   -1    0    0  501    0  0.00000000000E+00  0.00000000000E+00 -0.22013029488E+03  0.22013029490E+03  0.25500000920E-02 0. -1.
    10030    2    1    2    0    0  0.00000000000E+00  0.00000000000E+00  0.59510816166E+02  0.49977140595E+03  0.49621559928E+03 0.  0.
        3    1    3    3  502    0  0.10241823347E+03  0.19683463790E+01 -0.19783755890E+03  0.22278482634E+03  0.10100000352E+00 0. -1.
       -3    1    3    3    0  502 -0.10241823347E+03 -0.19683463790E+01  0.25734837507E+03  0.27698657961E+03  0.10100000352E+00 0.  1.
</event>
<event>
 5   0  0.4631619E-02  0.5027088E+03  0.7818609E-02  0.1013074E+00
        2   -1    0    0  501    0  0.00000000000E+00  0.00000000000E+00  0.16670054392E+04  0.16670054392E+04  0.25500000920E-02 0. -1.
       -2   -1    0    0    0  501  0.00000000000E+00  0.00000000000E+00 -0.37899717179E+02  0.37899717265E+02  0.25500000920E-02 0.  1.
    10030    2    1    2    0    0  0.00000000000E+00  0.00000000000E+00  0.16291057220E+04  0.17049051564E+04  0.50270880142E+03 0.  0.
        5    1    3    3  502    0 -0.12817655377E+03 -0.21613923905E+03  0.80302937755E+03  0.84144142446E+03  0.46999998093E+01 0. -1.
       -5    1    3    3    0  502  0.12817655377E+03  0.21613923905E+03  0.82607634445E+03  0.86346373198E+03  0.46999998093E+01 0.  1.
</event>
<event>
 5   0  0.2719671E-02  0.4994593E+03  0.7818609E-02  0.1013920E+00
        1   -1    0    0  501    0  0.00000000000E+00  0.00000000000E+00  0.36620991155E+03  0.36620991158E+03  0.50400001928E-02 0. -1.
       -1   -1    0    0    0  501  0.00000000000E+00  0.00000000000E+00 -0.17029823595E+03  0.17029823602E+03  0.50400001928E-02 0.  1.
    10030    2    1    2    0    0  0.00000000000E+00  0.00000000000E+00  0.19591167560E+03  0.53650814760E+03  0.49945931547E+03 0.  0.
        2    1    3    3  502    0  0.23820442964E+03  0.64919966602E+02  0.57635521506E+02  0.25353068002E+03  0.25500000920E-02 0.  1.
       -2    1    3    3    0  502 -0.23820442964E+03 -0.64919966602E+02  0.13827615409E+03  0.28297746759E+03  0.25500000920E-02 0. -1.
</event>
<event>
 5   0  0.4409622E-02  0.4980194E+03  0.7818609E-02  0.1014297E+00
        2   -1    0    0  501    0  0.00000000000E+00  0.00000000000E+00  0.79110322342E+03  0.79110322343E+03  0.25500000920E-02 0.  1.
       -2   -1    0    0    0  501  0.00000000000E+00  0.00000000000E+00 -0.78378928249E+02  0.78378928291E+02  0.25500000920E-02 0. -1.
    10030    2    1    2    0    0  0.00000000000E+00  0.00000000000E+00  0.71272429517E+03  0.86948215172E+03  0.49801936832E+03 0.  0.
        3    1    3    3  502    0 -0.84190087551E+02  0.13529420667E+03  0.22294829539E+02  0.16090233940E+03  0.10100000352E+00 0. -1.
       -3    1    3    3    0  502  0.84190087551E+02 -0.13529420667E+03  0.69042946563E+03  0.70857981231E+03  0.10100000352E+00 0.  1.
</event>
<event>
 5   0  0.4451135E-02  0.4985489E+03  0.7818609E-02  0.1014158E+00
        2   -1    0    0  501    0  0.00000000000E+00  0.00000000000E+00  0.28617472717E+03  0.28617472718E+03  0.25500000920E-02 0.  1.
       -2   -1    0    0    0  501  0.00000000000E+00  0.00000000000E+00 -0.21713219646E+03  0.21713219647E+03  0.25500000920E-02 0. -1.
    10030    2    1    2    0    0  0.00000000000E+00  0.00000000000E+00  0.69042530709E+02  0.50330692365E+03  0.49854888260E+03 0.  0.
        1    1    3    3  502    0 -0.20046387930E+02 -0.14860474377E+03 -0.16650858590E+03  0.22407663141E+03  0.50400001928E-02 0. -1.
       -1    1    3    3    0  502  0.20046387930E+02  0.14860474377E+03  0.23555111661E+03  0.27923029224E+03  0.50400001928E-02 0.  1.
</event>
<event>
 5   0  0.2779445E-02  0.5018613E+03  0.7818609E-02  0.1013294E+00
       -1   -1    0    0    0  501  0.00000000000E+00  0.00000000000E+00  0.25619607673E+03  0.25619607678E+03  0.50400001928E-02 0. -1.
        1   -1    0    0  501    0  0.00000000000E+00  0.00000000000E+00 -0.24577339557E+03  0.24577339562E+03  0.50400001928E-02 0.  1.
    10030    2    1    2    0    0  0.00000000000E+00  0.00000000000E+00  0.10422681161E+02  0.50196947241E+03  0.50186125468E+03 0.  0.
        3    1    3    3  502    0  0.18651168341E+03 -0.16433236008E+03 -0.29066107777E+02  0.25027301381E+03  0.10100000352E+00 0. -1.
       -3    1    3    3    0  502 -0.18651168341E+03  0.16433236008E+03  0.39488788937E+02  0.25169645860E+03  0.10100000352E+00 0.  1.
</event>
<event>
 5   0  0.4409622E-02  0.5009181E+03  0.7818609E-02  0.1013540E+00
       -2   -1    0    0    0  501  0.00000000000E+00  0.00000000000E+00  0.27115210584E+03  0.27115210585E+03  0.25500000920E-02 0. -1.
        2   -1    0    0  501    0  0.00000000000E+00  0.00000000000E+00 -0.23134520276E+03  0.23134520278E+03  0.25500000920E-02 0.  1.
    10030    2    1    2    0    0  0.00000000000E+00  0.00000000000E+00  0.39806903079E+02  0.50249730863E+03  0.50091811272E+03 0.  0.
        3    1    3    3  502    0  0.16930703811E+03  0.60894369330E+02  0.19468456749E+03  0.26509448955E+03  0.10100000352E+00 0. -1.
       -3    1    3    3    0  502 -0.16930703811E+03 -0.60894369330E+02 -0.15487766442E+03  0.23740281908E+03  0.10100000352E+00 0.  1.
</event>
<event>
 5   0  0.2723308E-02  0.5018430E+03  0.7818609E-02  0.1013299E+00
       -1   -1    0    0    0  501  0.00000000000E+00  0.00000000000E+00  0.98292668026E+02  0.98292668155E+02  0.50400001928E-02 0. -1.
        1   -1    0    0  501    0  0.00000000000E+00  0.00000000000E+00 -0.64055246036E+03  0.64055246038E+03  0.50400001928E-02 0.  1.
    10030    2    1    2    0    0  0.00000000000E+00  0.00000000000E+00 -0.54225979234E+03  0.73884512854E+03  0.50184304477E+03 0.  0.
        4    1    3    3  502    0  0.17977335714E+03 -0.13084423174E+03 -0.99933300678E+02  0.24377643529E+03  0.12699999809E+01 0. -1.
       -4    1    3    3    0  502 -0.17977335714E+03  0.13084423174E+03 -0.44232649166E+03  0.49506869325E+03  0.12699999809E+01 0.  1.
</event>
<event>
 5   0  0.2723308E-02  0.4999352E+03  0.7818609E-02  0.1013796E+00
        1   -1    0    0  501    0  0.00000000000E+00  0.00000000000E+00  0.45482769443E+03  0.45482769446E+03  0.50400001928E-02 0.  1.
       -1   -1    0    0    0  501  0.00000000000E+00  0.00000000000E+00 -0.13737908492E+03  0.13737908501E+03  0.50400001928E-02 0. -1.
    10030    2    1    2    0    0  0.00000000000E+00  0.00000000000E+00  0.31744860951E+03  0.59220677947E+03  0.49993524577E+03 0.  0.
        4    1    3    3  502    0 -0.19582806306E+03  0.46193060139E+02 -0.16974454298E+02  0.20192120762E+03  0.12699999809E+01 0. -1.
       -4    1    3    3    0  502  0.19582806306E+03 -0.46193060139E+02  0.33442306381E+03  0.39028557185E+03  0.12699999809E+01 0.  1.
</event>
<event>
 5   0  0.2779445E-02  0.4999789E+03  0.7818609E-02  0.1013784E+00
        1   -1    0    0  501    0  0.00000000000E+00  0.00000000000E+00  0.98838103145E+03  0.98838103147E+03  0.50400001928E-02 0.  1.
       -1   -1    0    0    0  501  0.00000000000E+00  0.00000000000E+00 -0.63229377282E+02  0.63229377483E+02  0.50400001928E-02 0. -1.
    10030    2    1    2    0    0  0.00000000000E+00  0.00000000000E+00  0.92515165417E+03  0.10516104089E+04  0.49997886855E+03 0.  0.
        3    1    3    3  502    0 -0.22696089932E+03 -0.74653430661E+02  0.30786710307E+03  0.38970058748E+03  0.10100000352E+00 0. -1.
       -3    1    3    3    0  502  0.22696089932E+03  0.74653430661E+02  0.61728455110E+03  0.66190982147E+03  0.10100000352E+00 0.  1.
</event>
<event>
 5   0  0.4519539E-02  0.4999327E+03  0.7818609E-02  0.1013796E+00
        2   -1    0    0  501    0  0.00000000000E+00  0.00000000000E+00  0.10514133703E+04  0.10514133703E+04  0.25500000920E-02 0.  1.
       -2   -1    0    0    0  501  0.00000000000E+00  0.00000000000E+00 -0.59427801853E+02  0.59427801908E+02  0.25500000920E-02 0. -1.
    10030    2    1    2    0    0  0.00000000000E+00  0.00000000000E+00  0.99198556840E+03  0.11108411722E+04  0.49993273734E+03 0.  0.
        4    1    3    3  502    0  0.75169541913E+02  0.21826163131E+03  0.70903632895E+03  0.74566931572E+03  0.12699999809E+01 0.  1.
       -4    1    3    3    0  502 -0.75169541913E+02 -0.21826163131E+03  0.28294923944E+03  0.36517185644E+03  0.12699999809E+01 0. -1.
</event>
<event>
 5   0  0.4519539E-02  0.4985638E+03  0.7818609E-02  0.1014154E+00
       -2   -1    0    0    0  501  0.00000000000E+00  0.00000000000E+00  0.18856522824E+03  0.18856522826E+03  0.25500000920E-02 0.  1.
        2   -1    0    0  501    0  0.00000000000E+00  0.00000000000E+00 -0.32954891563E+03  0.32954891564E+03  0.25500000920E-02 0. -1.
    10030    2    1    2    0    0  0.00000000000E+00  0.00000000000E+00 -0.14098368738E+03  0.51811414389E+03  0.49856380333E+03 0.  0.
        4    1    3    3  502    0 -0.16249926236E+03 -0.14575650123E+03  0.54598042194E+02  0.22501894816E+03  0.12699999809E+01 0.  1.
       -4    1    3    3    0  502  0.16249926236E+03  0.14575650123E+03 -0.19558172958E+03  0.29309519574E+03  0.12699999809E+01 0. -1.
</event>
<event>
 5   0  0.1805500E-02  0.5018744E+03  0.7818609E-02  0.1013291E+00
       -4   -1    0    0    0  501  0.00000000000E+00  0.00000000000E+00  0.41371450881E+03  0.41371645810E+03  0.12699999809E+01 0. -1.
        4   -1    0    0  501    0  0.00000000000E+00  0.00000000000E+00 -0.15220018349E+03  0.15220548201E+03  0.12699999809E+01 0.  1.
    10030    2    1    2    0    0  0.00000000000E+00  0.00000000000E+00  0.26151432532E+03  0.56592194011E+03  0.50187438663E+03 0.  0.
        1    1    3    3  502    0 -0.23421186243E+03 -0.75029209802E+02  0.74546899296E+02  0.25698602889E+03  0.50400001928E-02 0.  1.
       -1    1    3    3    0  502  0.23421186243E+03  0.75029209802E+02  0.18696742602E+03  0.30893591122E+03  0.50400001928E-02 0. -1.
</event>
<event>
 5   0  0.2779445E-02  0.5004248E+03  0.7818609E-02  0.1013668E+00
        1   -1    0    0  501    0  0.00000000000E+00  0.00000000000E+00  0.91854435065E+03  0.91854435066E+03  0.50400001928E-02 0. -1.
       -1   -1    0    0    0  501  0.00000000000E+00  0.00000000000E+00 -0.68158112802E+02  0.68158112989E+02  0.50400001928E-02 0.  1.
    10030    2    1    2    0    0  0.00000000000E+00  0.00000000000E+00  0.85038623784E+03  0.98670246365E+03  0.50042481779E+03 0.  0.
        3    1    3    3  502    0  0.34473187528E+02  0.64606845507E+01  0.91367337101E+03  0.91434631306E+03  0.10100000352E+00 0. -1.
       -3    1    3    3    0  502 -0.34473187528E+02 -0.64606845507E+01 -0.63287133167E+02  0.72356150593E+02  0.10100000352E+00 0.  1.
</event>
<event>
 5   0  0.2715483E-02  0.5028446E+03  0.7818609E-02  0.1013039E+00
       -1   -1    0    0    0  501  0.00000000000E+00  0.00000000000E+00  0.81460881932E+02  0.81460882088E+02  0.50400001928E-02 0.  1.
        1   -1    0    0  501    0  0.00000000000E+00  0.00000000000E+00 -0.77599435593E+03  0.77599435594E+03  0.50400001928E-02 0. -1.
    10030    2    1    2    0    0  0.00000000000E+00  0.00000000000E+00 -0.69453347400E+03  0.85745523803E+03  0.50284464671E+03 0.  0.
        5    1    3    3  502    0 -0.12712456366E+03 -0.50965633124E+02 -0.70670985470E+03  0.71987433568E+03  0.46999998093E+01 0. -1.
       -5    1    3    3    0  502  0.12712456366E+03  0.50965633124E+02  0.12176380704E+02  0.13758090235E+03  0.46999998093E+01 0.  1.
</event>
<event>
 5   0  0.4534223E-02  0.5002157E+03  0.7818609E-02  0.1013723E+00
        2   -1    0    0  501    0  0.00000000000E+00  0.00000000000E+00  0.18150352349E+04  0.18150352349E+04  0.25500000920E-02 0.  1.
       -2   -1    0    0    0  501  0.00000000000E+00  0.00000000000E+00 -0.34464315568E+02  0.34464315662E+02  0.25500000920E-02 0. -1.
    10030    2    1    2    0    0  0.00000000000E+00  0.00000000000E+00  0.17805709193E+04  0.18494995506E+04  0.50021574222E+03 0.  0.
        2    1    3    3  502    0  0.63262753565E+02  0.24010329159E+03  0.77922905543E+03  0.81783231011E+03  0.25500000920E-02 0. -1.
       -2    1    3    3    0  502 -0.63262753565E+02 -0.24010329159E+03  0.10013418639E+04  0.10316672405E+04  0.25500000920E-02 0.  1.
</event>
<event>
 5   0  0.4409622E-02  0.5027208E+03  0.7818609E-02  0.1013071E+00
        2   -1    0    0  501    0  0.00000000000E+00  0.00000000000E+00  0.54648074923E+03  0.54648074923E+03  0.25500000920E-02 0.  1.
       -2   -1    0    0    0  501  0.00000000000E+00  0.00000000000E+00 -0.11561622176E+03  0.11561622179E+03  0.25500000920E-02 0. -1.
    10030    2    1    2    0    0  0.00000000000E+00  0.00000000000E+00  0.43086452747E+03  0.66209697102E+03  0.50272075550E+03 0.  0.
        3    1    3    3  502    0 -0.20324275686E+03 -0.74399241942E+02  0.38378093751E+03  0.44060263687E+03  0.10100000352E+00 0.  1.
       -3    1    3    3    0  502  0.20324275686E+03  0.74399241942E+02  0.47083589954E+02  0.22149433415E+03  0.10100000352E+00 0. -1.
</event>
<event>
 5   0  0.4451135E-02  0.5100354E+03  0.7818609E-02  0.1011192E+00
        2   -1    0    0  501    0  0.00000000000E+00  0.00000000000E+00  0.48720644587E+03  0.48720644588E+03  0.25500000920E-02 0.  1.
       -2   -1    0    0    0  501  0.00000000000E+00  0.00000000000E+00 -0.13348351484E+03  0.13348351486E+03  0.25500000920E-02 0. -1.
    10030    2    1    2    0    0  0.00000000000E+00  0.00000000000E+00  0.35372293103E+03  0.62068996074E+03  0.51003540605E+03 0.  0.
        1    1    3    3  502    0 -0.16659944223E+03  0.15002668305E+03  0.28959418281E+02  0.22605757609E+03  0.50400001928E-02 0. -1.
       -1    1    3    3    0  502  0.16659944223E+03 -0.15002668305E+03  0.32476351275E+03  0.39463238465E+03  0.50400001928E-02 0.  1.
</event>
<event>
 5   0  0.4534223E-02  0.5088329E+03  0.7818609E-02  0.1011499E+00
       -2   -1    0    0    0  501  0.00000000000E+00  0.00000000000E+00  0.16005853605E+03  0.16005853607E+03  0.25500000920E-02 0.  1.
        2   -1    0    0  501    0  0.00000000000E+00  0.00000000000E+00 -0.40440037424E+03  0.40440037424E+03  0.25500000920E-02 0. -1.
    10030    2    1    2    0    0  0.00000000000E+00  0.00000000000E+00 -0.24434183819E+03  0.56445891031E+03  0.50883290729E+03 0.  0.
        2    1    3    3  502    0 -0.21711832386E+03  0.75569453861E+02 -0.12772307951E+01  0.22989723843E+03  0.25500000920E-02 0.  1.
       -2    1    3    3    0  502  0.21711832386E+03 -0.75569453861E+02 -0.24306460739E+03  0.33456167188E+03  0.25500000920E-02 0. -1.
</event>
<event>
 5   0  0.4409622E-02  0.4989502E+03  0.7818609E-02  0.1014053E+00
       -2   -1    0    0    0  501  0.00000000000E+00  0.00000000000E+00  0.60802787897E+02  0.60802787951E+02  0.25500000920E-02 0.  1.
        2   -1    0    0  501    0  0.00000000000E+00  0.00000000000E+00 -0.10236014586E+04  0.10236014586E+04  0.25500000920E-02 0. -1.
    10030    2    1    2    0    0  0.00000000000E+00  0.00000000000E+00 -0.96279867073E+03  0.10844042466E+04  0.49895018754E+03 0.  0.
        3    1    3    3  502    0 -0.28329837453E+02 -0.67657875680E+02  0.36837705499E+02  0.82080415320E+02  0.10100000352E+00 0.  1.
       -3    1    3    3    0  502  0.28329837453E+02  0.67657875680E+02 -0.99963637623E+03  0.10023238313E+04  0.10100000352E+00 0. -1.
</event>
<event>
 5   0  0.2779445E-02  0.4971740E+03  0.7818609E-02  0.1014519E+00
        1   -1    0    0  501    0  0.00000000000E+00  0.00000000000E+00  0.18518646027E+03  0.18518646034E+03  0.50400001928E-02 0.  1.
       -1   -1    0    0    0  501  0.00000000000E+00  0.00000000000E+00 -0.33369336354E+03  0.33369336358E+03  0.50400001928E-02 0. -1.
    10030    2    1    2    0    0  0.00000000000E+00  0.00000000000E+00 -0.14850690327E+03  0.51887982392E+03  0.49717398499E+03 0.  0.
        3    1    3    3  502    0  0.69641676952E+02 -0.67289578402E+02 -0.31319797857E+03  0.32782744624E+03  0.10100000352E+00 0. -1.
       -3    1    3    3    0  502 -0.69641676952E+02  0.67289578402E+02  0.16469107530E+03  0.19105237767E+03  0.10100000352E+00 0.  1.
</event>
<event>
 5   0  0.4631619E-02  0.5064965E+03  0.7818609E-02  0.1012097E+00
        2   -1    0    0  501    0  0.00000000000E+00  0.00000000000E+00  0.64924016988E+03  0.64924016989E+03  0.25500000920E-02 0.  1.
       -2   -1    0    0    0  501  0.00000000000E+00  0.00000000000E+00 -0.98784202334E+02  0.98784202367E+02  0.25500000920E-02 0. -1.
    10030    2    1    2    0    0  0.00000000000E+00  0.00000000000E+00  0.55045596755E+03  0.74802437225E+03  0.50649648496E+03 0.  0.
        5    1    3    3  502    0  0.14929332386E+03  0.16909051934E+03  0.10534105344E+03  0.24899583896E+03  0.46999998093E+01 0. -1.
       -5    1    3    3    0  502 -0.14929332386E+03 -0.16909051934E+03  0.44511491411E+03  0.49902853330E+03  0.46999998093E+01 0.  1.
</event>
<event>
 5   0  0.2715483E-02  0.4976641E+03  0.7818609E-02  0.1014390E+00
       -1   -1    0    0    0  501  0.00000000000E+00  0.00000000000E+00  0.32512435591E+03  0.32512435595E+03  0.50400001928E-02 0.  1.
        1   -1    0    0  501    0  0.00000000000E+00  0.00000000000E+00 -0.19044220986E+03  0.19044220992E+03  0.50400001928E-02 0. -1.
    10030    2    1    2    0    0  0.00000000000E+00  0.00000000000E+00  0.13468214606E+03  0.51556656588E+03  0.49766414718E+03 0.  0.
        5    1    3    3  502    0  0.19065227788E+03 -0.32019022314E+02 -0.94886466827E+02  0.21540436494E+03  0.46999998093E+01 0. -1.
       -5    1    3    3    0  502 -0.19065227788E+03  0.32019022314E+02  0.22956861288E+03  0.30016220094E+03  0.46999998093E+01 0.  1.
</event>
<event>
 5   0  0.2779445E-02  0.5094548E+03  0.7818609E-02  0.1011340E+00
       -1   -1    0    0    0  501  0.00000000000E+00  0.00000000000E+00  0.68843615199E+02  0.68843615384E+02  0.50400001928E-02 0.  1.
        1   -1    0    0  501    0  0.00000000000E+00  0.00000000000E+00 -0.94251370198E+03  0.94251370200E+03  0.50400001928E-02 0. -1.
    10030    2    1    2    0    0  0.00000000000E+00  0.00000000000E+00 -0.87367008679E+03  0.10113573174E+04  0.50945480946E+03 0.  0.
        3    1    3    3  502    0 -0.43350161051E+02 -0.89265295003E+02 -0.90256298365E+03  0.90800191575E+03  0.10100000352E+00 0. -1.
       -3    1    3    3    0  502  0.43350161051E+02  0.89265295003E+02  0.28892896866E+02  0.10335540163E+03  0.10100000352E+00 0.  1.
</event>
<event>
 5   0  0.1805500E-02  0.4998767E+03  0.7818609E-02  0.1013811E+00
        3   -1    0    0  501    0  0.00000000000E+00  0.00000000000E+00  0.25102768448E+03  0.25102770479E+03  0.10100000352E+00 0.  1.
       -3   -1    0    0    0  501  0.00000000000E+00  0.00000000000E+00 -0.24885372652E+03  0.24885374702E+03  0.10100000352E+00 0. -1.
    10030    2    1    2    0    0  0.00000000000E+00  0.00000000000E+00  0.21739579522E+01  0.49988145181E+03  0.49987672458E+03 0.  0.
        3    1    3    3  502    0  0.12229395145E+03  0.10771107245E+03  0.19059256802E+03  0.25076487567E+03  0.10100000352E+00 0.  1.
       -3    1    3    3    0  502 -0.12229395145E+03 -0.10771107245E+03 -0.18841861006E+03  0.24911657614E+03  0.10100000352E+00 0. -1.
</event>
<event>
 5   0  0.4409622E-02  0.4996077E+03  0.7818609E-02  0.1013881E+00
        2   -1    0    0  501    0  0.00000000000E+00  0.00000000000E+00  0.52861318734E+03  0.52861318734E+03  0.25500000920E-02 0.  1.
       -2   -1    0    0    0  501  0.00000000000E+00  0.00000000000E+00 -0.11804843222E+03  0.11804843224E+03  0.25500000920E-02 0. -1.
    10030    2    1    2    0    0  0.00000000000E+00  0.00000000000E+00  0.41056475512E+03  0.64666161959E+03  0.49960767818E+03 0.  0.
        3    1    3    3  502    0 -0.22373415459E+03 -0.10631857303E+03  0.24705037131E+03  0.34984926335E+03  0.10100000352E+00 0.  1.
       -3    1    3    3    0  502  0.22373415459E+03  0.10631857303E+03  0.16351438380E+03  0.29681235623E+03  0.10100000352E+00 0. -1.
</event>
<event>
 5   0  0.2643185E-02  0.4988503E+03  0.7818609E-02  0.1014079E+00
       -1   -1    0    0    0  501  0.00000000000E+00  0.00000000000E+00  0.25522870271E+03  0.25522870276E+03  0.50400001928E-02 0. -1.
        1   -1    0    0  501    0  0.00000000000E+00  0.00000000000E+00 -0.24375351584E+03  0.24375351589E+03  0.50400001928E-02 0.  1.
    10030    2    1    2    0    0  0.00000000000E+00  0.00000000000E+00  0.11475186872E+02  0.49898221865E+03  0.49885025269E+03 0.  0.
        1    1    3    3  502    0  0.95113417856E+02  0.11925607998E+03  0.20313294840E+03  0.25403064701E+03  0.50400001928E-02 0. -1.
       -1    1    3    3    0  502 -0.95113417856E+02 -0.11925607998E+03 -0.19165776153E+03  0.24495157164E+03  0.50400001928E-02 0.  1.
</event>
<event>
 5   0  0.2779445E-02  0.4995004E+03  0.7818609E-02  0.1013909E+00
       -1   -1    0    0    0  501  0.00000000000E+00  0.00000000000E+00  0.36480464379E+03  0.36480464382E+03  0.50400001928E-02 0.  1.
        1   -1    0    0  501    0  0.00000000000E+00  0.00000000000E+00 -0.17098240355E+03  0.17098240362E+03  0.50400001928E-02 0. -1.
    10030    2    1    2    0    0  0.00000000000E+00  0.00000000000E+00  0.19382224024E+03  0.53578704744E+03  0.49950044984E+03 0.  0.
        3    1    3    3  502    0  0.27132439640E+02 -0.55873277599E+02 -0.16256535661E+03  0.17402729039E+03  0.10100000352E+00 0. -1.
       -3    1    3    3    0  502 -0.27132439640E+02  0.55873277599E+02  0.35638759685E+03  0.36175975705E+03  0.10100000352E+00 0.  1.
</event>
<event>
 5   0  0.2719671E-02  0.5001712E+03  0.7818609E-02  0.1013734E+00
       -1   -1    0    0    0  501  0.00000000000E+00  0.00000000000E+00  0.16645047638E+03  0.16645047646E+03  0.50400001928E-02 0. -1.
        1   -1    0    0  501    0  0.00000000000E+00  0.00000000000E+00 -0.37574424836E+03  0.37574424839E+03  0.50400001928E-02 0.  1.
    10030    2    1    2    0    0  0.00000000000E+00  0.00000000000E+00 -0.20929377198E+03  0.54219472485E+03  0.50017120735E+03 0.  0.
        2    1    3    3  502    0 -0.13648232047E+03 -0.85981846149E+02  0.10251835695E+03  0.19112905375E+03  0.25500000920E-02 0. -1.
       -2    1    3    3    0  502  0.13648232047E+03  0.85981846149E+02 -0.31181212893E+03  0.35106567110E+03  0.25500000920E-02 0.  1.
</event>
<event>
 5   0  0.2715483E-02  0.4772451E+03  0.7818609E-02  0.1019895E+00
       -1   -1    0    0    0  501  0.00000000000E+00  0.00000000000E+00  0.51410797299E+03  0.51410797301E+03  0.50400001928E-02 0. -1.
        1   -1    0    0  501    0  0.00000000000E+00  0.00000000000E+00 -0.11075635892E+03  0.11075635904E+03  0.50400001928E-02 0.  1.
    10030    2    1    2    0    0  0.00000000000E+00  0.00000000000E+00  0.40335161406E+03  0.62486433205E+03  0.47724512454E+03 0.  0.
        5    1    3    3  502    0  0.13851053981E+03 -0.16465050099E+03  0.33662855352E+03  0.39954452838E+03  0.46999998093E+01 0. -1.
       -5    1    3    3    0  502 -0.13851053981E+03  0.16465050099E+03  0.66723060544E+02  0.22531980366E+03  0.46999998093E+01 0.  1.
</event>
<event>
 5   0  0.4519539E-02  0.5000438E+03  0.7818609E-02  0.1013767E+00
        2   -1    0    0  501    0  0.00000000000E+00  0.00000000000E+00  0.51519224071E+03  0.51519224072E+03  0.25500000920E-02 0.  1.
       -2   -1    0    0    0  501  0.00000000000E+00  0.00000000000E+00 -0.12133517896E+03  0.12133517898E+03  0.25500000920E-02 0. -1.
    10030    2    1    2    0    0  0.00000000000E+00  0.00000000000E+00  0.39385706176E+03  0.63652741970E+03  0.50004376902E+03 0.  0.
        4    1    3    3  502    0 -0.90586493182E+02  0.18094782338E+03  0.38384457922E+03  0.43391969468E+03  0.12699999809E+01 0.  1.
       -4    1    3    3    0  502  0.90586493182E+02 -0.18094782338E+03  0.10012482538E+02  0.20260772502E+03  0.12699999809E+01 0. -1.
</event>
<event>
 5   0  0.4451135E-02  0.4984795E+03  0.7818609E-02  0.1014177E+00
       -2   -1    0    0    0  501  0.00000000000E+00  0.00000000000E+00  0.64333964275E+02  0.64333964325E+02  0.25500000920E-02 0. -1.
        2   -1    0    0  501    0  0.00000000000E+00  0.00000000000E+00 -0.96559328562E+03  0.96559328563E+03  0.25500000920E-02 0.  1.
    10030    2    1    2    0    0  0.00000000000E+00  0.00000000000E+00 -0.90125932135E+03  0.10299272500E+04  0.49847946385E+03 0.  0.
        1    1    3    3  502    0 -0.22367736384E+03 -0.71192730775E+02 -0.27751152950E+03  0.36347299356E+03  0.50400001928E-02 0. -1.
       -1    1    3    3    0  502  0.22367736384E+03  0.71192730775E+02 -0.62374779184E+03  0.66645425640E+03  0.50400001928E-02 0.  1.
</event>
<event>
 5   0  0.2723308E-02  0.5049456E+03  0.7818609E-02  0.1012496E+00
       -1   -1    0    0    0  501  0.00000000000E+00  0.00000000000E+00  0.83246539852E+02  0.83246540005E+02  0.50400001928E-02 0.  1.
        1   -1    0    0  501    0  0.00000000000E+00  0.00000000000E+00 -0.76570775418E+03  0.76570775420E+03  0.50400001928E-02 0. -1.
    10030    2    1    2    0    0  0.00000000000E+00  0.00000000000E+00 -0.68246121433E+03  0.84895429420E+03  0.50494562537E+03 0.  0.
        4    1    3    3  502    0 -0.23095733601E+03  0.94242155575E+02 -0.27572471816E+03  0.37181797704E+03  0.12699999809E+01 0.  1.
       -4    1    3    3    0  502  0.23095733601E+03 -0.94242155575E+02 -0.40673649617E+03  0.47713631717E+03  0.12699999809E+01 0. -1.
</event>
<event>
 5   0  0.4534223E-02  0.5048152E+03  0.7818609E-02  0.1012530E+00
        2   -1    0    0  501    0  0.00000000000E+00  0.00000000000E+00  0.17848088109E+04  0.17848088109E+04  0.25500000920E-02 0.  1.
       -2   -1    0    0    0  501  0.00000000000E+00  0.00000000000E+00 -0.35695478508E+02  0.35695478599E+02  0.25500000920E-02 0. -1.
    10030    2    1    2    0    0  0.00000000000E+00  0.00000000000E+00  0.17491133324E+04  0.18205042895E+04  0.50481523208E+03 0.  0.
        2    1    3    3  502    0  0.20683670573E+03 -0.63919228416E+02  0.13425748369E+04  0.13599170134E+04  0.25500000920E-02 0.  1.
       -2    1    3    3    0  502 -0.20683670573E+03  0.63919228416E+02  0.40653849544E+03  0.46058727607E+03  0.25500000920E-02 0. -1.
</event>
<event>
 5   0  0.2779445E-02  0.4999428E+03  0.7818609E-02  0.1013794E+00
        1   -1    0    0  501    0  0.00000000000E+00  0.00000000000E+00  0.62418276317E+03  0.62418276319E+03  0.50400001928E-02 0.  1.
       -1   -1    0    0    0  501  0.00000000000E+00  0.00000000000E+00 -0.10010803058E+03  0.10010803071E+03  0.50400001928E-02 0. -1.
    10030    2    1    2    0    0  0.00000000000E+00  0.00000000000E+00  0.52407473259E+03  0.72429079389E+03  0.49994282551E+03 0.  0.
        3    1    3    3  502    0 -0.58755354478E+01  0.22048084992E+03  0.91605506401E+02  0.23882610012E+03  0.10100000352E+00 0.  1.
       -3    1    3    3    0  502  0.58755354478E+01 -0.22048084992E+03  0.43246922619E+03  0.48546469377E+03  0.10100000352E+00 0. -1.
</event>
<event>
 5   0  0.4534223E-02  0.5228320E+03  0.7818609E-02  0.1007985E+00
        2   -1    0    0  501    0  0.00000000000E+00  0.00000000000E+00  0.24587153373E+03  0.24587153374E+03  0.25500000920E-02 0.  1.
       -2   -1    0    0    0  501  0.00000000000E+00  0.00000000000E+00 -0.27794319858E+03  0.27794319860E+03  0.25500000920E-02 0. -1.
    10030    2    1    2    0    0  0.00000000000E+00  0.00000000000E+00 -0.32071664854E+02  0.52381473234E+03  0.52283198270E+03 0.  0.
        2    1    3    3  502    0  0.23194167582E+02 -0.46427697614E+02  0.24065821240E+03  0.24619073037E+03  0.25500000920E-02 0.  1.
       -2    1    3    3    0  502 -0.23194167582E+02  0.46427697614E+02 -0.27272987726E+03  0.27762400197E+03  0.25500000920E-02 0. -1.
</event>
<event>
 5   0  0.2719671E-02  0.5091384E+03  0.7818609E-02  0.1011421E+00
       -1   -1    0    0    0  501  0.00000000000E+00  0.00000000000E+00  0.49004810210E+03  0.49004810212E+03  0.50400001928E-02 0.  1.
        1   -1    0    0  501    0  0.00000000000E+00  0.00000000000E+00 -0.13224309524E+03  0.13224309534E+03  0.50400001928E-02 0. -1.
    10030    2    1    2    0    0  0.00000000000E+00  0.00000000000E+00  0.35780500686E+03  0.62229119746E+03  0.50913840113E+03 0.  0.
        2    1    3    3  502    0  0.18670258491E+03  0.15695830430E+03  0.26798145957E+03  0.36236421896E+03  0.25500000920E-02 0.  1.
       -2    1    3    3    0  502 -0.18670258491E+03 -0.15695830430E+03  0.89823547287E+02  0.25992697851E+03  0.25500000920E-02 0. -1.
</event>
<event>
 5   0  0.2719671E-02  0.4998183E+03  0.7818609E-02  0.1013826E+00
       -1   -1    0    0    0  501  0.00000000000E+00  0.00000000000E+00  0.93045541845E+02  0.93045541982E+02  0.50400001928E-02 0.  1.
        1   -1    0    0  501    0  0.00000000000E+00  0.00000000000E+00 -0.67122606515E+03  0.67122606517E+03  0.50400001928E-02 0. -1.
    10030    2    1    2    0    0  0.00000000000E+00  0.00000000000E+00 -0.57818052331E+03  0.76427160715E+03  0.49981833897E+03 0.  0.
        2    1    3    3  502    0  0.56712529934E+02  0.10639554439E+03 -0.62381368479E+03  0.63535803785E+03  0.25500000920E-02 0. -1.
       -2    1    3    3    0  502 -0.56712529934E+02 -0.10639554439E+03  0.45633161484E+02  0.12891356931E+03  0.25500000920E-02 0.  1.
</event>
<event>
 5   0  0.2719671E-02  0.5056108E+03  0.7818609E-02  0.1012325E+00
        1   -1    0    0  501    0  0.00000000000E+00  0.00000000000E+00  0.43721943761E+03  0.43721943764E+03  0.50400001928E-02 0.  1.
       -1   -1    0    0    0  501  0.00000000000E+00  0.00000000000E+00 -0.14617501755E+03  0.14617501764E+03  0.50400001928E-02 0. -1.
    10030    2    1    2    0    0  0.00000000000E+00  0.00000000000E+00  0.29104442006E+03  0.58339445528E+03  0.50561075542E+03 0.  0.
        2    1    3    3  502    0  0.39435554914E+02  0.20271331460E+03 -0.22727870915E+02  0.20776045589E+03  0.25500000920E-02 0. -1.
       -2    1    3    3    0  502 -0.39435554914E+02 -0.20271331460E+03  0.31377229097E+03  0.37563399939E+03  0.25500000920E-02 0.  1.
</event>
<event>
 5   0  0.4519539E-02  0.5009783E+03  0.7818609E-02  0.1013524E+00
       -2   -1    0    0    0  501  0.00000000000E+00  0.00000000000E+00  0.17176567292E+03  0.17176567294E+03  0.25500000920E-02 0.  1.
        2   -1    0    0  501    0  0.00000000000E+00  0.00000000000E+00 -0.36529306033E+03  0.36529306034E+03  0.25500000920E-02 0. -1.
    10030    2    1    2    0    0  0.00000000000E+00  0.00000000000E+00 -0.19352738741E+03  0.53705873327E+03  0.50097827628E+03 0.  0.
        4    1    3    3  502    0 -0.24899364174E+03  0.20453644586E+02 -0.11614948597E+03  0.27551497454E+03  0.12699999809E+01 0.  1.
       -4    1    3    3    0  502  0.24899364174E+03 -0.20453644586E+02 -0.77377901442E+02  0.26154375874E+03  0.12699999809E+01 0. -1.
</event>
<event>
 5   0  0.2715483E-02  0.4915692E+03  0.7818609E-02  0.1016003E+00
        1   -1    0    0  501    0  0.00000000000E+00  0.00000000000E+00  0.11844950635E+04  0.11844950635E+04  0.50400001928E-02 0. -1.
       -1   -1    0    0    0  501  0.00000000000E+00  0.00000000000E+00 -0.51000686175E+02  0.51000686424E+02  0.50400001928E-02 0.  1.
    10030    2    1    2    0    0  0.00000000000E+00  0.00000000000E+00  0.11334943773E+04  0.12354957499E+04  0.49156916571E+03 0.  0.
        5    1    3    3  502    0  0.73590626665E+01  0.22835730422E+03  0.33933561067E+03  0.40911118398E+03  0.46999998093E+01 0.  1.
       -5    1    3    3    0  502 -0.73590626665E+01 -0.22835730422E+03  0.79415876664E+03  0.82638456594E+03  0.46999998093E+01 0. -1.
</event>
<event>
 5   0  0.4631619E-02  0.4997627E+03  0.7818609E-02  0.1013841E+00
       -2   -1    0    0    0  501  0.00000000000E+00  0.00000000000E+00  0.42327709553E+02  0.42327709629E+02  0.25500000920E-02 0. -1.
        2   -1    0    0  501    0  0.00000000000E+00  0.00000000000E+00 -0.14751728439E+04  0.14751728439E+04  0.25500000920E-02 0.  1.
    10030    2    1    2    0    0  0.00000000000E+00  0.00000000000E+00 -0.14328451344E+04  0.15175005536E+04  0.49976269464E+03 0.  0.
        5    1    3    3  502    0 -0.16148110020E+03 -0.17757504089E+03 -0.92700277783E+03  0.95758304130E+03  0.46999998093E+01 0.  1.
       -5    1    3    3    0  502  0.16148110020E+03  0.17757504089E+03 -0.50584235654E+03  0.55991751226E+03  0.46999998093E+01 0. -1.
</event>
<event>
 5   0  0.4631619E-02  0.4990428E+03  0.7818609E-02  0.1014029E+00
       -2   -1    0    0    0  501  0.00000000000E+00  0.00000000000E+00  0.11486835601E+04  0.11486835601E+04  0.25500000920E-02 0. -1.
        2   -1    0    0  501    0  0.00000000000E+00  0.00000000000E+00 -0.54201995453E+02  0.54201995513E+02  0.25500000920E-02 0.  1.
    10030    2    1    2    0    0  0.00000000000E+00  0.00000000000E+00  0.10944815647E+04  0.12028855557E+04  0.49904284843E+03 0.  0.
        5    1    3    3  502    0 -0.19621362471E+03  0.12103664011E+02  0.91747287548E+03  0.93830957175E+03  0.46999998093E+01 0. -1.
       -5    1    3    3    0  502  0.19621362471E+03 -0.12103664011E+02  0.17700868921E+03  0.26457598390E+03  0.46999998093E+01 0.  1.
</event>
<event>
 5   0  0.4519539E-02  0.4969904E+03  0.7818609E-02  0.1014567E+00
        2   -1    0    0  501    0  0.00000000000E+00  0.00000000000E+00  0.14928221288E+04  0.14928221288E+04  0.25500000920E-02 0. -1.
       -2   -1    0    0    0  501  0.00000000000E+00  0.00000000000E+00 -0.41364511188E+02  0.41364511266E+02  0.25500000920E-02 0.  1.
    10030    2    1    2    0    0  0.00000000000E+00  0.00000000000E+00  0.14514576176E+04  0.15341866401E+04  0.49699037299E+03 0.  0.
        4    1    3    3  502    0  0.18920402427E+03 -0.16018920332E+03  0.67320510211E+03  0.71740188602E+03  0.12699999809E+01 0.  1.
       -4    1    3    3    0  502 -0.18920402427E+03  0.16018920332E+03  0.77825251551E+03  0.81678475406E+03  0.12699999809E+01 0. -1.
</event>
<event>
 5   0  0.2723308E-02  0.4993397E+03  0.7818609E-02  0.1013951E+00
       -1   -1    0    0    0  501  0.00000000000E+00  0.00000000000E+00  0.51227493502E+03  0.51227493505E+03  0.50400001928E-02 0. -1.
        1   -1    0    0  501    0  0.00000000000E+00  0.00000000000E+00 -0.12168278646E+03  0.12168278656E+03  0.50400001928E-02 0.  1.
    10030    2    1    2    0    0  0.00000000000E+00  0.00000000000E+00  0.39059214857E+03  0.63395772161E+03  0.49933973031E+03 0.  0.
        4    1    3    3  502    0  0.21307494781E+02 -0.13658260927E+03  0.45925096676E+03  0.47960596521E+03  0.12699999809E+01 0. -1.
       -4    1    3    3    0  502 -0.21307494781E+02  0.13658260927E+03 -0.68658818198E+02  0.15435175640E+03  0.12699999809E+01 0.  1.
</event>
<event>
 5   0  0.1805500E-02  0.4990231E+03  0.7818609E-02  0.1014034E+00
        4   -1    0    0  501    0  0.00000000000E+00  0.00000000000E+00  0.53333792126E+03  0.53333943334E+03  0.12699999809E+01 0. -1.
       -4   -1    0    0    0  501  0.00000000000E+00  0.00000000000E+00 -0.11672387843E+03  0.11673078727E+03  0.12699999809E+01 0.  1.
    10030    2    1    2    0    0  0.00000000000E+00  0.00000000000E+00  0.41661404283E+03  0.65007022060E+03  0.49902307665E+03 0.  0.
        5    1    3    3  502    0 -0.49611531769E+02 -0.13304808817E+03  0.47550313085E+03  0.49627453621E+03  0.46999998093E+01 0. -1.
       -5    1    3    3    0  502  0.49611531769E+02  0.13304808817E+03 -0.58889088022E+02  0.15379568439E+03  0.46999998093E+01 0.  1.
</event>
<event>
 5   0  0.1805500E-02  0.4995610E+03  0.7818609E-02  0.1013894E+00
        3   -1    0    0  501    0  0.00000000000E+00  0.00000000000E+00  0.21950165657E+03  0.21950167981E+03  0.10100000352E+00 0. -1.
       -3   -1    0    0    0  501  0.00000000000E+00  0.00000000000E+00 -0.28423603518E+03  0.28423605313E+03  0.10100000352E+00 0.  1.
    10030    2    1    2    0    0  0.00000000000E+00  0.00000000000E+00 -0.64734378612E+02  0.50373773293E+03  0.49956097106E+03 0.  0.
        4    1    3    3  502    0  0.14447182922E+03  0.20358726755E+03 -0.24003681975E+02  0.25079408804E+03  0.12699999809E+01 0. -1.
       -4    1    3    3    0  502 -0.14447182922E+03 -0.20358726755E+03 -0.40730696637E+02  0.25294364490E+03  0.12699999809E+01 0.  1.
</event>
<event>
 5   0  0.4534223E-02  0.4994283E+03  0.7818609E-02  0.1013928E+00
       -2   -1    0    0    0  501  0.00000000000E+00  0.00000000000E+00  0.66568415617E+02  0.66568415666E+02  0.25500000920E-02 0.  1.
        2   -1    0    0  501    0  0.00000000000E+00  0.00000000000E+00 -0.93673785427E+03  0.93673785427E+03  0.25500000920E-02 0. -1.
    10030    2    1    2    0    0  0.00000000000E+00  0.00000000000E+00 -0.87016943865E+03  0.10033062699E+04  0.49942829248E+03 0.  0.
        2    1    3    3  502    0 -0.36115706201E+02 -0.88223158578E+02 -0.89874472210E+03  0.90378633839E+03  0.25500000920E-02 0. -1.
       -2    1    3    3    0  502  0.36115706201E+02  0.88223158578E+02  0.28575283454E+02  0.99519931546E+02  0.25500000920E-02 0.  1.
</event>
<event>
 5   0  0.2719671E-02  0.4991582E+03  0.7818609E-02  0.1013999E+00
       -1   -1    0    0    0  501  0.00000000000E+00  0.00000000000E+00  0.35159940136E+02  0.35159940497E+02  0.50400001928E-02 0.  1.
        1   -1    0    0  501    0  0.00000000000E+00  0.00000000000E+00 -0.17716104738E+04  0.17716104738E+04  0.50400001928E-02 0. -1.
    10030    2    1    2    0    0  0.00000000000E+00  0.00000000000E+00 -0.17364505336E+04  0.18067704143E+04  0.49915816545E+03 0.  0.
        2    1    3    3  502    0 -0.22951251357E+02 -0.23405112849E+03 -0.11706983111E+04  0.11940859376E+04  0.25500000920E-02 0. -1.
       -2    1    3    3    0  502  0.22951251357E+02  0.23405112849E+03 -0.56575222254E+03  0.61268447671E+03  0.25500000920E-02 0.  1.
</event>
<event>
 5   0  0.4409622E-02  0.5004267E+03  0.7818609E-02  0.1013668E+00
        2   -1    0    0  501    0  0.00000000000E+00  0.00000000000E+00  0.38619047057E+03  0.38619047058E+03  0.25500000920E-02 0. -1.
       -2   -1    0    0    0  501  0.00000000000E+00  0.00000000000E+00 -0.16211357199E+03  0.16211357201E+03  0.25500000920E-02 0.  1.
    10030    2    1    2    0    0  0.00000000000E+00  0.00000000000E+00  0.22407689858E+03  0.54830404259E+03  0.50042668458E+03 0.  0.
        3    1    3    3  502    0  0.11554772813E+03  0.21607832834E+03  0.56540850571E+02  0.25147166727E+03  0.10100000352E+00 0.  1.
       -3    1    3    3    0  502 -0.11554772813E+03 -0.21607832834E+03  0.16753604801E+03  0.29683237532E+03  0.10100000352E+00 0. -1.
</event>
<event>
 5   0  0.4631619E-02  0.5005515E+03  0.7818609E-02  0.1013635E+00
        2   -1    0    0  501    0  0.00000000000E+00  0.00000000000E+00  0.38121679916E+03  0.38121679917E+03  0.25500000920E-02 0. -1.
       -2   -1    0    0    0  501  0.00000000000E+00  0.00000000000E+00 -0.16431055301E+03  0.16431055303E+03  0.25500000920E-02 0.  1.
    10030    2    1    2    0    0  0.00000000000E+00  0.00000000000E+00  0.21690624615E+03  0.54552735221E+03  0.50055146827E+03 0.  0.
        5    1    3    3  502    0  0.18959318189E+03  0.29101004604E+02  0.28358878429E+03  0.34239908244E+03  0.46999998093E+01 0. -1.
       -5    1    3    3    0  502 -0.18959318189E+03 -0.29101004604E+02 -0.66682538135E+02  0.20312826976E+03  0.46999998093E+01 0.  1.
</event>
<event>
 5   0  0.2715483E-02  0.4981416E+03  0.7818609E-02  0.1014265E+00
        1   -1    0    0  501    0  0.00000000000E+00  0.00000000000E+00  0.84468563210E+03  0.84468563212E+03  0.50400001928E-02 0. -1.
       -1   -1    0    0    0  501  0.00000000000E+00  0.00000000000E+00 -0.73443015556E+02  0.73443015729E+02  0.50400001928E-02 0.  1.
    10030    2    1    2    0    0  0.00000000000E+00  0.00000000000E+00  0.77124261655E+03  0.91812864785E+03  0.49814158672E+03 0.  0.
        5    1    3    3  502    0  0.44852341941E+02  0.41934811981E+02 -0.59190181140E+02  0.85415622546E+02  0.46999998093E+01 0.  1.
       -5    1    3    3    0  502 -0.44852341941E+02 -0.41934811981E+02  0.83043279769E+03  0.83271302530E+03  0.46999998093E+01 0. -1.
</event>
<event>
 5   0  0.2779445E-02  0.4980809E+03  0.7818609E-02  0.1014281E+00
        1   -1    0    0  501    0  0.00000000000E+00  0.00000000000E+00  0.12581044191E+04  0.12581044191E+04  0.50400001928E-02 0. -1.
       -1   -1    0    0    0  501  0.00000000000E+00  0.00000000000E+00 -0.49297287237E+02  0.49297287494E+02  0.50400001928E-02 0.  1.
    10030    2    1    2    0    0  0.00000000000E+00  0.00000000000E+00  0.12088071318E+04  0.13074017066E+04  0.49808085727E+03 0.  0.
        3    1    3    3  502    0 -0.19799894183E+03 -0.14733453344E+03  0.69185887447E+03  0.73456092878E+03  0.10100000352E+00 0. -1.
       -3    1    3    3    0  502  0.19799894183E+03  0.14733453344E+03  0.51694825735E+03  0.57284077778E+03  0.10100000352E+00 0.  1.
</event>
<event>
 5   0  0.4409622E-02  0.5000721E+03  0.7818609E-02  0.1013760E+00
       -2   -1    0    0    0  501  0.00000000000E+00  0.00000000000E+00  0.54670444740E+02  0.54670444799E+02  0.25500000920E-02 0.  1.
        2   -1    0    0  501    0  0.00000000000E+00  0.00000000000E+00 -0.11435435955E+04  0.11435435955E+04  0.25500000920E-02 0. -1.
    10030    2    1    2    0    0  0.00000000000E+00  0.00000000000E+00 -0.10888731508E+04  0.11982140403E+04  0.50007214273E+03 0.  0.
        3    1    3    3  502    0 -0.43164357019E+02 -0.22374226169E+03 -0.79106161398E+03  0.82322672982E+03  0.10100000352E+00 0.  1.
       -3    1    3    3    0  502  0.43164357019E+02  0.22374226169E+03 -0.29781153681E+03  0.37498731051E+03  0.10100000352E+00 0. -1.
</event>
<event>
 5   0  0.4451135E-02  0.5000897E+03  0.7818609E-02  0.1013756E+00
       -2   -1    0    0    0  501  0.00000000000E+00  0.00000000000E+00  0.31795797828E+02  0.31795797930E+02  0.25500000920E-02 0.  1.
        2   -1    0    0  501    0  0.00000000000E+00  0.00000000000E+00 -0.19663736910E+04  0.19663736910E+04  0.25500000920E-02 0. -1.
    10030    2    1    2    0    0  0.00000000000E+00  0.00000000000E+00 -0.19345778932E+04  0.19981694889E+04  0.50008967371E+03 0.  0.
        1    1    3    3  502    0  0.22562648479E+03 -0.29627709316E+02 -0.55325861898E+03  0.59823090132E+03  0.50400001928E-02 0. -1.
       -1    1    3    3    0  502 -0.22562648479E+03  0.29627709316E+02 -0.13813192742E+04  0.13999385876E+04  0.50400001928E-02 0.  1.
</event>
<event>
 5   0  0.4451135E-02  0.5007858E+03  0.7818609E-02  0.1013574E+00
       -2   -1    0    0    0  501  0.00000000000E+00  0.00000000000E+00  0.93569676021E+02  0.93569676056E+02  0.25500000920E-02 0. -1.
        2   -1    0    0  501    0  0.00000000000E+00  0.00000000000E+00 -0.67005253898E+03  0.67005253898E+03  0.25500000920E-02 0.  1.
    10030    2    1    2    0    0  0.00000000000E+00  0.00000000000E+00 -0.57648286296E+03  0.76362221504E+03  0.50078577857E+03 0.  0.
        1    1    3    3  502    0 -0.17959619318E+03  0.82739969240E+02 -0.52247270307E+03  0.55863979503E+03  0.50400001928E-02 0.  1.
       -1    1    3    3    0  502  0.17959619318E+03 -0.82739969240E+02 -0.54010159889E+02  0.20498242001E+03  0.50400001928E-02 0. -1.
</event>
<event>
 5   0  0.4534223E-02  0.5012073E+03  0.7818609E-02  0.1013464E+00
       -2   -1    0    0    0  501  0.00000000000E+00  0.00000000000E+00  0.58067087353E+02  0.58067087409E+02  0.25500000920E-02 0. -1.
        2   -1    0    0  501    0  0.00000000000E+00  0.00000000000E+00 -0.10815451655E+04  0.10815451655E+04  0.25500000920E-02 0.  1.
    10030    2    1    2    0    0  0.00000000000E+00  0.00000000000E+00 -0.10234780781E+04  0.11396122529E+04  0.50120725308E+03 0.  0.
        2    1    3    3  502    0  0.15225499167E+03  0.78665536130E+02 -0.95997828736E+02  0.19643174945E+03  0.25500000920E-02 0. -1.
       -2    1    3    3    0  502 -0.15225499167E+03 -0.78665536130E+02 -0.92748024940E+03  0.94318050345E+03  0.25500000920E-02 0.  1.
</event>
<event>
 5   0  0.2643185E-02  0.5011400E+03  0.7818609E-02  0.1013482E+00
       -1   -1    0    0    0  501  0.00000000000E+00  0.00000000000E+00  0.52138490868E+02  0.52138491112E+02  0.50400001928E-02 0. -1.
        1   -1    0    0  501    0  0.00000000000E+00  0.00000000000E+00 -0.12042030722E+04  0.12042030723E+04  0.50400001928E-02 0.  1.
    10030    2    1    2    0    0  0.00000000000E+00  0.00000000000E+00 -0.11520645814E+04  0.12563415634E+04  0.50114002453E+03 0.  0.
        1    1    3    3  502    0 -0.18036145564E+03  0.44656788451E+02 -0.15458697680E+03  0.24170564093E+03  0.50400001928E-02 0. -1.
       -1    1    3    3    0  502  0.18036145564E+03 -0.44656788451E+02 -0.99747760458E+03  0.10146359224E+04  0.50400001928E-02 0.  1.
</event>
<event>
 5   0  0.4451135E-02  0.4944714E+03  0.7818609E-02  0.1015232E+00
       -2   -1    0    0    0  501  0.00000000000E+00  0.00000000000E+00  0.11943740122E+03  0.11943740125E+03  0.25500000920E-02 0.  1.
        2   -1    0    0  501    0  0.00000000000E+00  0.00000000000E+00 -0.51177847359E+03  0.51177847360E+03  0.25500000920E-02 0. -1.
    10030    2    1    2    0    0  0.00000000000E+00  0.00000000000E+00 -0.39234107238E+03  0.63121587485E+03  0.49447139815E+03 0.  0.
        1    1    3    3  502    0 -0.20684436139E+03 -0.43746070763E+02 -0.35978371242E+03  0.41730399986E+03  0.50400001928E-02 0. -1.
       -1    1    3    3    0  502  0.20684436139E+03  0.43746070763E+02 -0.32557359952E+02  0.21391187499E+03  0.50400001928E-02 0.  1.
</event>
<event>
 5   0  0.4519539E-02  0.5013263E+03  0.7818609E-02  0.1013433E+00
       -2   -1    0    0    0  501  0.00000000000E+00  0.00000000000E+00  0.11784343492E+04  0.11784343492E+04  0.25500000920E-02 0. -1.
        2   -1    0    0  501    0  0.00000000000E+00  0.00000000000E+00 -0.53318211643E+02  0.53318211704E+02  0.25500000920E-02 0.  1.
    10030    2    1    2    0    0  0.00000000000E+00  0.00000000000E+00  0.11251161375E+04  0.12317525609E+04  0.50132628926E+03 0.  0.
        4    1    3    3  502    0  0.10698722535E+02 -0.24494272572E+03  0.69067526000E+03  0.73290199156E+03  0.12699999809E+01 0. -1.
       -4    1    3    3    0  502 -0.10698722535E+02  0.24494272572E+03  0.43444087754E+03  0.49885056933E+03  0.12699999809E+01 0.  1.
</event>
<event>
 5   0  0.4409622E-02  0.4994665E+03  0.7818609E-02  0.1013918E+00
        2   -1    0    0  501    0  0.00000000000E+00  0.00000000000E+00  0.14701590559E+04  0.14701590559E+04  0.25500000920E-02 0. -1.
       -2   -1    0    0    0  501  0.00000000000E+00  0.00000000000E+00 -0.42421741619E+02  0.42421741696E+02  0.25500000920E-02 0.  1.
    10030    2    1    2    0    0  0.00000000000E+00  0.00000000000E+00  0.14277373142E+04  0.15125807976E+04  0.49946654609E+03 0.  0.
        3    1    3    3  502    0  0.17516037000E+03 -0.17257002973E+03  0.58168609863E+03  0.63152220699E+03  0.10100000352E+00 0. -1.
       -3    1    3    3    0  502 -0.17516037000E+03  0.17257002973E+03  0.84605121561E+03  0.88105859057E+03  0.10100000352E+00 0.  1.
</event>
<event>
 5   0  0.2779445E-02  0.5006388E+03  0.7818609E-02  0.1013612E+00
       -1   -1    0    0    0  501  0.00000000000E+00  0.00000000000E+00  0.42079252507E+02  0.42079252808E+02  0.50400001928E-02 0. -1.
        1   -1    0    0  501    0  0.00000000000E+00  0.00000000000E+00 -0.14890898901E+04  0.14890898901E+04  0.50400001928E-02 0.  1.
    10030    2    1    2    0    0  0.00000000000E+00  0.00000000000E+00 -0.14470106376E+04  0.15311691429E+04  0.50063875090E+03 0.  0.
        3    1    3    3  502    0  0.23745646000E+03 -0.57503370225E+02 -0.89011464385E+03  0.92303645506E+03  0.10100000352E+00 0.  1.
       -3    1    3    3    0  502 -0.23745646000E+03  0.57503370225E+02 -0.55689599372E+03  0.60813268783E+03  0.10100000352E+00 0. -1.
</event>
<event>
 5   0  0.1805500E-02  0.4995069E+03  0.7818609E-02  0.1013908E+00
        4   -1    0    0  501    0  0.00000000000E+00  0.00000000000E+00  0.14446382664E+03  0.14446940889E+03  0.12699999809E+01 0. -1.
       -4   -1    0    0    0  501  0.00000000000E+00  0.00000000000E+00 -0.43176656903E+03  0.43176843682E+03  0.12699999809E+01 0.  1.
    10030    2    1    2    0    0  0.00000000000E+00  0.00000000000E+00 -0.28730274239E+03  0.57623784571E+03  0.49950694594E+03 0.  0.
        1    1    3    3  502    0 -0.16873356849E+00  0.21829589348E+03 -0.36706236883E+01  0.21832681715E+03  0.50400001928E-02 0. -1.
       -1    1    3    3    0  502  0.16873356849E+00 -0.21829589348E+03 -0.28363211870E+03  0.35791102856E+03  0.50400001928E-02 0.  1.
</event>
<event>
 5   0  0.4451135E-02  0.5000586E+03  0.7818609E-02  0.1013764E+00
       -2   -1    0    0    0  501  0.00000000000E+00  0.00000000000E+00  0.32038721221E+02  0.32038721323E+02  0.25500000920E-02 0. -1.
        2   -1    0    0  501    0  0.00000000000E+00  0.00000000000E+00 -0.19512217854E+04  0.19512217854E+04  0.25500000920E-02 0.  1.
    10030    2    1    2    0    0  0.00000000000E+00  0.00000000000E+00 -0.19191830642E+04  0.19832605067E+04  0.50005860027E+03 0.  0.
        1    1    3    3  502    0 -0.18676154800E+03 -0.10629801997E+03 -0.14664948794E+04  0.14821559892E+04  0.50400001928E-02 0.  1.
       -1    1    3    3    0  502  0.18676154800E+03  0.10629801997E+03 -0.45268818474E+03  0.50110451753E+03  0.50400001928E-02 0. -1.
</event>
<event>
 5   0  0.4519539E-02  0.5015527E+03  0.7818609E-02  0.1013374E+00
        2   -1    0    0  501    0  0.00000000000E+00  0.00000000000E+00  0.16209469834E+03  0.16209469836E+03  0.25500000920E-02 0. -1.
       -2   -1    0    0    0  501  0.00000000000E+00  0.00000000000E+00 -0.38797546957E+03  0.38797546958E+03  0.25500000920E-02 0.  1.
    10030    2    1    2    0    0  0.00000000000E+00  0.00000000000E+00 -0.22588077124E+03  0.55007016794E+03  0.50155265610E+03 0.  0.
        4    1    3    3  502    0 -0.43263031166E+02 -0.15216497296E+03 -0.32634275267E+03  0.36266661548E+03  0.12699999809E+01 0.  1.
       -4    1    3    3    0  502  0.43263031166E+02  0.15216497296E+03  0.10046198143E+03  0.18740355246E+03  0.12699999809E+01 0. -1.
</event>
<event>
 5   0  0.4409622E-02  0.4999216E+03  0.7818609E-02  0.1013799E+00
        2   -1    0    0  501    0  0.00000000000E+00  0.00000000000E+00  0.96223516204E+03  0.96223516205E+03  0.25500000920E-02 0.  1.
       -2   -1    0    0    0  501  0.00000000000E+00  0.00000000000E+00 -0.64932576880E+02  0.64932576930E+02  0.25500000920E-02 0. -1.
    10030    2    1    2    0    0  0.00000000000E+00  0.00000000000E+00  0.89730258516E+03  0.10271677390E+04  0.49992162851E+03 0.  0.
        3    1    3    3  502    0  0.56195540673E+02 -0.18151609283E+03  0.78233151996E+03  0.80507679638E+03  0.10100000352E+00 0. -1.
       -3    1    3    3    0  502 -0.56195540673E+02  0.18151609283E+03  0.11497106520E+03  0.22209094259E+03  0.10100000352E+00 0.  1.
</event>
<event>
 5   0  0.2643185E-02  0.4995180E+03  0.7818609E-02  0.1013905E+00
        1   -1    0    0  501    0  0.00000000000E+00  0.00000000000E+00  0.38410165156E+03  0.38410165159E+03  0.50400001928E-02 0.  1.
       -1   -1    0    0    0  501  0.00000000000E+00  0.00000000000E+00 -0.16240380496E+03  0.16240380503E+03  0.50400001928E-02 0. -1.
    10030    2    1    2    0    0  0.00000000000E+00  0.00000000000E+00  0.22169784660E+03  0.54650545662E+03  0.49951804665E+03 0.  0.
        1    1    3    3  502    0 -0.12275820509E+03 -0.21408632204E+03  0.15289634549E+03  0.29030987356E+03  0.50400001928E-02 0.  1.
       -1    1    3    3    0  502  0.12275820509E+03  0.21408632204E+03  0.68801501113E+02  0.25619558306E+03  0.50400001928E-02 0. -1.
</event>
<event>
 5   0  0.4534223E-02  0.4995015E+03  0.7818609E-02  0.1013909E+00
        2   -1    0    0  501    0  0.00000000000E+00  0.00000000000E+00  0.11483597228E+04  0.11483597228E+04  0.25500000920E-02 0. -1.
       -2   -1    0    0    0  501  0.00000000000E+00  0.00000000000E+00 -0.54316978724E+02  0.54316978784E+02  0.25500000920E-02 0.  1.
    10030    2    1    2    0    0  0.00000000000E+00  0.00000000000E+00  0.10940427441E+04  0.12026767016E+04  0.49950147415E+03 0.  0.
        2    1    3    3  502    0 -0.67968566205E+02 -0.21283555987E+03  0.81575012324E+03  0.84579368944E+03  0.25500000920E-02 0. -1.
       -2    1    3    3    0  502  0.67968566205E+02  0.21283555987E+03  0.27829262085E+03  0.35688301215E+03  0.25500000920E-02 0.  1.
</event>
<event>
 5   0  0.2723308E-02  0.5008627E+03  0.7818609E-02  0.1013554E+00
       -1   -1    0    0    0  501  0.00000000000E+00  0.00000000000E+00  0.11472237023E+03  0.11472237034E+03  0.50400001928E-02 0.  1.
        1   -1    0    0  501    0  0.00000000000E+00  0.00000000000E+00 -0.54667510432E+03  0.54667510435E+03  0.50400001928E-02 0. -1.
    10030    2    1    2    0    0  0.00000000000E+00  0.00000000000E+00 -0.43195273409E+03  0.66139747469E+03  0.50086271076E+03 0.  0.
        4    1    3    3  502    0 -0.23243662344E+03 -0.93196849891E+02 -0.21419777665E+03  0.32953715597E+03  0.12699999809E+01 0.  1.
       -4    1    3    3    0  502  0.23243662344E+03  0.93196849891E+02 -0.21775495745E+03  0.33186031871E+03  0.12699999809E+01 0. -1.
</event>
<event>
 5   0  0.2719671E-02  0.5000476E+03  0.7818609E-02  0.1013766E+00
        1   -1    0    0  501    0  0.00000000000E+00  0.00000000000E+00  0.80080846549E+03  0.80080846551E+03  0.50400001928E-02 0.  1.
       -1   -1    0    0    0  501  0.00000000000E+00  0.00000000000E+00 -0.78060984498E+02  0.78060984660E+02  0.50400001928E-02 0. -1.
    10030    2    1    2    0    0  0.00000000000E+00  0.00000000000E+00  0.72274748099E+03  0.87886945017E+03  0.50004758689E+03 0.  0.
        2    1    3    3  502    0  0.56009453718E+02 -0.75865948566E+02 -0.45606367218E+02  0.10475037850E+03  0.25500000920E-02 0. -1.
       -2    1    3    3    0  502 -0.56009453718E+02  0.75865948566E+02  0.76835384821E+03  0.77411907167E+03  0.25500000920E-02 0.  1.
</event>
<event>
 5   0  0.4631619E-02  0.4997626E+03  0.7818609E-02  0.1013841E+00
       -2   -1    0    0    0  501  0.00000000000E+00  0.00000000000E+00  0.57800950956E+02  0.57800951012E+02  0.25500000920E-02 0.  1.
        2   -1    0    0  501    0  0.00000000000E+00  0.00000000000E+00 -0.10802703976E+04  0.10802703976E+04  0.25500000920E-02 0. -1.
    10030    2    1    2    0    0  0.00000000000E+00  0.00000000000E+00 -0.10224694466E+04  0.11380713486E+04  0.49976256884E+03 0.  0.
        5    1    3    3  502    0 -0.21549851410E+03 -0.14190492702E+02 -0.79727425053E+03  0.82602015727E+03  0.46999998093E+01 0. -1.
       -5    1    3    3    0  502  0.21549851410E+03  0.14190492702E+02 -0.22519519609E+03  0.31205119132E+03  0.46999998093E+01 0.  1.
</event>
<event>
 5   0  0.2643185E-02  0.4998354E+03  0.7818609E-02  0.1013822E+00
        1   -1    0    0  501    0  0.00000000000E+00  0.00000000000E+00  0.24200898509E+03  0.24200898514E+03  0.50400001928E-02 0. -1.
       -1   -1    0    0    0  501  0.00000000000E+00  0.00000000000E+00 -0.25808483412E+03  0.25808483417E+03  0.50400001928E-02 0.  1.
    10030    2    1    2    0    0  0.00000000000E+00  0.00000000000E+00 -0.16075849033E+02  0.50009381931E+03  0.49983536809E+03 0.  0.
        1    1    3    3  502    0 -0.37307043053E+02 -0.13763131573E+03 -0.21338696523E+03  0.25664799139E+03  0.50400001928E-02 0.  1.
       -1    1    3    3    0  502  0.37307043053E+02  0.13763131573E+03  0.19731111619E+03  0.24344582792E+03  0.50400001928E-02 0. -1.
</event>
<event>
 5   0  0.4519539E-02  0.5011387E+03  0.7818609E-02  0.1013482E+00
       -2   -1    0    0    0  501  0.00000000000E+00  0.00000000000E+00  0.33489717751E+03  0.33489717752E+03  0.25500000920E-02 0.  1.
        2   -1    0    0  501    0  0.00000000000E+00  0.00000000000E+00 -0.18747545038E+03  0.18747545039E+03  0.25500000920E-02 0. -1.
    10030    2    1    2    0    0  0.00000000000E+00  0.00000000000E+00  0.14742172713E+03  0.52237262791E+03  0.50113870012E+03 0.  0.
        4    1    3    3  502    0  0.15165239432E+03  0.19263445872E+02 -0.13323032517E+03  0.20278427329E+03  0.12699999809E+01 0. -1.
       -4    1    3    3    0  502 -0.15165239432E+03 -0.19263445872E+02  0.28065205230E+03  0.31958835462E+03  0.12699999809E+01 0.  1.
</event>
<event>
 5   0  0.2715483E-02  0.5009370E+03  0.7818609E-02  0.1013535E+00
       -1   -1    0    0    0  501  0.00000000000E+00  0.00000000000E+00  0.16036220141E+03  0.16036220149E+03  0.50400001928E-02 0.  1.
        1   -1    0    0  501    0  0.00000000000E+00  0.00000000000E+00 -0.39120489311E+03  0.39120489314E+03  0.50400001928E-02 0. -1.
    10030    2    1    2    0    0  0.00000000000E+00  0.00000000000E+00 -0.23084269169E+03  0.55156709463E+03  0.50093703354E+03 0.  0.
        5    1    3    3  502    0  0.18124686085E+03  0.73652672559E+02 -0.28754531414E+03  0.34782112993E+03  0.46999998093E+01 0. -1.
       -5    1    3    3    0  502 -0.18124686085E+03 -0.73652672559E+02  0.56702622444E+02  0.20374596470E+03  0.46999998093E+01 0.  1.
</event>
<event>
 5   0  0.4409622E-02  0.4997141E+03  0.7818609E-02  0.1013854E+00
       -2   -1    0    0    0  501  0.00000000000E+00  0.00000000000E+00  0.75571945240E+02  0.75571945283E+02  0.25500000920E-02 0. -1.
        2   -1    0    0  501    0  0.00000000000E+00  0.00000000000E+00 -0.82608106521E+03  0.82608106522E+03  0.25500000920E-02 0.  1.
    10030    2    1    2    0    0  0.00000000000E+00  0.00000000000E+00 -0.75050911998E+03  0.90165301050E+03  0.49971413046E+03 0.  0.
        3    1    3    3  502    0  0.10306274688E+03 -0.41238786892E+02 -0.77914406454E+03  0.78701210336E+03  0.10100000352E+00 0.  1.
       -3    1    3    3    0  502 -0.10306274688E+03  0.41238786892E+02  0.28634944560E+02  0.11464090714E+03  0.10100000352E+00 0. -1.
</event>
<event>
 5   0  0.4409622E-02  0.5004938E+03  0.7818609E-02  0.1013650E+00
       -2   -1    0    0    0  501  0.00000000000E+00  0.00000000000E+00  0.21652051390E+03  0.21652051391E+03  0.25500000920E-02 0. -1.
        2   -1    0    0  501    0  0.00000000000E+00  0.00000000000E+00 -0.28922673699E+03  0.28922673700E+03  0.25500000920E-02 0.  1.
    10030    2    1    2    0    0  0.00000000000E+00  0.00000000000E+00 -0.72706223090E+02  0.50574725092E+03  0.50049384305E+03 0.  0.
        3    1    3    3  502    0 -0.49491216302E+02  0.18095290086E+03 -0.20371212613E+03  0.27693315683E+03  0.10100000352E+00 0.  1.
       -3    1    3    3    0  502  0.49491216302E+02 -0.18095290086E+03  0.13100590304E+03  0.22881409408E+03  0.10100000352E+00 0. -1.
</event>
<event>
 5   0  0.2779445E-02  0.4994582E+03  0.7818609E-02  0.1013920E+00
       -1   -1    0    0    0  501  0.00000000000E+00  0.00000000000E+00  0.52508877695E+02  0.52508877936E+02  0.50400001928E-02 0. -1.
        1   -1    0    0  501    0  0.00000000000E+00  0.00000000000E+00 -0.11876967738E+04  0.11876967738E+04  0.50400001928E-02 0.  1.
    10030    2    1    2    0    0  0.00000000000E+00  0.00000000000E+00 -0.11351878961E+04  0.12402056517E+04  0.49945820561E+03 0.  0.
        3    1    3    3  502    0 -0.13059347887E+03 -0.10169089352E+03 -0.10319334846E+04  0.10451231608E+04  0.10100000352E+00 0.  1.
       -3    1    3    3    0  502  0.13059347887E+03  0.10169089352E+03 -0.10325441149E+03  0.19508249086E+03  0.10100000352E+00 0. -1.
</event>
<event>
 5   0  0.4534223E-02  0.5006939E+03  0.7818609E-02  0.1013598E+00
        2   -1    0    0  501    0  0.00000000000E+00  0.00000000000E+00  0.93409600023E+03  0.93409600023E+03  0.25500000920E-02 0.  1.
       -2   -1    0    0    0  501  0.00000000000E+00  0.00000000000E+00 -0.67095455610E+02  0.67095455659E+02  0.25500000920E-02 0. -1.
    10030    2    1    2    0    0  0.00000000000E+00  0.00000000000E+00  0.86700054462E+03  0.10011914559E+04  0.50069390548E+03 0.  0.
        2    1    3    3  502    0  0.18825969739E+03  0.12623653072E+02  0.76251036688E+03  0.78550819848E+03  0.25500000920E-02 0.  1.
       -2    1    3    3    0  502 -0.18825969739E+03 -0.12623653072E+02  0.10449017774E+03  0.21568325741E+03  0.25500000920E-02 0. -1.
</event>
<event>
 5   0  0.4519539E-02  0.5039573E+03  0.7818609E-02  0.1012751E+00
        2   -1    0    0  501    0  0.00000000000E+00  0.00000000000E+00  0.63549053582E+03  0.63549053583E+03  0.25500000920E-02 0. -1.
       -2   -1    0    0    0  501  0.00000000000E+00  0.00000000000E+00 -0.99912165713E+02  0.99912165746E+02  0.25500000920E-02 0.  1.
    10030    2    1    2    0    0  0.00000000000E+00  0.00000000000E+00  0.53557837011E+03  0.73540270157E+03  0.50395728286E+03 0.  0.
        4    1    3    3  502    0  0.14907337740E+03  0.97668195008E+02  0.52772391218E+03  0.55700636312E+03  0.12699999809E+01 0. -1.
       -4    1    3    3    0  502 -0.14907337740E+03 -0.97668195008E+02  0.78544579240E+01  0.17839633845E+03  0.12699999809E+01 0.  1.
</event>
<event>
 5   0  0.4519539E-02  0.5005478E+03  0.7818609E-02  0.1013636E+00
       -2   -1    0    0    0  501  0.00000000000E+00  0.00000000000E+00  0.43473768728E+02  0.43473768803E+02  0.25500000920E-02 0.  1.
        2   -1    0    0  501    0  0.00000000000E+00  0.00000000000E+00 -0.14408006940E+04  0.14408006940E+04  0.25500000920E-02 0. -1.
    10030    2    1    2    0    0  0.00000000000E+00  0.00000000000E+00 -0.13973269253E+04  0.14842744628E+04  0.50054784471E+03 0.  0.
        4    1    3    3  502    0 -0.18404245203E+03 -0.95611507440E+02 -0.11140408956E+04  0.11331822071E+04  0.12699999809E+01 0. -1.
       -4    1    3    3    0  502  0.18404245203E+03  0.95611507440E+02 -0.28328602961E+03  0.35109225565E+03  0.12699999809E+01 0.  1.
</event>
<event>
 5   0  0.2719671E-02  0.5028567E+03  0.7818609E-02  0.1013036E+00
       -1   -1    0    0    0  501  0.00000000000E+00  0.00000000000E+00  0.11862517175E+03  0.11862517185E+03  0.50400001928E-02 0. -1.
        1   -1    0    0  501    0  0.00000000000E+00  0.00000000000E+00 -0.53290718068E+03  0.53290718070E+03  0.50400001928E-02 0.  1.
    10030    2    1    2    0    0  0.00000000000E+00  0.00000000000E+00 -0.41428200893E+03  0.65153235256E+03  0.50285666298E+03 0.  0.
        2    1    3    3  502    0  0.24398309993E+03  0.60013605969E+02 -0.21921362240E+03  0.33344264605E+03  0.25500000920E-02 0. -1.
       -2    1    3    3    0  502 -0.24398309993E+03 -0.60013605969E+02 -0.19506838653E+03  0.31808970650E+03  0.25500000920E-02 0.  1.
</event>
<event>
 5   0  0.2779445E-02  0.5001441E+03  0.7818609E-02  0.1013741E+00
        1   -1    0    0  501    0  0.00000000000E+00  0.00000000000E+00  0.65982260243E+03  0.65982260245E+03  0.50400001928E-02 0.  1.
       -1   -1    0    0    0  501  0.00000000000E+00  0.00000000000E+00 -0.94777022995E+02  0.94777023129E+02  0.50400001928E-02 0. -1.
    10030    2    1    2    0    0  0.00000000000E+00  0.00000000000E+00  0.56504557943E+03  0.75459962558E+03  0.50014406733E+03 0.  0.
        3    1    3    3  502    0  0.11032172842E+02  0.65439247820E+02  0.64629467047E+03  0.64969286227E+03  0.10100000352E+00 0.  1.
       -3    1    3    3    0  502 -0.11032172842E+02 -0.65439247820E+02 -0.81249091041E+02  0.10490676331E+03  0.10100000352E+00 0. -1.
</event>
<event>
 5   0  0.2643185E-02  0.4987909E+03  0.7818609E-02  0.1014095E+00
       -1   -1    0    0    0  501  0.00000000000E+00  0.00000000000E+00  0.32320817290E+02  0.32320817682E+02  0.50400001928E-02 0.  1.
        1   -1    0    0  501    0  0.00000000000E+00  0.00000000000E+00 -0.19243974089E+04  0.19243974089E+04  0.50400001928E-02 0. -1.
    10030    2    1    2    0    0  0.00000000000E+00  0.00000000000E+00 -0.18920765916E+04  0.19567182266E+04  0.49879092789E+03 0.  0.
        1    1    3    3  502    0  0.10299981659E+02 -0.19148685368E+03 -0.32052225033E+03  0.37350745339E+03  0.50400001928E-02 0.  1.
       -1    1    3    3    0  502 -0.10299981659E+02  0.19148685368E+03 -0.15715543413E+04  0.15832107732E+04  0.50400001928E-02 0. -1.
</event>
<event>
 5   0  0.2719671E-02  0.4991255E+03  0.7818609E-02  0.1014007E+00
       -1   -1    0    0    0  501  0.00000000000E+00  0.00000000000E+00  0.56076536048E+02  0.56076536275E+02  0.50400001928E-02 0.  1.
        1   -1    0    0  501    0  0.00000000000E+00  0.00000000000E+00 -0.11106527719E+04  0.11106527719E+04  0.50400001928E-02 0. -1.
    10030    2    1    2    0    0  0.00000000000E+00  0.00000000000E+00 -0.10545762359E+04  0.11667293082E+04  0.49912547657E+03 0.  0.
        2    1    3    3  502    0  0.24037561239E+03 -0.61951374368E+02 -0.46709219466E+03  0.52895512677E+03  0.25500000920E-02 0. -1.
       -2    1    3    3    0  502 -0.24037561239E+03  0.61951374368E+02 -0.58748404119E+03  0.63777418141E+03  0.25500000920E-02 0.  1.
</event>
<event>
 5   0  0.2643185E-02  0.5010014E+03  0.7818609E-02  0.1013518E+00
        1   -1    0    0  501    0  0.00000000000E+00  0.00000000000E+00  0.17386527136E+04  0.17386527136E+04  0.50400001928E-02 0.  1.
       -1   -1    0    0    0  501  0.00000000000E+00  0.00000000000E+00 -0.36091507012E+02  0.36091507364E+02  0.50400001928E-02 0. -1.
    10030    2    1    2    0    0  0.00000000000E+00  0.00000000000E+00  0.17025612066E+04  0.17747442210E+04  0.50100138493E+03 0.  0.
        1    1    3    3  502    0 -0.89484006789E+02  0.68225267797E+02  0.58476382120E+02  0.12681309841E+03  0.50400001928E-02 0. -1.
       -1    1    3    3    0  502  0.89484006789E+02 -0.68225267797E+02  0.16440848245E+04  0.16479311226E+04  0.50400001928E-02 0.  1.
</event>
<event>
 5   0  0.4534223E-02  0.5165760E+03  0.7818609E-02  0.1009541E+00
        2   -1    0    0  501    0  0.00000000000E+00  0.00000000000E+00  0.25722174179E+03  0.25722174180E+03  0.25500000920E-02 0. -1.
       -2   -1    0    0    0  501  0.00000000000E+00  0.00000000000E+00 -0.25935868031E+03  0.25935868032E+03  0.25500000920E-02 0.  1.
    10030    2    1    2    0    0  0.00000000000E+00  0.00000000000E+00 -0.21369385211E+01  0.51658042213E+03  0.51657600217E+03 0.  0.
        2    1    3    3  502    0 -0.54121515992E+02  0.22243155495E+03  0.11854758824E+03  0.25779539525E+03  0.25500000920E-02 0.  1.
       -2    1    3    3    0  502  0.54121515992E+02 -0.22243155495E+03 -0.12068452676E+03  0.25878502688E+03  0.25500000920E-02 0. -1.
</event>
<event>
 5   0  0.2723308E-02  0.4790411E+03  0.7818609E-02  0.1019399E+00
       -1   -1    0    0    0  501  0.00000000000E+00  0.00000000000E+00  0.25285517272E+03  0.25285517277E+03  0.50400001928E-02 0.  1.
        1   -1    0    0  501    0  0.00000000000E+00  0.00000000000E+00 -0.22688916902E+03  0.22688916908E+03  0.50400001928E-02 0. -1.
    10030    2    1    2    0    0  0.00000000000E+00  0.00000000000E+00  0.25966003703E+02  0.47974434185E+03  0.47904112578E+03 0.  0.
        4    1    3    3  502    0  0.20198601506E+03 -0.88839739952E+02  0.10627358618E+03  0.24492149292E+03  0.12699999809E+01 0.  1.
       -4    1    3    3    0  502 -0.20198601506E+03  0.88839739952E+02 -0.80307582473E+02  0.23482284893E+03  0.12699999809E+01 0. -1.
</event>
<event>
 5   0  0.4519539E-02  0.4988507E+03  0.7818609E-02  0.1014079E+00
       -2   -1    0    0    0  501  0.00000000000E+00  0.00000000000E+00  0.49364677577E+02  0.49364677642E+02  0.25500000920E-02 0. -1.
        2   -1    0    0  501    0  0.00000000000E+00  0.00000000000E+00 -0.12602737532E+04  0.12602737532E+04  0.25500000920E-02 0.  1.
    10030    2    1    2    0    0  0.00000000000E+00  0.00000000000E+00 -0.12109090756E+04  0.13096384309E+04  0.49885070925E+03 0.  0.
        4    1    3    3  502    0  0.21825542196E+03  0.11464474903E+03 -0.50608912374E+03  0.56294463473E+03  0.12699999809E+01 0. -1.
       -4    1    3    3    0  502 -0.21825542196E+03 -0.11464474903E+03 -0.70481995190E+03  0.74669379613E+03  0.12699999809E+01 0.  1.
</event>
<event>
 5   0  0.2723308E-02  0.4989968E+03  0.7818609E-02  0.1014041E+00
       -1   -1    0    0    0  501  0.00000000000E+00  0.00000000000E+00  0.27234515894E+03  0.27234515899E+03  0.50400001928E-02 0.  1.
        1   -1    0    0  501    0  0.00000000000E+00  0.00000000000E+00 -0.22856823248E+03  0.22856823254E+03  0.50400001928E-02 0. -1.
    10030    2    1    2    0    0  0.00000000000E+00  0.00000000000E+00  0.43776926461E+02  0.50091339152E+03  0.49899680011E+03 0.  0.
        4    1    3    3  502    0  0.18344077573E+03 -0.15798047864E+03  0.82448353725E+02  0.25574927911E+03  0.12699999809E+01 0.  1.
       -4    1    3    3    0  502 -0.18344077573E+03  0.15798047864E+03 -0.38671427264E+02  0.24516411242E+03  0.12699999809E+01 0. -1.
</event>
<event>
 5   0  0.2779445E-02  0.5005418E+03  0.7818609E-02  0.1013638E+00
       -1   -1    0    0    0  501  0.00000000000E+00  0.00000000000E+00  0.22656961243E+03  0.22656961248E+03  0.50400001928E-02 0.  1.
        1   -1    0    0  501    0  0.00000000000E+00  0.00000000000E+00 -0.27645161216E+03  0.27645161221E+03  0.50400001928E-02 0. -1.
    10030    2    1    2    0    0  0.00000000000E+00  0.00000000000E+00 -0.49881999733E+02  0.50302122469E+03  0.50054184500E+03 0.  0.
        3    1    3    3  502    0 -0.22795663530E+03 -0.10203025033E+03 -0.41180402571E+02  0.25312098949E+03  0.10100000352E+00 0. -1.
       -3    1    3    3    0  502  0.22795663530E+03  0.10203025033E+03 -0.87015971626E+01  0.24990023520E+03  0.10100000352E+00 0.  1.
</event>
<event>
 5   0  0.4534223E-02  0.5037963E+03  0.7818609E-02  0.1012793E+00
       -2   -1    0    0    0  501  0.00000000000E+00  0.00000000000E+00  0.42773662662E+02  0.42773662738E+02  0.25500000920E-02 0. -1.
        2   -1    0    0  501    0  0.00000000000E+00  0.00000000000E+00 -0.14834522485E+04  0.14834522485E+04  0.25500000920E-02 0.  1.
    10030    2    1    2    0    0  0.00000000000E+00  0.00000000000E+00 -0.14406785858E+04  0.15262259112E+04  0.50379633231E+03 0.  0.
        2    1    3    3  502    0 -0.71424974965E+02 -0.10814584843E+03 -0.13746979781E+04  0.13807938234E+04  0.25500000920E-02 0.  1.
       -2    1    3    3    0  502  0.71424974965E+02  0.10814584843E+03 -0.65980607702E+02  0.14543208786E+03  0.25500000920E-02 0. -1.
</event>
<event>
 5   0  0.4409622E-02  0.4967437E+03  0.7818609E-02  0.1014632E+00
        2   -1    0    0  501    0  0.00000000000E+00  0.00000000000E+00  0.24283289406E+03  0.24283289408E+03  0.25500000920E-02 0. -1.
       -2   -1    0    0    0  501  0.00000000000E+00  0.00000000000E+00 -0.25403716734E+03  0.25403716735E+03  0.25500000920E-02 0.  1.
    10030    2    1    2    0    0  0.00000000000E+00  0.00000000000E+00 -0.11204273276E+02  0.49687006143E+03  0.49674371884E+03 0.  0.
        3    1    3    3  502    0 -0.73311513262E+02  0.40377372041E+02 -0.23950698994E+03  0.25370951614E+03  0.10100000352E+00 0.  1.
       -3    1    3    3    0  502  0.73311513262E+02 -0.40377372041E+02  0.22830271666E+03  0.24316054529E+03  0.10100000352E+00 0. -1.
</event>
<event>
 5   0  0.4631619E-02  0.4859923E+03  0.7818609E-02  0.1017501E+00
        2   -1    0    0  501    0  0.00000000000E+00  0.00000000000E+00  0.14603124625E+04  0.14603124625E+04  0.25500000920E-02 0.  1.
       -2   -1    0    0    0  501  0.00000000000E+00  0.00000000000E+00 -0.40434577059E+02  0.40434577139E+02  0.25500000920E-02 0. -1.
    10030    2    1    2    0    0  0.00000000000E+00  0.00000000000E+00  0.14198778855E+04  0.15007470397E+04  0.48599225038E+03 0.  0.
        5    1    3    3  502    0 -0.19886533318E+03 -0.62498803858E+02  0.32459950896E+03  0.38579846091E+03  0.46999998093E+01 0. -1.
       -5    1    3    3    0  502  0.19886533318E+03  0.62498803858E+02  0.10952783765E+04  0.11149485788E+04  0.46999998093E+01 0.  1.
</event>
<event>
 5   0  0.2723308E-02  0.4999813E+03  0.7818609E-02  0.1013784E+00
        1   -1    0    0  501    0  0.00000000000E+00  0.00000000000E+00  0.72212276473E+02  0.72212276649E+02  0.50400001928E-02 0.  1.
       -1   -1    0    0    0  501  0.00000000000E+00  0.00000000000E+00 -0.86543889468E+03  0.86543889469E+03  0.50400001928E-02 0. -1.
    10030    2    1    2    0    0  0.00000000000E+00  0.00000000000E+00 -0.79322661820E+03  0.93765117134E+03  0.49998125094E+03 0.  0.
        4    1    3    3  502    0 -0.61945941520E+02  0.10178559811E+03 -0.80875218095E+03  0.81748352323E+03  0.12699999809E+01 0. -1.
       -4    1    3    3    0  502  0.61945941520E+02 -0.10178559811E+03  0.15525562751E+02  0.12016764811E+03  0.12699999809E+01 0.  1.
</event>
<event>
 5   0  0.2643185E-02  0.5109508E+03  0.7818609E-02  0.1010959E+00
        1   -1    0    0  501    0  0.00000000000E+00  0.00000000000E+00  0.45731349103E+03  0.45731349106E+03  0.50400001928E-02 0.  1.
       -1   -1    0    0    0  501  0.00000000000E+00  0.00000000000E+00 -0.14271975084E+03  0.14271975092E+03  0.50400001928E-02 0. -1.
    10030    2    1    2    0    0  0.00000000000E+00  0.00000000000E+00  0.31459374020E+03  0.60003324199E+03  0.51095075117E+03 0.  0.
        1    1    3    3  502    0  0.62867270249E+01  0.19613768220E+03  0.34939553437E+03  0.40073276978E+03  0.50400001928E-02 0.  1.
       -1    1    3    3    0  502 -0.62867270249E+01 -0.19613768220E+03 -0.34801794170E+02  0.19930047220E+03  0.50400001928E-02 0. -1.
</event>
<event>
 5   0  0.2779445E-02  0.4992339E+03  0.7818609E-02  0.1013979E+00
       -1   -1    0    0    0  501  0.00000000000E+00  0.00000000000E+00  0.51092312111E+03  0.51092312114E+03  0.50400001928E-02 0.  1.
        1   -1    0    0  501    0  0.00000000000E+00  0.00000000000E+00 -0.12195301353E+03  0.12195301363E+03  0.50400001928E-02 0. -1.
    10030    2    1    2    0    0  0.00000000000E+00  0.00000000000E+00  0.38897010759E+03  0.63287613477E+03  0.49923387041E+03 0.  0.
        3    1    3    3  502    0 -0.22467143741E+03 -0.10795917123E+03  0.17765922043E+03  0.30609679229E+03  0.10100000352E+00 0. -1.
       -3    1    3    3    0  502  0.22467143741E+03  0.10795917123E+03  0.21131088716E+03  0.32677934248E+03  0.10100000352E+00 0.  1.
</event>
<event>
 5   0  0.4409622E-02  0.4994396E+03  0.7818609E-02  0.1013925E+00
        2   -1    0    0  501    0  0.00000000000E+00  0.00000000000E+00  0.52153263521E+03  0.52153263521E+03  0.25500000920E-02 0.  1.
       -2   -1    0    0    0  501  0.00000000000E+00  0.00000000000E+00 -0.11957062842E+03  0.11957062844E+03  0.25500000920E-02 0. -1.
    10030    2    1    2    0    0  0.00000000000E+00  0.00000000000E+00  0.40196200679E+03  0.64110326366E+03  0.49943962575E+03 0.  0.
        3    1    3    3  502    0 -0.95590541973E+02 -0.15305678126E+03 -0.20595803785E+02  0.18162633988E+03  0.10100000352E+00 0. -1.
       -3    1    3    3    0  502  0.95590541973E+02  0.15305678126E+03  0.42255781058E+03  0.45947692378E+03  0.10100000352E+00 0.  1.
</event>
<event>
 5   0  0.4534223E-02  0.5002979E+03  0.7818609E-02  0.1013701E+00
       -2   -1    0    0    0  501  0.00000000000E+00  0.00000000000E+00  0.24906424486E+02  0.24906424616E+02  0.25500000920E-02 0. -1.
        2   -1    0    0  501    0  0.00000000000E+00  0.00000000000E+00 -0.25123836749E+04  0.25123836749E+04  0.25500000920E-02 0.  1.
    10030    2    1    2    0    0  0.00000000000E+00  0.00000000000E+00 -0.24874772504E+04  0.25372900996E+04  0.50029788905E+03 0.  0.
        2    1    3    3  502    0  0.14430076884E+03  0.14421282858E+03 -0.19778796795E+04  0.19883732241E+04  0.25500000920E-02 0.  1.
       -2    1    3    3    0  502 -0.14430076884E+03 -0.14421282858E+03 -0.50959757099E+03  0.54891687547E+03  0.25500000920E-02 0. -1.
</event>
<event>
 5   0  0.1805500E-02  0.4990427E+03  0.7818609E-02  0.1014029E+00
       -4   -1    0    0    0  501  0.00000000000E+00  0.00000000000E+00  0.85835163734E+02  0.85844558553E+02  0.12699999809E+01 0.  1.
        4   -1    0    0  501    0  0.00000000000E+00  0.00000000000E+00 -0.72530473460E+03  0.72530584648E+03  0.12699999809E+01 0. -1.
    10030    2    1    2    0    0  0.00000000000E+00  0.00000000000E+00 -0.63946957087E+03  0.81115040503E+03  0.49904273115E+03 0.  0.
        1    1    3    3  502    0  0.21971994205E+03  0.10656144354E+03 -0.23639821433E+03  0.33987690411E+03  0.50400001928E-02 0. -1.
       -1    1    3    3    0  502 -0.21971994205E+03 -0.10656144354E+03 -0.40307135654E+03  0.47127350092E+03  0.50400001928E-02 0.  1.
</event>
<event>
 5   0  0.1805500E-02  0.4991105E+03  0.7818609E-02  0.1014011E+00
        4   -1    0    0  501    0  0.00000000000E+00  0.00000000000E+00  0.26946745919E+03  0.26947045192E+03  0.12699999809E+01 0.  1.
       -4   -1    0    0    0  501  0.00000000000E+00  0.00000000000E+00 -0.23110840090E+03  0.23111189036E+03  0.12699999809E+01 0. -1.
    10030    2    1    2    0    0  0.00000000000E+00  0.00000000000E+00  0.38359058283E+02  0.50058234229E+03  0.49911047280E+03 0.  0.
        5    1    3    3  502    0 -0.75187028094E+02  0.23189727981E+03 -0.34140095604E+02  0.24620534865E+03  0.46999998093E+01 0. -1.
       -5    1    3    3    0  502  0.75187028094E+02 -0.23189727981E+03  0.72499153887E+02  0.25437699364E+03  0.46999998093E+01 0.  1.
</event>
<event>
 5   0  0.4451135E-02  0.5007828E+03  0.7818609E-02  0.1013575E+00
       -2   -1    0    0    0  501  0.00000000000E+00  0.00000000000E+00  0.83224330188E+02  0.83224330227E+02  0.25500000920E-02 0. -1.
        2   -1    0    0  501    0  0.00000000000E+00  0.00000000000E+00 -0.75333555504E+03  0.75333555504E+03  0.25500000920E-02 0.  1.
    10030    2    1    2    0    0  0.00000000000E+00  0.00000000000E+00 -0.67011122485E+03  0.83655988527E+03  0.50078277523E+03 0.  0.
        1    1    3    3  502    0  0.23658616649E+03  0.79015310103E+02 -0.37163216851E+03  0.44757893393E+03  0.50400001928E-02 0.  1.
       -1    1    3    3    0  502 -0.23658616649E+03 -0.79015310103E+02 -0.29847905633E+03  0.38898095133E+03  0.50400001928E-02 0. -1.
</event>
<event>
 5   0  0.2779445E-02  0.5007076E+03  0.7818609E-02  0.1013594E+00
       -1   -1    0    0    0  501  0.00000000000E+00  0.00000000000E+00  0.30144831272E+03  0.30144831277E+03  0.50400001928E-02 0.  1.
        1   -1    0    0  501    0  0.00000000000E+00  0.00000000000E+00 -0.20791961729E+03  0.20791961735E+03  0.50400001928E-02 0. -1.
    10030    2    1    2    0    0  0.00000000000E+00  0.00000000000E+00  0.93528695434E+02  0.50936793012E+03  0.50070757071E+03 0.  0.
        3    1    3    3  502    0  0.21766240917E+03  0.51342234888E+02  0.16124547282E+03  0.27570466473E+03  0.10100000352E+00 0.  1.
       -3    1    3    3    0  502 -0.21766240917E+03 -0.51342234888E+02 -0.67716777388E+02  0.23366326538E+03  0.10100000352E+00 0. -1.
</event>
<event>
 5   0  0.4451135E-02  0.5020088E+03  0.7818609E-02  0.1013256E+00
       -2   -1    0    0    0  501  0.00000000000E+00  0.00000000000E+00  0.77548829148E+02  0.77548829190E+02  0.25500000920E-02 0. -1.
        2   -1    0    0  501    0  0.00000000000E+00  0.00000000000E+00 -0.81243281447E+03  0.81243281448E+03  0.25500000920E-02 0.  1.
    10030    2    1    2    0    0  0.00000000000E+00  0.00000000000E+00 -0.73488398533E+03  0.88998164367E+03  0.50200881882E+03 0.  0.
        1    1    3    3  502    0 -0.11548136349E+03 -0.19456770167E+03 -0.17477509193E+03  0.28590010253E+03  0.50400001928E-02 0. -1.
       -1    1    3    3    0  502  0.11548136349E+03  0.19456770167E+03 -0.56010889340E+03  0.60408154113E+03  0.50400001928E-02 0.  1.
</event>
<event>
 5   0  0.1805500E-02  0.4998493E+03  0.7818609E-02  0.1013818E+00
       -4   -1    0    0    0  501  0.00000000000E+00  0.00000000000E+00  0.31357196702E+03  0.31357453883E+03  0.12699999809E+01 0.  1.
        4   -1    0    0  501    0  0.00000000000E+00  0.00000000000E+00 -0.19919077985E+03  0.19919482844E+03  0.12699999809E+01 0. -1.
    10030    2    1    2    0    0  0.00000000000E+00  0.00000000000E+00  0.11438118717E+03  0.51276936727E+03  0.49984934534E+03 0.  0.
        1    1    3    3  502    0 -0.12391219025E+03  0.19601377274E+02 -0.16455371122E+03  0.20692116563E+03  0.50400001928E-02 0. -1.
       -1    1    3    3    0  502  0.12391219025E+03 -0.19601377274E+02  0.27893489839E+03  0.30584820165E+03  0.50400001928E-02 0.  1.
</event>
<event>
 5   0  0.2719671E-02  0.4978747E+03  0.7818609E-02  0.1014335E+00
       -1   -1    0    0    0  501  0.00000000000E+00  0.00000000000E+00  0.20711835184E+03  0.20711835190E+03  0.50400001928E-02 0. -1.
        1   -1    0    0  501    0  0.00000000000E+00  0.00000000000E+00 -0.29919991229E+03  0.29919991233E+03  0.50400001928E-02 0.  1.
    10030    2    1    2    0    0  0.00000000000E+00  0.00000000000E+00 -0.92081560443E+02  0.50631826423E+03  0.49787465382E+03 0.  0.
        2    1    3    3  502    0  0.85739739683E+02 -0.21785088677E+03  0.40007925748E+02  0.23750988602E+03  0.25500000920E-02 0.  1.
       -2    1    3    3    0  502 -0.85739739683E+02  0.21785088677E+03 -0.13208948619E+03  0.26880837821E+03  0.25500000920E-02 0. -1.
</event>
<event>
 5   0  0.4519539E-02  0.5009043E+03  0.7818609E-02  0.1013543E+00
       -2   -1    0    0    0  501  0.00000000000E+00  0.00000000000E+00  0.98381589147E+02  0.98381589180E+02  0.25500000920E-02 0.  1.
        2   -1    0    0  501    0  0.00000000000E+00  0.00000000000E+00 -0.63758155776E+03  0.63758155777E+03  0.25500000920E-02 0. -1.
    10030    2    1    2    0    0  0.00000000000E+00  0.00000000000E+00 -0.53919996861E+03  0.73596314695E+03  0.50090432970E+03 0.  0.
        4    1    3    3  502    0  0.46119576864E+02  0.15505081059E+03 -0.55052213889E+03  0.57379788039E+03  0.12699999809E+01 0. -1.
       -4    1    3    3    0  502 -0.46119576864E+02 -0.15505081059E+03  0.11322170277E+02  0.16216526655E+03  0.12699999809E+01 0.  1.
</event>
<event>
 5   0  0.4534223E-02  0.5026618E+03  0.7818609E-02  0.1013086E+00
       -2   -1    0    0    0  501  0.00000000000E+00  0.00000000000E+00  0.14537527597E+03  0.14537527599E+03  0.25500000920E-02 0. -1.
        2   -1    0    0  501    0  0.00000000000E+00  0.00000000000E+00 -0.43451150876E+03  0.43451150877E+03  0.25500000920E-02 0.  1.
    10030    2    1    2    0    0  0.00000000000E+00  0.00000000000E+00 -0.28913623280E+03  0.57988678476E+03  0.50266183665E+03 0.  0.
        2    1    3    3  502    0 -0.21828448533E+03 -0.26001274049E+02 -0.40187670122E+01  0.21986435200E+03  0.25500000920E-02 0. -1.
       -2    1    3    3    0  502  0.21828448533E+03  0.26001274049E+02 -0.28511746578E+03  0.36002243276E+03  0.25500000920E-02 0.  1.
</event>
<event>
 5   0  0.2715483E-02  0.4988539E+03  0.7818609E-02  0.1014079E+00
        1   -1    0    0  501    0  0.00000000000E+00  0.00000000000E+00  0.39288492022E+03  0.39288492025E+03  0.50400001928E-02 0. -1.
       -1   -1    0    0    0  501  0.00000000000E+00  0.00000000000E+00 -0.15835119154E+03  0.15835119162E+03  0.50400001928E-02 0.  1.
    10030    2    1    2    0    0  0.00000000000E+00  0.00000000000E+00  0.23453372868E+03  0.55123611187E+03  0.49885386753E+03 0.  0.
        5    1    3    3  502    0 -0.24633329296E+03  0.23389333969E+02  0.15158529289E+03  0.29021947416E+03  0.46999998093E+01 0. -1.
       -5    1    3    3    0  502  0.24633329296E+03 -0.23389333969E+02  0.82948435789E+02  0.26101663771E+03  0.46999998093E+01 0.  1.
</event>
<event>
 5   0  0.4631619E-02  0.5005057E+03  0.7818609E-02  0.1013647E+00
        2   -1    0    0  501    0  0.00000000000E+00  0.00000000000E+00  0.54946979073E+03  0.54946979073E+03  0.25500000920E-02 0.  1.
       -2   -1    0    0    0  501  0.00000000000E+00  0.00000000000E+00 -0.11397620662E+03  0.11397620665E+03  0.25500000920E-02 0. -1.
    10030    2    1    2    0    0  0.00000000000E+00  0.00000000000E+00  0.43549358411E+03  0.66344599738E+03  0.50050567394E+03 0.  0.
        5    1    3    3  502    0 -0.53756342110E+02 -0.70189559329E+02 -0.92523067703E+02  0.12805829380E+03  0.46999998093E+01 0. -1.
       -5    1    3    3    0  502  0.53756342110E+02  0.70189559329E+02  0.52801665181E+03  0.53538770358E+03  0.46999998093E+01 0.  1.
</event>
<event>
 5   0  0.4534223E-02  0.4978600E+03  0.7818609E-02  0.1014339E+00
        2   -1    0    0  501    0  0.00000000000E+00  0.00000000000E+00  0.75332975004E+03  0.75332975004E+03  0.25500000920E-02 0. -1.
       -2   -1    0    0    0  501  0.00000000000E+00  0.00000000000E+00 -0.82256325598E+02  0.82256325637E+02  0.25500000920E-02 0.  1.
    10030    2    1    2    0    0  0.00000000000E+00  0.00000000000E+00  0.67107342444E+03  0.83558607568E+03  0.49785996915E+03 0.  0.
        2    1    3    3  502    0  0.45620537264E+02  0.13927076048E+03 -0.21781292774E+01  0.14656849047E+03  0.25500000920E-02 0.  1.
       -2    1    3    3    0  502 -0.45620537264E+02 -0.13927076048E+03  0.67325155372E+03  0.68901758521E+03  0.25500000920E-02 0. -1.
</event>
<event>
 5   0  0.1805500E-02  0.4998797E+03  0.7818609E-02  0.1013810E+00
       -4   -1    0    0    0  501  0.00000000000E+00  0.00000000000E+00  0.73652377881E+02  0.73663326476E+02  0.12699999809E+01 0. -1.
        4   -1    0    0  501    0  0.00000000000E+00  0.00000000000E+00 -0.84809811893E+03  0.84809906982E+03  0.12699999809E+01 0.  1.
    10030    2    1    2    0    0  0.00000000000E+00  0.00000000000E+00 -0.77444574105E+03  0.92176239630E+03  0.49987969493E+03 0.  0.
        2    1    3    3  502    0 -0.69587964869E+02 -0.28959371341E+01 -0.82984850299E+03  0.83276611916E+03  0.25500000920E-02 0.  1.
       -2    1    3    3    0  502  0.69587964869E+02  0.28959371341E+01  0.55402761941E+02  0.88996277134E+02  0.25500000920E-02 0. -1.
</event>
<event>
 5   0  0.2779445E-02  0.4994022E+03  0.7818609E-02  0.1013935E+00
        1   -1    0    0  501    0  0.00000000000E+00  0.00000000000E+00  0.27059367026E+03  0.27059367031E+03  0.50400001928E-02 0.  1.
       -1   -1    0    0    0  501  0.00000000000E+00  0.00000000000E+00 -0.23042165646E+03  0.23042165652E+03  0.50400001928E-02 0. -1.
    10030    2    1    2    0    0  0.00000000000E+00  0.00000000000E+00  0.40172013796E+02  0.50101532682E+03  0.49940220967E+03 0.  0.
        3    1    3    3  502    0  0.17559151090E+03  0.61809553134E+02 -0.14687822371E+03  0.23712026982E+03  0.10100000352E+00 0. -1.
       -3    1    3    3    0  502 -0.17559151090E+03 -0.61809553134E+02  0.18705023751E+03  0.26389505700E+03  0.10100000352E+00 0.  1.
</event>
<event>
 5   0  0.4451135E-02  0.5009975E+03  0.7818609E-02  0.1013519E+00
       -2   -1    0    0    0  501  0.00000000000E+00  0.00000000000E+00  0.12809226563E+03  0.12809226566E+03  0.25500000920E-02 0.  1.
        2   -1    0    0  501    0  0.00000000000E+00  0.00000000000E+00 -0.48987823464E+03  0.48987823465E+03  0.25500000920E-02 0. -1.
    10030    2    1    2    0    0  0.00000000000E+00  0.00000000000E+00 -0.36178596901E+03  0.61797050031E+03  0.50099745696E+03 0.  0.
        1    1    3    3  502    0 -0.55623470966E+02 -0.14116805837E+03 -0.42674644162E+03  0.45291822296E+03  0.50400001928E-02 0. -1.
       -1    1    3    3    0  502  0.55623470966E+02  0.14116805837E+03  0.64960472619E+02  0.16505227734E+03  0.50400001928E-02 0.  1.
</event>
<event>
 5   0  0.2779445E-02  0.4988277E+03  0.7818609E-02  0.1014085E+00
       -1   -1    0    0    0  501  0.00000000000E+00  0.00000000000E+00  0.42433754151E+02  0.42433754450E+02  0.50400001928E-02 0. -1.
        1   -1    0    0  501    0  0.00000000000E+00  0.00000000000E+00 -0.14659852790E+04  0.14659852790E+04  0.50400001928E-02 0.  1.
    10030    2    1    2    0    0  0.00000000000E+00  0.00000000000E+00 -0.14235515249E+04  0.15084190335E+04  0.49882766223E+03 0.  0.
        3    1    3    3  502    0 -0.19004751219E+03 -0.99978042049E+02 -0.32815875859E+03  0.39217578562E+03  0.10100000352E+00 0. -1.
       -3    1    3    3    0  502  0.19004751219E+03  0.99978042049E+02 -0.10953927663E+04  0.11162432479E+04  0.10100000352E+00 0.  1.
</event>
<event>
 5   0  0.4534223E-02  0.4992438E+03  0.7818609E-02  0.1013976E+00
       -2   -1    0    0    0  501  0.00000000000E+00  0.00000000000E+00  0.60932989944E+03  0.60932989944E+03  0.25500000920E-02 0.  1.
        2   -1    0    0  501    0  0.00000000000E+00  0.00000000000E+00 -0.10226168945E+03  0.10226168948E+03  0.25500000920E-02 0. -1.
    10030    2    1    2    0    0  0.00000000000E+00  0.00000000000E+00  0.50706820999E+03  0.71159158893E+03  0.49924384809E+03 0.  0.
        2    1    3    3  502    0  0.42350577206E+02  0.98816722519E+02  0.57463982367E+03  0.58461033432E+03  0.25500000920E-02 0.  1.
       -2    1    3    3    0  502 -0.42350577206E+02 -0.98816722519E+02 -0.67571613685E+02  0.12698125461E+03  0.25500000920E-02 0. -1.
</event>
<event>
 5   0  0.4409622E-02  0.4913781E+03  0.7818609E-02  0.1016054E+00
       -2   -1    0    0    0  501  0.00000000000E+00  0.00000000000E+00  0.60139361960E+03  0.60139361961E+03  0.25500000920E-02 0.  1.
        2   -1    0    0  501    0  0.00000000000E+00  0.00000000000E+00 -0.10037203159E+03  0.10037203162E+03  0.25500000920E-02 0. -1.
    10030    2    1    2    0    0  0.00000000000E+00  0.00000000000E+00  0.50102158801E+03  0.70176565123E+03  0.49137805974E+03 0.  0.
        3    1    3    3  502    0 -0.11946997633E+03 -0.70944116431E+02 -0.38869976396E+02  0.14428107349E+03  0.10100000352E+00 0. -1.
       -3    1    3    3    0  502  0.11946997633E+03  0.70944116431E+02  0.53989156441E+03  0.55748457774E+03  0.10100000352E+00 0.  1.
</event>
<event>
 5   0  0.4451135E-02  0.4998055E+03  0.7818609E-02  0.1013830E+00
       -2   -1    0    0    0  501  0.00000000000E+00  0.00000000000E+00  0.59923783045E+02  0.59923783099E+02  0.25500000920E-02 0.  1.
        2   -1    0    0  501    0  0.00000000000E+00  0.00000000000E+00 -0.10421804296E+04  0.10421804296E+04  0.25500000920E-02 0. -1.
    10030    2    1    2    0    0  0.00000000000E+00  0.00000000000E+00 -0.98225664657E+03  0.11021042127E+04  0.49980553814E+03 0.  0.
        1    1    3    3  502    0  0.34095205801E+02  0.16141500574E+03 -0.77220884392E+02  0.18215474781E+03  0.50400001928E-02 0.  1.
       -1    1    3    3    0  502 -0.34095205801E+02 -0.16141500574E+03 -0.90503576218E+03  0.91994946491E+03  0.50400001928E-02 0. -1.
</event>
<event>
 5   0  0.4631619E-02  0.5019947E+03  0.7818609E-02  0.1013260E+00
        2   -1    0    0  501    0  0.00000000000E+00  0.00000000000E+00  0.70447616245E+03  0.70447616245E+03  0.25500000920E-02 0.  1.
       -2   -1    0    0    0  501  0.00000000000E+00  0.00000000000E+00 -0.89427680005E+02  0.89427680041E+02  0.25500000920E-02 0. -1.
    10030    2    1    2    0    0  0.00000000000E+00  0.00000000000E+00  0.61504848244E+03  0.79390384249E+03  0.50199469656E+03 0.  0.
        5    1    3    3  502    0 -0.59389846144E+00  0.11906344374E+03 -0.41844206859E+02  0.12629126651E+03  0.46999998093E+01 0. -1.
       -5    1    3    3    0  502  0.59389846144E+00 -0.11906344374E+03  0.65689268930E+03  0.66761257598E+03  0.46999998093E+01 0.  1.
</event>
<event>
 5   0  0.2723308E-02  0.5043682E+03  0.7818609E-02  0.1012645E+00
       -1   -1    0    0    0  501  0.00000000000E+00  0.00000000000E+00  0.72382666877E+02  0.72382667052E+02  0.50400001928E-02 0.  1.
        1   -1    0    0  501    0  0.00000000000E+00  0.00000000000E+00 -0.87861954723E+03  0.87861954725E+03  0.50400001928E-02 0. -1.
    10030    2    1    2    0    0  0.00000000000E+00  0.00000000000E+00 -0.80623688036E+03  0.95100221430E+03  0.50436822299E+03 0.  0.
        4    1    3    3  502    0 -0.11091047598E+03 -0.12526185787E+03 -0.75889754791E+03  0.77712210614E+03  0.12699999809E+01 0. -1.
       -4    1    3    3    0  502  0.11091047598E+03  0.12526185787E+03 -0.47339332445E+02  0.17388010816E+03  0.12699999809E+01 0.  1.
</event>
<event>
 5   0  0.2779445E-02  0.5005262E+03  0.7818609E-02  0.1013642E+00
       -1   -1    0    0    0  501  0.00000000000E+00  0.00000000000E+00  0.18460155515E+03  0.18460155522E+03  0.50400001928E-02 0. -1.
        1   -1    0    0  501    0  0.00000000000E+00  0.00000000000E+00 -0.33928003058E+03  0.33928003061E+03  0.50400001928E-02 0.  1.
    10030    2    1    2    0    0  0.00000000000E+00  0.00000000000E+00 -0.15467847542E+03  0.52388158584E+03  0.50052620832E+03 0.  0.
        3    1    3    3  502    0 -0.14691335425E+03 -0.51471865103E+02  0.12776031361E+03  0.20138419623E+03  0.10100000352E+00 0. -1.
       -3    1    3    3    0  502  0.14691335425E+03  0.51471865103E+02 -0.28243878903E+03  0.32249738961E+03  0.10100000352E+00 0.  1.
</event>
<event>
 5   0  0.1805500E-02  0.4935390E+03  0.7818609E-02  0.1015479E+00
       -3   -1    0    0    0  501  0.00000000000E+00  0.00000000000E+00  0.13005576607E+03  0.13005580528E+03  0.10100000352E+00 0. -1.
        3   -1    0    0  501    0  0.00000000000E+00  0.00000000000E+00 -0.46822363209E+03  0.46822364298E+03  0.10100000352E+00 0.  1.
    10030    2    1    2    0    0  0.00000000000E+00  0.00000000000E+00 -0.33816786603E+03  0.59827944827E+03  0.49353904872E+03 0.  0.
        2    1    3    3  502    0 -0.10829799214E+03  0.22162803902E+03 -0.16070683417E+03  0.29440470332E+03  0.25500000920E-02 0.  1.
       -2    1    3    3    0  502  0.10829799214E+03 -0.22162803902E+03 -0.17746103186E+03  0.30387474495E+03  0.25500000920E-02 0. -1.
</event>
<event>
 5   0  0.4519539E-02  0.4979600E+03  0.7818609E-02  0.1014313E+00
       -2   -1    0    0    0  501  0.00000000000E+00  0.00000000000E+00  0.58478547602E+02  0.58478547657E+02  0.25500000920E-02 0. -1.
        2   -1    0    0  501    0  0.00000000000E+00  0.00000000000E+00 -0.10600646320E+04  0.10600646320E+04  0.25500000920E-02 0.  1.
    10030    2    1    2    0    0  0.00000000000E+00  0.00000000000E+00 -0.10015860844E+04  0.11185431797E+04  0.49795999870E+03 0.  0.
        4    1    3    3  502    0  0.10429794527E+03  0.12654600466E+03 -0.92161290502E+03  0.93608969243E+03  0.12699999809E+01 0.  1.
       -4    1    3    3    0  502 -0.10429794527E+03 -0.12654600466E+03 -0.79973179387E+02  0.18245348723E+03  0.12699999809E+01 0. -1.
</event>
<event>
 5   0  0.2723308E-02  0.4987158E+03  0.7818609E-02  0.1014115E+00
        1   -1    0    0  501    0  0.00000000000E+00  0.00000000000E+00  0.89766337948E+03  0.89766337949E+03  0.50400001928E-02 0. -1.
       -1   -1    0    0    0  501  0.00000000000E+00  0.00000000000E+00 -0.69268018868E+02  0.69268019051E+02  0.50400001928E-02 0.  1.
    10030    2    1    2    0    0  0.00000000000E+00  0.00000000000E+00  0.82839536061E+03  0.96693139855E+03  0.49871580686E+03 0.  0.
        4    1    3    3  502    0 -0.14336003738E+03  0.38119246476E+02  0.25593598167E+02  0.15053844172E+03  0.12699999809E+01 0.  1.
       -4    1    3    3    0  502  0.14336003738E+03 -0.38119246476E+02  0.80280176245E+03  0.81639295683E+03  0.12699999809E+01 0. -1.
</event>
<event>
 5   0  0.1805500E-02  0.4992245E+03  0.7818609E-02  0.1013982E+00
        3   -1    0    0  501    0  0.00000000000E+00  0.00000000000E+00  0.24991213548E+04  0.24991213569E+04  0.10100000352E+00 0. -1.
       -3   -1    0    0    0  501  0.00000000000E+00  0.00000000000E+00 -0.24931172564E+02  0.24931377147E+02  0.10100000352E+00 0.  1.
    10030    2    1    2    0    0  0.00000000000E+00  0.00000000000E+00  0.24741901823E+04  0.25240527340E+04  0.49922454475E+03 0.  0.
        4    1    3    3  502    0  0.96885259693E+02 -0.11097993353E+03  0.22558573843E+04  0.22606630555E+04  0.12699999809E+01 0. -1.
       -4    1    3    3    0  502 -0.96885259693E+02  0.11097993353E+03  0.21833279792E+03  0.26338967850E+03  0.12699999809E+01 0.  1.
</event>
<event>
 5   0  0.2643185E-02  0.4997841E+03  0.7818609E-02  0.1013835E+00
        1   -1    0    0  501    0  0.00000000000E+00  0.00000000000E+00  0.63874009491E+03  0.63874009493E+03  0.50400001928E-02 0.  1.
       -1   -1    0    0    0  501  0.00000000000E+00  0.00000000000E+00 -0.97764402991E+02  0.97764403121E+02  0.50400001928E-02 0. -1.
    10030    2    1    2    0    0  0.00000000000E+00  0.00000000000E+00  0.54097569192E+03  0.73650449805E+03  0.49978412980E+03 0.  0.
        1    1    3    3  502    0 -0.88857624683E+02 -0.22816210350E+03  0.19691735487E+03  0.31421341094E+03  0.50400001928E-02 0. -1.
       -1    1    3    3    0  502  0.88857624683E+02  0.22816210350E+03  0.34405833705E+03  0.42229108711E+03  0.50400001928E-02 0.  1.
</event>
<event>
 5   0  0.4451135E-02  0.4988010E+03  0.7818609E-02  0.1014092E+00
       -2   -1    0    0    0  501  0.00000000000E+00  0.00000000000E+00  0.23221078439E+02  0.23221078579E+02  0.25500000920E-02 0.  1.
        2   -1    0    0  501    0  0.00000000000E+00  0.00000000000E+00 -0.26786272256E+04  0.26786272256E+04  0.25500000920E-02 0. -1.
    10030    2    1    2    0    0  0.00000000000E+00  0.00000000000E+00 -0.26554061471E+04  0.27018483041E+04  0.49880101485E+03 0.  0.
        1    1    3    3  502    0  0.12164590349E+03 -0.11225363878E+03 -0.31720431672E+03  0.35779489072E+03  0.50400001928E-02 0.  1.
       -1    1    3    3    0  502 -0.12164590349E+03  0.11225363878E+03 -0.23382018304E+04  0.23440534134E+04  0.50400001928E-02 0. -1.
</event>
<event>
 5   0  0.2715483E-02  0.5004073E+03  0.7818609E-02  0.1013673E+00
        1   -1    0    0  501    0  0.00000000000E+00  0.00000000000E+00  0.20155891155E+03  0.20155891161E+03  0.50400001928E-02 0.  1.
       -1   -1    0    0    0  501  0.00000000000E+00  0.00000000000E+00 -0.31058843352E+03  0.31058843356E+03  0.50400001928E-02 0. -1.
    10030    2    1    2    0    0  0.00000000000E+00  0.00000000000E+00 -0.10902952197E+03  0.51214734517E+03  0.50040730061E+03 0.  0.
        5    1    3    3  502    0 -0.11905897206E+03  0.56476106516E+01 -0.27961299711E+03  0.30399416522E+03  0.46999998093E+01 0. -1.
       -5    1    3    3    0  502  0.11905897206E+03 -0.56476106516E+01  0.17058347514E+03  0.20815317995E+03  0.46999998093E+01 0.  1.
</event>
<event>
 5   0  0.4519539E-02  0.4998784E+03  0.7818609E-02  0.1013811E+00
        2   -1    0    0  501    0  0.00000000000E+00  0.00000000000E+00  0.28323781153E+03  0.28323781154E+03  0.25500000920E-02 0.  1.
       -2   -1    0    0    0  501  0.00000000000E+00  0.00000000000E+00 -0.22055526910E+03  0.22055526911E+03  0.25500000920E-02 0. -1.
    10030    2    1    2    0    0  0.00000000000E+00  0.00000000000E+00  0.62682542428E+02  0.50379308065E+03  0.49987835219E+03 0.  0.
        4    1    3    3  502    0  0.11436625446E+03  0.93557413032E+02  0.23450204895E+03  0.27717404921E+03  0.12699999809E+01 0.  1.
       -4    1    3    3    0  502 -0.11436625446E+03 -0.93557413032E+02 -0.17181950652E+03  0.22661903145E+03  0.12699999809E+01 0. -1.
</event>
<event>
 5   0  0.4451135E-02  0.5014813E+03  0.7818609E-02  0.1013393E+00
       -2   -1    0    0    0  501  0.00000000000E+00  0.00000000000E+00  0.88123079896E+02  0.88123079933E+02  0.25500000920E-02 0.  1.
        2   -1    0    0  501    0  0.00000000000E+00  0.00000000000E+00 -0.71344395095E+03  0.71344395095E+03  0.25500000920E-02 0. -1.
    10030    2    1    2    0    0  0.00000000000E+00  0.00000000000E+00 -0.62532087105E+03  0.80156703088E+03  0.50148131892E+03 0.  0.
        1    1    3    3  502    0 -0.15695382408E+03  0.17179150493E+03 -0.16336577875E+03  0.28431532100E+03  0.50400001928E-02 0.  1.
       -1    1    3    3    0  502  0.15695382408E+03 -0.17179150493E+03 -0.46195509229E+03  0.51725170989E+03  0.50400001928E-02 0. -1.
</event>
<event>
 5   0  0.4409622E-02  0.5009561E+03  0.7818609E-02  0.1013530E+00
        2   -1    0    0  501    0  0.00000000000E+00  0.00000000000E+00  0.41626476977E+03  0.41626476978E+03  0.25500000920E-02 0. -1.
       -2   -1    0    0    0  501  0.00000000000E+00  0.00000000000E+00 -0.15071958630E+03  0.15071958633E+03  0.25500000920E-02 0.  1.
    10030    2    1    2    0    0  0.00000000000E+00  0.00000000000E+00  0.26554518347E+03  0.56698435611E+03  0.50095610148E+03 0.  0.
        3    1    3    3  502    0  0.16857893613E+03  0.18443809751E+03  0.15247295423E+03  0.29271877543E+03  0.10100000352E+00 0. -1.
       -3    1    3    3    0  502 -0.16857893613E+03 -0.18443809751E+03  0.11307222924E+03  0.27426558068E+03  0.10100000352E+00 0.  1.
</event>
<event>
 5   0  0.4534223E-02  0.4996878E+03  0.7818609E-02  0.1013860E+00
       -2   -1    0    0    0  501  0.00000000000E+00  0.00000000000E+00  0.41941340521E+02  0.41941340598E+02  0.25500000920E-02 0.  1.
        2   -1    0    0  501    0  0.00000000000E+00  0.00000000000E+00 -0.14883159019E+04  0.14883159019E+04  0.25500000920E-02 0. -1.
    10030    2    1    2    0    0  0.00000000000E+00  0.00000000000E+00 -0.14463745613E+04  0.15302572425E+04  0.49968775892E+03 0.  0.
        2    1    3    3  502    0 -0.18157778460E+03  0.14354826946E+03 -0.10112079472E+04  0.10373611280E+04  0.25500000920E-02 0. -1.
       -2    1    3    3    0  502  0.18157778460E+03 -0.14354826946E+03 -0.43516661416E+03  0.49289611442E+03  0.25500000920E-02 0.  1.
</event>
<event>
 5   0  0.4451135E-02  0.4994951E+03  0.7818609E-02  0.1013911E+00
        2   -1    0    0  501    0  0.00000000000E+00  0.00000000000E+00  0.16055737257E+04  0.16055737257E+04  0.25500000920E-02 0. -1.
       -2   -1    0    0    0  501  0.00000000000E+00  0.00000000000E+00 -0.38848323620E+02  0.38848323703E+02  0.25500000920E-02 0.  1.
    10030    2    1    2    0    0  0.00000000000E+00  0.00000000000E+00  0.15667254021E+04  0.16444220494E+04  0.49949513616E+03 0.  0.
        1    1    3    3  502    0 -0.13046077260E+03 -0.17608715567E+03  0.38902816060E+03  0.44650824107E+03  0.50400001928E-02 0.  1.
       -1    1    3    3    0  502  0.13046077260E+03  0.17608715567E+03  0.11776972415E+04  0.11979138084E+04  0.50400001928E-02 0. -1.
</event>
<event>
 5   0  0.4631619E-02  0.5011582E+03  0.7818609E-02  0.1013477E+00
        2   -1    0    0  501    0  0.00000000000E+00  0.00000000000E+00  0.43634912133E+03  0.43634912134E+03  0.25500000920E-02 0.  1.
       -2   -1    0    0    0  501  0.00000000000E+00  0.00000000000E+00 -0.14389825046E+03  0.14389825048E+03  0.25500000920E-02 0. -1.
    10030    2    1    2    0    0  0.00000000000E+00  0.00000000000E+00  0.29245087087E+03  0.58024737182E+03  0.50115815930E+03 0.  0.
        5    1    3    3  502    0 -0.12827064604E+02 -0.30148288817E+02  0.43380697912E+03  0.43506785452E+03  0.46999998093E+01 0.  1.
       -5    1    3    3    0  502  0.12827064604E+02  0.30148288817E+02 -0.14135610825E+03  0.14517951730E+03  0.46999998093E+01 0. -1.
</event>
<event>
 5   0  0.1805500E-02  0.4994824E+03  0.7818609E-02  0.1013914E+00
       -3   -1    0    0    0  501  0.00000000000E+00  0.00000000000E+00  0.13765765589E+03  0.13765769294E+03  0.10100000352E+00 0.  1.
        3   -1    0    0  501    0  0.00000000000E+00  0.00000000000E+00 -0.45308521796E+03  0.45308522922E+03  0.10100000352E+00 0. -1.
    10030    2    1    2    0    0  0.00000000000E+00  0.00000000000E+00 -0.31542756207E+03  0.59074292216E+03  0.49948238524E+03 0.  0.
        1    1    3    3  502    0 -0.12834909806E+03 -0.53174702934E+02  0.87736699348E+02  0.16431301970E+03  0.50400001928E-02 0.  1.
       -1    1    3    3    0  502  0.12834909806E+03  0.53174702934E+02 -0.40316426142E+03  0.42642990246E+03  0.50400001928E-02 0. -1.
</event>
<event>
 5   0  0.4534223E-02  0.5318193E+03  0.7818609E-02  0.1005792E+00
       -2   -1    0    0    0  501  0.00000000000E+00  0.00000000000E+00  0.11271662086E+03  0.11271662089E+03  0.25500000920E-02 0.  1.
        2   -1    0    0  501    0  0.00000000000E+00  0.00000000000E+00 -0.62730713243E+03  0.62730713244E+03  0.25500000920E-02 0. -1.
    10030    2    1    2    0    0  0.00000000000E+00  0.00000000000E+00 -0.51459051157E+03  0.74002375333E+03  0.53181929345E+03 0.  0.
        2    1    3    3  502    0  0.21804131424E+03  0.12869953588E+03 -0.37036098972E+03  0.44863442574E+03  0.25500000920E-02 0.  1.
       -2    1    3    3    0  502 -0.21804131424E+03 -0.12869953588E+03 -0.14422952186E+03  0.29138932759E+03  0.25500000920E-02 0. -1.
</event>
<event>
 5   0  0.2779445E-02  0.5011956E+03  0.7818609E-02  0.1013467E+00
       -1   -1    0    0    0  501  0.00000000000E+00  0.00000000000E+00  0.34958344552E+03  0.34958344556E+03  0.50400001928E-02 0. -1.
        1   -1    0    0  501    0  0.00000000000E+00  0.00000000000E+00 -0.17964022277E+03  0.17964022285E+03  0.50400001928E-02 0.  1.
    10030    2    1    2    0    0  0.00000000000E+00  0.00000000000E+00  0.16994322275E+03  0.52922366841E+03  0.50119556287E+03 0.  0.
        3    1    3    3  502    0 -0.21027757676E+03 -0.56951570005E+02 -0.45805560639E+02  0.22261693601E+03  0.10100000352E+00 0.  1.
       -3    1    3    3    0  502  0.21027757676E+03  0.56951570005E+02  0.21574878339E+03  0.30660673239E+03  0.10100000352E+00 0. -1.
</event>
<event>
 5   0  0.2643185E-02  0.5000146E+03  0.7818609E-02  0.1013775E+00
        1   -1    0    0  501    0  0.00000000000E+00  0.00000000000E+00  0.75011964648E+02  0.75011964817E+02  0.50400001928E-02 0. -1.
       -1   -1    0    0    0  501  0.00000000000E+00  0.00000000000E+00 -0.83324893329E+03  0.83324893331E+03  0.50400001928E-02 0.  1.
    10030    2    1    2    0    0  0.00000000000E+00  0.00000000000E+00 -0.75823696864E+03  0.90826089812E+03  0.50001455823E+03 0.  0.
        1    1    3    3  502    0  0.82427116660E+02 -0.23511752722E+03 -0.34148826186E+03  0.42271587879E+03  0.50400001928E-02 0.  1.
       -1    1    3    3    0  502 -0.82427116660E+02  0.23511752722E+03 -0.41674870678E+03  0.48554501933E+03  0.50400001928E-02 0. -1.
</event>
<event>
 5   0  0.4519539E-02  0.5004636E+03  0.7818609E-02  0.1013658E+00
       -2   -1    0    0    0  501  0.00000000000E+00  0.00000000000E+00  0.16740667540E+03  0.16740667542E+03  0.25500000920E-02 0.  1.
        2   -1    0    0  501    0  0.00000000000E+00  0.00000000000E+00 -0.37403505973E+03  0.37403505974E+03  0.25500000920E-02 0. -1.
    10030    2    1    2    0    0  0.00000000000E+00  0.00000000000E+00 -0.20662838434E+03  0.54144173516E+03  0.50046364839E+03 0.  0.
        4    1    3    3  502    0  0.63090918122E+02 -0.23680159524E+03 -0.15804165255E+03  0.29160630360E+03  0.12699999809E+01 0. -1.
       -4    1    3    3    0  502 -0.63090918122E+02  0.23680159524E+03 -0.48586731790E+02  0.24983543156E+03  0.12699999809E+01 0.  1.
</event>
<event>
 5   0  0.4631619E-02  0.4998717E+03  0.7818609E-02  0.1013812E+00
       -2   -1    0    0    0  501  0.00000000000E+00  0.00000000000E+00  0.35101138507E+03  0.35101138508E+03  0.25500000920E-02 0.  1.
        2   -1    0    0  501    0  0.00000000000E+00  0.00000000000E+00 -0.17796552403E+03  0.17796552405E+03  0.25500000920E-02 0. -1.
    10030    2    1    2    0    0  0.00000000000E+00  0.00000000000E+00  0.17304586104E+03  0.52897690913E+03  0.49987168391E+03 0.  0.
        5    1    3    3  502    0 -0.45376763604E+02 -0.22499194595E+03 -0.18050989957E+02  0.23027886281E+03  0.46999998093E+01 0.  1.
       -5    1    3    3    0  502  0.45376763604E+02  0.22499194595E+03  0.19109685099E+03  0.29869804632E+03  0.46999998093E+01 0. -1.
</event>
<event>
 5   0  0.4631619E-02  0.4976115E+03  0.7818609E-02  0.1014404E+00
       -2   -1    0    0    0  501  0.00000000000E+00  0.00000000000E+00  0.21800273812E+03  0.21800273813E+03  0.25500000920E-02 0. -1.
        2   -1    0    0  501    0  0.00000000000E+00  0.00000000000E+00 -0.28396116568E+03  0.28396116569E+03  0.25500000920E-02 0.  1.
    10030    2    1    2    0    0  0.00000000000E+00  0.00000000000E+00 -0.65958427558E+02  0.50196390382E+03  0.49761154184E+03 0.  0.
        5    1    3    3  502    0  0.95665457468E+02 -0.15983674608E+03  0.13333416736E+03  0.22912825084E+03  0.46999998093E+01 0. -1.
       -5    1    3    3    0  502 -0.95665457468E+02  0.15983674608E+03 -0.19929259492E+03  0.27283565298E+03  0.46999998093E+01 0.  1.
</event>
<event>
 5   0  0.2723308E-02  0.4983332E+03  0.7818609E-02  0.1014215E+00
        1   -1    0    0  501    0  0.00000000000E+00  0.00000000000E+00  0.86528455856E+03  0.86528455857E+03  0.50400001928E-02 0. -1.
       -1   -1    0    0    0  501  0.00000000000E+00  0.00000000000E+00 -0.71749807253E+02  0.71749807430E+02  0.50400001928E-02 0.  1.
    10030    2    1    2    0    0  0.00000000000E+00  0.00000000000E+00  0.79353475131E+03  0.93703436600E+03  0.49833322340E+03 0.  0.
        4    1    3    3  502    0 -0.23103834381E+02  0.95697796855E+02  0.82715728559E+03  0.83299618456E+03  0.12699999809E+01 0. -1.
       -4    1    3    3    0  502  0.23103834381E+02 -0.95697796855E+02 -0.33622534286E+02  0.10403818144E+03  0.12699999809E+01 0.  1.
</event>
<event>
 5   0  0.2715483E-02  0.4968179E+03  0.7818609E-02  0.1014613E+00
        1   -1    0    0  501    0  0.00000000000E+00  0.00000000000E+00  0.98739458635E+02  0.98739458764E+02  0.50400001928E-02 0.  1.
       -1   -1    0    0    0  501  0.00000000000E+00  0.00000000000E+00 -0.62494784880E+03  0.62494784882E+03  0.50400001928E-02 0. -1.
    10030    2    1    2    0    0  0.00000000000E+00  0.00000000000E+00 -0.52620839016E+03  0.72368730758E+03  0.49681792367E+03 0.  0.
        5    1    3    3  502    0  0.16905009242E+02 -0.24327228250E+03 -0.19450658720E+03  0.31196487820E+03  0.46999998093E+01 0. -1.
       -5    1    3    3    0  502 -0.16905009242E+02  0.24327228250E+03 -0.33170180296E+03  0.41172242938E+03  0.46999998093E+01 0.  1.
</event>
<event>
 5   0  0.4451135E-02  0.4992355E+03  0.7818609E-02  0.1013979E+00
        2   -1    0    0  501    0  0.00000000000E+00  0.00000000000E+00  0.17588745971E+03  0.17588745972E+03  0.25500000920E-02 0.  1.
       -2   -1    0    0    0  501  0.00000000000E+00  0.00000000000E+00 -0.35425498206E+03  0.35425498207E+03  0.25500000920E-02 0. -1.
    10030    2    1    2    0    0  0.00000000000E+00  0.00000000000E+00 -0.17836752235E+03  0.53014244179E+03  0.49923545102E+03 0.  0.
        1    1    3    3  502    0 -0.93565464897E+02 -0.91217363473E+00 -0.33492713631E+03  0.34775208834E+03  0.50400001928E-02 0. -1.
       -1    1    3    3    0  502  0.93565464897E+02  0.91217363473E+00  0.15655961396E+03  0.18239035345E+03  0.50400001928E-02 0.  1.
</event>
<event>
 5   0  0.4519539E-02  0.5001545E+03  0.7818609E-02  0.1013739E+00
        2   -1    0    0  501    0  0.00000000000E+00  0.00000000000E+00  0.68225130436E+03  0.68225130436E+03  0.25500000920E-02 0. -1.
       -2   -1    0    0    0  501  0.00000000000E+00  0.00000000000E+00 -0.91665084630E+02  0.91665084666E+02  0.25500000920E-02 0.  1.
    10030    2    1    2    0    0  0.00000000000E+00  0.00000000000E+00  0.59058621973E+03  0.77391638903E+03  0.50015447041E+03 0.  0.
        4    1    3    3  502    0  0.34699131182E+02  0.12911907848E+01 -0.87911762798E+02  0.94529296076E+02  0.12699999809E+01 0.  1.
       -4    1    3    3    0  502 -0.34699131182E+02 -0.12911907848E+01  0.67849798253E+03  0.67938709295E+03  0.12699999809E+01 0. -1.
</event>
<event>
 5   0  0.4534223E-02  0.4995229E+03  0.7818609E-02  0.1013904E+00
       -2   -1    0    0    0  501  0.00000000000E+00  0.00000000000E+00  0.17878088385E+03  0.17878088386E+03  0.25500000920E-02 0.  1.
        2   -1    0    0  501    0  0.00000000000E+00  0.00000000000E+00 -0.34892314741E+03  0.34892314742E+03  0.25500000920E-02 0. -1.
    10030    2    1    2    0    0  0.00000000000E+00  0.00000000000E+00 -0.17014226357E+03  0.52770403129E+03  0.49952292718E+03 0.  0.
        2    1    3    3  502    0 -0.13752200223E+03  0.15767833053E+03 -0.22917042926E+03  0.31031249197E+03  0.25500000920E-02 0. -1.
       -2    1    3    3    0  502  0.13752200223E+03 -0.15767833053E+03  0.59028165696E+02  0.21739153932E+03  0.25500000920E-02 0.  1.
</event>
<event>
 5   0  0.4534223E-02  0.5012874E+03  0.7818609E-02  0.1013443E+00
        2   -1    0    0  501    0  0.00000000000E+00  0.00000000000E+00  0.40730989249E+03  0.40730989250E+03  0.25500000920E-02 0.  1.
       -2   -1    0    0    0  501  0.00000000000E+00  0.00000000000E+00 -0.15423701420E+03  0.15423701422E+03  0.25500000920E-02 0. -1.
    10030    2    1    2    0    0  0.00000000000E+00  0.00000000000E+00  0.25307287829E+03  0.56154690673E+03  0.50128738936E+03 0.  0.
        2    1    3    3  502    0  0.49870359260E+02  0.98469370977E+02  0.37861841000E+03  0.39437947481E+03  0.25500000920E-02 0.  1.
       -2    1    3    3    0  502 -0.49870359260E+02 -0.98469370977E+02 -0.12554553171E+03  0.16716743191E+03  0.25500000920E-02 0. -1.
</event>
<event>
 5   0  0.1805500E-02  0.5017739E+03  0.7818609E-02  0.1013317E+00
        4   -1    0    0  501    0  0.00000000000E+00  0.00000000000E+00  0.37470344049E+03  0.37470559272E+03  0.12699999809E+01 0.  1.
       -4   -1    0    0    0  501  0.00000000000E+00  0.00000000000E+00 -0.16797916781E+03  0.16798396863E+03  0.12699999809E+01 0. -1.
    10030    2    1    2    0    0  0.00000000000E+00  0.00000000000E+00  0.20672427268E+03  0.54268956135E+03  0.50177388840E+03 0.  0.
        1    1    3    3  502    0  0.20581904354E+03 -0.18993545484E+02 -0.50437651043E+02  0.21275852538E+03  0.50400001928E-02 0. -1.
       -1    1    3    3    0  502 -0.20581904354E+03  0.18993545484E+02  0.25716192372E+03  0.32993103597E+03  0.50400001928E-02 0.  1.
</event>
<event>
 5   0  0.2643185E-02  0.5033970E+03  0.7818609E-02  0.1012896E+00
       -1   -1    0    0    0  501  0.00000000000E+00  0.00000000000E+00  0.35880803148E+03  0.35880803152E+03  0.50400001928E-02 0. -1.
        1   -1    0    0  501    0  0.00000000000E+00  0.00000000000E+00 -0.17656278069E+03  0.17656278076E+03  0.50400001928E-02 0.  1.
    10030    2    1    2    0    0  0.00000000000E+00  0.00000000000E+00  0.18224525080E+03  0.53537081227E+03  0.50339703535E+03 0.  0.
        1    1    3    3  502    0 -0.20362305918E+02  0.35013164862E+02  0.35531935357E+03  0.35762045280E+03  0.50400001928E-02 0. -1.
       -1    1    3    3    0  502  0.20362305918E+02 -0.35013164862E+02 -0.17307410277E+03  0.17775035947E+03  0.50400001928E-02 0.  1.
</event>
<event>
 5   0  0.4631619E-02  0.4977421E+03  0.7818609E-02  0.1014370E+00
       -2   -1    0    0    0  501  0.00000000000E+00  0.00000000000E+00  0.40294762082E+03  0.40294762083E+03  0.25500000920E-02 0.  1.
        2   -1    0    0  501    0  0.00000000000E+00  0.00000000000E+00 -0.15370928895E+03  0.15370928897E+03  0.25500000920E-02 0. -1.
    10030    2    1    2    0    0  0.00000000000E+00  0.00000000000E+00  0.24923833188E+03  0.55665690980E+03  0.49774207090E+03 0.  0.
        5    1    3    3  502    0  0.17253403142E+03 -0.45062601341E+02  0.31869989688E+03  0.36522642882E+03  0.46999998093E+01 0.  1.
       -5    1    3    3    0  502 -0.17253403142E+03  0.45062601341E+02 -0.69461565001E+02  0.19143048098E+03  0.46999998093E+01 0. -1.
</event>
<event>
 5   0  0.4451135E-02  0.5004562E+03  0.7818609E-02  0.1013660E+00
        2   -1    0    0  501    0  0.00000000000E+00  0.00000000000E+00  0.17216756309E+04  0.17216756309E+04  0.25500000920E-02 0. -1.
       -2   -1    0    0    0  501  0.00000000000E+00  0.00000000000E+00 -0.36368120782E+02  0.36368120871E+02  0.25500000920E-02 0.  1.
    10030    2    1    2    0    0  0.00000000000E+00  0.00000000000E+00  0.16853075102E+04  0.17580437518E+04  0.50045622136E+03 0.  0.
        1    1    3    3  502    0  0.10846234466E+03  0.15523913173E+03  0.26809785168E+03  0.32823730186E+03  0.50400001928E-02 0.  1.
       -1    1    3    3    0  502 -0.10846234466E+03 -0.15523913173E+03  0.14172096585E+04  0.14298064500E+04  0.50400001928E-02 0. -1.
</event>
<event>
 5   0  0.2723308E-02  0.5008322E+03  0.7818609E-02  0.1013562E+00
        1   -1    0    0  501    0  0.00000000000E+00  0.00000000000E+00  0.15709228617E+04  0.15709228617E+04  0.50400001928E-02 0. -1.
       -1   -1    0    0    0  501  0.00000000000E+00  0.00000000000E+00 -0.39918071132E+02  0.39918071450E+02  0.50400001928E-02 0.  1.
    10030    2    1    2    0    0  0.00000000000E+00  0.00000000000E+00  0.15310047906E+04  0.16108409332E+04  0.50083215072E+03 0.  0.
        4    1    3    3  502    0 -0.23669185020E+03  0.71346266000E+02  0.63711984424E+03  0.68340078318E+03  0.12699999809E+01 0.  1.
       -4    1    3    3    0  502  0.23669185020E+03 -0.71346266000E+02  0.89388494636E+03  0.92744015001E+03  0.12699999809E+01 0. -1.
</event>
<event>
 5   0  0.2779445E-02  0.5000027E+03  0.7818609E-02  0.1013778E+00
       -1   -1    0    0    0  501  0.00000000000E+00  0.00000000000E+00  0.60469170127E+02  0.60469170337E+02  0.50400001928E-02 0. -1.
        1   -1    0    0  501    0  0.00000000000E+00  0.00000000000E+00 -0.10335955120E+04  0.10335955120E+04  0.50400001928E-02 0.  1.
    10030    2    1    2    0    0  0.00000000000E+00  0.00000000000E+00 -0.97312634183E+03  0.10940646823E+04  0.50000265190E+03 0.  0.
        3    1    3    3  502    0  0.15119150096E+03 -0.18218937570E+03 -0.66227889358E+03  0.70332437869E+03  0.10100000352E+00 0.  1.
       -3    1    3    3    0  502 -0.15119150096E+03  0.18218937570E+03 -0.31084744825E+03  0.39074030361E+03  0.10100000352E+00 0. -1.
</event>
<event>
 5   0  0.4631619E-02  0.4988220E+03  0.7818609E-02  0.1014087E+00
        2   -1    0    0  501    0  0.00000000000E+00  0.00000000000E+00  0.64037234361E+03  0.64037234362E+03  0.25500000920E-02 0. -1.
       -2   -1    0    0    0  501  0.00000000000E+00  0.00000000000E+00 -0.97140113515E+02  0.97140113548E+02  0.25500000920E-02 0.  1.
    10030    2    1    2    0    0  0.00000000000E+00  0.00000000000E+00  0.54323223010E+03  0.73751245716E+03  0.49882198093E+03 0.  0.
        5    1    3    3  502    0  0.29870120690E+02 -0.13313436172E+03 -0.36987818915E+02  0.14144670773E+03  0.46999998093E+01 0.  1.
       -5    1    3    3    0  502 -0.29870120690E+02  0.13313436172E+03  0.58022004901E+03  0.59606574944E+03  0.46999998093E+01 0. -1.
</event>
<event>
 5   0  0.1805500E-02  0.4999827E+03  0.7818609E-02  0.1013783E+00
       -4   -1    0    0    0  501  0.00000000000E+00  0.00000000000E+00  0.54899817412E+03  0.54899964307E+03  0.12699999809E+01 0. -1.
        4   -1    0    0  501    0  0.00000000000E+00  0.00000000000E+00 -0.11383069164E+03  0.11383777606E+03  0.12699999809E+01 0.  1.
    10030    2    1    2    0    0  0.00000000000E+00  0.00000000000E+00  0.43516748249E+03  0.66283741913E+03  0.49998270608E+03 0.  0.
        2    1    3    3  502    0 -0.94695812822E+02  0.29597532574E+02 -0.86617498293E+02  0.13170384170E+03  0.25500000920E-02 0.  1.
       -2    1    3    3    0  502  0.94695812822E+02 -0.29597532574E+02  0.52178498078E+03  0.53113357743E+03  0.25500000920E-02 0. -1.
</event>
<event>
 5   0  0.4534223E-02  0.4982036E+03  0.7818609E-02  0.1014249E+00
        2   -1    0    0  501    0  0.00000000000E+00  0.00000000000E+00  0.17853380559E+03  0.17853380561E+03  0.25500000920E-02 0.  1.
       -2   -1    0    0    0  501  0.00000000000E+00  0.00000000000E+00 -0.34756277458E+03  0.34756277459E+03  0.25500000920E-02 0. -1.
    10030    2    1    2    0    0  0.00000000000E+00  0.00000000000E+00 -0.16902896899E+03  0.52609658019E+03  0.49820359225E+03 0.  0.
        2    1    3    3  502    0 -0.53182337113E+02 -0.23689846970E+03 -0.25696296321E+02  0.24415066164E+03  0.25500000920E-02 0.  1.
       -2    1    3    3    0  502  0.53182337113E+02  0.23689846970E+03 -0.14333267267E+03  0.28194591855E+03  0.25500000920E-02 0. -1.
</event>
<event>
 5   0  0.4519539E-02  0.4982387E+03  0.7818609E-02  0.1014240E+00
        2   -1    0    0  501    0  0.00000000000E+00  0.00000000000E+00  0.16435254560E+03  0.16435254562E+03  0.25500000920E-02 0. -1.
       -2   -1    0    0    0  501  0.00000000000E+00  0.00000000000E+00 -0.37760563618E+03  0.37760563619E+03  0.25500000920E-02 0.  1.
    10030    2    1    2    0    0  0.00000000000E+00  0.00000000000E+00 -0.21325309058E+03  0.54195818182E+03  0.49823868798E+03 0.  0.
        4    1    3    3  502    0  0.23352454884E+03  0.52907375029E+02 -0.31848872538E+02  0.24155510515E+03  0.12699999809E+01 0. -1.
       -4    1    3    3    0  502 -0.23352454884E+03 -0.52907375029E+02 -0.18140421804E+03  0.30040307666E+03  0.12699999809E+01 0.  1.
</event>
<event>
 5   0  0.2643185E-02  0.4987169E+03  0.7818609E-02  0.1014114E+00
        1   -1    0    0  501    0  0.00000000000E+00  0.00000000000E+00  0.13036740815E+04  0.13036740815E+04  0.50400001928E-02 0. -1.
       -1   -1    0    0    0  501  0.00000000000E+00  0.00000000000E+00 -0.47695699290E+02  0.47695699556E+02  0.50400001928E-02 0.  1.
    10030    2    1    2    0    0  0.00000000000E+00  0.00000000000E+00  0.12559783822E+04  0.13513697811E+04  0.49871694236E+03 0.  0.
        1    1    3    3  502    0  0.73953458019E+02 -0.89061171451E+02  0.29529466090E+02  0.11946964303E+03  0.50400001928E-02 0.  1.
       -1    1    3    3    0  502 -0.73953458019E+02  0.89061171451E+02  0.12264489161E+04  0.12319001380E+04  0.50400001928E-02 0. -1.
</event>
<event>
 5   0  0.2643185E-02  0.5012202E+03  0.7818609E-02  0.1013461E+00
       -1   -1    0    0    0  501  0.00000000000E+00  0.00000000000E+00  0.14856839902E+03  0.14856839911E+03  0.50400001928E-02 0. -1.
        1   -1    0    0  501    0  0.00000000000E+00  0.00000000000E+00 -0.42273749377E+03  0.42273749380E+03  0.50400001928E-02 0.  1.
    10030    2    1    2    0    0  0.00000000000E+00  0.00000000000E+00 -0.27416909474E+03  0.57130589291E+03  0.50122024177E+03 0.  0.
        1    1    3    3  502    0  0.63933999107E+02 -0.13288739415E+03 -0.36804802901E+03  0.39649207741E+03  0.50400001928E-02 0.  1.
       -1    1    3    3    0  502 -0.63933999107E+02  0.13288739415E+03  0.93878934264E+02  0.17481381550E+03  0.50400001928E-02 0. -1.
</event>
<event>
 5   0  0.2779445E-02  0.4984893E+03  0.7818609E-02  0.1014174E+00
       -1   -1    0    0    0  501  0.00000000000E+00  0.00000000000E+00  0.42040867769E+03  0.42040867772E+03  0.50400001928E-02 0.  1.
        1   -1    0    0  501    0  0.00000000000E+00  0.00000000000E+00 -0.14776789362E+03  0.14776789370E+03  0.50400001928E-02 0. -1.
    10030    2    1    2    0    0  0.00000000000E+00  0.00000000000E+00  0.27264078407E+03  0.56817657142E+03  0.49848933707E+03 0.  0.
        3    1    3    3  502    0  0.15094536254E+03  0.19579680978E+03  0.17239998360E+03  0.30140115750E+03  0.10100000352E+00 0.  1.
       -3    1    3    3    0  502 -0.15094536254E+03 -0.19579680978E+03  0.10024080047E+03  0.26677541392E+03  0.10100000352E+00 0. -1.
</event>
<event>
 5   0  0.4451135E-02  0.5141273E+03  0.7818609E-02  0.1010156E+00
        2   -1    0    0  501    0  0.00000000000E+00  0.00000000000E+00  0.24110853279E+03  0.24110853280E+03  0.25500000920E-02 0. -1.
       -2   -1    0    0    0  501  0.00000000000E+00  0.00000000000E+00 -0.27407455398E+03  0.27407455399E+03  0.25500000920E-02 0.  1.
    10030    2    1    2    0    0  0.00000000000E+00  0.00000000000E+00 -0.32966021191E+02  0.51518308680E+03  0.51412727448E+03 0.  0.
        1    1    3    3  502    0 -0.14806077694E+03 -0.30467456653E+02 -0.22483174859E+03  0.27092355892E+03  0.50400001928E-02 0.  1.
       -1    1    3    3    0  502  0.14806077694E+03  0.30467456653E+02  0.19186572740E+03  0.24425952787E+03  0.50400001928E-02 0. -1.
</event>
<event>
 5   0  0.2715483E-02  0.5002846E+03  0.7818609E-02  0.1013705E+00
        1   -1    0    0  501    0  0.00000000000E+00  0.00000000000E+00  0.16087831380E+03  0.16087831388E+03  0.50400001928E-02 0.  1.
       -1   -1    0    0    0  501  0.00000000000E+00  0.00000000000E+00 -0.38893483596E+03  0.38893483599E+03  0.50400001928E-02 0. -1.
    10030    2    1    2    0    0  0.00000000000E+00  0.00000000000E+00 -0.22805652216E+03  0.54981314987E+03  0.50028464145E+03 0.  0.
        5    1    3    3  502    0 -0.18691696645E+03  0.15140891124E+03 -0.38793017707E+02  0.24369981323E+03  0.46999998093E+01 0. -1.
       -5    1    3    3    0  502  0.18691696645E+03 -0.15140891124E+03 -0.18926350446E+03  0.30611333664E+03  0.46999998093E+01 0.  1.
</event>
<event>
 5   0  0.4519539E-02  0.4918588E+03  0.7818609E-02  0.1015926E+00
        2   -1    0    0  501    0  0.00000000000E+00  0.00000000000E+00  0.21148042796E+03  0.21148042798E+03  0.25500000920E-02 0.  1.
       -2   -1    0    0    0  501  0.00000000000E+00  0.00000000000E+00 -0.28598993290E+03  0.28598993291E+03  0.25500000920E-02 0. -1.
    10030    2    1    2    0    0  0.00000000000E+00  0.00000000000E+00 -0.74509504936E+02  0.49747036089E+03  0.49185881474E+03 0.  0.
        4    1    3    3  502    0  0.23436818255E+02 -0.51898708092E+02  0.20471707497E+03  0.21249342116E+03  0.12699999809E+01 0.  1.
       -4    1    3    3    0  502 -0.23436818255E+02  0.51898708092E+02 -0.27922657991E+03  0.28497693973E+03  0.12699999809E+01 0. -1.
</event>
<event>
 5   0  0.2723308E-02  0.4996390E+03  0.7818609E-02  0.1013873E+00
       -1   -1    0    0    0  501  0.00000000000E+00  0.00000000000E+00  0.54042806826E+02  0.54042807061E+02  0.50400001928E-02 0. -1.
        1   -1    0    0  501    0  0.00000000000E+00  0.00000000000E+00 -0.11548211916E+04  0.11548211916E+04  0.50400001928E-02 0.  1.
    10030    2    1    2    0    0  0.00000000000E+00  0.00000000000E+00 -0.11007783848E+04  0.12088639987E+04  0.49963898457E+03 0.  0.
        4    1    3    3  502    0  0.53283764485E+02  0.53447315341E+02 -0.11265717470E+04  0.11290975552E+04  0.12699999809E+01 0.  1.
       -4    1    3    3    0  502 -0.53283764485E+02 -0.53447315341E+02  0.25793362214E+02  0.79766443503E+02  0.12699999809E+01 0. -1.
</event>
<event>
 5   0  0.2715483E-02  0.4991064E+03  0.7818609E-02  0.1014012E+00
       -1   -1    0    0    0  501  0.00000000000E+00  0.00000000000E+00  0.38719017028E+03  0.38719017031E+03  0.50400001928E-02 0. -1.
        1   -1    0    0  501    0  0.00000000000E+00  0.00000000000E+00 -0.16084293600E+03  0.16084293608E+03  0.50400001928E-02 0.  1.
    10030    2    1    2    0    0  0.00000000000E+00  0.00000000000E+00  0.22634723427E+03  0.54803310639E+03  0.49910641675E+03 0.  0.
        5    1    3    3  502    0  0.15851181337E+03  0.12131867320E+03 -0.51202757840E+02  0.20612624252E+03  0.46999998093E+01 0.  1.
       -5    1    3    3    0  502 -0.15851181337E+03 -0.12131867320E+03  0.27754999211E+03  0.34190686387E+03  0.46999998093E+01 0. -1.
</event>
<event>
 5   0  0.4451135E-02  0.5006588E+03  0.7818609E-02  0.1013607E+00
       -2   -1    0    0    0  501  0.00000000000E+00  0.00000000000E+00  0.74107728146E+02  0.74107728190E+02  0.25500000920E-02 0. -1.
        2   -1    0    0  501    0  0.00000000000E+00  0.00000000000E+00 -0.84559068384E+03  0.84559068385E+03  0.25500000920E-02 0.  1.
    10030    2    1    2    0    0  0.00000000000E+00  0.00000000000E+00 -0.77148295570E+03  0.91969841204E+03  0.50065878417E+03 0.  0.
        1    1    3    3  502    0 -0.55174193218E+02  0.18904480875E+03 -0.66962818951E+03  0.69798570439E+03  0.50400001928E-02 0.  1.
       -1    1    3    3    0  502  0.55174193218E+02 -0.18904480875E+03 -0.10185476619E+03  0.22171270765E+03  0.50400001928E-02 0. -1.
</event>
<event>
 5   0  0.2779445E-02  0.4988455E+03  0.7818609E-02  0.1014081E+00
        1   -1    0    0  501    0  0.00000000000E+00  0.00000000000E+00  0.12039584357E+04  0.12039584357E+04  0.50400001928E-02 0.  1.
       -1   -1    0    0    0  501  0.00000000000E+00  0.00000000000E+00 -0.51672645570E+02  0.51672645816E+02  0.50400001928E-02 0. -1.
    10030    2    1    2    0    0  0.00000000000E+00  0.00000000000E+00  0.11522857901E+04  0.12556310815E+04  0.49884553797E+03 0.  0.
        3    1    3    3  502    0  0.93369657986E+02 -0.19603273726E+03  0.26719854963E+03  0.34429900121E+03  0.10100000352E+00 0. -1.
       -3    1    3    3    0  502 -0.93369657986E+02  0.19603273726E+03  0.88508724046E+03  0.91133208027E+03  0.10100000352E+00 0.  1.
</event>
<event>
 5   0  0.4534223E-02  0.5025807E+03  0.7818609E-02  0.1013108E+00
       -2   -1    0    0    0  501  0.00000000000E+00  0.00000000000E+00  0.84204545647E+02  0.84204545686E+02  0.25500000920E-02 0.  1.
        2   -1    0    0  501    0  0.00000000000E+00  0.00000000000E+00 -0.74992188711E+03  0.74992188711E+03  0.25500000920E-02 0. -1.
    10030    2    1    2    0    0  0.00000000000E+00  0.00000000000E+00 -0.66571734146E+03  0.83412643280E+03  0.50258066733E+03 0.  0.
        2    1    3    3  502    0  0.16983178683E+03  0.17937325590E+03 -0.25627476712E+03  0.35594150786E+03  0.25500000920E-02 0.  1.
       -2    1    3    3    0  502 -0.16983178683E+03 -0.17937325590E+03 -0.40944257434E+03  0.47818492494E+03  0.25500000920E-02 0. -1.
</event>
<event>
 5   0  0.4534223E-02  0.5021909E+03  0.7818609E-02  0.1013209E+00
        2   -1    0    0  501    0  0.00000000000E+00  0.00000000000E+00  0.91026434522E+03  0.91026434522E+03  0.25500000920E-02 0.  1.
       -2   -1    0    0    0  501  0.00000000000E+00  0.00000000000E+00 -0.69264403519E+02  0.69264403566E+02  0.25500000920E-02 0. -1.
    10030    2    1    2    0    0  0.00000000000E+00  0.00000000000E+00  0.84099994170E+03  0.97952874879E+03  0.50219086786E+03 0.  0.
        2    1    3    3  502    0  0.15395024871E+03  0.25638881257E+02  0.80416543815E+03  0.81917036276E+03  0.25500000920E-02 0.  1.
       -2    1    3    3    0  502 -0.15395024871E+03 -0.25638881257E+02  0.36834503551E+02  0.16035838603E+03  0.25500000920E-02 0. -1.
</event>
<event>
 5   0  0.4519539E-02  0.5185938E+03  0.7818609E-02  0.1009036E+00
        2   -1    0    0  501    0  0.00000000000E+00  0.00000000000E+00  0.63430062986E+03  0.63430062986E+03  0.25500000920E-02 0.  1.
       -2   -1    0    0    0  501  0.00000000000E+00  0.00000000000E+00 -0.10599843539E+03  0.10599843542E+03  0.25500000920E-02 0. -1.
    10030    2    1    2    0    0  0.00000000000E+00  0.00000000000E+00  0.52830219447E+03  0.74029906528E+03  0.51859376913E+03 0.  0.
        4    1    3    3  502    0  0.16362444176E+03 -0.16459610204E+03  0.42920281786E+03  0.48793596558E+03  0.12699999809E+01 0.  1.
       -4    1    3    3    0  502 -0.16362444176E+03  0.16459610204E+03  0.99099376615E+02  0.25236309971E+03  0.12699999809E+01 0. -1.
</event>
<event>
 5   0  0.4631619E-02  0.5028358E+03  0.7818609E-02  0.1013041E+00
        2   -1    0    0  501    0  0.00000000000E+00  0.00000000000E+00  0.77563661056E+03  0.77563661057E+03  0.25500000920E-02 0.  1.
       -2   -1    0    0    0  501  0.00000000000E+00  0.00000000000E+00 -0.81495575983E+02  0.81495576023E+02  0.25500000920E-02 0. -1.
    10030    2    1    2    0    0  0.00000000000E+00  0.00000000000E+00  0.69414103458E+03  0.85713218659E+03  0.50283576782E+03 0.  0.
        5    1    3    3  502    0  0.89789189216E+01 -0.15657052688E+02  0.77445576922E+03  0.77468031649E+03  0.46999998093E+01 0.  1.
       -5    1    3    3    0  502 -0.89789189216E+01  0.15657052688E+02 -0.80314734641E+02  0.82451870097E+02  0.46999998093E+01 0. -1.
</event>
<event>
 5   0  0.4451135E-02  0.4987785E+03  0.7818609E-02  0.1014098E+00
        2   -1    0    0  501    0  0.00000000000E+00  0.00000000000E+00  0.11556645252E+04  0.11556645252E+04  0.25500000920E-02 0. -1.
       -2   -1    0    0    0  501  0.00000000000E+00  0.00000000000E+00 -0.53817527594E+02  0.53817527654E+02  0.25500000920E-02 0.  1.
    10030    2    1    2    0    0  0.00000000000E+00  0.00000000000E+00  0.11018469976E+04  0.12094820528E+04  0.49877853807E+03 0.  0.
        1    1    3    3  502    0  0.91714715014E+02 -0.68269669431E+01  0.11130416581E+04  0.11168347815E+04  0.50400001928E-02 0. -1.
       -1    1    3    3    0  502 -0.91714715014E+02  0.68269669431E+01 -0.11194660576E+02  0.92647271296E+02  0.50400001928E-02 0.  1.
</event>
<event>
 5   0  0.4631619E-02  0.4707763E+03  0.7818609E-02  0.1021701E+00
       -2   -1    0    0    0  501  0.00000000000E+00  0.00000000000E+00  0.66891342677E+02  0.66891342726E+02  0.25500000920E-02 0. -1.
        2   -1    0    0  501    0  0.00000000000E+00  0.00000000000E+00 -0.82832226761E+03  0.82832226761E+03  0.25500000920E-02 0.  1.
    10030    2    1    2    0    0  0.00000000000E+00  0.00000000000E+00 -0.76143092493E+03  0.89521361034E+03  0.47077633192E+03 0.  0.
        5    1    3    3  502    0 -0.25897910284E+02  0.11781686381E+03 -0.76497347325E+03  0.77444045603E+03  0.46999998093E+01 0.  1.
       -5    1    3    3    0  502  0.25897910284E+02 -0.11781686381E+03  0.35425483181E+01  0.12077315431E+03  0.46999998093E+01 0. -1.
</event>
<event>
 5   0  0.2723308E-02  0.4989211E+03  0.7818609E-02  0.1014061E+00
       -1   -1    0    0    0  501  0.00000000000E+00  0.00000000000E+00  0.55217563853E+02  0.55217564083E+02  0.50400001928E-02 0.  1.
        1   -1    0    0  501    0  0.00000000000E+00  0.00000000000E+00 -0.11270068508E+04  0.11270068508E+04  0.50400001928E-02 0. -1.
    10030    2    1    2    0    0  0.00000000000E+00  0.00000000000E+00 -0.10717892870E+04  0.11822244149E+04  0.49892112760E+03 0.  0.
        4    1    3    3  502    0 -0.13757686523E+03 -0.47939577747E+02 -0.56075282565E+02  0.15611421196E+03  0.12699999809E+01 0.  1.
       -4    1    3    3    0  502  0.13757686523E+03  0.47939577747E+02 -0.10157140044E+04  0.10261102030E+04  0.12699999809E+01 0. -1.
</event>
<event>
 5   0  0.2779445E-02  0.5004819E+03  0.7818609E-02  0.1013653E+00
        1   -1    0    0  501    0  0.00000000000E+00  0.00000000000E+00  0.59295686497E+03  0.59295686499E+03  0.50400001928E-02 0.  1.
       -1   -1    0    0    0  501  0.00000000000E+00  0.00000000000E+00 -0.10560721295E+03  0.10560721307E+03  0.50400001928E-02 0. -1.
    10030    2    1    2    0    0  0.00000000000E+00  0.00000000000E+00  0.48734965201E+03  0.69856407806E+03  0.50048185565E+03 0.  0.
        3    1    3    3  502    0 -0.52815033586E+02 -0.18215600473E+03  0.15814480946E+02  0.19031643607E+03  0.10100000352E+00 0. -1.
       -3    1    3    3    0  502  0.52815033586E+02  0.18215600473E+03  0.47153517107E+03  0.50824764199E+03  0.10100000352E+00 0.  1.
</event>
<event>
 5   0  0.4519539E-02  0.5010773E+03  0.7818609E-02  0.1013498E+00
       -2   -1    0    0    0  501  0.00000000000E+00  0.00000000000E+00  0.90447660397E+02  0.90447660433E+02  0.25500000920E-02 0. -1.
        2   -1    0    0  501    0  0.00000000000E+00  0.00000000000E+00 -0.69398820932E+03  0.69398820932E+03  0.25500000920E-02 0.  1.
    10030    2    1    2    0    0  0.00000000000E+00  0.00000000000E+00 -0.60354054892E+03  0.78443586975E+03  0.50107727904E+03 0.  0.
        4    1    3    3  502    0  0.16112592656E+00 -0.33180749063E+02  0.86987579402E+02  0.93109827301E+02  0.12699999809E+01 0. -1.
       -4    1    3    3    0  502 -0.16112592656E+00  0.33180749063E+02 -0.69052812832E+03  0.69132604245E+03  0.12699999809E+01 0.  1.
</event>
<event>
 5   0  0.4534223E-02  0.4989945E+03  0.7818609E-02  0.1014042E+00
       -2   -1    0    0    0  501  0.00000000000E+00  0.00000000000E+00  0.12753709011E+03  0.12753709013E+03  0.25500000920E-02 0.  1.
        2   -1    0    0  501    0  0.00000000000E+00  0.00000000000E+00 -0.48808459713E+03  0.48808459714E+03  0.25500000920E-02 0. -1.
    10030    2    1    2    0    0  0.00000000000E+00  0.00000000000E+00 -0.36054750702E+03  0.61562168727E+03  0.49899454608E+03 0.  0.
        2    1    3    3  502    0 -0.96327260202E+02  0.28389364905E+02  0.10150193680E+03  0.14278494416E+03  0.25500000920E-02 0.  1.
       -2    1    3    3    0  502  0.96327260202E+02 -0.28389364905E+02 -0.46204944382E+03  0.47283674311E+03  0.25500000920E-02 0. -1.
</event>
<event>
 5   0  0.2715483E-02  0.4995929E+03  0.7818609E-02  0.1013885E+00
       -1   -1    0    0    0  501  0.00000000000E+00  0.00000000000E+00  0.72182317834E+02  0.72182318010E+02  0.50400001928E-02 0. -1.
        1   -1    0    0  501    0  0.00000000000E+00  0.00000000000E+00 -0.86445355536E+03  0.86445355537E+03  0.50400001928E-02 0.  1.
    10030    2    1    2    0    0  0.00000000000E+00  0.00000000000E+00 -0.79227123752E+03  0.93663587338E+03  0.49959287975E+03 0.  0.
        5    1    3    3  502    0  0.63366446986E+02  0.23079246280E+03 -0.52996659281E+03  0.58152140716E+03  0.46999998093E+01 0.  1.
       -5    1    3    3    0  502 -0.63366446986E+02 -0.23079246280E+03 -0.26230464471E+03  0.35511446622E+03  0.46999998093E+01 0. -1.
</event>
<event>
 5   0  0.2719671E-02  0.5005458E+03  0.7818609E-02  0.1013637E+00
        1   -1    0    0  501    0  0.00000000000E+00  0.00000000000E+00  0.47738971720E+03  0.47738971722E+03  0.50400001928E-02 0.  1.
       -1   -1    0    0    0  501  0.00000000000E+00  0.00000000000E+00 -0.13120627914E+03  0.13120627923E+03  0.50400001928E-02 0. -1.
    10030    2    1    2    0    0  0.00000000000E+00  0.00000000000E+00  0.34618343806E+03  0.60859599646E+03  0.50054581620E+03 0.  0.
        2    1    3    3  502    0  0.20910119576E+03 -0.11905992247E+03  0.25678308263E+03  0.35190357591E+03  0.25500000920E-02 0.  1.
       -2    1    3    3    0  502 -0.20910119576E+03  0.11905992247E+03  0.89400355427E+02  0.25669242054E+03  0.25500000920E-02 0. -1.
</event>
<event>
 5   0  0.4631619E-02  0.5012881E+03  0.7818609E-02  0.1013443E+00
        2   -1    0    0  501    0  0.00000000000E+00  0.00000000000E+00  0.27791144886E+03  0.27791144887E+03  0.25500000920E-02 0.  1.
       -2   -1    0    0    0  501  0.00000000000E+00  0.00000000000E+00 -0.22605199555E+03  0.22605199556E+03  0.25500000920E-02 0. -1.
    10030    2    1    2    0    0  0.00000000000E+00  0.00000000000E+00  0.51859453315E+02  0.50396344443E+03  0.50128809125E+03 0.  0.
        5    1    3    3  502    0 -0.39598210931E+02  0.97380859066E+02 -0.20276906906E+03  0.22844788330E+03  0.46999998093E+01 0. -1.
       -5    1    3    3    0  502  0.39598210931E+02 -0.97380859066E+02  0.25462852237E+03  0.27551556113E+03  0.46999998093E+01 0.  1.
</event>
<event>
 5   0  0.2719671E-02  0.4750782E+03  0.7818609E-02  0.1020497E+00
        1   -1    0    0  501    0  0.00000000000E+00  0.00000000000E+00  0.27738383941E+03  0.27738383945E+03  0.50400001928E-02 0. -1.
       -1   -1    0    0    0  501  0.00000000000E+00  0.00000000000E+00 -0.20341785772E+03  0.20341785778E+03  0.50400001928E-02 0.  1.
    10030    2    1    2    0    0  0.00000000000E+00  0.00000000000E+00  0.73965981689E+02  0.48080169723E+03  0.47507820999E+03 0.  0.
        2    1    3    3  502    0 -0.26261536478E+02 -0.23240897869E+03 -0.50044754539E+01  0.23394154495E+03  0.25500000920E-02 0. -1.
       -2    1    3    3    0  502  0.26261536478E+02  0.23240897869E+03  0.78970457143E+02  0.24686015228E+03  0.25500000920E-02 0.  1.
</event>
<event>
 5   0  0.2643185E-02  0.4982004E+03  0.7818609E-02  0.1014250E+00
       -1   -1    0    0    0  501  0.00000000000E+00  0.00000000000E+00  0.18323954639E+03  0.18323954646E+03  0.50400001928E-02 0.  1.
        1   -1    0    0  501    0  0.00000000000E+00  0.00000000000E+00 -0.33863268262E+03  0.33863268266E+03  0.50400001928E-02 0. -1.
    10030    2    1    2    0    0  0.00000000000E+00  0.00000000000E+00 -0.15539313623E+03  0.52187222912E+03  0.49820035803E+03 0.  0.
        1    1    3    3  502    0 -0.23771569833E+03  0.65801996532E+02 -0.41224950465E+02  0.25007629345E+03  0.50400001928E-02 0.  1.
       -1    1    3    3    0  502  0.23771569833E+03 -0.65801996532E+02 -0.11416818576E+03  0.27179593567E+03  0.50400001928E-02 0. -1.
</event>
<event>
 5   0  0.2643185E-02  0.4991276E+03  0.7818609E-02  0.1014007E+00
        1   -1    0    0  501    0  0.00000000000E+00  0.00000000000E+00  0.52178066206E+03  0.52178066208E+03  0.50400001928E-02 0.  1.
       -1   -1    0    0    0  501  0.00000000000E+00  0.00000000000E+00 -0.11936448955E+03  0.11936448965E+03  0.50400001928E-02 0. -1.
    10030    2    1    2    0    0  0.00000000000E+00  0.00000000000E+00  0.40241617251E+03  0.64114515173E+03  0.49912756856E+03 0.  0.
        1    1    3    3  502    0  0.87497542117E+02 -0.12800509154E+01 -0.99011508683E+02  0.13213908311E+03  0.50400001928E-02 0. -1.
       -1    1    3    3    0  502 -0.87497542117E+02  0.12800509154E+01  0.50142768119E+03  0.50900606863E+03  0.50400001928E-02 0.  1.
</event>
<event>
 5   0  0.4451135E-02  0.5016554E+03  0.7818609E-02  0.1013348E+00
        2   -1    0    0  501    0  0.00000000000E+00  0.00000000000E+00  0.38969782418E+03  0.38969782419E+03  0.25500000920E-02 0. -1.
       -2   -1    0    0    0  501  0.00000000000E+00  0.00000000000E+00 -0.16144439873E+03  0.16144439875E+03  0.25500000920E-02 0.  1.
    10030    2    1    2    0    0  0.00000000000E+00  0.00000000000E+00  0.22825342545E+03  0.55114222294E+03  0.50165538338E+03 0.  0.
        1    1    3    3  502    0  0.13609384701E+03  0.42408586823E+02 -0.11261687116E+03  0.18166613093E+03  0.50400001928E-02 0.  1.
       -1    1    3    3    0  502 -0.13609384701E+03 -0.42408586823E+02  0.34087029661E+03  0.36947609201E+03  0.50400001928E-02 0. -1.
</event>
<event>
 5   0  0.1805500E-02  0.4968488E+03  0.7818609E-02  0.1014605E+00
        3   -1    0    0  501    0  0.00000000000E+00  0.00000000000E+00  0.93250843446E+02  0.93250898142E+02  0.10100000352E+00 0.  1.
       -3   -1    0    0    0  501  0.00000000000E+00  0.00000000000E+00 -0.66181353594E+03  0.66181354365E+03  0.10100000352E+00 0. -1.
    10030    2    1    2    0    0  0.00000000000E+00  0.00000000000E+00 -0.56856269249E+03  0.75506444179E+03  0.49684884619E+03 0.  0.
        2    1    3    3  502    0 -0.13503715384E+03 -0.45874163911E+02 -0.59340333744E+03  0.61030073957E+03  0.25500000920E-02 0. -1.
       -2    1    3    3    0  502  0.13503715384E+03  0.45874163911E+02  0.24840644943E+02  0.14476370222E+03  0.25500000920E-02 0.  1.
</event>
<event>
 5   0  0.4409622E-02  0.4985041E+03  0.7818609E-02  0.1014170E+00
        2   -1    0    0  501    0  0.00000000000E+00  0.00000000000E+00  0.48655538618E+03  0.48655538618E+03  0.25500000920E-02 0. -1.
       -2   -1    0    0    0  501  0.00000000000E+00  0.00000000000E+00 -0.12768654883E+03  0.12768654886E+03  0.25500000920E-02 0.  1.
    10030    2    1    2    0    0  0.00000000000E+00  0.00000000000E+00  0.35886883735E+03  0.61424193504E+03  0.49850407455E+03 0.  0.
        3    1    3    3  502    0  0.14566327919E+03 -0.20000197367E+03  0.14230563798E+03  0.28542859909E+03  0.10100000352E+00 0.  1.
       -3    1    3    3    0  502 -0.14566327919E+03  0.20000197367E+03  0.21656319937E+03  0.32881333595E+03  0.10100000352E+00 0. -1.
</event>
<event>
 5   0  0.4631619E-02  0.4990213E+03  0.7818609E-02  0.1014035E+00
        2   -1    0    0  501    0  0.00000000000E+00  0.00000000000E+00  0.24875108482E+03  0.24875108483E+03  0.25500000920E-02 0. -1.
       -2   -1    0    0    0  501  0.00000000000E+00  0.00000000000E+00 -0.25027250272E+03  0.25027250273E+03  0.25500000920E-02 0.  1.
    10030    2    1    2    0    0  0.00000000000E+00  0.00000000000E+00 -0.15214178969E+01  0.49902358757E+03  0.49902126832E+03 0.  0.
        5    1    3    3  502    0 -0.74400630856E+02 -0.14966696780E+03  0.18443683489E+03  0.24894716545E+03  0.46999998093E+01 0. -1.
       -5    1    3    3    0  502  0.74400630856E+02  0.14966696780E+03 -0.18595825279E+03  0.25007642212E+03  0.46999998093E+01 0.  1.
</event>
<event>
 5   0  0.4519539E-02  0.4970132E+03  0.7818609E-02  0.1014561E+00
       -2   -1    0    0    0  501  0.00000000000E+00  0.00000000000E+00  0.93543965681E+02  0.93543965716E+02  0.25500000920E-02 0. -1.
        2   -1    0    0  501    0  0.00000000000E+00  0.00000000000E+00 -0.66017647328E+03  0.66017647329E+03  0.25500000920E-02 0.  1.
    10030    2    1    2    0    0  0.00000000000E+00  0.00000000000E+00 -0.56663250760E+03  0.75372043901E+03  0.49701318041E+03 0.  0.
        4    1    3    3  502    0 -0.23197999421E+03 -0.75741605437E+02 -0.21214725163E+03  0.32335673456E+03  0.12699999809E+01 0.  1.
       -4    1    3    3    0  502  0.23197999421E+03  0.75741605437E+02 -0.35448525597E+03  0.43036370445E+03  0.12699999809E+01 0. -1.
</event>
<event>
 5   0  0.4451135E-02  0.5003404E+03  0.7818609E-02  0.1013690E+00
        2   -1    0    0  501    0  0.00000000000E+00  0.00000000000E+00  0.39563648679E+03  0.39563648680E+03  0.25500000920E-02 0. -1.
       -2   -1    0    0    0  501  0.00000000000E+00  0.00000000000E+00 -0.15818846884E+03  0.15818846886E+03  0.25500000920E-02 0.  1.
    10030    2    1    2    0    0  0.00000000000E+00  0.00000000000E+00  0.23744801795E+03  0.55382495566E+03  0.50034040440E+03 0.  0.
        1    1    3    3  502    0 -0.24094487728E+03 -0.29038303332E+01  0.19316032972E+03  0.30882645470E+03  0.50400001928E-02 0. -1.
       -1    1    3    3    0  502  0.24094487728E+03  0.29038303332E+01  0.44287688231E+02  0.24499850096E+03  0.50400001928E-02 0.  1.
</event>
<event>
 5   0  0.2719671E-02  0.4999692E+03  0.7818609E-02  0.1013787E+00
       -1   -1    0    0    0  501  0.00000000000E+00  0.00000000000E+00  0.19921335640E+03  0.19921335647E+03  0.50400001928E-02 0.  1.
        1   -1    0    0  501    0  0.00000000000E+00  0.00000000000E+00 -0.31369539292E+03  0.31369539296E+03  0.50400001928E-02 0. -1.
    10030    2    1    2    0    0  0.00000000000E+00  0.00000000000E+00 -0.11448203652E+03  0.51290874943E+03  0.49996924761E+03 0.  0.
        2    1    3    3  502    0  0.23557004850E+03 -0.62305345774E+02  0.34992099535E-01  0.24367027946E+03  0.25500000920E-02 0.  1.
       -2    1    3    3    0  502 -0.23557004850E+03  0.62305345774E+02 -0.11451702862E+03  0.26923846997E+03  0.25500000920E-02 0. -1.
</event>
<event>
 5   0  0.2779445E-02  0.4990602E+03  0.7818609E-02  0.1014025E+00
       -1   -1    0    0    0  501  0.00000000000E+00  0.00000000000E+00  0.12964245767E+03  0.12964245776E+03  0.50400001928E-02 0.  1.
        1   -1    0    0  501    0  0.00000000000E+00  0.00000000000E+00 -0.48028460019E+03  0.48028460022E+03  0.50400001928E-02 0. -1.
    10030    2    1    2    0    0  0.00000000000E+00  0.00000000000E+00 -0.35064214253E+03  0.60992705798E+03  0.49906022076E+03 0.  0.
        3    1    3    3  502    0  0.28961808312E+01 -0.20980699337E+03 -0.10272259501E+02  0.21007829932E+03  0.10100000352E+00 0.  1.
       -3    1    3    3    0  502 -0.28961808312E+01  0.20980699337E+03 -0.34036988303E+03  0.39984875866E+03  0.10100000352E+00 0. -1.
</event>
<event>
 5   0  0.1805500E-02  0.5031272E+03  0.7818609E-02  0.1012966E+00
        3   -1    0    0  501    0  0.00000000000E+00  0.00000000000E+00  0.26527075598E+03  0.26527077521E+03  0.10100000352E+00 0.  1.
       -3   -1    0    0    0  501  0.00000000000E+00  0.00000000000E+00 -0.23856465138E+03  0.23856467276E+03  0.10100000352E+00 0. -1.
    10030    2    1    2    0    0  0.00000000000E+00  0.00000000000E+00  0.26706104608E+02  0.50383544797E+03  0.50312716346E+03 0.  0.
        4    1    3    3  502    0  0.18106481289E+03 -0.27230216255E+01 -0.16150874863E+03  0.24264906779E+03  0.12699999809E+01 0. -1.
       -4    1    3    3    0  502 -0.18106481289E+03  0.27230216255E+01  0.18821485324E+03  0.26118638018E+03  0.12699999809E+01 0.  1.
</event>
<event>
 5   0  0.4409622E-02  0.5000190E+03  0.7818609E-02  0.1013774E+00
        2   -1    0    0  501    0  0.00000000000E+00  0.00000000000E+00  0.15896882902E+04  0.15896882902E+04  0.25500000920E-02 0. -1.
       -2   -1    0    0    0  501  0.00000000000E+00  0.00000000000E+00 -0.39318866419E+02  0.39318866502E+02  0.25500000920E-02 0.  1.
    10030    2    1    2    0    0  0.00000000000E+00  0.00000000000E+00  0.15503694238E+04  0.16290071567E+04  0.50001896605E+03 0.  0.
        3    1    3    3  502    0 -0.10778227987E+03  0.21984739095E+03  0.61051336096E+03  0.65778147532E+03  0.10100000352E+00 0.  1.
       -3    1    3    3    0  502  0.10778227987E+03 -0.21984739095E+03  0.93985606286E+03  0.97122568143E+03  0.10100000352E+00 0. -1.
</event>
<event>
 5   0  0.4409622E-02  0.5012291E+03  0.7818609E-02  0.1013459E+00
       -2   -1    0    0    0  501  0.00000000000E+00  0.00000000000E+00  0.21279067302E+03  0.21279067303E+03  0.25500000920E-02 0.  1.
        2   -1    0    0  501    0  0.00000000000E+00  0.00000000000E+00 -0.29516163917E+03  0.29516163918E+03  0.25500000920E-02 0. -1.
    10030    2    1    2    0    0  0.00000000000E+00  0.00000000000E+00 -0.82370966152E+02  0.50795231222E+03  0.50122906482E+03 0.  0.
        3    1    3    3  502    0  0.13532708718E+03 -0.47913279700E+02  0.16699277016E+03  0.22021738892E+03  0.10100000352E+00 0.  1.
       -3    1    3    3    0  502 -0.13532708718E+03  0.47913279700E+02 -0.24936373631E+03  0.28773492330E+03  0.10100000352E+00 0. -1.
</event>
<event>
 5   0  0.2719671E-02  0.4985918E+03  0.7818609E-02  0.1014147E+00
        1   -1    0    0  501    0  0.00000000000E+00  0.00000000000E+00  0.24539553616E+03  0.24539553621E+03  0.50400001928E-02 0.  1.
       -1   -1    0    0    0  501  0.00000000000E+00  0.00000000000E+00 -0.25325825418E+03  0.25325825423E+03  0.50400001928E-02 0. -1.
    10030    2    1    2    0    0  0.00000000000E+00  0.00000000000E+00 -0.78627180174E+01  0.49865379044E+03  0.49859179735E+03 0.  0.
        2    1    3    3  502    0 -0.65131421755E+02 -0.85999159575E+02  0.22084196882E+03  0.24578269415E+03  0.25500000920E-02 0.  1.
       -2    1    3    3    0  502  0.65131421755E+02  0.85999159575E+02 -0.22870468684E+03  0.25287109628E+03  0.25500000920E-02 0. -1.
</event>
<event>
 5   0  0.2643185E-02  0.4976084E+03  0.7818609E-02  0.1014405E+00
       -1   -1    0    0    0  501  0.00000000000E+00  0.00000000000E+00  0.10917753956E+03  0.10917753968E+03  0.50400001928E-02 0. -1.
        1   -1    0    0  501    0  0.00000000000E+00  0.00000000000E+00 -0.56699880847E+03  0.56699880849E+03  0.50400001928E-02 0.  1.
    10030    2    1    2    0    0  0.00000000000E+00  0.00000000000E+00 -0.45782126890E+03  0.67617634817E+03  0.49760841991E+03 0.  0.
        1    1    3    3  502    0  0.69443632982E+02  0.64492636423E+01  0.95623363908E+02  0.11835471648E+03  0.50400001928E-02 0. -1.
       -1    1    3    3    0  502 -0.69443632982E+02 -0.64492636423E+01 -0.55344463281E+03  0.55782163169E+03  0.50400001928E-02 0.  1.
</event>
<event>
 5   0  0.4631619E-02  0.4970630E+03  0.7818609E-02  0.1014548E+00
       -2   -1    0    0    0  501  0.00000000000E+00  0.00000000000E+00  0.12044199727E+03  0.12044199730E+03  0.25500000920E-02 0. -1.
        2   -1    0    0  501    0  0.00000000000E+00  0.00000000000E+00 -0.51284368634E+03  0.51284368635E+03  0.25500000920E-02 0.  1.
    10030    2    1    2    0    0  0.00000000000E+00  0.00000000000E+00 -0.39240168907E+03  0.63328568365E+03  0.49706304583E+03 0.  0.
        5    1    3    3  502    0  0.37069033009E+02 -0.49178019107E+02 -0.50291021411E+03  0.50668862650E+03  0.46999998093E+01 0.  1.
       -5    1    3    3    0  502 -0.37069033009E+02  0.49178019107E+02  0.11050852505E+03  0.12659705714E+03  0.46999998093E+01 0. -1.
</event>
<event>
 5   0  0.1805500E-02  0.4995793E+03  0.7818609E-02  0.1013889E+00
       -3   -1    0    0    0  501  0.00000000000E+00  0.00000000000E+00  0.10226045850E+03  0.10226050838E+03  0.10100000352E+00 0.  1.
        3   -1    0    0  501    0  0.00000000000E+00  0.00000000000E+00 -0.61015607815E+03  0.61015608651E+03  0.10100000352E+00 0. -1.
    10030    2    1    2    0    0  0.00000000000E+00  0.00000000000E+00 -0.50789561964E+03  0.71241659489E+03  0.49957926720E+03 0.  0.
        3    1    3    3  502    0 -0.22428894086E+03 -0.10706430769E+03 -0.21825263399E+03  0.33076051370E+03  0.10100000352E+00 0. -1.
       -3    1    3    3    0  502  0.22428894086E+03  0.10706430769E+03 -0.28964298565E+03  0.38165608119E+03  0.10100000352E+00 0.  1.
</event>
<event>
 5   0  0.2723308E-02  0.4983652E+03  0.7818609E-02  0.1014207E+00
        1   -1    0    0  501    0  0.00000000000E+00  0.00000000000E+00  0.86062027126E+02  0.86062027274E+02  0.50400001928E-02 0. -1.
       -1   -1    0    0    0  501  0.00000000000E+00  0.00000000000E+00 -0.72147919908E+03  0.72147919910E+03  0.50400001928E-02 0.  1.
    10030    2    1    2    0    0  0.00000000000E+00  0.00000000000E+00 -0.63541717196E+03  0.80754122637E+03  0.49836517723E+03 0.  0.
        4    1    3    3  502    0  0.20765012607E+03 -0.18452942902E+02 -0.96532499385E+02  0.22973728974E+03  0.12699999809E+01 0. -1.
       -4    1    3    3    0  502 -0.20765012607E+03  0.18452942902E+02 -0.53888467257E+03  0.57780393663E+03  0.12699999809E+01 0.  1.
</event>
<event>
 5   0  0.2723308E-02  0.5004638E+03  0.7818609E-02  0.1013658E+00
       -1   -1    0    0    0  501  0.00000000000E+00  0.00000000000E+00  0.34807584510E+03  0.34807584514E+03  0.50400001928E-02 0. -1.
        1   -1    0    0  501    0  0.00000000000E+00  0.00000000000E+00 -0.17989181423E+03  0.17989181430E+03  0.50400001928E-02 0.  1.
    10030    2    1    2    0    0  0.00000000000E+00  0.00000000000E+00  0.16818403087E+03  0.52796765944E+03  0.50046376609E+03 0.  0.
        4    1    3    3  502    0 -0.32659982571E+02 -0.37580016656E+02 -0.17461009081E+03  0.18157430662E+03  0.12699999809E+01 0.  1.
       -4    1    3    3    0  502  0.32659982571E+02  0.37580016656E+02  0.34279412169E+03  0.34639335282E+03  0.12699999809E+01 0. -1.
</event>
<event>
 5   0  0.4519539E-02  0.5032395E+03  0.7818609E-02  0.1012937E+00
        2   -1    0    0  501    0  0.00000000000E+00  0.00000000000E+00  0.67835800011E+03  0.67835800011E+03  0.25500000920E-02 0. -1.
       -2   -1    0    0    0  501  0.00000000000E+00  0.00000000000E+00 -0.93331975486E+02  0.93331975521E+02  0.25500000920E-02 0.  1.
    10030    2    1    2    0    0  0.00000000000E+00  0.00000000000E+00  0.58502602462E+03  0.77168997564E+03  0.50323947481E+03 0.  0.
        4    1    3    3  502    0 -0.24919585069E+02  0.13937123351E+03 -0.26449238484E+02  0.14403645916E+03  0.12699999809E+01 0.  1.
       -4    1    3    3    0  502  0.24919585069E+02 -0.13937123351E+03  0.61147526311E+03  0.62765351648E+03  0.12699999809E+01 0. -1.
</event>
<event>
 5   0  0.2643185E-02  0.4985241E+03  0.7818609E-02  0.1014165E+00
       -1   -1    0    0    0  501  0.00000000000E+00  0.00000000000E+00  0.70047079620E+02  0.70047079802E+02  0.50400001928E-02 0. -1.
        1   -1    0    0  501    0  0.00000000000E+00  0.00000000000E+00 -0.88699731979E+03  0.88699731981E+03  0.50400001928E-02 0.  1.
    10030    2    1    2    0    0  0.00000000000E+00  0.00000000000E+00 -0.81695024017E+03  0.95704439961E+03  0.49852410965E+03 0.  0.
        1    1    3    3  502    0 -0.25820935817E+02  0.24656757655E+03 -0.45814010458E+03  0.52091712007E+03  0.50400001928E-02 0.  1.
       -1    1    3    3    0  502  0.25820935817E+02 -0.24656757655E+03 -0.35881013559E+03  0.43612727954E+03  0.50400001928E-02 0. -1.
</event>
<event>
 5   0  0.2643185E-02  0.4993365E+03  0.7818609E-02  0.1013952E+00
       -1   -1    0    0    0  501  0.00000000000E+00  0.00000000000E+00  0.30055140983E+03  0.30055140987E+03  0.50400001928E-02 0.  1.
        1   -1    0    0  501    0  0.00000000000E+00  0.00000000000E+00 -0.20739956376E+03  0.20739956382E+03  0.50400001928E-02 0. -1.
    10030    2    1    2    0    0  0.00000000000E+00  0.00000000000E+00  0.93151846069E+02  0.50795097369E+03  0.49933648499E+03 0.  0.
        1    1    3    3  502    0 -0.60560310654E+02  0.18209432563E+03  0.20904457133E+03  0.28377020189E+03  0.50400001928E-02 0.  1.
       -1    1    3    3    0  502  0.60560310654E+02 -0.18209432563E+03 -0.11589272526E+03  0.22418077180E+03  0.50400001928E-02 0. -1.
</event>
<event>
 5   0  0.2643185E-02  0.5002016E+03  0.7818609E-02  0.1013726E+00
        1   -1    0    0  501    0  0.00000000000E+00  0.00000000000E+00  0.14548676930E+03  0.14548676939E+03  0.50400001928E-02 0. -1.
       -1   -1    0    0    0  501  0.00000000000E+00  0.00000000000E+00 -0.42993889015E+03  0.42993889018E+03  0.50400001928E-02 0.  1.
    10030    2    1    2    0    0  0.00000000000E+00  0.00000000000E+00 -0.28445212085E+03  0.57542565957E+03  0.50020163998E+03 0.  0.
        1    1    3    3  502    0  0.12091309094E+03 -0.97478523821E+02 -0.36773832300E+03  0.39919107255E+03  0.50400001928E-02 0.  1.
       -1    1    3    3    0  502 -0.12091309094E+03  0.97478523821E+02  0.83286202157E+02  0.17623458702E+03  0.50400001928E-02 0. -1.
</event>
<event>
 5   0  0.2715483E-02  0.4989933E+03  0.7818609E-02  0.1014042E+00
        1   -1    0    0  501    0  0.00000000000E+00  0.00000000000E+00  0.20858446626E+03  0.20858446632E+03  0.50400001928E-02 0.  1.
       -1   -1    0    0    0  501  0.00000000000E+00  0.00000000000E+00 -0.29843346938E+03  0.29843346942E+03  0.50400001928E-02 0. -1.
    10030    2    1    2    0    0  0.00000000000E+00  0.00000000000E+00 -0.89849003115E+02  0.50701793574E+03  0.49899333042E+03 0.  0.
        5    1    3    3  502    0  0.72960742942E+02  0.17065655399E+03 -0.21427688539E+03  0.28352002229E+03  0.46999998093E+01 0. -1.
       -5    1    3    3    0  502 -0.72960742942E+02 -0.17065655399E+03  0.12442788227E+03  0.22349791345E+03  0.46999998093E+01 0.  1.
</event>
<event>
 5   0  0.2779445E-02  0.4994668E+03  0.7818609E-02  0.1013918E+00
       -1   -1    0    0    0  501  0.00000000000E+00  0.00000000000E+00  0.23774629023E+03  0.23774629028E+03  0.50400001928E-02 0.  1.
        1   -1    0    0  501    0  0.00000000000E+00  0.00000000000E+00 -0.26232494656E+03  0.26232494661E+03  0.50400001928E-02 0. -1.
    10030    2    1    2    0    0  0.00000000000E+00  0.00000000000E+00 -0.24578656334E+02  0.50007123689E+03  0.49946684737E+03 0.  0.
        3    1    3    3  502    0 -0.81761960850E+02  0.55519295677E+02  0.21733370430E+03  0.23874957521E+03  0.10100000352E+00 0.  1.
       -3    1    3    3    0  502  0.81761960850E+02 -0.55519295677E+02 -0.24191236064E+03  0.26132166168E+03  0.10100000352E+00 0. -1.
</event>
<event>
 5   0  0.2719671E-02  0.4991123E+03  0.7818609E-02  0.1014011E+00
        1   -1    0    0  501    0  0.00000000000E+00  0.00000000000E+00  0.17846716482E+03  0.17846716489E+03  0.50400001928E-02 0. -1.
       -1   -1    0    0    0  501  0.00000000000E+00  0.00000000000E+00 -0.34896207261E+03  0.34896207265E+03  0.50400001928E-02 0.  1.
    10030    2    1    2    0    0  0.00000000000E+00  0.00000000000E+00 -0.17049490779E+03  0.52742923753E+03  0.49911229901E+03 0.  0.
        2    1    3    3  502    0 -0.14366514193E+03 -0.20344928924E+03 -0.10185485263E+03  0.26908306768E+03  0.25500000920E-02 0.  1.
       -2    1    3    3    0  502  0.14366514193E+03  0.20344928924E+03 -0.68640055166E+02  0.25834616986E+03  0.25500000920E-02 0. -1.
</event>
<event>
 5   0  0.2719671E-02  0.5005556E+03  0.7818609E-02  0.1013634E+00
        1   -1    0    0  501    0  0.00000000000E+00  0.00000000000E+00  0.13375481174E+04  0.13375481174E+04  0.50400001928E-02 0. -1.
       -1   -1    0    0    0  501  0.00000000000E+00  0.00000000000E+00 -0.46831197507E+02  0.46831197778E+02  0.50400001928E-02 0.  1.
    10030    2    1    2    0    0  0.00000000000E+00  0.00000000000E+00  0.12907169199E+04  0.13843793152E+04  0.50055561232E+03 0.  0.
        2    1    3    3  502    0  0.13312678271E+03 -0.76073382462E+02  0.98276256428E+02  0.18212117498E+03  0.25500000920E-02 0.  1.
       -2    1    3    3    0  502 -0.13312678271E+03  0.76073382462E+02  0.11924406635E+04  0.12022581402E+04  0.25500000920E-02 0. -1.
</event>
<event>
 5   0  0.2719671E-02  0.5002116E+03  0.7818609E-02  0.1013724E+00
       -1   -1    0    0    0  501  0.00000000000E+00  0.00000000000E+00  0.22287368073E+03  0.22287368079E+03  0.50400001928E-02 0.  1.
        1   -1    0    0  501    0  0.00000000000E+00  0.00000000000E+00 -0.28066528436E+03  0.28066528440E+03  0.50400001928E-02 0. -1.
    10030    2    1    2    0    0  0.00000000000E+00  0.00000000000E+00 -0.57791603626E+02  0.50353896519E+03  0.50021157525E+03 0.  0.
        2    1    3    3  502    0 -0.22641763803E+02 -0.33430228851E+02 -0.27736286622E+03  0.28028626301E+03  0.25500000920E-02 0. -1.
       -2    1    3    3    0  502  0.22641763803E+02  0.33430228851E+02  0.21957126259E+03  0.22325270218E+03  0.25500000920E-02 0.  1.
</event>
<event>
 5   0  0.4631619E-02  0.4960273E+03  0.7818609E-02  0.1014821E+00
       -2   -1    0    0    0  501  0.00000000000E+00  0.00000000000E+00  0.31781463199E+03  0.31781463201E+03  0.25500000920E-02 0. -1.
        2   -1    0    0  501    0  0.00000000000E+00  0.00000000000E+00 -0.19354293209E+03  0.19354293211E+03  0.25500000920E-02 0.  1.
    10030    2    1    2    0    0  0.00000000000E+00  0.00000000000E+00  0.12427169991E+03  0.51135756411E+03  0.49602732079E+03 0.  0.
        5    1    3    3  502    0  0.11727566667E+03  0.54617481392E+02  0.28022069076E+03  0.30867843590E+03  0.46999998093E+01 0. -1.
       -5    1    3    3    0  502 -0.11727566667E+03 -0.54617481392E+02 -0.15594899085E+03  0.20267912821E+03  0.46999998093E+01 0.  1.
</event>
<event>
 5   0  0.2643185E-02  0.5000491E+03  0.7818609E-02  0.1013766E+00
        1   -1    0    0  501    0  0.00000000000E+00  0.00000000000E+00  0.42598365186E+03  0.42598365189E+03  0.50400001928E-02 0. -1.
       -1   -1    0    0    0  501  0.00000000000E+00  0.00000000000E+00 -0.14674804816E+03  0.14674804824E+03  0.50400001928E-02 0.  1.
    10030    2    1    2    0    0  0.00000000000E+00  0.00000000000E+00  0.27923560371E+03  0.57273170014E+03  0.50004907556E+03 0.  0.
        1    1    3    3  502    0 -0.12162608682E+03  0.58225754054E+02 -0.10152992773E+03  0.16879416365E+03  0.50400001928E-02 0.  1.
       -1    1    3    3    0  502  0.12162608682E+03 -0.58225754054E+02  0.38076553144E+03  0.40393753649E+03  0.50400001928E-02 0. -1.
</event>
<event>
 5   0  0.2715483E-02  0.4994236E+03  0.7818609E-02  0.1013929E+00
        1   -1    0    0  501    0  0.00000000000E+00  0.00000000000E+00  0.30058704330E+03  0.30058704334E+03  0.50400001928E-02 0. -1.
       -1   -1    0    0    0  501  0.00000000000E+00  0.00000000000E+00 -0.20744736942E+03  0.20744736948E+03  0.50400001928E-02 0.  1.
    10030    2    1    2    0    0  0.00000000000E+00  0.00000000000E+00  0.93139673874E+02  0.50803441282E+03  0.49942363356E+03 0.  0.
        5    1    3    3  502    0  0.36239321808E+02 -0.24702238584E+03  0.45812768135E+02  0.25387841042E+03  0.46999998093E+01 0.  1.
       -5    1    3    3    0  502 -0.36239321808E+02  0.24702238584E+03  0.47326905739E+02  0.25415600240E+03  0.46999998093E+01 0. -1.
</event>
<event>
 5   0  0.4631619E-02  0.4982347E+03  0.7818609E-02  0.1014241E+00
        2   -1    0    0  501    0  0.00000000000E+00  0.00000000000E+00  0.75305893459E+02  0.75305893502E+02  0.25500000920E-02 0.  1.
       -2   -1    0    0    0  501  0.00000000000E+00  0.00000000000E+00 -0.82409819534E+03  0.82409819535E+03  0.25500000920E-02 0. -1.
    10030    2    1    2    0    0  0.00000000000E+00  0.00000000000E+00 -0.74879230188E+03  0.89940408885E+03  0.49823468735E+03 0.  0.
        5    1    3    3  502    0 -0.37706657982E+02 -0.15018159193E+03 -0.22218876933E+02  0.15649942844E+03  0.46999998093E+01 0.  1.
       -5    1    3    3    0  502  0.37706657982E+02  0.15018159193E+03 -0.72657342495E+03  0.74290466041E+03  0.46999998093E+01 0. -1.
</event>
<event>
 5   0  0.2723308E-02  0.5002839E+03  0.7818609E-02  0.1013705E+00
       -1   -1    0    0    0  501  0.00000000000E+00  0.00000000000E+00  0.41200399239E+02  0.41200399548E+02  0.50400001928E-02 0. -1.
        1   -1    0    0  501    0  0.00000000000E+00  0.00000000000E+00 -0.15186986215E+04  0.15186986215E+04  0.50400001928E-02 0.  1.
    10030    2    1    2    0    0  0.00000000000E+00  0.00000000000E+00 -0.14774982222E+04  0.15598990210E+04  0.50028387851E+03 0.  0.
        4    1    3    3  502    0 -0.90976292599E+02 -0.17667168768E+03 -0.12124411140E+04  0.12286189966E+04  0.12699999809E+01 0.  1.
       -4    1    3    3    0  502  0.90976292599E+02  0.17667168768E+03 -0.26505710820E+03  0.33128002438E+03  0.12699999809E+01 0. -1.
</event>
<event>
 5   0  0.4519539E-02  0.4991480E+03  0.7818609E-02  0.1014002E+00
        2   -1    0    0  501    0  0.00000000000E+00  0.00000000000E+00  0.19991188666E+03  0.19991188668E+03  0.25500000920E-02 0.  1.
       -2   -1    0    0    0  501  0.00000000000E+00  0.00000000000E+00 -0.31157319716E+03  0.31157319717E+03  0.25500000920E-02 0. -1.
    10030    2    1    2    0    0  0.00000000000E+00  0.00000000000E+00 -0.11166131050E+03  0.51148508385E+03  0.49914801686E+03 0.  0.
        4    1    3    3  502    0 -0.84774253465E+02 -0.42730813696E+02  0.18068348121E+03  0.20410960235E+03  0.12699999809E+01 0.  1.
       -4    1    3    3    0  502  0.84774253465E+02  0.42730813696E+02 -0.29234479171E+03  0.30737548150E+03  0.12699999809E+01 0. -1.
</event>
<event>
 5   0  0.4451135E-02  0.4782128E+03  0.7818609E-02  0.1019627E+00
        2   -1    0    0  501    0  0.00000000000E+00  0.00000000000E+00  0.93824916780E+03  0.93824916780E+03  0.25500000920E-02 0. -1.
       -2   -1    0    0    0  501  0.00000000000E+00  0.00000000000E+00 -0.60934641184E+02  0.60934641237E+02  0.25500000920E-02 0.  1.
    10030    2    1    2    0    0  0.00000000000E+00  0.00000000000E+00  0.87731452662E+03  0.99918380904E+03  0.47821282463E+03 0.  0.
        1    1    3    3  502    0  0.11269737810E+03 -0.35185321325E+02  0.87310017144E+03  0.88104631845E+03  0.50400001928E-02 0. -1.
       -1    1    3    3    0  502 -0.11269737810E+03  0.35185321325E+02  0.42143551781E+01  0.11813749059E+03  0.50400001928E-02 0.  1.
</event>
<event>
 5   0  0.2779445E-02  0.5010935E+03  0.7818609E-02  0.1013494E+00
       -1   -1    0    0    0  501  0.00000000000E+00  0.00000000000E+00  0.39371600816E+02  0.39371601138E+02  0.50400001928E-02 0. -1.
        1   -1    0    0  501    0  0.00000000000E+00  0.00000000000E+00 -0.15943894687E+04  0.15943894687E+04  0.50400001928E-02 0.  1.
    10030    2    1    2    0    0  0.00000000000E+00  0.00000000000E+00 -0.15550178679E+04  0.16337610698E+04  0.50109346823E+03 0.  0.
        3    1    3    3  502    0  0.22212160109E+03 -0.49136273517E+01 -0.39992928213E+03  0.45749927903E+03  0.10100000352E+00 0. -1.
       -3    1    3    3    0  502 -0.22212160109E+03  0.49136273517E+01 -0.11550885857E+04  0.11762617908E+04  0.10100000352E+00 0.  1.
</event>
<event>
 5   0  0.4409622E-02  0.4757398E+03  0.7818609E-02  0.1020313E+00
        2   -1    0    0  501    0  0.00000000000E+00  0.00000000000E+00  0.55678716244E+03  0.55678716245E+03  0.25500000920E-02 0.  1.
       -2   -1    0    0    0  501  0.00000000000E+00  0.00000000000E+00 -0.10162247245E+03  0.10162247248E+03  0.25500000920E-02 0. -1.
    10030    2    1    2    0    0  0.00000000000E+00  0.00000000000E+00  0.45516468999E+03  0.65840963493E+03  0.47573979480E+03 0.  0.
        3    1    3    3  502    0 -0.65050805844E+02 -0.10389491376E+03  0.50970971749E+03  0.52424208792E+03  0.10100000352E+00 0.  1.
       -3    1    3    3    0  502  0.65050805844E+02  0.10389491376E+03 -0.54545027492E+02  0.13416754701E+03  0.10100000352E+00 0. -1.
</event>
<event>
 5   0  0.2723308E-02  0.5097112E+03  0.7818609E-02  0.1011275E+00
       -1   -1    0    0    0  501  0.00000000000E+00  0.00000000000E+00  0.71720798302E+02  0.71720798479E+02  0.50400001928E-02 0. -1.
        1   -1    0    0  501    0  0.00000000000E+00  0.00000000000E+00 -0.90561410719E+03  0.90561410721E+03  0.50400001928E-02 0.  1.
    10030    2    1    2    0    0  0.00000000000E+00  0.00000000000E+00 -0.83389330889E+03  0.97733490568E+03  0.50971116062E+03 0.  0.
        4    1    3    3  502    0 -0.35948141081E+02  0.72722498272E+01  0.66627997560E+02  0.76066138482E+02  0.12699999809E+01 0. -1.
       -4    1    3    3    0  502  0.35948141081E+02 -0.72722498272E+01 -0.90052130645E+03  0.90126876720E+03  0.12699999809E+01 0.  1.
</event>
<event>
 5   0  0.4534223E-02  0.5016845E+03  0.7818609E-02  0.1013340E+00
        2   -1    0    0  501    0  0.00000000000E+00  0.00000000000E+00  0.14419210208E+04  0.14419210208E+04  0.25500000920E-02 0.  1.
       -2   -1    0    0    0  501  0.00000000000E+00  0.00000000000E+00 -0.43637497794E+02  0.43637497868E+02  0.25500000920E-02 0. -1.
    10030    2    1    2    0    0  0.00000000000E+00  0.00000000000E+00  0.13982835230E+04  0.14855585187E+04  0.50168446427E+03 0.  0.
        2    1    3    3  502    0  0.51904054571E+02  0.21557372594E+03  0.10464391019E+04  0.10696732474E+04  0.25500000920E-02 0.  1.
       -2    1    3    3    0  502 -0.51904054571E+02 -0.21557372594E+03  0.35184442109E+03  0.41588527127E+03  0.25500000920E-02 0. -1.
</event>
<event>
 5   0  0.2723308E-02  0.4994700E+03  0.7818609E-02  0.1013917E+00
        1   -1    0    0  501    0  0.00000000000E+00  0.00000000000E+00  0.95630981458E+03  0.95630981460E+03  0.50400001928E-02 0. -1.
       -1   -1    0    0    0  501  0.00000000000E+00  0.00000000000E+00 -0.65216896098E+02  0.65216896293E+02  0.50400001928E-02 0.  1.
    10030    2    1    2    0    0  0.00000000000E+00  0.00000000000E+00  0.89109291848E+03  0.10215267109E+04  0.49946995074E+03 0.  0.
        4    1    3    3  502    0 -0.49921152396E+02 -0.26371609275E+02  0.94307939000E+03  0.94476871878E+03  0.12699999809E+01 0. -1.
       -4    1    3    3    0  502  0.49921152396E+02  0.26371609275E+02 -0.51986471518E+02  0.76757992113E+02  0.12699999809E+01 0.  1.
</event>
<event>
 5   0  0.2723308E-02  0.5013547E+03  0.7818609E-02  0.1013426E+00
       -1   -1    0    0    0  501  0.00000000000E+00  0.00000000000E+00  0.11649281449E+03  0.11649281460E+03  0.50400001928E-02 0.  1.
        1   -1    0    0  501    0  0.00000000000E+00  0.00000000000E+00 -0.53942504079E+03  0.53942504082E+03  0.50400001928E-02 0. -1.
    10030    2    1    2    0    0  0.00000000000E+00  0.00000000000E+00 -0.42293222631E+03  0.65591785541E+03  0.50135472971E+03 0.  0.
        4    1    3    3  502    0 -0.14641006633E+03  0.16023473574E+03 -0.37553252885E+03  0.43374805035E+03  0.12699999809E+01 0. -1.
       -4    1    3    3    0  502  0.14641006633E+03 -0.16023473574E+03 -0.47399697457E+02  0.22216980506E+03  0.12699999809E+01 0.  1.
</event>
<event>
 5   0  0.2719671E-02  0.4995475E+03  0.7818609E-02  0.1013897E+00
       -1   -1    0    0    0  501  0.00000000000E+00  0.00000000000E+00  0.12789594331E+03  0.12789594341E+03  0.50400001928E-02 0.  1.
        1   -1    0    0  501    0  0.00000000000E+00  0.00000000000E+00 -0.48779448099E+03  0.48779448101E+03  0.50400001928E-02 0. -1.
    10030    2    1    2    0    0  0.00000000000E+00  0.00000000000E+00 -0.35989853768E+03  0.61569042442E+03  0.49954753658E+03 0.  0.
        2    1    3    3  502    0  0.20513448771E+02  0.16607015135E+03 -0.40849951979E+03  0.44144303644E+03  0.25500000920E-02 0. -1.
       -2    1    3    3    0  502 -0.20513448771E+02 -0.16607015135E+03  0.48600982110E+02  0.17424738798E+03  0.25500000920E-02 0.  1.
</event>
<event>
 5   0  0.4534223E-02  0.4996750E+03  0.7818609E-02  0.1013864E+00
        2   -1    0    0  501    0  0.00000000000E+00  0.00000000000E+00  0.45184157858E+03  0.45184157859E+03  0.25500000920E-02 0. -1.
       -2   -1    0    0    0  501  0.00000000000E+00  0.00000000000E+00 -0.13814304411E+03  0.13814304413E+03  0.25500000920E-02 0.  1.
    10030    2    1    2    0    0  0.00000000000E+00  0.00000000000E+00  0.31369853447E+03  0.58998462272E+03  0.49967497888E+03 0.  0.
        2    1    3    3  502    0  0.14859999665E+03 -0.13757560346E+03  0.32961557201E+03  0.38685324218E+03  0.25500000920E-02 0. -1.
       -2    1    3    3    0  502 -0.14859999665E+03  0.13757560346E+03 -0.15917037539E+02  0.20313138054E+03  0.25500000920E-02 0.  1.
</event>
<event>
 5   0  0.4451135E-02  0.4978500E+03  0.7818609E-02  0.1014342E+00
       -2   -1    0    0    0  501  0.00000000000E+00  0.00000000000E+00  0.12654036743E+03  0.12654036746E+03  0.25500000920E-02 0.  1.
        2   -1    0    0  501    0  0.00000000000E+00  0.00000000000E+00 -0.48967502268E+03  0.48967502269E+03  0.25500000920E-02 0. -1.
    10030    2    1    2    0    0  0.00000000000E+00  0.00000000000E+00 -0.36313465525E+03  0.61621539015E+03  0.49785000674E+03 0.  0.
        1    1    3    3  502    0 -0.11079077787E+03 -0.50795944658E+02  0.87081652077E+02  0.14979331964E+03  0.50400001928E-02 0.  1.
       -1    1    3    3    0  502  0.11079077787E+03  0.50795944658E+02 -0.45021630732E+03  0.46642207051E+03  0.50400001928E-02 0. -1.
</event>
<event>
 5   0  0.1805500E-02  0.4995700E+03  0.7818609E-02  0.1013891E+00
        4   -1    0    0  501    0  0.00000000000E+00  0.00000000000E+00  0.40200810667E+03  0.40201011272E+03  0.12699999809E+01 0.  1.
       -4   -1    0    0    0  501  0.00000000000E+00  0.00000000000E+00 -0.15519720584E+03  0.15520240205E+03  0.12699999809E+01 0. -1.
    10030    2    1    2    0    0  0.00000000000E+00  0.00000000000E+00  0.24681090082E+03  0.55721251476E+03  0.49956998093E+03 0.  0.
        2    1    3    3  502    0  0.11496581251E+03  0.11212682098E+02 -0.12362051977E+03  0.16918893345E+03  0.25500000920E-02 0. -1.
       -2    1    3    3    0  502 -0.11496581251E+03 -0.11212682098E+02  0.37043142060E+03  0.38802358132E+03  0.25500000920E-02 0.  1.
</event>
<event>
 5   0  0.4451135E-02  0.5004093E+03  0.7818609E-02  0.1013672E+00
       -2   -1    0    0    0  501  0.00000000000E+00  0.00000000000E+00  0.91094427751E+02  0.91094427787E+02  0.25500000920E-02 0.  1.
        2   -1    0    0  501    0  0.00000000000E+00  0.00000000000E+00 -0.68722490003E+03  0.68722490003E+03  0.25500000920E-02 0. -1.
    10030    2    1    2    0    0  0.00000000000E+00  0.00000000000E+00 -0.59613047228E+03  0.77831932782E+03  0.50040926858E+03 0.  0.
        1    1    3    3  502    0 -0.11681374901E+03 -0.17614759572E+03 -0.89803408686E+02  0.22964772952E+03  0.50400001928E-02 0.  1.
       -1    1    3    3    0  502  0.11681374901E+03  0.17614759572E+03 -0.50632706359E+03  0.54867159830E+03  0.50400001928E-02 0. -1.
</event>
<event>
 5   0  0.2643185E-02  0.5006760E+03  0.7818609E-02  0.1013603E+00
       -1   -1    0    0    0  501  0.00000000000E+00  0.00000000000E+00  0.67912254333E+02  0.67912254520E+02  0.50400001928E-02 0. -1.
        1   -1    0    0  501    0  0.00000000000E+00  0.00000000000E+00 -0.92279536116E+03  0.92279536118E+03  0.50400001928E-02 0.  1.
    10030    2    1    2    0    0  0.00000000000E+00  0.00000000000E+00 -0.85488310683E+03  0.99070761570E+03  0.50067599649E+03 0.  0.
        1    1    3    3  502    0 -0.41860968779E+02  0.24121236142E+03 -0.53089331477E+03  0.58462248991E+03  0.50400001928E-02 0. -1.
       -1    1    3    3    0  502  0.41860968779E+02 -0.24121236142E+03 -0.32398979206E+03  0.40608512579E+03  0.50400001928E-02 0.  1.
</event>
<event>
 5   0  0.4631619E-02  0.5007729E+03  0.7818609E-02  0.1013577E+00
       -2   -1    0    0    0  501  0.00000000000E+00  0.00000000000E+00  0.46822355539E+02  0.46822355608E+02  0.25500000920E-02 0.  1.
        2   -1    0    0  501    0  0.00000000000E+00  0.00000000000E+00 -0.13389624733E+04  0.13389624733E+04  0.25500000920E-02 0. -1.
    10030    2    1    2    0    0  0.00000000000E+00  0.00000000000E+00 -0.12921401177E+04  0.13857848289E+04  0.50077291071E+03 0.  0.
        5    1    3    3  502    0 -0.10274431787E+03  0.32396748971E+02 -0.20727335348E+02  0.10980736144E+03  0.46999998093E+01 0.  1.
       -5    1    3    3    0  502  0.10274431787E+03 -0.32396748971E+02 -0.12714127824E+04  0.12759774674E+04  0.46999998093E+01 0. -1.
</event>
<event>
 5   0  0.2715483E-02  0.4999548E+03  0.7818609E-02  0.1013791E+00
       -1   -1    0    0    0  501  0.00000000000E+00  0.00000000000E+00  0.69452222083E+03  0.69452222085E+03  0.50400001928E-02 0.  1.
        1   -1    0    0  501    0  0.00000000000E+00  0.00000000000E+00 -0.89973653798E+02  0.89973653939E+02  0.50400001928E-02 0. -1.
    10030    2    1    2    0    0  0.00000000000E+00  0.00000000000E+00  0.60454856703E+03  0.78449587479E+03  0.49995480562E+03 0.  0.
        5    1    3    3  502    0  0.14983983649E+02 -0.68946692454E+02  0.67850149237E+03  0.68217631981E+03  0.46999998093E+01 0.  1.
       -5    1    3    3    0  502 -0.14983983649E+02  0.68946692454E+02 -0.73952925338E+02  0.10231955498E+03  0.46999998093E+01 0. -1.
</event>
<event>
 5   0  0.4519539E-02  0.5001167E+03  0.7818609E-02  0.1013748E+00
        2   -1    0    0  501    0  0.00000000000E+00  0.00000000000E+00  0.78180872125E+03  0.78180872125E+03  0.25500000920E-02 0.  1.
       -2   -1    0    0    0  501  0.00000000000E+00  0.00000000000E+00 -0.79980151020E+02  0.79980151060E+02  0.25500000920E-02 0. -1.
    10030    2    1    2    0    0  0.00000000000E+00  0.00000000000E+00  0.70182857023E+03  0.86178887231E+03  0.50011670483E+03 0.  0.
        4    1    3    3  502    0 -0.89638759204E+02  0.24874953059E+02 -0.49046956357E+02  0.10517170375E+03  0.12699999809E+01 0. -1.
       -4    1    3    3    0  502  0.89638759204E+02 -0.24874953059E+02  0.75087552659E+03  0.75661716857E+03  0.12699999809E+01 0.  1.
</event>
<event>
 5   0  0.4519539E-02  0.4996420E+03  0.7818609E-02  0.1013872E+00
       -2   -1    0    0    0  501  0.00000000000E+00  0.00000000000E+00  0.65505084517E+02  0.65505084566E+02  0.25500000920E-02 0. -1.
        2   -1    0    0  501    0  0.00000000000E+00  0.00000000000E+00 -0.95275869496E+03  0.95275869496E+03  0.25500000920E-02 0.  1.
    10030    2    1    2    0    0  0.00000000000E+00  0.00000000000E+00 -0.88725361044E+03  0.10182637795E+04  0.49964202731E+03 0.  0.
        4    1    3    3  502    0 -0.16700489748E+03 -0.16504386892E+03 -0.61749957428E+03  0.66063412839E+03  0.12699999809E+01 0.  1.
       -4    1    3    3    0  502  0.16700489748E+03  0.16504386892E+03 -0.26975403616E+03  0.35762965114E+03  0.12699999809E+01 0. -1.
</event>
<event>
 5   0  0.1805500E-02  0.5069561E+03  0.7818609E-02  0.1011979E+00
       -4   -1    0    0    0  501  0.00000000000E+00  0.00000000000E+00  0.75000334419E+02  0.75011086267E+02  0.12699999809E+01 0. -1.
        4   -1    0    0  501    0  0.00000000000E+00  0.00000000000E+00 -0.85660506897E+03  0.85660601042E+03  0.12699999809E+01 0.  1.
    10030    2    1    2    0    0  0.00000000000E+00  0.00000000000E+00 -0.78160473455E+03  0.93161709668E+03  0.50695606690E+03 0.  0.
        5    1    3    3  502    0 -0.18267325662E+03  0.27575676811E+02 -0.70962106606E+03  0.73328990449E+03  0.46999998093E+01 0.  1.
       -5    1    3    3    0  502  0.18267325662E+03 -0.27575676811E+02 -0.71983668491E+02  0.19832719219E+03  0.46999998093E+01 0. -1.
</event>
<event>
 5   0  0.1805500E-02  0.4987849E+03  0.7818609E-02  0.1014097E+00
        3   -1    0    0  501    0  0.00000000000E+00  0.00000000000E+00  0.68164598751E+02  0.68164673578E+02  0.10100000352E+00 0. -1.
       -3   -1    0    0    0  501  0.00000000000E+00  0.00000000000E+00 -0.91244659809E+03  0.91244660368E+03  0.10100000352E+00 0.  1.
    10030    2    1    2    0    0  0.00000000000E+00  0.00000000000E+00 -0.84428199934E+03  0.98061127725E+03  0.49878490622E+03 0.  0.
        1    1    3    3  502    0 -0.13524119789E+02 -0.21578007450E+03 -0.66653194467E+03  0.70072018357E+03  0.50400001928E-02 0.  1.
       -1    1    3    3    0  502  0.13524119789E+02  0.21578007450E+03 -0.17775005466E+03  0.27989109369E+03  0.50400001928E-02 0. -1.
</event>
<event>
 5   0  0.2643185E-02  0.5003313E+03  0.7818609E-02  0.1013692E+00
       -1   -1    0    0    0  501  0.00000000000E+00  0.00000000000E+00  0.26761774481E+03  0.26761774486E+03  0.50400001928E-02 0.  1.
        1   -1    0    0  501    0  0.00000000000E+00  0.00000000000E+00 -0.23385166936E+03  0.23385166941E+03  0.50400001928E-02 0. -1.
    10030    2    1    2    0    0  0.00000000000E+00  0.00000000000E+00  0.33766075455E+02  0.50146941427E+03  0.50033131583E+03 0.  0.
        1    1    3    3  502    0  0.57100216778E+02 -0.27082138254E+02 -0.22571915938E+03  0.23439926601E+03  0.50400001928E-02 0. -1.
       -1    1    3    3    0  502 -0.57100216778E+02  0.27082138254E+02  0.25948523484E+03  0.26707014826E+03  0.50400001928E-02 0.  1.
</event>
<event>
 5   0  0.2715483E-02  0.5000362E+03  0.7818609E-02  0.1013769E+00
       -1   -1    0    0    0  501  0.00000000000E+00  0.00000000000E+00  0.56140412720E+02  0.56140412946E+02  0.50400001928E-02 0.  1.
        1   -1    0    0  501    0  0.00000000000E+00  0.00000000000E+00 -0.11134413594E+04  0.11134413594E+04  0.50400001928E-02 0. -1.
    10030    2    1    2    0    0  0.00000000000E+00  0.00000000000E+00 -0.10573009467E+04  0.11695817724E+04  0.50003622907E+03 0.  0.
        5    1    3    3  502    0  0.19628003193E+03  0.10425985406E+03 -0.79626859795E+03  0.82671744761E+03  0.46999998093E+01 0.  1.
       -5    1    3    3    0  502 -0.19628003193E+03 -0.10425985406E+03 -0.26103234872E+03  0.34286432474E+03  0.46999998093E+01 0. -1.
</event>
<event>
 5   0  0.4519539E-02  0.4967786E+03  0.7818609E-02  0.1014623E+00
       -2   -1    0    0    0  501  0.00000000000E+00  0.00000000000E+00  0.33696571075E+02  0.33696571172E+02  0.25500000920E-02 0.  1.
        2   -1    0    0  501    0  0.00000000000E+00  0.00000000000E+00 -0.18309647217E+04  0.18309647217E+04  0.25500000920E-02 0. -1.
    10030    2    1    2    0    0  0.00000000000E+00  0.00000000000E+00 -0.17972681507E+04  0.18646612929E+04  0.49677855418E+03 0.  0.
        4    1    3    3  502    0  0.53236235370E+02  0.12534084405E+03 -0.16783448503E+04  0.16838608831E+04  0.12699999809E+01 0. -1.
       -4    1    3    3    0  502 -0.53236235370E+02 -0.12534084405E+03 -0.11892330033E+03  0.18080040985E+03  0.12699999809E+01 0.  1.
</event>
<event>
 5   0  0.4631619E-02  0.4966450E+03  0.7818609E-02  0.1014658E+00
        2   -1    0    0  501    0  0.00000000000E+00  0.00000000000E+00  0.88916452569E+03  0.88916452569E+03  0.25500000920E-02 0.  1.
       -2   -1    0    0    0  501  0.00000000000E+00  0.00000000000E+00 -0.69350553463E+02  0.69350553510E+02  0.25500000920E-02 0. -1.
    10030    2    1    2    0    0  0.00000000000E+00  0.00000000000E+00  0.81981397223E+03  0.95851507920E+03  0.49664495165E+03 0.  0.
        5    1    3    3  502    0  0.16095546403E+03  0.90598342721E+02  0.89697446645E+02  0.20538364842E+03  0.46999998093E+01 0. -1.
       -5    1    3    3    0  502 -0.16095546403E+03 -0.90598342721E+02  0.73011652558E+03  0.75313143078E+03  0.46999998093E+01 0.  1.
</event>
<event>
 5   0  0.4451135E-02  0.4985178E+03  0.7818609E-02  0.1014167E+00
        2   -1    0    0  501    0  0.00000000000E+00  0.00000000000E+00  0.41626833838E+03  0.41626833839E+03  0.25500000920E-02 0. -1.
       -2   -1    0    0    0  501  0.00000000000E+00  0.00000000000E+00 -0.14925469487E+03  0.14925469489E+03  0.25500000920E-02 0.  1.
    10030    2    1    2    0    0  0.00000000000E+00  0.00000000000E+00  0.26701364351E+03  0.56552303328E+03  0.49851781849E+03 0.  0.
        1    1    3    3  502    0 -0.73029829777E+02 -0.15963917773E+03 -0.67229001084E+02  0.18798340808E+03  0.50400001928E-02 0.  1.
       -1    1    3    3    0  502  0.73029829777E+02  0.15963917773E+03  0.33424264459E+03  0.37753962520E+03  0.50400001928E-02 0. -1.
</event>
<event>
 5   0  0.4451135E-02  0.4989189E+03  0.7818609E-02  0.1014061E+00
        2   -1    0    0  501    0  0.00000000000E+00  0.00000000000E+00  0.14697081820E+04  0.14697081820E+04  0.25500000920E-02 0. -1.
       -2   -1    0    0    0  501  0.00000000000E+00  0.00000000000E+00 -0.42341749116E+02  0.42341749193E+02  0.25500000920E-02 0.  1.
    10030    2    1    2    0    0  0.00000000000E+00  0.00000000000E+00  0.14273664329E+04  0.15120499312E+04  0.49891889190E+03 0.  0.
        1    1    3    3  502    0  0.10602837982E+03  0.13867414551E+03  0.12537645841E+04  0.12658586683E+04  0.50400001928E-02 0. -1.
       -1    1    3    3    0  502 -0.10602837982E+03 -0.13867414551E+03  0.17360184881E+03  0.24619126284E+03  0.50400001928E-02 0.  1.
</event>
<event>
 5   0  0.2715483E-02  0.5266742E+03  0.7818609E-02  0.1007042E+00
        1   -1    0    0  501    0  0.00000000000E+00  0.00000000000E+00  0.14545749212E+04  0.14545749212E+04  0.50400001928E-02 0.  1.
       -1   -1    0    0    0  501  0.00000000000E+00  0.00000000000E+00 -0.47674711816E+02  0.47674712082E+02  0.50400001928E-02 0. -1.
    10030    2    1    2    0    0  0.00000000000E+00  0.00000000000E+00  0.14069002094E+04  0.15022496333E+04  0.52667424616E+03 0.  0.
        5    1    3    3  502    0 -0.12314787486E+03  0.19458216621E+03  0.10675749264E+04  0.10921382385E+04  0.46999998093E+01 0.  1.
       -5    1    3    3    0  502  0.12314787486E+03 -0.19458216621E+03  0.33932528306E+03  0.41011139488E+03  0.46999998093E+01 0. -1.
</event>
<event>
 5   0  0.2715483E-02  0.4860073E+03  0.7818609E-02  0.1017497E+00
        1   -1    0    0  501    0  0.00000000000E+00  0.00000000000E+00  0.71162289574E+03  0.71162289576E+03  0.50400001928E-02 0. -1.
       -1   -1    0    0    0  501  0.00000000000E+00  0.00000000000E+00 -0.82980436386E+02  0.82980436539E+02  0.50400001928E-02 0.  1.
    10030    2    1    2    0    0  0.00000000000E+00  0.00000000000E+00  0.62864245936E+03  0.79460333230E+03  0.48600731887E+03 0.  0.
        5    1    3    3  502    0  0.16606351168E+03  0.15559211351E+03  0.45346302578E+03  0.50738230304E+03  0.46999998093E+01 0. -1.
       -5    1    3    3    0  502 -0.16606351168E+03 -0.15559211351E+03  0.17517943358E+03  0.28722102925E+03  0.46999998093E+01 0.  1.
</event>
<event>
 5   0  0.4519539E-02  0.5002991E+03  0.7818609E-02  0.1013701E+00
       -2   -1    0    0    0  501  0.00000000000E+00  0.00000000000E+00  0.54196386063E+02  0.54196386123E+02  0.25500000920E-02 0.  1.
        2   -1    0    0  501    0  0.00000000000E+00  0.00000000000E+00 -0.11545935895E+04  0.11545935895E+04  0.25500000920E-02 0. -1.
    10030    2    1    2    0    0  0.00000000000E+00  0.00000000000E+00 -0.11003972034E+04  0.12087899756E+04  0.50029911037E+03 0.  0.
        4    1    3    3  502    0  0.11824683521E+03  0.19392787731E+03 -0.80340733081E+03  0.83489836970E+03  0.12699999809E+01 0. -1.
       -4    1    3    3    0  502 -0.11824683521E+03 -0.19392787731E+03 -0.29698987263E+03  0.37389160593E+03  0.12699999809E+01 0.  1.
</event>
<event>
 5   0  0.2723308E-02  0.5008996E+03  0.7818609E-02  0.1013544E+00
        1   -1    0    0  501    0  0.00000000000E+00  0.00000000000E+00  0.75146594679E+03  0.75146594681E+03  0.50400001928E-02 0. -1.
       -1   -1    0    0    0  501  0.00000000000E+00  0.00000000000E+00 -0.83470313461E+02  0.83470313613E+02  0.50400001928E-02 0.  1.
    10030    2    1    2    0    0  0.00000000000E+00  0.00000000000E+00  0.66799563333E+03  0.83493626042E+03  0.50089958357E+03 0.  0.
        4    1    3    3  502    0  0.14908587446E+03 -0.17719473110E+03  0.49299793463E+03  0.54467710356E+03  0.12699999809E+01 0.  1.
       -4    1    3    3    0  502 -0.14908587446E+03  0.17719473110E+03  0.17499769870E+03  0.29025915686E+03  0.12699999809E+01 0. -1.
</event>
<event>
 5   0  0.4519539E-02  0.5020473E+03  0.7818609E-02  0.1013246E+00
        2   -1    0    0  501    0  0.00000000000E+00  0.00000000000E+00  0.83226332189E+03  0.83226332189E+03  0.25500000920E-02 0.  1.
       -2   -1    0    0    0  501  0.00000000000E+00  0.00000000000E+00 -0.75712675348E+02  0.75712675390E+02  0.25500000920E-02 0. -1.
    10030    2    1    2    0    0  0.00000000000E+00  0.00000000000E+00  0.75655064654E+03  0.90797599728E+03  0.50204733926E+03 0.  0.
        4    1    3    3  502    0 -0.87346073212E+02 -0.95176733978E+02  0.76752615511E+03  0.77832252882E+03  0.12699999809E+01 0.  1.
       -4    1    3    3    0  502  0.87346073212E+02  0.95176733978E+02 -0.10975508565E+02  0.12965346846E+03  0.12699999809E+01 0. -1.
</event>
<event>
 5   0  0.2779445E-02  0.4993910E+03  0.7818609E-02  0.1013938E+00
       -1   -1    0    0    0  501  0.00000000000E+00  0.00000000000E+00  0.28576202035E+03  0.28576202040E+03  0.50400001928E-02 0. -1.
        1   -1    0    0  501    0  0.00000000000E+00  0.00000000000E+00 -0.21818095846E+03  0.21818095852E+03  0.50400001928E-02 0.  1.
    10030    2    1    2    0    0  0.00000000000E+00  0.00000000000E+00  0.67581061891E+02  0.50394297891E+03  0.49939095513E+03 0.  0.
        3    1    3    3  502    0 -0.55096404771E+02 -0.85511823123E+02 -0.19632298574E+03  0.22111221279E+03  0.10100000352E+00 0.  1.
       -3    1    3    3    0  502  0.55096404771E+02  0.85511823123E+02  0.26390404763E+03  0.28283076613E+03  0.10100000352E+00 0. -1.
</event>
<event>
 5   0  0.2723308E-02  0.4994785E+03  0.7818609E-02  0.1013915E+00
        1   -1    0    0  501    0  0.00000000000E+00  0.00000000000E+00  0.71793236278E+03  0.71793236280E+03  0.50400001928E-02 0. -1.
       -1   -1    0    0    0  501  0.00000000000E+00  0.00000000000E+00 -0.86874045252E+02  0.86874045398E+02  0.50400001928E-02 0.  1.
    10030    2    1    2    0    0  0.00000000000E+00  0.00000000000E+00  0.63105831753E+03  0.80480640819E+03  0.49947848257E+03 0.  0.
        4    1    3    3  502    0  0.30386737063E+02  0.10435329994E+03  0.67781984983E+03  0.68647966227E+03  0.12699999809E+01 0. -1.
       -4    1    3    3    0  502 -0.30386737063E+02 -0.10435329994E+03 -0.46761532300E+02  0.11832674592E+03  0.12699999809E+01 0.  1.
</event>
<event>
 5   0  0.2719671E-02  0.5002310E+03  0.7818609E-02  0.1013719E+00
        1   -1    0    0  501    0  0.00000000000E+00  0.00000000000E+00  0.16060968510E+04  0.16060968511E+04  0.50400001928E-02 0. -1.
       -1   -1    0    0    0  501  0.00000000000E+00  0.00000000000E+00 -0.38950176467E+02  0.38950176793E+02  0.50400001928E-02 0.  1.
    10030    2    1    2    0    0  0.00000000000E+00  0.00000000000E+00  0.15671466746E+04  0.16450470278E+04  0.50023097083E+03 0.  0.
        2    1    3    3  502    0 -0.15962889372E+03 -0.15744744832E+03  0.11480963049E+04  0.11697846845E+04  0.25500000920E-02 0. -1.
       -2    1    3    3    0  502  0.15962889372E+03  0.15744744832E+03  0.41905036965E+03  0.47526234334E+03  0.25500000920E-02 0.  1.
</event>
<event>
 5   0  0.4451135E-02  0.5000048E+03  0.7818609E-02  0.1013778E+00
       -2   -1    0    0    0  501  0.00000000000E+00  0.00000000000E+00  0.54888938320E+03  0.54888938321E+03  0.25500000920E-02 0. -1.
        2   -1    0    0  501    0  0.00000000000E+00  0.00000000000E+00 -0.11386846279E+03  0.11386846282E+03  0.25500000920E-02 0.  1.
    10030    2    1    2    0    0  0.00000000000E+00  0.00000000000E+00  0.43502092041E+03  0.66275784603E+03  0.50000476125E+03 0.  0.
        1    1    3    3  502    0  0.14432084970E+02 -0.22308492541E+03  0.69160542294E+02  0.23400502059E+03  0.50400001928E-02 0.  1.
       -1    1    3    3    0  502 -0.14432084970E+02  0.22308492541E+03  0.36586037811E+03  0.42875282544E+03  0.50400001928E-02 0. -1.
</event>
<event>
 5   0  0.2643185E-02  0.4888249E+03  0.7818609E-02  0.1016738E+00
       -1   -1    0    0    0  501  0.00000000000E+00  0.00000000000E+00  0.24209244414E+03  0.24209244420E+03  0.50400001928E-02 0. -1.
        1   -1    0    0  501    0  0.00000000000E+00  0.00000000000E+00 -0.24675466793E+03  0.24675466798E+03  0.50400001928E-02 0.  1.
    10030    2    1    2    0    0  0.00000000000E+00  0.00000000000E+00 -0.46622237867E+01  0.48884711218E+03  0.48882487944E+03 0.  0.
        1    1    3    3  502    0  0.24288429866E+03  0.26719171793E+02 -0.78760903159E+01  0.24447643956E+03  0.50400001928E-02 0.  1.
       -1    1    3    3    0  502 -0.24288429866E+03 -0.26719171793E+02  0.32138665292E+01  0.24437067262E+03  0.50400001928E-02 0. -1.
</event>
<event>
 5   0  0.4451135E-02  0.5013488E+03  0.7818609E-02  0.1013427E+00
        2   -1    0    0  501    0  0.00000000000E+00  0.00000000000E+00  0.45869652712E+03  0.45869652713E+03  0.25500000920E-02 0.  1.
       -2   -1    0    0    0  501  0.00000000000E+00  0.00000000000E+00 -0.13699176279E+03  0.13699176282E+03  0.25500000920E-02 0. -1.
    10030    2    1    2    0    0  0.00000000000E+00  0.00000000000E+00  0.32170476433E+03  0.59568828995E+03  0.50134876423E+03 0.  0.
        1    1    3    3  502    0  0.16218355403E+03  0.18917100692E+03  0.19335860704E+03  0.31539931198E+03  0.50400001928E-02 0.  1.
       -1    1    3    3    0  502 -0.16218355403E+03 -0.18917100692E+03  0.12834615729E+03  0.28028897797E+03  0.50400001928E-02 0. -1.
</event>
<event>
 5   0  0.4534223E-02  0.5002125E+03  0.7818609E-02  0.1013723E+00
        2   -1    0    0  501    0  0.00000000000E+00  0.00000000000E+00  0.16468522381E+04  0.16468522381E+04  0.25500000920E-02 0.  1.
       -2   -1    0    0    0  501  0.00000000000E+00  0.00000000000E+00 -0.37983450150E+02  0.37983450236E+02  0.25500000920E-02 0. -1.
    10030    2    1    2    0    0  0.00000000000E+00  0.00000000000E+00  0.16088687879E+04  0.16848356883E+04  0.50021247471E+03 0.  0.
        2    1    3    3  502    0  0.31888539837E+01 -0.63789988140E+02  0.16189205156E+04  0.16201799182E+04  0.25500000920E-02 0.  1.
       -2    1    3    3    0  502 -0.31888539837E+01  0.63789988140E+02 -0.10051727684E+02  0.64655770142E+02  0.25500000920E-02 0. -1.
</event>
<event>
 5   0  0.4519539E-02  0.4991277E+03  0.7818609E-02  0.1014007E+00
        2   -1    0    0  501    0  0.00000000000E+00  0.00000000000E+00  0.11033643852E+03  0.11033643855E+03  0.25500000920E-02 0.  1.
       -2   -1    0    0    0  501  0.00000000000E+00  0.00000000000E+00 -0.56447452903E+03  0.56447452904E+03  0.25500000920E-02 0. -1.
    10030    2    1    2    0    0  0.00000000000E+00  0.00000000000E+00 -0.45413809051E+03  0.67481096759E+03  0.49912767578E+03 0.  0.
        4    1    3    3  502    0  0.14646887580E+03 -0.15116656199E+02  0.45343657174E+02  0.15407564706E+03  0.12699999809E+01 0.  1.
       -4    1    3    3    0  502 -0.14646887580E+03  0.15116656199E+02 -0.49948174768E+03  0.52073532053E+03  0.12699999809E+01 0. -1.
</event>
<event>
 5   0  0.2719671E-02  0.5003748E+03  0.7818609E-02  0.1013681E+00
       -1   -1    0    0    0  501  0.00000000000E+00  0.00000000000E+00  0.29152592309E+03  0.29152592314E+03  0.50400001928E-02 0. -1.
        1   -1    0    0  501    0  0.00000000000E+00  0.00000000000E+00 -0.21471068960E+03  0.21471068966E+03  0.50400001928E-02 0.  1.
    10030    2    1    2    0    0  0.00000000000E+00  0.00000000000E+00  0.76815233490E+02  0.50623661280E+03  0.50037478758E+03 0.  0.
        2    1    3    3  502    0 -0.38765271089E+02 -0.14307735320E+03 -0.16549712567E+03  0.22217824793E+03  0.25500000920E-02 0.  1.
       -2    1    3    3    0  502  0.38765271089E+02  0.14307735320E+03  0.24231235916E+03  0.28405836487E+03  0.25500000920E-02 0. -1.
</event>
<event>
 5   0  0.2643185E-02  0.5012256E+03  0.7818609E-02  0.1013460E+00
       -1   -1    0    0    0  501  0.00000000000E+00  0.00000000000E+00  0.53209236720E+02  0.53209236959E+02  0.50400001928E-02 0.  1.
        1   -1    0    0  501    0  0.00000000000E+00  0.00000000000E+00 -0.11803733666E+04  0.11803733666E+04  0.50400001928E-02 0. -1.
    10030    2    1    2    0    0  0.00000000000E+00  0.00000000000E+00 -0.11271641299E+04  0.12335826036E+04  0.50122556214E+03 0.  0.
        1    1    3    3  502    0  0.11853704358E+02  0.17685111055E+03 -0.99962601995E+03  0.10152186983E+04  0.50400001928E-02 0. -1.
       -1    1    3    3    0  502 -0.11853704358E+02 -0.17685111055E+03 -0.12753810992E+03  0.21836390525E+03  0.50400001928E-02 0.  1.
</event>
<event>
 5   0  0.4519539E-02  0.5000134E+03  0.7818609E-02  0.1013775E+00
        2   -1    0    0  501    0  0.00000000000E+00  0.00000000000E+00  0.40505737681E+03  0.40505737682E+03  0.25500000920E-02 0.  1.
       -2   -1    0    0    0  501  0.00000000000E+00  0.00000000000E+00 -0.15430742015E+03  0.15430742017E+03  0.25500000920E-02 0. -1.
    10030    2    1    2    0    0  0.00000000000E+00  0.00000000000E+00  0.25074995666E+03  0.55936479699E+03  0.50001343517E+03 0.  0.
        4    1    3    3  502    0  0.88310529285E+02 -0.15512656476E+03 -0.70441368977E+02  0.19190257956E+03  0.12699999809E+01 0. -1.
       -4    1    3    3    0  502 -0.88310529285E+02  0.15512656476E+03  0.32119132563E+03  0.36746221743E+03  0.12699999809E+01 0.  1.
</event>
<event>
 5   0  0.4631619E-02  0.4997502E+03  0.7818609E-02  0.1013844E+00
        2   -1    0    0  501    0  0.00000000000E+00  0.00000000000E+00  0.12791945338E+04  0.12791945338E+04  0.25500000920E-02 0. -1.
       -2   -1    0    0    0  501  0.00000000000E+00  0.00000000000E+00 -0.48810059847E+02  0.48810059914E+02  0.25500000920E-02 0.  1.
    10030    2    1    2    0    0  0.00000000000E+00  0.00000000000E+00  0.12303844740E+04  0.13280045937E+04  0.49975018478E+03 0.  0.
        5    1    3    3  502    0  0.19307381475E+03 -0.68545200386E+02  0.23528106958E+03  0.31201797086E+03  0.46999998093E+01 0.  1.
       -5    1    3    3    0  502 -0.19307381475E+03  0.68545200386E+02  0.99510340437E+03  0.10159866229E+04  0.46999998093E+01 0. -1.
</event>
<event>
 5   0  0.1805500E-02  0.5006386E+03  0.7818609E-02  0.1013612E+00
        4   -1    0    0  501    0  0.00000000000E+00  0.00000000000E+00  0.11195649370E+04  0.11195656573E+04  0.12699999809E+01 0.  1.
       -4   -1    0    0    0  501  0.00000000000E+00  0.00000000000E+00 -0.55960008200E+02  0.55974417529E+02  0.12699999809E+01 0. -1.
    10030    2    1    2    0    0  0.00000000000E+00  0.00000000000E+00  0.10636049288E+04  0.11755400748E+04  0.50063861518E+03 0.  0.
        3    1    3    3  502    0 -0.18689746702E+03 -0.60407612899E+02  0.16743351532E+03  0.25809636791E+03  0.10100000352E+00 0. -1.
       -3    1    3    3    0  502  0.18689746702E+03  0.60407612899E+02  0.89617141346E+03  0.91744370692E+03  0.10100000352E+00 0.  1.
</event>
<event>
 5   0  0.1805500E-02  0.4998152E+03  0.7818609E-02  0.1013827E+00
        3   -1    0    0  501    0  0.00000000000E+00  0.00000000000E+00  0.86562963521E+03  0.86562964110E+03  0.10100000352E+00 0. -1.
       -3   -1    0    0    0  501  0.00000000000E+00  0.00000000000E+00 -0.72148390301E+02  0.72148460995E+02  0.10100000352E+00 0.  1.
    10030    2    1    2    0    0  0.00000000000E+00  0.00000000000E+00  0.79348124491E+03  0.93777810210E+03  0.49981524862E+03 0.  0.
        2    1    3    3  502    0  0.85429510614E+02 -0.14570483845E+03  0.51155435403E+02  0.17647940336E+03  0.25500000920E-02 0.  1.
       -2    1    3    3    0  502 -0.85429510614E+02  0.14570483845E+03  0.74232580950E+03  0.76129869873E+03  0.25500000920E-02 0. -1.
</event>
<event>
 5   0  0.2779445E-02  0.5000299E+03  0.7818609E-02  0.1013771E+00
        1   -1    0    0  501    0  0.00000000000E+00  0.00000000000E+00  0.34128055476E+03  0.34128055480E+03  0.50400001928E-02 0.  1.
       -1   -1    0    0    0  501  0.00000000000E+00  0.00000000000E+00 -0.18315569177E+03  0.18315569184E+03  0.50400001928E-02 0. -1.
    10030    2    1    2    0    0  0.00000000000E+00  0.00000000000E+00  0.15812486299E+03  0.52443624664E+03  0.50002990360E+03 0.  0.
        3    1    3    3  502    0 -0.54345088351E+02 -0.14919113212E+03 -0.12348574451E+03  0.20114701547E+03  0.10100000352E+00 0. -1.
       -3    1    3    3    0  502  0.54345088351E+02  0.14919113212E+03  0.28161060751E+03  0.32328923117E+03  0.10100000352E+00 0.  1.
</event>
<event>
 5   0  0.4534223E-02  0.5013172E+03  0.7818609E-02  0.1013436E+00
        2   -1    0    0  501    0  0.00000000000E+00  0.00000000000E+00  0.19704346044E+04  0.19704346044E+04  0.25500000920E-02 0.  1.
       -2   -1    0    0    0  501  0.00000000000E+00  0.00000000000E+00 -0.31886231912E+02  0.31886232014E+02  0.25500000920E-02 0. -1.
    10030    2    1    2    0    0  0.00000000000E+00  0.00000000000E+00  0.19385483725E+04  0.20023208364E+04  0.50131720445E+03 0.  0.
        2    1    3    3  502    0 -0.19089224840E+02  0.72077470867E+02  0.13433944194E+02  0.75762993438E+02  0.25500000920E-02 0. -1.
       -2    1    3    3    0  502  0.19089224840E+02 -0.72077470867E+02  0.19251144283E+04  0.19265578430E+04  0.25500000920E-02 0.  1.
</event>
<event>
 5   0  0.4519539E-02  0.4984123E+03  0.7818609E-02  0.1014194E+00
       -2   -1    0    0    0  501  0.00000000000E+00  0.00000000000E+00  0.21736130193E+03  0.21736130195E+03  0.25500000920E-02 0. -1.
        2   -1    0    0  501    0  0.00000000000E+00  0.00000000000E+00 -0.28571643789E+03  0.28571643790E+03  0.25500000920E-02 0.  1.
    10030    2    1    2    0    0  0.00000000000E+00  0.00000000000E+00 -0.68355135960E+02  0.50307773985E+03  0.49841226682E+03 0.  0.
        4    1    3    3  502    0  0.13187063452E+03 -0.87250238244E+02 -0.22859315639E+03  0.27795487470E+03  0.12699999809E+01 0.  1.
       -4    1    3    3    0  502 -0.13187063452E+03  0.87250238244E+02  0.16023802043E+03  0.22512286515E+03  0.12699999809E+01 0. -1.
</event>
<event>
 5   0  0.2643185E-02  0.5015117E+03  0.7818609E-02  0.1013385E+00
        1   -1    0    0  501    0  0.00000000000E+00  0.00000000000E+00  0.40499150954E+03  0.40499150957E+03  0.50400001928E-02 0.  1.
       -1   -1    0    0    0  501  0.00000000000E+00  0.00000000000E+00 -0.15525881640E+03  0.15525881648E+03  0.50400001928E-02 0. -1.
    10030    2    1    2    0    0  0.00000000000E+00  0.00000000000E+00  0.24973269314E+03  0.56025032605E+03  0.50151172451E+03 0.  0.
        1    1    3    3  502    0 -0.94519079946E+02 -0.74225486687E+02  0.37072283798E+03  0.38971618131E+03  0.50400001928E-02 0.  1.
       -1    1    3    3    0  502  0.94519079946E+02  0.74225486687E+02 -0.12099014485E+03  0.17053414474E+03  0.50400001928E-02 0. -1.
</event>
<event>
 5   0  0.2643185E-02  0.4991906E+03  0.7818609E-02  0.1013990E+00
       -1   -1    0    0    0  501  0.00000000000E+00  0.00000000000E+00  0.15292520534E+03  0.15292520542E+03  0.50400001928E-02 0. -1.
        1   -1    0    0  501    0  0.00000000000E+00  0.00000000000E+00 -0.40737446822E+03  0.40737446825E+03  0.50400001928E-02 0.  1.
    10030    2    1    2    0    0  0.00000000000E+00  0.00000000000E+00 -0.25444926288E+03  0.56029967368E+03  0.49919064188E+03 0.  0.
        1    1    3    3  502    0 -0.15069871750E+03 -0.98794990867E+02  0.66623085738E+02  0.19211764431E+03  0.50400001928E-02 0. -1.
       -1    1    3    3    0  502  0.15069871750E+03  0.98794990867E+02 -0.32107234862E+03  0.36818202937E+03  0.50400001928E-02 0.  1.
</event>
<event>
 5   0  0.4409622E-02  0.5004303E+03  0.7818609E-02  0.1013667E+00
       -2   -1    0    0    0  501  0.00000000000E+00  0.00000000000E+00  0.95244424407E+02  0.95244424441E+02  0.25500000920E-02 0. -1.
        2   -1    0    0  501    0  0.00000000000E+00  0.00000000000E+00 -0.65733637746E+03  0.65733637746E+03  0.25500000920E-02 0.  1.
    10030    2    1    2    0    0  0.00000000000E+00  0.00000000000E+00 -0.56209195305E+03  0.75258080191E+03  0.50043031454E+03 0.  0.
        3    1    3    3  502    0  0.18065745137E+03 -0.16835574476E+03 -0.22038877452E+03  0.33098639498E+03  0.10100000352E+00 0.  1.
       -3    1    3    3    0  502 -0.18065745137E+03  0.16835574476E+03 -0.34170317853E+03  0.42159440692E+03  0.10100000352E+00 0. -1.
</event>
<event>
 5   0  0.2723308E-02  0.5005737E+03  0.7818609E-02  0.1013629E+00
       -1   -1    0    0    0  501  0.00000000000E+00  0.00000000000E+00  0.11230576569E+04  0.11230576569E+04  0.50400001928E-02 0. -1.
        1   -1    0    0  501    0  0.00000000000E+00  0.00000000000E+00 -0.55779428836E+02  0.55779429064E+02  0.50400001928E-02 0.  1.
    10030    2    1    2    0    0  0.00000000000E+00  0.00000000000E+00  0.10672782281E+04  0.11788370860E+04  0.50057373000E+03 0.  0.
        4    1    3    3  502    0  0.47073394937E+02 -0.13064332544E+02 -0.44434886230E+02  0.66050384631E+02  0.12699999809E+01 0.  1.
       -4    1    3    3    0  502 -0.47073394937E+02  0.13064332544E+02  0.11117131143E+04  0.11127867013E+04  0.12699999809E+01 0. -1.
</event>
<event>
 5   0  0.2643185E-02  0.4973943E+03  0.7818609E-02  0.1014461E+00
        1   -1    0    0  501    0  0.00000000000E+00  0.00000000000E+00  0.27581023285E+03  0.27581023289E+03  0.50400001928E-02 0.  1.
       -1   -1    0    0    0  501  0.00000000000E+00  0.00000000000E+00 -0.22424937463E+03  0.22424937469E+03  0.50400001928E-02 0. -1.
    10030    2    1    2    0    0  0.00000000000E+00  0.00000000000E+00  0.51560858214E+02  0.50005960759E+03  0.49739429936E+03 0.  0.
        1    1    3    3  502    0  0.10297905652E+03  0.59905449097E+02 -0.19369402268E+03  0.22739991944E+03  0.50400001928E-02 0. -1.
       -1    1    3    3    0  502 -0.10297905652E+03 -0.59905449097E+02  0.24525488089E+03  0.27265968815E+03  0.50400001928E-02 0.  1.
</event>
<event>
 5   0  0.1805500E-02  0.5063038E+03  0.7818609E-02  0.1012147E+00
       -3   -1    0    0    0  501  0.00000000000E+00  0.00000000000E+00  0.14419295251E+03  0.14419298788E+03  0.10100000352E+00 0.  1.
        3   -1    0    0  501    0  0.00000000000E+00  0.00000000000E+00 -0.44444516260E+03  0.44444517408E+03  0.10100000352E+00 0. -1.
    10030    2    1    2    0    0  0.00000000000E+00  0.00000000000E+00 -0.30025221009E+03  0.58863816196E+03  0.50630375868E+03 0.  0.
        2    1    3    3  502    0  0.24489142377E+03 -0.44692344543E+02 -0.20361488626E+03  0.32160260729E+03  0.25500000920E-02 0. -1.
       -2    1    3    3    0  502 -0.24489142377E+03  0.44692344543E+02 -0.96637323830E+02  0.26703555468E+03  0.25500000920E-02 0.  1.
</event>
<event>
 5   0  0.2643185E-02  0.5001593E+03  0.7818609E-02  0.1013737E+00
        1   -1    0    0  501    0  0.00000000000E+00  0.00000000000E+00  0.85865178070E+03  0.85865178072E+03  0.50400001928E-02 0. -1.
       -1   -1    0    0    0  501  0.00000000000E+00  0.00000000000E+00 -0.72834909212E+02  0.72834909387E+02  0.50400001928E-02 0.  1.
    10030    2    1    2    0    0  0.00000000000E+00  0.00000000000E+00  0.78581687149E+03  0.93148669010E+03  0.50015927295E+03 0.  0.
        1    1    3    3  502    0 -0.19537205076E+03  0.14562057498E+03  0.28814670663E+03  0.37736469713E+03  0.50400001928E-02 0. -1.
       -1    1    3    3    0  502  0.19537205076E+03 -0.14562057498E+03  0.49767016486E+03  0.55412199297E+03  0.50400001928E-02 0.  1.
</event>
<event>
 5   0  0.2779445E-02  0.5199830E+03  0.7818609E-02  0.1008691E+00
       -1   -1    0    0    0  501  0.00000000000E+00  0.00000000000E+00  0.17757370425E+03  0.17757370432E+03  0.50400001928E-02 0. -1.
        1   -1    0    0  501    0  0.00000000000E+00  0.00000000000E+00 -0.38066208690E+03  0.38066208693E+03  0.50400001928E-02 0.  1.
    10030    2    1    2    0    0  0.00000000000E+00  0.00000000000E+00 -0.20308838265E+03  0.55823579125E+03  0.51998298767E+03 0.  0.
        3    1    3    3  502    0 -0.11627134383E+03  0.52594472699E+02 -0.34472600051E+03  0.36758839697E+03  0.10100000352E+00 0.  1.
       -3    1    3    3    0  502  0.11627134383E+03 -0.52594472699E+02  0.14163761786E+03  0.19064739429E+03  0.10100000352E+00 0. -1.
</event>
<event>
 5   0  0.1805500E-02  0.4993017E+03  0.7818609E-02  0.1013961E+00
       -4   -1    0    0    0  501  0.00000000000E+00  0.00000000000E+00  0.30058894307E+03  0.30059162596E+03  0.12699999809E+01 0. -1.
        4   -1    0    0  501    0  0.00000000000E+00  0.00000000000E+00 -0.20733919091E+03  0.20734308040E+03  0.12699999809E+01 0.  1.
    10030    2    1    2    0    0  0.00000000000E+00  0.00000000000E+00  0.93249752161E+02  0.50793470636E+03  0.49930166197E+03 0.  0.
        2    1    3    3  502    0 -0.24786342841E+03  0.17930158759E+00  0.16289388432E+02  0.24839817929E+03  0.25500000920E-02 0.  1.
       -2    1    3    3    0  502  0.24786342841E+03 -0.17930158759E+00  0.76960363729E+02  0.25953652707E+03  0.25500000920E-02 0. -1.
</event>
<event>
 5   0  0.2723308E-02  0.5009950E+03  0.7818609E-02  0.1013520E+00
        1   -1    0    0  501    0  0.00000000000E+00  0.00000000000E+00  0.88920810098E+02  0.88920810241E+02  0.50400001928E-02 0. -1.
       -1   -1    0    0    0  501  0.00000000000E+00  0.00000000000E+00 -0.70567287742E+03  0.70567287744E+03  0.50400001928E-02 0.  1.
    10030    2    1    2    0    0  0.00000000000E+00  0.00000000000E+00 -0.61675206733E+03  0.79459368768E+03  0.50099502588E+03 0.  0.
        4    1    3    3  502    0 -0.12820337268E+03  0.21507952382E+03 -0.29692968381E+03  0.38841235351E+03  0.12699999809E+01 0.  1.
       -4    1    3    3    0  502  0.12820337268E+03 -0.21507952382E+03 -0.31982238352E+03  0.40618133417E+03  0.12699999809E+01 0. -1.
</event>
<event>
 5   0  0.2643185E-02  0.5015480E+03  0.7818609E-02  0.1013376E+00
       -1   -1    0    0    0  501  0.00000000000E+00  0.00000000000E+00  0.10527250761E+03  0.10527250773E+03  0.50400001928E-02 0. -1.
        1   -1    0    0  501    0  0.00000000000E+00  0.00000000000E+00 -0.59737902397E+03  0.59737902400E+03  0.50400001928E-02 0.  1.
    10030    2    1    2    0    0  0.00000000000E+00  0.00000000000E+00 -0.49210651636E+03  0.70265153173E+03  0.50154795543E+03 0.  0.
        1    1    3    3  502    0 -0.94384615930E+01 -0.23916324577E+03 -0.35088674525E+03  0.42474657233E+03  0.50400001928E-02 0.  1.
       -1    1    3    3    0  502  0.94384615930E+01  0.23916324577E+03 -0.14121977111E+03  0.27790495940E+03  0.50400001928E-02 0. -1.
</event>
<event>
 5   0  0.2643185E-02  0.4981139E+03  0.7818609E-02  0.1014272E+00
        1   -1    0    0  501    0  0.00000000000E+00  0.00000000000E+00  0.23968030756E+03  0.23968030762E+03  0.50400001928E-02 0.  1.
       -1   -1    0    0    0  501  0.00000000000E+00  0.00000000000E+00 -0.25880046132E+03  0.25880046137E+03  0.50400001928E-02 0. -1.
    10030    2    1    2    0    0  0.00000000000E+00  0.00000000000E+00 -0.19120153753E+02  0.49848076898E+03  0.49811393954E+03 0.  0.
        1    1    3    3  502    0 -0.67165122912E+02 -0.19597979663E+03  0.12878115677E+03  0.24393405008E+03  0.50400001928E-02 0. -1.
       -1    1    3    3    0  502  0.67165122912E+02  0.19597979663E+03 -0.14790131053E+03  0.25454671890E+03  0.50400001928E-02 0.  1.
</event>
<event>
 5   0  0.4631619E-02  0.4991506E+03  0.7818609E-02  0.1014001E+00
        2   -1    0    0  501    0  0.00000000000E+00  0.00000000000E+00  0.52862736446E+03  0.52862736447E+03  0.25500000920E-02 0. -1.
       -2   -1    0    0    0  501  0.00000000000E+00  0.00000000000E+00 -0.11782935102E+03  0.11782935105E+03  0.25500000920E-02 0.  1.
    10030    2    1    2    0    0  0.00000000000E+00  0.00000000000E+00  0.41079801344E+03  0.64645671552E+03  0.49915055563E+03 0.  0.
        5    1    3    3  502    0 -0.15693463904E+03 -0.19279831847E+03  0.23335837148E+03  0.34099544289E+03  0.46999998093E+01 0. -1.
       -5    1    3    3    0  502  0.15693463904E+03  0.19279831847E+03  0.17743964197E+03  0.30546127263E+03  0.46999998093E+01 0.  1.
</event>
<event>
 5   0  0.1805500E-02  0.5011384E+03  0.7818609E-02  0.1013482E+00
        3   -1    0    0  501    0  0.00000000000E+00  0.00000000000E+00  0.45521794417E+02  0.45521906462E+02  0.10100000352E+00 0.  1.
       -3   -1    0    0    0  501  0.00000000000E+00  0.00000000000E+00 -0.13792258541E+04  0.13792258578E+04  0.10100000352E+00 0. -1.
    10030    2    1    2    0    0  0.00000000000E+00  0.00000000000E+00 -0.13337040597E+04  0.14247477643E+04  0.50113837705E+03 0.  0.
        3    1    3    3  502    0  0.10514764050E+03  0.41968376810E+02 -0.31339242291E+02  0.11747139763E+03  0.10100000352E+00 0.  1.
       -3    1    3    3    0  502 -0.10514764050E+03 -0.41968376810E+02 -0.13023648174E+04  0.13072763666E+04  0.10100000352E+00 0. -1.
</event>
<event>
 5   0  0.4519539E-02  0.5087868E+03  0.7818609E-02  0.1011511E+00
        2   -1    0    0  501    0  0.00000000000E+00  0.00000000000E+00  0.44673634391E+03  0.44673634392E+03  0.25500000920E-02 0. -1.
       -2   -1    0    0    0  501  0.00000000000E+00  0.00000000000E+00 -0.14486394873E+03  0.14486394875E+03  0.25500000920E-02 0.  1.
    10030    2    1    2    0    0  0.00000000000E+00  0.00000000000E+00  0.30187239518E+03  0.59160029267E+03  0.50878675623E+03 0.  0.
        4    1    3    3  502    0  0.21198988691E+02  0.83360838729E+02 -0.12743886962E+03  0.15375534119E+03  0.12699999809E+01 0.  1.
       -4    1    3    3    0  502 -0.21198988691E+02 -0.83360838729E+02  0.42931126480E+03  0.43784495148E+03  0.12699999809E+01 0. -1.
</event>
<event>
 5   0  0.2715483E-02  0.4993169E+03  0.7818609E-02  0.1013957E+00
       -1   -1    0    0    0  501  0.00000000000E+00  0.00000000000E+00  0.14115029039E+03  0.14115029048E+03  0.50400001928E-02 0.  1.
        1   -1    0    0  501    0  0.00000000000E+00  0.00000000000E+00 -0.44158131572E+03  0.44158131575E+03  0.50400001928E-02 0. -1.
    10030    2    1    2    0    0  0.00000000000E+00  0.00000000000E+00 -0.30043102533E+03  0.58273160623E+03  0.49931685724E+03 0.  0.
        5    1    3    3  502    0  0.64686324477E+02 -0.22842022338E+03 -0.24021618795E+03  0.33776622977E+03  0.46999998093E+01 0. -1.
       -5    1    3    3    0  502 -0.64686324477E+02  0.22842022338E+03 -0.60214837382E+02  0.24496537646E+03  0.46999998093E+01 0.  1.
</event>
<event>
 5   0  0.4519539E-02  0.5020888E+03  0.7818609E-02  0.1013235E+00
       -2   -1    0    0    0  501  0.00000000000E+00  0.00000000000E+00  0.91980064128E+02  0.91980064163E+02  0.25500000920E-02 0.  1.
        2   -1    0    0  501    0  0.00000000000E+00  0.00000000000E+00 -0.68518427422E+03  0.68518427423E+03  0.25500000920E-02 0. -1.
    10030    2    1    2    0    0  0.00000000000E+00  0.00000000000E+00 -0.59320421010E+03  0.77716433839E+03  0.50208881086E+03 0.  0.
        4    1    3    3  502    0 -0.87976105319E+02  0.18104316193E+03 -0.64395628518E+02  0.21134055802E+03  0.12699999809E+01 0.  1.
       -4    1    3    3    0  502  0.87976105319E+02 -0.18104316193E+03 -0.52880858158E+03  0.56582378038E+03  0.12699999809E+01 0. -1.
</event>
<event>
 5   0  0.2779445E-02  0.4997093E+03  0.7818609E-02  0.1013855E+00
       -1   -1    0    0    0  501  0.00000000000E+00  0.00000000000E+00  0.18866919262E+03  0.18866919268E+03  0.50400001928E-02 0. -1.
        1   -1    0    0  501    0  0.00000000000E+00  0.00000000000E+00 -0.33088260482E+03  0.33088260486E+03  0.50400001928E-02 0.  1.
    10030    2    1    2    0    0  0.00000000000E+00  0.00000000000E+00 -0.14221341221E+03  0.51955179755E+03  0.49970933123E+03 0.  0.
        3    1    3    3  502    0 -0.22947988939E+03  0.62648334216E+02  0.83579423423E+01  0.23802457608E+03  0.10100000352E+00 0.  1.
       -3    1    3    3    0  502  0.22947988939E+03 -0.62648334216E+02 -0.15057135455E+03  0.28152722147E+03  0.10100000352E+00 0. -1.
</event>
<event>
 5   0  0.4534223E-02  0.5004776E+03  0.7818609E-02  0.1013654E+00
        2   -1    0    0  501    0  0.00000000000E+00  0.00000000000E+00  0.53748253958E+03  0.53748253959E+03  0.25500000920E-02 0. -1.
       -2   -1    0    0    0  501  0.00000000000E+00  0.00000000000E+00 -0.11650509434E+03  0.11650509436E+03  0.25500000920E-02 0.  1.
    10030    2    1    2    0    0  0.00000000000E+00  0.00000000000E+00  0.42097744524E+03  0.65398763395E+03  0.50047758786E+03 0.  0.
        2    1    3    3  502    0  0.13663181933E+03 -0.20214693960E+03  0.28310107732E+03  0.37373501205E+03  0.25500000920E-02 0. -1.
       -2    1    3    3    0  502 -0.13663181933E+03  0.20214693960E+03  0.13787636792E+03  0.28025262190E+03  0.25500000920E-02 0.  1.
</event>
<event>
 5   0  0.4451135E-02  0.5040691E+03  0.7818609E-02  0.1012722E+00
       -2   -1    0    0    0  501  0.00000000000E+00  0.00000000000E+00  0.65374997843E+02  0.65374997893E+02  0.25500000920E-02 0.  1.
        2   -1    0    0  501    0  0.00000000000E+00  0.00000000000E+00 -0.97164706222E+03  0.97164706223E+03  0.25500000920E-02 0. -1.
    10030    2    1    2    0    0  0.00000000000E+00  0.00000000000E+00 -0.90627206438E+03  0.10370220601E+04  0.50406914059E+03 0.  0.
        1    1    3    3  502    0 -0.19857683541E+03  0.93074390908E+02 -0.19761770616E+03  0.29520901005E+03  0.50400001928E-02 0. -1.
       -1    1    3    3    0  502  0.19857683541E+03 -0.93074390908E+02 -0.70865435822E+03  0.74181305007E+03  0.50400001928E-02 0.  1.
</event>
<event>
 5   0  0.1805500E-02  0.4986566E+03  0.7818609E-02  0.1014130E+00
       -3   -1    0    0    0  501  0.00000000000E+00  0.00000000000E+00  0.24511095873E+03  0.24511097954E+03  0.10100000352E+00 0.  1.
        3   -1    0    0  501    0  0.00000000000E+00  0.00000000000E+00 -0.25361818869E+03  0.25361820880E+03  0.10100000352E+00 0. -1.
    10030    2    1    2    0    0  0.00000000000E+00  0.00000000000E+00 -0.85072299543E+01  0.49872918834E+03  0.49865662568E+03 0.  0.
        1    1    3    3  502    0  0.21393709761E+03 -0.15920412130E+02  0.12281630480E+03  0.24719705905E+03  0.50400001928E-02 0.  1.
       -1    1    3    3    0  502 -0.21393709761E+03  0.15920412130E+02 -0.13132353475E+03  0.25153212928E+03  0.50400001928E-02 0. -1.
</event>
<event>
 5   0  0.2723308E-02  0.4975341E+03  0.7818609E-02  0.1014425E+00
       -1   -1    0    0    0  501  0.00000000000E+00  0.00000000000E+00  0.67224234456E+02  0.67224234645E+02  0.50400001928E-02 0. -1.
        1   -1    0    0  501    0  0.00000000000E+00  0.00000000000E+00 -0.92057653036E+03  0.92057653037E+03  0.50400001928E-02 0.  1.
    10030    2    1    2    0    0  0.00000000000E+00  0.00000000000E+00 -0.85335229591E+03  0.98780076502E+03  0.49753412993E+03 0.  0.
        4    1    3    3  502    0  0.18634504546E+03 -0.44851987519E+02 -0.11183474292E+03  0.22191169274E+03  0.12699999809E+01 0. -1.
       -4    1    3    3    0  502 -0.18634504546E+03  0.44851987519E+02 -0.74151755298E+03  0.76588907228E+03  0.12699999809E+01 0.  1.
</event>
<event>
 5   0  0.4451135E-02  0.4993653E+03  0.7818609E-02  0.1013945E+00
       -2   -1    0    0    0  501  0.00000000000E+00  0.00000000000E+00  0.24488456211E+03  0.24488456212E+03  0.25500000920E-02 0.  1.
        2   -1    0    0  501    0  0.00000000000E+00  0.00000000000E+00 -0.25457471908E+03  0.25457471910E+03  0.25500000920E-02 0. -1.
    10030    2    1    2    0    0  0.00000000000E+00  0.00000000000E+00 -0.96901569717E+01  0.49945928122E+03  0.49936527157E+03 0.  0.
        1    1    3    3  502    0 -0.14671632102E+03 -0.85836777162E+02 -0.18776687120E+03  0.25327856031E+03  0.50400001928E-02 0. -1.
       -1    1    3    3    0  502  0.14671632102E+03  0.85836777162E+02  0.17807671423E+03  0.24618072090E+03  0.50400001928E-02 0.  1.
</event>
<event>
 5   0  0.1805500E-02  0.4986603E+03  0.7818609E-02  0.1014129E+00
       -4   -1    0    0    0  501  0.00000000000E+00  0.00000000000E+00  0.67634319535E+03  0.67634438771E+03  0.12699999809E+01 0. -1.
        4   -1    0    0  501    0  0.00000000000E+00  0.00000000000E+00 -0.91908525046E+02  0.91917299112E+02  0.12699999809E+01 0.  1.
    10030    2    1    2    0    0  0.00000000000E+00  0.00000000000E+00  0.58443467030E+03  0.76826168683E+03  0.49866034091E+03 0.  0.
        1    1    3    3  502    0  0.14528399692E+03 -0.32449351653E+01 -0.19921670754E+02  0.14667938627E+03  0.50400001928E-02 0.  1.
       -1    1    3    3    0  502 -0.14528399692E+03  0.32449351653E+01  0.60435634106E+03  0.62158230056E+03  0.50400001928E-02 0. -1.
</event>
<event>
 5   0  0.4519539E-02  0.5008079E+03  0.7818609E-02  0.1013568E+00
       -2   -1    0    0    0  501  0.00000000000E+00  0.00000000000E+00  0.59581068683E+02  0.59581068737E+02  0.25500000920E-02 0.  1.
        2   -1    0    0  501    0  0.00000000000E+00  0.00000000000E+00 -0.10523836502E+04  0.10523836502E+04  0.25500000920E-02 0. -1.
    10030    2    1    2    0    0  0.00000000000E+00  0.00000000000E+00 -0.99280258154E+03  0.11119647190E+04  0.50080791757E+03 0.  0.
        4    1    3    3  502    0 -0.14913285233E+02  0.13285757735E+03 -0.96650058571E+03  0.97570412371E+03  0.12699999809E+01 0. -1.
       -4    1    3    3    0  502  0.14913285233E+02 -0.13285757735E+03 -0.26301995828E+02  0.13626059526E+03  0.12699999809E+01 0.  1.
</event>
<event>
 5   0  0.4409622E-02  0.4999052E+03  0.7818609E-02  0.1013804E+00
        2   -1    0    0  501    0  0.00000000000E+00  0.00000000000E+00  0.22505835680E+03  0.22505835681E+03  0.25500000920E-02 0.  1.
       -2   -1    0    0    0  501  0.00000000000E+00  0.00000000000E+00 -0.27760040680E+03  0.27760040681E+03  0.25500000920E-02 0. -1.
    10030    2    1    2    0    0  0.00000000000E+00  0.00000000000E+00 -0.52542050002E+02  0.50265876362E+03  0.49990515663E+03 0.  0.
        3    1    3    3  502    0  0.80247806185E+02 -0.13184700130E+03  0.17141542523E+03  0.23066555954E+03  0.10100000352E+00 0.  1.
       -3    1    3    3    0  502 -0.80247806185E+02  0.13184700130E+03 -0.22395747524E+03  0.27199320408E+03  0.10100000352E+00 0. -1.
</event>
<event>
 5   0  0.2719671E-02  0.4981984E+03  0.7818609E-02  0.1014250E+00
        1   -1    0    0  501    0  0.00000000000E+00  0.00000000000E+00  0.11113457778E+04  0.11113457778E+04  0.50400001928E-02 0. -1.
       -1   -1    0    0    0  501  0.00000000000E+00  0.00000000000E+00 -0.55833571018E+02  0.55833571245E+02  0.50400001928E-02 0.  1.
    10030    2    1    2    0    0  0.00000000000E+00  0.00000000000E+00  0.10555122068E+04  0.11671793491E+04  0.49819836833E+03 0.  0.
        2    1    3    3  502    0  0.22864914935E+03  0.41978024540E+02  0.73740487566E+03  0.77318079303E+03  0.25500000920E-02 0.  1.
       -2    1    3    3    0  502 -0.22864914935E+03 -0.41978024540E+02  0.31810733115E+03  0.39399855606E+03  0.25500000920E-02 0. -1.
</event>
<event>
 5   0  0.2723308E-02  0.4981078E+03  0.7818609E-02  0.1014274E+00
       -1   -1    0    0    0  501  0.00000000000E+00  0.00000000000E+00  0.10312947229E+03  0.10312947241E+03  0.50400001928E-02 0. -1.
        1   -1    0    0  501    0  0.00000000000E+00  0.00000000000E+00 -0.60145602521E+03  0.60145602523E+03  0.50400001928E-02 0.  1.
    10030    2    1    2    0    0  0.00000000000E+00  0.00000000000E+00 -0.49832655292E+03  0.70458549764E+03  0.49810778968E+03 0.  0.
        4    1    3    3  502    0  0.76042708108E+02 -0.21136056325E+03 -0.97008544660E+02  0.24467948789E+03  0.12699999809E+01 0. -1.
       -4    1    3    3    0  502 -0.76042708108E+02  0.21136056325E+03 -0.40131800826E+03  0.45990600976E+03  0.12699999809E+01 0.  1.
</event>
<event>
 5   0  0.2779445E-02  0.5070751E+03  0.7818609E-02  0.1011949E+00
        1   -1    0    0  501    0  0.00000000000E+00  0.00000000000E+00  0.39464742035E+03  0.39464742039E+03  0.50400001928E-02 0. -1.
       -1   -1    0    0    0  501  0.00000000000E+00  0.00000000000E+00 -0.16288285081E+03  0.16288285089E+03  0.50400001928E-02 0.  1.
    10030    2    1    2    0    0  0.00000000000E+00  0.00000000000E+00  0.23176456954E+03  0.55753027127E+03  0.50707513022E+03 0.  0.
        3    1    3    3  502    0  0.74375604459E+02  0.53317520267E+02 -0.14409083871E+03  0.17069466456E+03  0.10100000352E+00 0.  1.
       -3    1    3    3    0  502 -0.74375604459E+02 -0.53317520267E+02  0.37585540826E+03  0.38683560672E+03  0.10100000352E+00 0. -1.
</event>
<event>
 5   0  0.2779445E-02  0.4979192E+03  0.7818609E-02  0.1014323E+00
        1   -1    0    0  501    0  0.00000000000E+00  0.00000000000E+00  0.84218475331E+03  0.84218475332E+03  0.50400001928E-02 0. -1.
       -1   -1    0    0    0  501  0.00000000000E+00  0.00000000000E+00 -0.73595340940E+02  0.73595341112E+02  0.50400001928E-02 0.  1.
    10030    2    1    2    0    0  0.00000000000E+00  0.00000000000E+00  0.76858941237E+03  0.91578009443E+03  0.49791916669E+03 0.  0.
        3    1    3    3  502    0 -0.53281563760E+02 -0.60740992084E+02 -0.48809903476E+02  0.94397087002E+02  0.10100000352E+00 0.  1.
       -3    1    3    3    0  502  0.53281563760E+02  0.60740992084E+02  0.81739931584E+03  0.82138300743E+03  0.10100000352E+00 0. -1.
</event>
<event>
 5   0  0.4409622E-02  0.5019223E+03  0.7818609E-02  0.1013278E+00
        2   -1    0    0  501    0  0.00000000000E+00  0.00000000000E+00  0.60109286275E+03  0.60109286275E+03  0.25500000920E-02 0.  1.
       -2   -1    0    0    0  501  0.00000000000E+00  0.00000000000E+00 -0.10477833518E+03  0.10477833521E+03  0.25500000920E-02 0. -1.
    10030    2    1    2    0    0  0.00000000000E+00  0.00000000000E+00  0.49631452757E+03  0.70587119796E+03  0.50192234244E+03 0.  0.
        3    1    3    3  502    0 -0.76815739508E+02  0.98336235131E+02  0.55437313429E+03  0.56824313036E+03  0.10100000352E+00 0.  1.
       -3    1    3    3    0  502  0.76815739508E+02 -0.98336235131E+02 -0.58058606726E+02  0.13762806760E+03  0.10100000352E+00 0. -1.
</event>
<event>
 5   0  0.4631619E-02  0.5024456E+03  0.7818609E-02  0.1013143E+00
       -2   -1    0    0    0  501  0.00000000000E+00  0.00000000000E+00  0.16953148536E+03  0.16953148538E+03  0.25500000920E-02 0. -1.
        2   -1    0    0  501    0  0.00000000000E+00  0.00000000000E+00 -0.37227836490E+03  0.37227836491E+03  0.25500000920E-02 0.  1.
    10030    2    1    2    0    0  0.00000000000E+00  0.00000000000E+00 -0.20274687954E+03  0.54180985028E+03  0.50244563557E+03 0.  0.
        5    1    3    3  502    0 -0.70586417698E+02  0.84637652829E+02 -0.34476634666E+03  0.36198328473E+03  0.46999998093E+01 0.  1.
       -5    1    3    3    0  502  0.70586417698E+02 -0.84637652829E+02  0.14201946712E+03  0.17982656555E+03  0.46999998093E+01 0. -1.
</event>
<event>
 5   0  0.4534223E-02  0.5002800E+03  0.7818609E-02  0.1013706E+00
       -2   -1    0    0    0  501  0.00000000000E+00  0.00000000000E+00  0.55582194376E+02  0.55582194434E+02  0.25500000920E-02 0.  1.
        2   -1    0    0  501    0  0.00000000000E+00  0.00000000000E+00 -0.11257206624E+04  0.11257206624E+04  0.25500000920E-02 0. -1.
    10030    2    1    2    0    0  0.00000000000E+00  0.00000000000E+00 -0.10701384680E+04  0.11813028568E+04  0.50028002042E+03 0.  0.
        2    1    3    3  502    0  0.11168067662E+03 -0.74225779674E+02 -0.36463788230E+02  0.13896635476E+03  0.25500000920E-02 0.  1.
       -2    1    3    3    0  502 -0.11168067662E+03  0.74225779674E+02 -0.10336746798E+04  0.10423365021E+04  0.25500000920E-02 0. -1.
</event>
<event>
 5   0  0.2643185E-02  0.5028145E+03  0.7818609E-02  0.1013047E+00
       -1   -1    0    0    0  501  0.00000000000E+00  0.00000000000E+00  0.11114975300E+03  0.11114975312E+03  0.50400001928E-02 0. -1.
        1   -1    0    0  501    0  0.00000000000E+00  0.00000000000E+00 -0.56865266902E+03  0.56865266904E+03  0.50400001928E-02 0.  1.
    10030    2    1    2    0    0  0.00000000000E+00  0.00000000000E+00 -0.45750291602E+03  0.67980242216E+03  0.50281449363E+03 0.  0.
        1    1    3    3  502    0  0.12681268672E+03 -0.91942769619E+02  0.37116369565E+02  0.16097377213E+03  0.50400001928E-02 0. -1.
       -1    1    3    3    0  502 -0.12681268672E+03  0.91942769619E+02 -0.49461928558E+03  0.51882865003E+03  0.50400001928E-02 0.  1.
</event>
<event>
 5   0  0.4534223E-02  0.4964752E+03  0.7818609E-02  0.1014703E+00
       -2   -1    0    0    0  501  0.00000000000E+00  0.00000000000E+00  0.18379786278E+03  0.18379786279E+03  0.25500000920E-02 0. -1.
        2   -1    0    0  501    0  0.00000000000E+00  0.00000000000E+00 -0.33526994533E+03  0.33526994534E+03  0.25500000920E-02 0.  1.
    10030    2    1    2    0    0  0.00000000000E+00  0.00000000000E+00 -0.15147208255E+03  0.51906780813E+03  0.49647517324E+03 0.  0.
        2    1    3    3  502    0  0.12094945169E+03  0.12723557378E+03 -0.25923423626E+03  0.31308153947E+03  0.25500000920E-02 0.  1.
       -2    1    3    3    0  502 -0.12094945169E+03 -0.12723557378E+03  0.10776215371E+03  0.20598626866E+03  0.25500000920E-02 0. -1.
</event>
<event>
 5   0  0.2643185E-02  0.5043285E+03  0.7818609E-02  0.1012655E+00
        1   -1    0    0  501    0  0.00000000000E+00  0.00000000000E+00  0.22094408924E+03  0.22094408930E+03  0.50400001928E-02 0.  1.
       -1   -1    0    0    0  501  0.00000000000E+00  0.00000000000E+00 -0.28779592209E+03  0.28779592213E+03  0.50400001928E-02 0. -1.
    10030    2    1    2    0    0  0.00000000000E+00  0.00000000000E+00 -0.66851832846E+02  0.50874001143E+03  0.50432849580E+03 0.  0.
        1    1    3    3  502    0  0.11852774318E+03  0.15513734205E+03  0.12756455070E+03  0.23321478388E+03  0.50400001928E-02 0. -1.
       -1    1    3    3    0  502 -0.11852774318E+03 -0.15513734205E+03 -0.19441638354E+03  0.27552522755E+03  0.50400001928E-02 0.  1.
</event>
<event>
 5   0  0.2715483E-02  0.5005119E+03  0.7818609E-02  0.1013645E+00
        1   -1    0    0  501    0  0.00000000000E+00  0.00000000000E+00  0.51359033003E+03  0.51359033005E+03  0.50400001928E-02 0.  1.
       -1   -1    0    0    0  501  0.00000000000E+00  0.00000000000E+00 -0.12194164277E+03  0.12194164288E+03  0.50400001928E-02 0. -1.
    10030    2    1    2    0    0  0.00000000000E+00  0.00000000000E+00  0.39164868726E+03  0.63553197293E+03  0.50051193231E+03 0.  0.
        5    1    3    3  502    0  0.37064322529E+02  0.81262259082E+01  0.50985971931E+03  0.51129132882E+03  0.46999998093E+01 0.  1.
       -5    1    3    3    0  502 -0.37064322529E+02 -0.81262259082E+01 -0.11821103205E+03  0.12424064411E+03  0.46999998093E+01 0. -1.
</event>
<event>
 5   0  0.4519539E-02  0.4983553E+03  0.7818609E-02  0.1014209E+00
       -2   -1    0    0    0  501  0.00000000000E+00  0.00000000000E+00  0.97468679319E+02  0.97468679353E+02  0.25500000920E-02 0.  1.
        2   -1    0    0  501    0  0.00000000000E+00  0.00000000000E+00 -0.63701990707E+03  0.63701990708E+03  0.25500000920E-02 0. -1.
    10030    2    1    2    0    0  0.00000000000E+00  0.00000000000E+00 -0.53955122775E+03  0.73448858643E+03  0.49835525103E+03 0.  0.
        4    1    3    3  502    0  0.17192418596E+02  0.75159545092E+02 -0.61899241862E+03  0.62377701440E+03  0.12699999809E+01 0. -1.
       -4    1    3    3    0  502 -0.17192418596E+02 -0.75159545092E+02  0.79441190870E+02  0.11071157203E+03  0.12699999809E+01 0.  1.
</event>
<event>
 5   0  0.2643185E-02  0.4998857E+03  0.7818609E-02  0.1013809E+00
        1   -1    0    0  501    0  0.00000000000E+00  0.00000000000E+00  0.55849114722E+02  0.55849114949E+02  0.50400001928E-02 0.  1.
       -1   -1    0    0    0  501  0.00000000000E+00  0.00000000000E+00 -0.11185751333E+04  0.11185751333E+04  0.50400001928E-02 0. -1.
    10030    2    1    2    0    0  0.00000000000E+00  0.00000000000E+00 -0.10627260186E+04  0.11744242483E+04  0.49988571128E+03 0.  0.
        1    1    3    3  502    0 -0.17655463127E+03 -0.17533439802E+03 -0.58684742320E+03  0.63741947499E+03  0.50400001928E-02 0. -1.
       -1    1    3    3    0  502  0.17655463127E+03  0.17533439802E+03 -0.47587859538E+03  0.53700477328E+03  0.50400001928E-02 0.  1.
</event>
<event>
 5   0  0.2715483E-02  0.4994544E+03  0.7818609E-02  0.1013921E+00
       -1   -1    0    0    0  501  0.00000000000E+00  0.00000000000E+00  0.96378067012E+02  0.96378067144E+02  0.50400001928E-02 0.  1.
        1   -1    0    0  501    0  0.00000000000E+00  0.00000000000E+00 -0.64707333610E+03  0.64707333612E+03  0.50400001928E-02 0. -1.
    10030    2    1    2    0    0  0.00000000000E+00  0.00000000000E+00 -0.55069526909E+03  0.74345140327E+03  0.49945441195E+03 0.  0.
        5    1    3    3  502    0  0.10477872504E+03  0.21066773634E+03 -0.39972750718E+03  0.46385735560E+03  0.46999998093E+01 0. -1.
       -5    1    3    3    0  502 -0.10477872504E+03 -0.21066773634E+03 -0.15096776191E+03  0.27959404766E+03  0.46999998093E+01 0.  1.
</event>
<event>
 5   0  0.2643185E-02  0.4999371E+03  0.7818609E-02  0.1013795E+00
        1   -1    0    0  501    0  0.00000000000E+00  0.00000000000E+00  0.10073884389E+04  0.10073884389E+04  0.50400001928E-02 0. -1.
       -1   -1    0    0    0  501  0.00000000000E+00  0.00000000000E+00 -0.62025989690E+02  0.62025989895E+02  0.50400001928E-02 0.  1.
    10030    2    1    2    0    0  0.00000000000E+00  0.00000000000E+00  0.94536244923E+03  0.10694144288E+04  0.49993705621E+03 0.  0.
        1    1    3    3  502    0  0.15434165358E+03 -0.18199900038E+03  0.63188651002E+03  0.67544470073E+03  0.50400001928E-02 0.  1.
       -1    1    3    3    0  502 -0.15434165358E+03  0.18199900038E+03  0.31347593921E+03  0.39396972810E+03  0.50400001928E-02 0. -1.
</event>
<event>
 5   0  0.2719671E-02  0.5065268E+03  0.7818609E-02  0.1012089E+00
        1   -1    0    0  501    0  0.00000000000E+00  0.00000000000E+00  0.82388672108E+03  0.82388672110E+03  0.50400001928E-02 0. -1.
       -1   -1    0    0    0  501  0.00000000000E+00  0.00000000000E+00 -0.77853363420E+02  0.77853363583E+02  0.50400001928E-02 0.  1.
    10030    2    1    2    0    0  0.00000000000E+00  0.00000000000E+00  0.74603335766E+03  0.90174008468E+03  0.50652681032E+03 0.  0.
        2    1    3    3  502    0 -0.24506626613E+03  0.35112152587E+02  0.46808915167E+03  0.52952600689E+03  0.25500000920E-02 0. -1.
       -2    1    3    3    0  502  0.24506626613E+03 -0.35112152587E+02  0.27794420599E+03  0.37221407779E+03  0.25500000920E-02 0.  1.
</event>
<event>
 5   0  0.2719671E-02  0.5006663E+03  0.7818609E-02  0.1013605E+00
       -1   -1    0    0    0  501  0.00000000000E+00  0.00000000000E+00  0.18575749155E+03  0.18575749161E+03  0.50400001928E-02 0. -1.
        1   -1    0    0  501    0  0.00000000000E+00  0.00000000000E+00 -0.33735758104E+03  0.33735758108E+03  0.50400001928E-02 0.  1.
    10030    2    1    2    0    0  0.00000000000E+00  0.00000000000E+00 -0.15160008950E+03  0.52311507269E+03  0.50066634812E+03 0.  0.
        2    1    3    3  502    0  0.18045280927E+03 -0.14308736602E+03  0.26729827295E+02  0.23184411651E+03  0.25500000920E-02 0. -1.
       -2    1    3    3    0  502 -0.18045280927E+03  0.14308736602E+03 -0.17832991679E+03  0.29127095618E+03  0.25500000920E-02 0.  1.
</event>
<event>
 5   0  0.1805500E-02  0.4992527E+03  0.7818609E-02  0.1013974E+00
       -3   -1    0    0    0  501  0.00000000000E+00  0.00000000000E+00  0.44669137087E+03  0.44669138229E+03  0.10100000352E+00 0. -1.
        3   -1    0    0  501    0  0.00000000000E+00  0.00000000000E+00 -0.13949966975E+03  0.13949970632E+03  0.10100000352E+00 0.  1.
    10030    2    1    2    0    0  0.00000000000E+00  0.00000000000E+00  0.30719170112E+03  0.58619108861E+03  0.49925269266E+03 0.  0.
        1    1    3    3  502    0 -0.13805239519E+03 -0.26980001993E+02  0.39572707833E+03  0.41998369597E+03  0.50400001928E-02 0. -1.
       -1    1    3    3    0  502  0.13805239519E+03  0.26980001993E+02 -0.88535377216E+02  0.16620739264E+03  0.50400001928E-02 0.  1.
</event>
<event>
 5   0  0.1805500E-02  0.5001681E+03  0.7818609E-02  0.1013735E+00
       -3   -1    0    0    0  501  0.00000000000E+00  0.00000000000E+00  0.82085186492E+02  0.82085248629E+02  0.10100000352E+00 0. -1.
        3   -1    0    0  501    0  0.00000000000E+00  0.00000000000E+00 -0.76191597922E+03  0.76191598591E+03  0.10100000352E+00 0.  1.
    10030    2    1    2    0    0  0.00000000000E+00  0.00000000000E+00 -0.67983079272E+03  0.84400123454E+03  0.50016814889E+03 0.  0.
        3    1    3    3  502    0  0.82992504424E+02 -0.10176974761E+03 -0.69905451543E+03  0.71128198562E+03  0.10100000352E+00 0.  1.
       -3    1    3    3    0  502 -0.82992504424E+02  0.10176974761E+03  0.19223722705E+02  0.13271924892E+03  0.10100000352E+00 0. -1.
</event>
<event>
 5   0  0.2715483E-02  0.4981604E+03  0.7818609E-02  0.1014260E+00
       -1   -1    0    0    0  501  0.00000000000E+00  0.00000000000E+00  0.31788242219E+03  0.31788242223E+03  0.50400001928E-02 0.  1.
        1   -1    0    0  501    0  0.00000000000E+00  0.00000000000E+00 -0.19516945421E+03  0.19516945428E+03  0.50400001928E-02 0. -1.
    10030    2    1    2    0    0  0.00000000000E+00  0.00000000000E+00  0.12271296798E+03  0.51305187651E+03  0.49816037124E+03 0.  0.
        5    1    3    3  502    0  0.11888712551E+03 -0.21163145825E+03  0.11866913746E+03  0.27023411501E+03  0.46999998093E+01 0.  1.
       -5    1    3    3    0  502 -0.11888712551E+03  0.21163145825E+03  0.40438305198E+01  0.24281776149E+03  0.46999998093E+01 0. -1.
</event>
<event>
 5   0  0.4451135E-02  0.5018539E+03  0.7818609E-02  0.1013296E+00
        2   -1    0    0  501    0  0.00000000000E+00  0.00000000000E+00  0.22891624029E+03  0.22891624030E+03  0.25500000920E-02 0. -1.
       -2   -1    0    0    0  501  0.00000000000E+00  0.00000000000E+00 -0.27505398788E+03  0.27505398789E+03  0.25500000920E-02 0.  1.
    10030    2    1    2    0    0  0.00000000000E+00  0.00000000000E+00 -0.46137747589E+02  0.50397022819E+03  0.50185386235E+03 0.  0.
        1    1    3    3  502    0  0.82499308890E+02 -0.23644868305E+03 -0.38953578398E+02  0.25343933589E+03  0.50400001928E-02 0.  1.
       -1    1    3    3    0  502 -0.82499308890E+02  0.23644868305E+03 -0.71841691917E+01  0.25053089230E+03  0.50400001928E-02 0. -1.
</event>
<event>
 5   0  0.2719671E-02  0.5001287E+03  0.7818609E-02  0.1013745E+00
       -1   -1    0    0    0  501  0.00000000000E+00  0.00000000000E+00  0.10869956752E+03  0.10869956764E+03  0.50400001928E-02 0.  1.
        1   -1    0    0  501    0  0.00000000000E+00  0.00000000000E+00 -0.57527528240E+03  0.57527528242E+03  0.50400001928E-02 0. -1.
    10030    2    1    2    0    0  0.00000000000E+00  0.00000000000E+00 -0.46657571488E+03  0.68397485005E+03  0.50012868124E+03 0.  0.
        2    1    3    3  502    0 -0.12014065394E+03 -0.16105004716E+02 -0.53241067206E+03  0.54603504616E+03  0.25500000920E-02 0. -1.
       -2    1    3    3    0  502  0.12014065394E+03  0.16105004716E+02  0.65834957183E+02  0.13793980390E+03  0.25500000920E-02 0.  1.
</event>
<event>
 5   0  0.4409622E-02  0.4992034E+03  0.7818609E-02  0.1013987E+00
        2   -1    0    0  501    0  0.00000000000E+00  0.00000000000E+00  0.84856771295E+03  0.84856771295E+03  0.25500000920E-02 0.  1.
       -2   -1    0    0    0  501  0.00000000000E+00  0.00000000000E+00 -0.73419008376E+02  0.73419008421E+02  0.25500000920E-02 0. -1.
    10030    2    1    2    0    0  0.00000000000E+00  0.00000000000E+00  0.77514870457E+03  0.92198672137E+03  0.49920336556E+03 0.  0.
        3    1    3    3  502    0 -0.53518102195E+02 -0.13370648296E+03  0.11059869296E+02  0.14444355907E+03  0.10100000352E+00 0. -1.
       -3    1    3    3    0  502  0.53518102195E+02  0.13370648296E+03  0.76408883527E+03  0.77754316230E+03  0.10100000352E+00 0.  1.
</event>
<event>
 5   0  0.2723308E-02  0.5062042E+03  0.7818609E-02  0.1012172E+00
        1   -1    0    0  501    0  0.00000000000E+00  0.00000000000E+00  0.21305301242E+03  0.21305301248E+03  0.50400001928E-02 0.  1.
       -1   -1    0    0    0  501  0.00000000000E+00  0.00000000000E+00 -0.30067944281E+03  0.30067944286E+03  0.50400001928E-02 0. -1.
    10030    2    1    2    0    0  0.00000000000E+00  0.00000000000E+00 -0.87626430396E+02  0.51373245533E+03  0.50620415285E+03 0.  0.
        4    1    3    3  502    0  0.86473990255E+00  0.25273130814E+03 -0.57623916393E+02  0.25922189438E+03  0.12699999809E+01 0. -1.
       -4    1    3    3    0  502 -0.86473990255E+00 -0.25273130814E+03 -0.30002514004E+02  0.25451056095E+03  0.12699999809E+01 0.  1.
</event>
<event>
 5   0  0.4451135E-02  0.5025386E+03  0.7818609E-02  0.1013118E+00
        2   -1    0    0  501    0  0.00000000000E+00  0.00000000000E+00  0.83193137340E+03  0.83193137340E+03  0.25500000920E-02 0. -1.
       -2   -1    0    0    0  501  0.00000000000E+00  0.00000000000E+00 -0.75891196442E+02  0.75891196484E+02  0.25500000920E-02 0.  1.
    10030    2    1    2    0    0  0.00000000000E+00  0.00000000000E+00  0.75604017695E+03  0.90782256988E+03  0.50253862461E+03 0.  0.
        1    1    3    3  502    0  0.12495535724E+03  0.21745435634E+03  0.35026682178E+03  0.43079819505E+03  0.50400001928E-02 0.  1.
       -1    1    3    3    0  502 -0.12495535724E+03 -0.21745435634E+03  0.40577335518E+03  0.47702437484E+03  0.50400001928E-02 0. -1.
</event>
<event>
 5   0  0.2643185E-02  0.4902274E+03  0.7818609E-02  0.1016362E+00
       -1   -1    0    0    0  501  0.00000000000E+00  0.00000000000E+00  0.47967777730E+02  0.47967777995E+02  0.50400001928E-02 0.  1.
        1   -1    0    0  501    0  0.00000000000E+00  0.00000000000E+00 -0.12525226394E+04  0.12525226394E+04  0.50400001928E-02 0. -1.
    10030    2    1    2    0    0  0.00000000000E+00  0.00000000000E+00 -0.12045548616E+04  0.13004904174E+04  0.49022740742E+03 0.  0.
        1    1    3    3  502    0  0.11017432843E+03 -0.11131525202E+03 -0.10208505732E+03  0.18695140259E+03  0.50400001928E-02 0.  1.
       -1    1    3    3    0  502 -0.11017432843E+03  0.11131525202E+03 -0.11024698043E+04  0.11135390148E+04  0.50400001928E-02 0. -1.
</event>
<event>
 5   0  0.4519539E-02  0.4993386E+03  0.7818609E-02  0.1013952E+00
        2   -1    0    0  501    0  0.00000000000E+00  0.00000000000E+00  0.54247905673E+03  0.54247905674E+03  0.25500000920E-02 0. -1.
       -2   -1    0    0    0  501  0.00000000000E+00  0.00000000000E+00 -0.11490722671E+03  0.11490722673E+03  0.25500000920E-02 0.  1.
    10030    2    1    2    0    0  0.00000000000E+00  0.00000000000E+00  0.42757183003E+03  0.65738628347E+03  0.49933861844E+03 0.  0.
        4    1    3    3  502    0 -0.64441393883E+02 -0.28651086377E+02 -0.10151732821E+03  0.12361617541E+03  0.12699999809E+01 0.  1.
       -4    1    3    3    0  502  0.64441393883E+02  0.28651086377E+02  0.52908915824E+03  0.53377010806E+03  0.12699999809E+01 0. -1.
</event>
<event>
 5   0  0.1805500E-02  0.5021060E+03  0.7818609E-02  0.1013231E+00
        3   -1    0    0  501    0  0.00000000000E+00  0.00000000000E+00  0.30528574931E+03  0.30528576602E+03  0.10100000352E+00 0. -1.
       -3   -1    0    0    0  501  0.00000000000E+00  0.00000000000E+00 -0.20645442749E+03  0.20645445220E+03  0.10100000352E+00 0.  1.
    10030    2    1    2    0    0  0.00000000000E+00  0.00000000000E+00  0.98831321820E+02  0.51174021822E+03  0.50210598559E+03 0.  0.
        2    1    3    3  502    0 -0.20341705269E+03  0.49306985711E+02  0.19070436568E+03  0.28315690220E+03  0.25500000920E-02 0.  1.
       -2    1    3    3    0  502  0.20341705269E+03 -0.49306985711E+02 -0.91873043861E+02  0.22858331602E+03  0.25500000920E-02 0. -1.
</event>
<event>
 5   0  0.4519539E-02  0.5010334E+03  0.7818609E-02  0.1013510E+00
        2   -1    0    0  501    0  0.00000000000E+00  0.00000000000E+00  0.39241482639E+03  0.39241482639E+03  0.25500000920E-02 0. -1.
       -2   -1    0    0    0  501  0.00000000000E+00  0.00000000000E+00 -0.15992926345E+03  0.15992926347E+03  0.25500000920E-02 0.  1.
    10030    2    1    2    0    0  0.00000000000E+00  0.00000000000E+00  0.23248556293E+03  0.55234408987E+03  0.50103338875E+03 0.  0.
        4    1    3    3  502    0 -0.32216970346E+02 -0.13903968233E+03  0.34320813226E+03  0.37170337823E+03  0.12699999809E+01 0. -1.
       -4    1    3    3    0  502  0.32216970346E+02  0.13903968233E+03 -0.11072256933E+03  0.18064071163E+03  0.12699999809E+01 0.  1.
</event>
<event>
 5   0  0.4631619E-02  0.5020974E+03  0.7818609E-02  0.1013233E+00
        2   -1    0    0  501    0  0.00000000000E+00  0.00000000000E+00  0.62508147298E+03  0.62508147299E+03  0.25500000920E-02 0. -1.
       -2   -1    0    0    0  501  0.00000000000E+00  0.00000000000E+00 -0.10082757053E+03  0.10082757056E+03  0.25500000920E-02 0.  1.
    10030    2    1    2    0    0  0.00000000000E+00  0.00000000000E+00  0.52425390246E+03  0.72590904355E+03  0.50209738624E+03 0.  0.
        5    1    3    3  502    0 -0.68293207024E+02  0.88934318719E+02 -0.62540745396E+02  0.12847844179E+03  0.46999998093E+01 0.  1.
       -5    1    3    3    0  502  0.68293207024E+02 -0.88934318719E+02  0.58679464785E+03  0.59743060176E+03  0.46999998093E+01 0. -1.
</event>
<event>
 5   0  0.4534223E-02  0.5040851E+03  0.7818609E-02  0.1012718E+00
       -2   -1    0    0    0  501  0.00000000000E+00  0.00000000000E+00  0.97040293216E+02  0.97040293249E+02  0.25500000920E-02 0. -1.
        2   -1    0    0  501    0  0.00000000000E+00  0.00000000000E+00 -0.65462965094E+03  0.65462965095E+03  0.25500000920E-02 0.  1.
    10030    2    1    2    0    0  0.00000000000E+00  0.00000000000E+00 -0.55758935773E+03  0.75166994420E+03  0.50408512491E+03 0.  0.
        2    1    3    3  502    0  0.15835104214E+02 -0.16817340400E+03  0.14495323357E+00  0.16891733291E+03  0.25500000920E-02 0. -1.
       -2    1    3    3    0  502 -0.15835104214E+02  0.16817340400E+03 -0.55773431096E+03  0.58275261129E+03  0.25500000920E-02 0.  1.
</event>
<event>
 5   0  0.4409622E-02  0.4977383E+03  0.7818609E-02  0.1014371E+00
       -2   -1    0    0    0  501  0.00000000000E+00  0.00000000000E+00  0.88661884257E+02  0.88661884293E+02  0.25500000920E-02 0.  1.
        2   -1    0    0  501    0  0.00000000000E+00  0.00000000000E+00 -0.69856230467E+03  0.69856230467E+03  0.25500000920E-02 0. -1.
    10030    2    1    2    0    0  0.00000000000E+00  0.00000000000E+00 -0.60990042041E+03  0.78722418896E+03  0.49773828552E+03 0.  0.
        3    1    3    3  502    0  0.12612711055E+02  0.22533197587E+03 -0.13905328441E+03  0.26508377154E+03  0.10100000352E+00 0.  1.
       -3    1    3    3    0  502 -0.12612711055E+02 -0.22533197587E+03 -0.47084713600E+03  0.52214041742E+03  0.10100000352E+00 0. -1.
</event>
<event>
 5   0  0.4409622E-02  0.5000599E+03  0.7818609E-02  0.1013763E+00
        2   -1    0    0  501    0  0.00000000000E+00  0.00000000000E+00  0.10994819324E+04  0.10994819324E+04  0.25500000920E-02 0. -1.
       -2   -1    0    0    0  501  0.00000000000E+00  0.00000000000E+00 -0.56858581830E+02  0.56858581888E+02  0.25500000920E-02 0.  1.
    10030    2    1    2    0    0  0.00000000000E+00  0.00000000000E+00  0.10426233506E+04  0.11563405143E+04  0.50005993025E+03 0.  0.
        3    1    3    3  502    0 -0.55787869524E+02 -0.12406142509E+03  0.36194642685E+02  0.14076074006E+03  0.10100000352E+00 0.  1.
       -3    1    3    3    0  502  0.55787869524E+02  0.12406142509E+03  0.10064287079E+04  0.10155797743E+04  0.10100000352E+00 0. -1.
</event>
<event>
 5   0  0.4534223E-02  0.4998114E+03  0.7818609E-02  0.1013828E+00
        2   -1    0    0  501    0  0.00000000000E+00  0.00000000000E+00  0.10622796726E+03  0.10622796729E+03  0.25500000920E-02 0.  1.
       -2   -1    0    0    0  501  0.00000000000E+00  0.00000000000E+00 -0.58791359846E+03  0.58791359846E+03  0.25500000920E-02 0. -1.
    10030    2    1    2    0    0  0.00000000000E+00  0.00000000000E+00 -0.48168563120E+03  0.69414156575E+03  0.49981143044E+03 0.  0.
        2    1    3    3  502    0  0.18863517300E+03 -0.87763396884E+02 -0.43311722151E+03  0.48049575430E+03  0.25500000920E-02 0. -1.
       -2    1    3    3    0  502 -0.18863517300E+03  0.87763396884E+02 -0.48568409689E+02  0.21364581145E+03  0.25500000920E-02 0.  1.
</event>
<event>
 5   0  0.2715483E-02  0.5009165E+03  0.7818609E-02  0.1013540E+00
        1   -1    0    0  501    0  0.00000000000E+00  0.00000000000E+00  0.12039400213E+04  0.12039400213E+04  0.50400001928E-02 0.  1.
       -1   -1    0    0    0  501  0.00000000000E+00  0.00000000000E+00 -0.52103376546E+02  0.52103376790E+02  0.50400001928E-02 0. -1.
    10030    2    1    2    0    0  0.00000000000E+00  0.00000000000E+00  0.11518366448E+04  0.12560433981E+04  0.50091652171E+03 0.  0.
        5    1    3    3  502    0  0.21629422772E+03  0.29155726030E+01  0.89225548074E+03  0.91811416851E+03  0.46999998093E+01 0.  1.
       -5    1    3    3    0  502 -0.21629422772E+03 -0.29155726030E+01  0.25958116404E+03  0.33792922961E+03  0.46999998093E+01 0. -1.
</event>
<event>
 5   0  0.1805500E-02  0.4965300E+03  0.7818609E-02  0.1014689E+00
        4   -1    0    0  501    0  0.00000000000E+00  0.00000000000E+00  0.16970007685E+03  0.16970482899E+03  0.12699999809E+01 0. -1.
       -4   -1    0    0    0  501  0.00000000000E+00  0.00000000000E+00 -0.36319172878E+03  0.36319394923E+03  0.12699999809E+01 0.  1.
    10030    2    1    2    0    0  0.00000000000E+00  0.00000000000E+00 -0.19349165193E+03  0.53289877822E+03  0.49653004790E+03 0.  0.
        2    1    3    3  502    0 -0.23649692032E+03 -0.41782825959E+02 -0.29217219940E+02  0.24193024576E+03  0.25500000920E-02 0. -1.
       -2    1    3    3    0  502  0.23649692032E+03  0.41782825959E+02 -0.16427443199E+03  0.29096853246E+03  0.25500000920E-02 0.  1.
</event>
<event>
 5   0  0.4409622E-02  0.5006129E+03  0.7818609E-02  0.1013619E+00
       -2   -1    0    0    0  501  0.00000000000E+00  0.00000000000E+00  0.79363824184E+02  0.79363824225E+02  0.25500000920E-02 0. -1.
        2   -1    0    0  501    0  0.00000000000E+00  0.00000000000E+00 -0.78944441947E+03  0.78944441947E+03  0.25500000920E-02 0.  1.
    10030    2    1    2    0    0  0.00000000000E+00  0.00000000000E+00 -0.71008059528E+03  0.86880824369E+03  0.50061293682E+03 0.  0.
        3    1    3    3  502    0 -0.17090645530E+02  0.24826595625E+03 -0.30830300434E+03  0.39620553742E+03  0.10100000352E+00 0. -1.
       -3    1    3    3    0  502  0.17090645530E+02 -0.24826595625E+03 -0.40177759094E+03  0.47260270627E+03  0.10100000352E+00 0.  1.
</event>
<event>
 5   0  0.2723308E-02  0.5041804E+03  0.7818609E-02  0.1012693E+00
        1   -1    0    0  501    0  0.00000000000E+00  0.00000000000E+00  0.80797664915E+03  0.80797664916E+03  0.50400001928E-02 0. -1.
       -1   -1    0    0    0  501  0.00000000000E+00  0.00000000000E+00 -0.78652619061E+02  0.78652619222E+02  0.50400001928E-02 0.  1.
    10030    2    1    2    0    0  0.00000000000E+00  0.00000000000E+00  0.72932403009E+03  0.88662926838E+03  0.50418044260E+03 0.  0.
        4    1    3    3  502    0  0.13670506054E+03 -0.15494415456E+03  0.61860072427E+03  0.65219968842E+03  0.12699999809E+01 0. -1.
       -4    1    3    3    0  502 -0.13670506054E+03  0.15494415456E+03  0.11072330581E+03  0.23442957996E+03  0.12699999809E+01 0.  1.
</event>
<event>
 5   0  0.4451135E-02  0.4998111E+03  0.7818609E-02  0.1013828E+00
       -2   -1    0    0    0  501  0.00000000000E+00  0.00000000000E+00  0.86339050126E+02  0.86339050164E+02  0.25500000920E-02 0. -1.
        2   -1    0    0  501    0  0.00000000000E+00  0.00000000000E+00 -0.72334350036E+03  0.72334350037E+03  0.25500000920E-02 0.  1.
    10030    2    1    2    0    0  0.00000000000E+00  0.00000000000E+00 -0.63700445024E+03  0.80968255053E+03  0.49981112734E+03 0.  0.
        1    1    3    3  502    0  0.15866160721E+03  0.11581027757E+03 -0.56877302660E+03  0.60173771845E+03  0.50400001928E-02 0.  1.
       -1    1    3    3    0  502 -0.15866160721E+03 -0.11581027757E+03 -0.68231423635E+02  0.20794483208E+03  0.50400001928E-02 0. -1.
</event>
<event>
 5   0  0.4534223E-02  0.4976318E+03  0.7818609E-02  0.1014399E+00
        2   -1    0    0  501    0  0.00000000000E+00  0.00000000000E+00  0.37019217068E+03  0.37019217068E+03  0.25500000920E-02 0.  1.
       -2   -1    0    0    0  501  0.00000000000E+00  0.00000000000E+00 -0.16723573064E+03  0.16723573066E+03  0.25500000920E-02 0. -1.
    10030    2    1    2    0    0  0.00000000000E+00  0.00000000000E+00  0.20295644003E+03  0.53742790135E+03  0.49763182434E+03 0.  0.
        2    1    3    3  502    0  0.24579910037E+03 -0.38626688519E+02  0.10107509347E+03  0.26856171234E+03  0.25500000920E-02 0. -1.
       -2    1    3    3    0  502 -0.24579910037E+03  0.38626688519E+02  0.10188134656E+03  0.26886618901E+03  0.25500000920E-02 0.  1.
</event>
<event>
 5   0  0.2719671E-02  0.5072950E+03  0.7818609E-02  0.1011892E+00
       -1   -1    0    0    0  501  0.00000000000E+00  0.00000000000E+00  0.31962055529E+03  0.31962055533E+03  0.50400001928E-02 0.  1.
        1   -1    0    0  501    0  0.00000000000E+00  0.00000000000E+00 -0.20129201309E+03  0.20129201315E+03  0.50400001928E-02 0. -1.
    10030    2    1    2    0    0  0.00000000000E+00  0.00000000000E+00  0.11832854220E+03  0.52091256848E+03  0.50729504246E+03 0.  0.
        2    1    3    3  502    0 -0.71827270920E+02 -0.14907000858E+03  0.25656417477E+03  0.30529690481E+03  0.25500000920E-02 0.  1.
       -2    1    3    3    0  502  0.71827270920E+02  0.14907000858E+03 -0.13823563256E+03  0.21561566367E+03  0.25500000920E-02 0. -1.
</event>
<event>
 5   0  0.4631619E-02  0.5016147E+03  0.7818609E-02  0.1013358E+00
       -2   -1    0    0    0  501  0.00000000000E+00  0.00000000000E+00  0.60864660540E+02  0.60864660594E+02  0.25500000920E-02 0. -1.
        2   -1    0    0  501    0  0.00000000000E+00  0.00000000000E+00 -0.10335112970E+04  0.10335112970E+04  0.25500000920E-02 0.  1.
    10030    2    1    2    0    0  0.00000000000E+00  0.00000000000E+00 -0.97264663646E+03  0.10943759576E+04  0.50161465006E+03 0.  0.
        5    1    3    3  502    0 -0.44758725058E+02 -0.24274838929E+03 -0.58271674013E+03  0.63285939449E+03  0.46999998093E+01 0.  1.
       -5    1    3    3    0  502  0.44758725058E+02  0.24274838929E+03 -0.38992989633E+03  0.46151656311E+03  0.46999998093E+01 0. -1.
</event>
<event>
 5   0  0.2779445E-02  0.4990654E+03  0.7818609E-02  0.1014023E+00
        1   -1    0    0  501    0  0.00000000000E+00  0.00000000000E+00  0.10208600789E+04  0.10208600789E+04  0.50400001928E-02 0. -1.
       -1   -1    0    0    0  501  0.00000000000E+00  0.00000000000E+00 -0.60994225549E+02  0.60994225757E+02  0.50400001928E-02 0.  1.
    10030    2    1    2    0    0  0.00000000000E+00  0.00000000000E+00  0.95986585333E+03  0.10818543046E+04  0.49906540663E+03 0.  0.
        3    1    3    3  502    0 -0.12546844944E+03  0.21265311082E+03  0.55817924855E+03  0.61035052311E+03  0.10100000352E+00 0. -1.
       -3    1    3    3    0  502  0.12546844944E+03 -0.21265311082E+03  0.40168660478E+03  0.47150378154E+03  0.10100000352E+00 0.  1.
</event>
<event>
 5   0  0.2779445E-02  0.4940266E+03  0.7818609E-02  0.1015350E+00
        1   -1    0    0  501    0  0.00000000000E+00  0.00000000000E+00  0.84058936573E+03  0.84058936574E+03  0.50400001928E-02 0.  1.
       -1   -1    0    0    0  501  0.00000000000E+00  0.00000000000E+00 -0.72586664045E+02  0.72586664220E+02  0.50400001928E-02 0. -1.
    10030    2    1    2    0    0  0.00000000000E+00  0.00000000000E+00  0.76800270168E+03  0.91317602996E+03  0.49402663077E+03 0.  0.
        3    1    3    3  502    0 -0.14428554756E+03 -0.68992999668E+02  0.73196504398E+03  0.74923373459E+03  0.10100000352E+00 0.  1.
       -3    1    3    3    0  502  0.14428554756E+03  0.68992999668E+02  0.36037657705E+02  0.16394229537E+03  0.10100000352E+00 0. -1.
</event>
<event>
 5   0  0.2723308E-02  0.4972738E+03  0.7818609E-02  0.1014493E+00
       -1   -1    0    0    0  501  0.00000000000E+00  0.00000000000E+00  0.14761767045E+03  0.14761767054E+03  0.50400001928E-02 0.  1.
        1   -1    0    0  501    0  0.00000000000E+00  0.00000000000E+00 -0.41878663790E+03  0.41878663793E+03  0.50400001928E-02 0. -1.
    10030    2    1    2    0    0  0.00000000000E+00  0.00000000000E+00 -0.27116896745E+03  0.56640430847E+03  0.49727379958E+03 0.  0.
        4    1    3    3  502    0 -0.13790045603E+03  0.66121054389E+02 -0.35887336486E+03  0.39010285120E+03  0.12699999809E+01 0. -1.
       -4    1    3    3    0  502  0.13790045603E+03 -0.66121054389E+02  0.87704397415E+02  0.17630145727E+03  0.12699999809E+01 0.  1.
</event>
<event>
 5   0  0.4519539E-02  0.5030410E+03  0.7818609E-02  0.1012988E+00
        2   -1    0    0  501    0  0.00000000000E+00  0.00000000000E+00  0.10216750387E+04  0.10216750387E+04  0.25500000920E-02 0. -1.
       -2   -1    0    0    0  501  0.00000000000E+00  0.00000000000E+00 -0.61920431952E+02  0.61920432004E+02  0.25500000920E-02 0.  1.
    10030    2    1    2    0    0  0.00000000000E+00  0.00000000000E+00  0.95975460677E+03  0.10835954707E+04  0.50304099134E+03 0.  0.
        4    1    3    3  502    0 -0.17884950061E+03 -0.73770383637E+02  0.13366652793E+03  0.23515434709E+03  0.12699999809E+01 0.  1.
       -4    1    3    3    0  502  0.17884950061E+03  0.73770383637E+02  0.82608807884E+03  0.84844112364E+03  0.12699999809E+01 0. -1.
</event>
<event>
 5   0  0.4534223E-02  0.5041935E+03  0.7818609E-02  0.1012690E+00
        2   -1    0    0  501    0  0.00000000000E+00  0.00000000000E+00  0.18700545111E+03  0.18700545113E+03  0.25500000920E-02 0. -1.
       -2   -1    0    0    0  501  0.00000000000E+00  0.00000000000E+00 -0.33984452745E+03  0.33984452746E+03  0.25500000920E-02 0.  1.
    10030    2    1    2    0    0  0.00000000000E+00  0.00000000000E+00 -0.15283907634E+03  0.52684997858E+03  0.50419353098E+03 0.  0.
        2    1    3    3  502    0  0.73364092427E+02 -0.23590937556E+03 -0.12884633906E+03  0.27863399404E+03  0.25500000920E-02 0.  1.
       -2    1    3    3    0  502 -0.73364092427E+02  0.23590937556E+03 -0.23992737279E+02  0.24821598455E+03  0.25500000920E-02 0. -1.
</event>
<event>
 5   0  0.4519539E-02  0.4996766E+03  0.7818609E-02  0.1013863E+00
        2   -1    0    0  501    0  0.00000000000E+00  0.00000000000E+00  0.14604399123E+04  0.14604399123E+04  0.25500000920E-02 0.  1.
       -2   -1    0    0    0  501  0.00000000000E+00  0.00000000000E+00 -0.42739988793E+02  0.42739988869E+02  0.25500000920E-02 0. -1.
    10030    2    1    2    0    0  0.00000000000E+00  0.00000000000E+00  0.14176999235E+04  0.15031799012E+04  0.49967663761E+03 0.  0.
        4    1    3    3  502    0 -0.60793617877E+01 -0.15976764764E+03  0.13132652986E+03  0.20690802357E+03  0.12699999809E+01 0. -1.
       -4    1    3    3    0  502  0.60793617877E+01  0.15976764764E+03  0.12863733937E+04  0.12962718776E+04  0.12699999809E+01 0.  1.
</event>
<event>
 5   0  0.4451135E-02  0.4996172E+03  0.7818609E-02  0.1013879E+00
       -2   -1    0    0    0  501  0.00000000000E+00  0.00000000000E+00  0.19786318880E+03  0.19786318881E+03  0.25500000920E-02 0.  1.
        2   -1    0    0  501    0  0.00000000000E+00  0.00000000000E+00 -0.31539129250E+03  0.31539129251E+03  0.25500000920E-02 0. -1.
    10030    2    1    2    0    0  0.00000000000E+00  0.00000000000E+00 -0.11752810371E+03  0.51325448132E+03  0.49961716087E+03 0.  0.
        1    1    3    3  502    0 -0.64531885406E+02  0.21421695569E+03  0.55404762813E+02  0.23048417756E+03  0.50400001928E-02 0.  1.
       -1    1    3    3    0  502  0.64531885406E+02 -0.21421695569E+03 -0.17293286652E+03  0.28277030376E+03  0.50400001928E-02 0. -1.
</event>
<event>
 5   0  0.4409622E-02  0.4994090E+03  0.7818609E-02  0.1013933E+00
        2   -1    0    0  501    0  0.00000000000E+00  0.00000000000E+00  0.69257409812E+03  0.69257409812E+03  0.25500000920E-02 0. -1.
       -2   -1    0    0    0  501  0.00000000000E+00  0.00000000000E+00 -0.90029835165E+02  0.90029835201E+02  0.25500000920E-02 0.  1.
    10030    2    1    2    0    0  0.00000000000E+00  0.00000000000E+00  0.60254426295E+03  0.78260393332E+03  0.49940897833E+03 0.  0.
        3    1    3    3  502    0 -0.79098828953E+02 -0.14640472622E+03  0.95237624717E+01  0.16667837549E+03  0.10100000352E+00 0.  1.
       -3    1    3    3    0  502  0.79098828953E+02  0.14640472622E+03  0.59302050048E+03  0.61592555783E+03  0.10100000352E+00 0. -1.
</event>
<event>
 5   0  0.2643185E-02  0.4985485E+03  0.7818609E-02  0.1014158E+00
       -1   -1    0    0    0  501  0.00000000000E+00  0.00000000000E+00  0.29156087900E+03  0.29156087904E+03  0.50400001928E-02 0. -1.
        1   -1    0    0  501    0  0.00000000000E+00  0.00000000000E+00 -0.21312065673E+03  0.21312065679E+03  0.50400001928E-02 0.  1.
    10030    2    1    2    0    0  0.00000000000E+00  0.00000000000E+00  0.78440222269E+02  0.50468153583E+03  0.49854847722E+03 0.  0.
        1    1    3    3  502    0  0.12262284419E+03  0.14150726572E+02 -0.18001053469E+03  0.21826680371E+03  0.50400001928E-02 0.  1.
       -1    1    3    3    0  502 -0.12262284419E+03 -0.14150726572E+02  0.25845075695E+03  0.28641473212E+03  0.50400001928E-02 0. -1.
</event>
<event>
 5   0  0.4534223E-02  0.5003772E+03  0.7818609E-02  0.1013680E+00
       -2   -1    0    0    0  501  0.00000000000E+00  0.00000000000E+00  0.19115876915E+03  0.19115876917E+03  0.25500000920E-02 0.  1.
        2   -1    0    0  501    0  0.00000000000E+00  0.00000000000E+00 -0.32744689266E+03  0.32744689267E+03  0.25500000920E-02 0. -1.
    10030    2    1    2    0    0  0.00000000000E+00  0.00000000000E+00 -0.13628812351E+03  0.51860566184E+03  0.50037723757E+03 0.  0.
        2    1    3    3  502    0 -0.50970354074E+02 -0.21526456150E+03  0.52978736077E+02  0.22747209700E+03  0.25500000920E-02 0.  1.
       -2    1    3    3    0  502  0.50970354074E+02  0.21526456150E+03 -0.18926685959E+03  0.29113356484E+03  0.25500000920E-02 0. -1.
</event>
<event>
 5   0  0.2719671E-02  0.5003940E+03  0.7818609E-02  0.1013676E+00
       -1   -1    0    0    0  501  0.00000000000E+00  0.00000000000E+00  0.38650712177E+03  0.38650712181E+03  0.50400001928E-02 0.  1.
        1   -1    0    0  501    0  0.00000000000E+00  0.00000000000E+00 -0.16195958847E+03  0.16195958855E+03  0.50400001928E-02 0. -1.
    10030    2    1    2    0    0  0.00000000000E+00  0.00000000000E+00  0.22454753330E+03  0.54846671035E+03  0.50039398243E+03 0.  0.
        2    1    3    3  502    0  0.10399790922E+03  0.15972737365E+03  0.28992545939E+03  0.34696566261E+03  0.25500000920E-02 0.  1.
       -2    1    3    3    0  502 -0.10399790922E+03 -0.15972737365E+03 -0.65377926089E+02  0.20150104775E+03  0.25500000920E-02 0. -1.
</event>
<event>
 5   0  0.4519539E-02  0.4997814E+03  0.7818609E-02  0.1013836E+00
        2   -1    0    0  501    0  0.00000000000E+00  0.00000000000E+00  0.61858080307E+03  0.61858080307E+03  0.25500000920E-02 0.  1.
       -2   -1    0    0    0  501  0.00000000000E+00  0.00000000000E+00 -0.10094939541E+03  0.10094939545E+03  0.25500000920E-02 0. -1.
    10030    2    1    2    0    0  0.00000000000E+00  0.00000000000E+00  0.51763140766E+03  0.71953019852E+03  0.49978138460E+03 0.  0.
        4    1    3    3  502    0  0.65666557596E+02 -0.14366167964E+03 -0.19952908634E+02  0.15921842370E+03  0.12699999809E+01 0. -1.
       -4    1    3    3    0  502 -0.65666557596E+02  0.14366167964E+03  0.53758431629E+03  0.56031177482E+03  0.12699999809E+01 0.  1.
</event>
<event>
 5   0  0.4519539E-02  0.5004650E+03  0.7818609E-02  0.1013658E+00
       -2   -1    0    0    0  501  0.00000000000E+00  0.00000000000E+00  0.60989928098E+02  0.60989928151E+02  0.25500000920E-02 0.  1.
        2   -1    0    0  501    0  0.00000000000E+00  0.00000000000E+00 -0.10266662464E+04  0.10266662464E+04  0.25500000920E-02 0. -1.
    10030    2    1    2    0    0  0.00000000000E+00  0.00000000000E+00 -0.96567631828E+03  0.10876561745E+04  0.50046498610E+03 0.  0.
        4    1    3    3  502    0  0.50736469576E+01  0.24872133221E+03 -0.54142215401E+03  0.59584192933E+03  0.12699999809E+01 0. -1.
       -4    1    3    3    0  502 -0.50736469576E+01 -0.24872133221E+03 -0.42425416426E+03  0.49181424520E+03  0.12699999809E+01 0.  1.
</event>
<event>
 5   0  0.2723308E-02  0.4999047E+03  0.7818609E-02  0.1013804E+00
       -1   -1    0    0    0  501  0.00000000000E+00  0.00000000000E+00  0.12907468623E+03  0.12907468633E+03  0.50400001928E-02 0. -1.
        1   -1    0    0  501    0  0.00000000000E+00  0.00000000000E+00 -0.48403118379E+03  0.48403118382E+03  0.50400001928E-02 0.  1.
    10030    2    1    2    0    0  0.00000000000E+00  0.00000000000E+00 -0.35495649756E+03  0.61310587014E+03  0.49990468376E+03 0.  0.
        4    1    3    3  502    0  0.85801163685E+02 -0.23293191177E+03 -0.21334931946E+03  0.32732042439E+03  0.12699999809E+01 0.  1.
       -4    1    3    3    0  502 -0.85801163685E+02  0.23293191177E+03 -0.14160717811E+03  0.28578544575E+03  0.12699999809E+01 0. -1.
</event>
<event>
 5   0  0.2779445E-02  0.4995161E+03  0.7818609E-02  0.1013905E+00
        1   -1    0    0  501    0  0.00000000000E+00  0.00000000000E+00  0.76048712599E+02  0.76048712766E+02  0.50400001928E-02 0. -1.
       -1   -1    0    0    0  501  0.00000000000E+00  0.00000000000E+00 -0.82025171040E+03  0.82025171041E+03  0.50400001928E-02 0.  1.
    10030    2    1    2    0    0  0.00000000000E+00  0.00000000000E+00 -0.74420299780E+03  0.89630042318E+03  0.49951611251E+03 0.  0.
        3    1    3    3  502    0 -0.23257736668E+03 -0.60157114900E+02 -0.49469514597E+03  0.54994036732E+03  0.10100000352E+00 0. -1.
       -3    1    3    3    0  502  0.23257736668E+03  0.60157114900E+02 -0.24950785183E+03  0.34636005586E+03  0.10100000352E+00 0.  1.
</event>
<event>
 5   0  0.4409622E-02  0.5026582E+03  0.7818609E-02  0.1013087E+00
        2   -1    0    0  501    0  0.00000000000E+00  0.00000000000E+00  0.88279461269E+03  0.88279461269E+03  0.25500000920E-02 0. -1.
       -2   -1    0    0    0  501  0.00000000000E+00  0.00000000000E+00 -0.71552689291E+02  0.71552689336E+02  0.25500000920E-02 0.  1.
    10030    2    1    2    0    0  0.00000000000E+00  0.00000000000E+00  0.81124192339E+03  0.95434730203E+03  0.50265824833E+03 0.  0.
        3    1    3    3  502    0 -0.18442784269E+03 -0.44719793800E+02  0.92767343815E+02  0.21123276118E+03  0.10100000352E+00 0.  1.
       -3    1    3    3    0  502  0.18442784269E+03  0.44719793800E+02  0.71847457958E+03  0.74311454085E+03  0.10100000352E+00 0. -1.
</event>
<event>
 5   0  0.2715483E-02  0.4843579E+03  0.7818609E-02  0.1017944E+00
       -1   -1    0    0    0  501  0.00000000000E+00  0.00000000000E+00  0.75964644589E+02  0.75964644756E+02  0.50400001928E-02 0.  1.
        1   -1    0    0  501    0  0.00000000000E+00  0.00000000000E+00 -0.77207809341E+03  0.77207809343E+03  0.50400001928E-02 0. -1.
    10030    2    1    2    0    0  0.00000000000E+00  0.00000000000E+00 -0.69611344883E+03  0.84804273819E+03  0.48435787612E+03 0.  0.
        5    1    3    3  502    0  0.17664564018E+03  0.15784807237E+03 -0.43575456215E+03  0.49600788762E+03  0.46999998093E+01 0.  1.
       -5    1    3    3    0  502 -0.17664564018E+03 -0.15784807237E+03 -0.26035888668E+03  0.35203485057E+03  0.46999998093E+01 0. -1.
</event>
<event>
 5   0  0.2723308E-02  0.5033434E+03  0.7818609E-02  0.1012910E+00
       -1   -1    0    0    0  501  0.00000000000E+00  0.00000000000E+00  0.10004592531E+03  0.10004592543E+03  0.50400001928E-02 0.  1.
        1   -1    0    0  501    0  0.00000000000E+00  0.00000000000E+00 -0.63309576613E+03  0.63309576615E+03  0.50400001928E-02 0. -1.
    10030    2    1    2    0    0  0.00000000000E+00  0.00000000000E+00 -0.53304984083E+03  0.73314169159E+03  0.50334342862E+03 0.  0.
        4    1    3    3  502    0  0.21401967065E+03 -0.40118526430E+02 -0.82728248494E+02  0.23293666861E+03  0.12699999809E+01 0. -1.
       -4    1    3    3    0  502 -0.21401967065E+03  0.40118526430E+02 -0.45032159233E+03  0.50020502297E+03  0.12699999809E+01 0.  1.
</event>
<event>
 5   0  0.1805500E-02  0.4976389E+03  0.7818609E-02  0.1014397E+00
       -3   -1    0    0    0  501  0.00000000000E+00  0.00000000000E+00  0.88642965858E+03  0.88642966434E+03  0.10100000352E+00 0. -1.
        3   -1    0    0  501    0  0.00000000000E+00  0.00000000000E+00 -0.69843197525E+02  0.69843270553E+02  0.10100000352E+00 0.  1.
    10030    2    1    2    0    0  0.00000000000E+00  0.00000000000E+00  0.81658646106E+03  0.95627293489E+03  0.49763890284E+03 0.  0.
        5    1    3    3  502    0 -0.66655999338E+02 -0.97528125621E+02  0.82901076015E+03  0.83739816574E+03  0.46999998093E+01 0. -1.
       -5    1    3    3    0  502  0.66655999338E+02  0.97528125621E+02 -0.12424299094E+02  0.11887476915E+03  0.46999998093E+01 0.  1.
</event>
<event>
 5   0  0.4519539E-02  0.4941587E+03  0.7818609E-02  0.1015315E+00
       -2   -1    0    0    0  501  0.00000000000E+00  0.00000000000E+00  0.69686150734E+02  0.69686150780E+02  0.25500000920E-02 0.  1.
        2   -1    0    0  501    0  0.00000000000E+00  0.00000000000E+00 -0.87604505044E+03  0.87604505044E+03  0.25500000920E-02 0. -1.
    10030    2    1    2    0    0  0.00000000000E+00  0.00000000000E+00 -0.80635889970E+03  0.94573120122E+03  0.49415870915E+03 0.  0.
        4    1    3    3  502    0 -0.11395142461E+03 -0.11611505443E+03 -0.47296454947E+02  0.16942904292E+03  0.12699999809E+01 0.  1.
       -4    1    3    3    0  502  0.11395142461E+03  0.11611505443E+03 -0.75906244476E+03  0.77630215830E+03  0.12699999809E+01 0. -1.
</event>
<event>
 5   0  0.4451135E-02  0.4937935E+03  0.7818609E-02  0.1015412E+00
       -2   -1    0    0    0  501  0.00000000000E+00  0.00000000000E+00  0.57790533349E+02  0.57790533405E+02  0.25500000920E-02 0.  1.
        2   -1    0    0  501    0  0.00000000000E+00  0.00000000000E+00 -0.10548096554E+04  0.10548096554E+04  0.25500000920E-02 0. -1.
    10030    2    1    2    0    0  0.00000000000E+00  0.00000000000E+00 -0.99701912206E+03  0.11126001888E+04  0.49379353013E+03 0.  0.
        1    1    3    3  502    0  0.84425272096E+02 -0.26199905727E+02  0.20912813465E+02  0.90837257890E+02  0.50400001928E-02 0.  1.
       -1    1    3    3    0  502 -0.84425272096E+02  0.26199905727E+02 -0.10179319355E+04  0.10217629309E+04  0.50400001928E-02 0. -1.
</event>
<event>
 5   0  0.2719671E-02  0.5012706E+03  0.7818609E-02  0.1013448E+00
       -1   -1    0    0    0  501  0.00000000000E+00  0.00000000000E+00  0.64626655582E+03  0.64626655584E+03  0.50400001928E-02 0. -1.
        1   -1    0    0  501    0  0.00000000000E+00  0.00000000000E+00 -0.97201455846E+02  0.97201455977E+02  0.50400001928E-02 0.  1.
    10030    2    1    2    0    0  0.00000000000E+00  0.00000000000E+00  0.54906509997E+03  0.74346801182E+03  0.50127058619E+03 0.  0.
        2    1    3    3  502    0 -0.76571520219E+02  0.16725010756E+03  0.22035595257E+02  0.18526025924E+03  0.25500000920E-02 0.  1.
       -2    1    3    3    0  502  0.76571520219E+02 -0.16725010756E+03  0.52702950472E+03  0.55820775258E+03  0.25500000920E-02 0. -1.
</event>
<event>
 5   0  0.4534223E-02  0.5018433E+03  0.7818609E-02  0.1013299E+00
       -2   -1    0    0    0  501  0.00000000000E+00  0.00000000000E+00  0.56652021840E+02  0.56652021898E+02  0.25500000920E-02 0. -1.
        2   -1    0    0  501    0  0.00000000000E+00  0.00000000000E+00 -0.11113756216E+04  0.11113756216E+04  0.25500000920E-02 0.  1.
    10030    2    1    2    0    0  0.00000000000E+00  0.00000000000E+00 -0.10547235997E+04  0.11680276435E+04  0.50184330631E+03 0.  0.
        2    1    3    3  502    0  0.13219889243E+03 -0.19052448529E+03 -0.75042994346E+03  0.78544333132E+03  0.25500000920E-02 0. -1.
       -2    1    3    3    0  502 -0.13219889243E+03  0.19052448529E+03 -0.30429365627E+03  0.38258431216E+03  0.25500000920E-02 0.  1.
</event>
<event>
 5   0  0.1805500E-02  0.4947053E+03  0.7818609E-02  0.1015170E+00
       -3   -1    0    0    0  501  0.00000000000E+00  0.00000000000E+00  0.37002977149E+03  0.37002978527E+03  0.10100000352E+00 0. -1.
        3   -1    0    0  501    0  0.00000000000E+00  0.00000000000E+00 -0.16534704731E+03  0.16534707815E+03  0.10100000352E+00 0.  1.
    10030    2    1    2    0    0  0.00000000000E+00  0.00000000000E+00  0.20468272418E+03  0.53537686343E+03  0.49470533483E+03 0.  0.
        4    1    3    3  502    0 -0.59052011240E+01  0.35527092856E+02  0.36717362067E+03  0.36893783534E+03  0.12699999809E+01 0. -1.
       -4    1    3    3    0  502  0.59052011240E+01 -0.35527092856E+02 -0.16249089649E+03  0.16643902809E+03  0.12699999809E+01 0.  1.
</event>
<event>
 5   0  0.4451135E-02  0.5001091E+03  0.7818609E-02  0.1013750E+00
        2   -1    0    0  501    0  0.00000000000E+00  0.00000000000E+00  0.27320246315E+03  0.27320246316E+03  0.25500000920E-02 0. -1.
       -2   -1    0    0    0  501  0.00000000000E+00  0.00000000000E+00 -0.22886789847E+03  0.22886789848E+03  0.25500000920E-02 0.  1.
    10030    2    1    2    0    0  0.00000000000E+00  0.00000000000E+00  0.44334564681E+02  0.50207036164E+03  0.50010908252E+03 0.  0.
        1    1    3    3  502    0 -0.12068485882E+03 -0.20233383018E+03 -0.61967463477E+02  0.24360578922E+03  0.50400001928E-02 0.  1.
       -1    1    3    3    0  502  0.12068485882E+03  0.20233383018E+03  0.10630202816E+03  0.25846457243E+03  0.50400001928E-02 0. -1.
</event>
<event>
 5   0  0.4409622E-02  0.5000453E+03  0.7818609E-02  0.1013767E+00
       -2   -1    0    0    0  501  0.00000000000E+00  0.00000000000E+00  0.15701426306E+03  0.15701426308E+03  0.25500000920E-02 0. -1.
        2   -1    0    0  501    0  0.00000000000E+00  0.00000000000E+00 -0.39812508426E+03  0.39812508427E+03  0.25500000920E-02 0.  1.
    10030    2    1    2    0    0  0.00000000000E+00  0.00000000000E+00 -0.24111082120E+03  0.55513934735E+03  0.50004526483E+03 0.  0.
        3    1    3    3  502    0  0.17498040258E+03 -0.15605714366E+03 -0.24159378313E+02  0.23570248012E+03  0.10100000352E+00 0.  1.
       -3    1    3    3    0  502 -0.17498040258E+03  0.15605714366E+03 -0.21695144288E+03  0.31943686723E+03  0.10100000352E+00 0. -1.
</event>
<event>
 5   0  0.4534223E-02  0.5007217E+03  0.7818609E-02  0.1013591E+00
        2   -1    0    0  501    0  0.00000000000E+00  0.00000000000E+00  0.37723780572E+03  0.37723780573E+03  0.25500000920E-02 0. -1.
       -2   -1    0    0    0  501  0.00000000000E+00  0.00000000000E+00 -0.16615657824E+03  0.16615657826E+03  0.25500000920E-02 0.  1.
    10030    2    1    2    0    0  0.00000000000E+00  0.00000000000E+00  0.21108122748E+03  0.54339438399E+03  0.50072165117E+03 0.  0.
        2    1    3    3  502    0 -0.12003545678E+03  0.24660809181E+02 -0.13138578633E+03  0.17966327184E+03  0.25500000920E-02 0.  1.
       -2    1    3    3    0  502  0.12003545678E+03 -0.24660809181E+02  0.34246701380E+03  0.36373111215E+03  0.25500000920E-02 0. -1.
</event>
<event>
 5   0  0.2715483E-02  0.4978195E+03  0.7818609E-02  0.1014350E+00
        1   -1    0    0  501    0  0.00000000000E+00  0.00000000000E+00  0.44323188227E+03  0.44323188230E+03  0.50400001928E-02 0. -1.
       -1   -1    0    0    0  501  0.00000000000E+00  0.00000000000E+00 -0.13978252712E+03  0.13978252722E+03  0.50400001928E-02 0.  1.
    10030    2    1    2    0    0  0.00000000000E+00  0.00000000000E+00  0.30344935515E+03  0.58301440952E+03  0.49781953614E+03 0.  0.
        5    1    3    3  502    0 -0.28184720113E+02 -0.89905938857E+02 -0.11803482953E+03  0.15110184403E+03  0.46999998093E+01 0.  1.
       -5    1    3    3    0  502  0.28184720113E+02  0.89905938857E+02  0.42148418468E+03  0.43191256548E+03  0.46999998093E+01 0. -1.
</event>
<event>
 5   0  0.4519539E-02  0.4995067E+03  0.7818609E-02  0.1013908E+00
       -2   -1    0    0    0  501  0.00000000000E+00  0.00000000000E+00  0.90094291381E+02  0.90094291417E+02  0.25500000920E-02 0. -1.
        2   -1    0    0  501    0  0.00000000000E+00  0.00000000000E+00 -0.69234944344E+03  0.69234944345E+03  0.25500000920E-02 0.  1.
    10030    2    1    2    0    0  0.00000000000E+00  0.00000000000E+00 -0.60225515206E+03  0.78244373486E+03  0.49950668669E+03 0.  0.
        4    1    3    3  502    0 -0.16026299916E+03 -0.18849018807E+03 -0.24772301504E+03  0.35011581652E+03  0.12699999809E+01 0.  1.
       -4    1    3    3    0  502  0.16026299916E+03  0.18849018807E+03 -0.35453213702E+03  0.43232791834E+03  0.12699999809E+01 0. -1.
</event>
<event>
 5   0  0.2779445E-02  0.5008461E+03  0.7818609E-02  0.1013558E+00
       -1   -1    0    0    0  501  0.00000000000E+00  0.00000000000E+00  0.10081586111E+04  0.10081586111E+04  0.50400001928E-02 0. -1.
        1   -1    0    0  501    0  0.00000000000E+00  0.00000000000E+00 -0.62204193643E+02  0.62204193847E+02  0.50400001928E-02 0.  1.
    10030    2    1    2    0    0  0.00000000000E+00  0.00000000000E+00  0.94595441743E+03  0.10703628049E+04  0.50084605851E+03 0.  0.
        3    1    3    3  502    0  0.23751903034E+03  0.34019563971E+02  0.62618071828E+03  0.67057805112E+03  0.10100000352E+00 0. -1.
       -3    1    3    3    0  502 -0.23751903034E+03 -0.34019563971E+02  0.31977369916E+03  0.39978475381E+03  0.10100000352E+00 0.  1.
</event>
<event>
 5   0  0.2643185E-02  0.5037511E+03  0.7818609E-02  0.1012804E+00
       -1   -1    0    0    0  501  0.00000000000E+00  0.00000000000E+00  0.10406702839E+04  0.10406702839E+04  0.50400001928E-02 0.  1.
        1   -1    0    0  501    0  0.00000000000E+00  0.00000000000E+00 -0.60961954680E+02  0.60961954888E+02  0.50400001928E-02 0. -1.
    10030    2    1    2    0    0  0.00000000000E+00  0.00000000000E+00  0.97970832922E+03  0.11016322388E+04  0.50375110841E+03 0.  0.
        1    1    3    3  502    0  0.14232446881E+03 -0.80793064125E+02  0.71154928024E+02  0.17845671027E+03  0.50400001928E-02 0. -1.
       -1    1    3    3    0  502 -0.14232446881E+03  0.80793064125E+02  0.90855340120E+03  0.92317552854E+03  0.50400001928E-02 0.  1.
</event>
<event>
 5   0  0.4409622E-02  0.4993855E+03  0.7818609E-02  0.1013939E+00
        2   -1    0    0  501    0  0.00000000000E+00  0.00000000000E+00  0.50056636181E+03  0.50056636181E+03  0.25500000920E-02 0. -1.
       -2   -1    0    0    0  501  0.00000000000E+00  0.00000000000E+00 -0.12455187024E+03  0.12455187027E+03  0.25500000920E-02 0.  1.
    10030    2    1    2    0    0  0.00000000000E+00  0.00000000000E+00  0.37601449157E+03  0.62511823208E+03  0.49938552864E+03 0.  0.
        3    1    3    3  502    0 -0.74111286972E+02  0.19005828505E+03  0.77697889930E+01  0.20414459188E+03  0.10100000352E+00 0.  1.
       -3    1    3    3    0  502  0.74111286972E+02 -0.19005828505E+03  0.36824470257E+03  0.42097364020E+03  0.10100000352E+00 0. -1.
</event>
<event>
 5   0  0.2715483E-02  0.4963090E+03  0.7818609E-02  0.1014747E+00
       -1   -1    0    0    0  501  0.00000000000E+00  0.00000000000E+00  0.46299691746E+02  0.46299692020E+02  0.50400001928E-02 0.  1.
        1   -1    0    0  501    0  0.00000000000E+00  0.00000000000E+00 -0.13300445011E+04  0.13300445012E+04  0.50400001928E-02 0. -1.
    10030    2    1    2    0    0  0.00000000000E+00  0.00000000000E+00 -0.12837448094E+04  0.13763441932E+04  0.49630897879E+03 0.  0.
        5    1    3    3  502    0  0.14325414100E+03  0.20014502773E+03 -0.55511283873E+03  0.60724964781E+03  0.46999998093E+01 0.  1.
       -5    1    3    3    0  502 -0.14325414100E+03 -0.20014502773E+03 -0.72863197066E+03  0.76909454536E+03  0.46999998093E+01 0. -1.
</event>
<event>
 5   0  0.2779445E-02  0.4994875E+03  0.7818609E-02  0.1013913E+00
        1   -1    0    0  501    0  0.00000000000E+00  0.00000000000E+00  0.24293617481E+03  0.24293617487E+03  0.50400001928E-02 0. -1.
       -1   -1    0    0    0  501  0.00000000000E+00  0.00000000000E+00 -0.25674203917E+03  0.25674203922E+03  0.50400001928E-02 0.  1.
    10030    2    1    2    0    0  0.00000000000E+00  0.00000000000E+00 -0.13805864359E+02  0.49967821409E+03  0.49948745304E+03 0.  0.
        3    1    3    3  502    0 -0.79467141500E+02  0.23512636596E+03 -0.34707146659E+02  0.25060732388E+03  0.10100000352E+00 0.  1.
       -3    1    3    3    0  502  0.79467141500E+02 -0.23512636596E+03  0.20901282300E+02  0.24907089021E+03  0.10100000352E+00 0. -1.
</event>
<event>
 5   0  0.2723308E-02  0.5007601E+03  0.7818609E-02  0.1013581E+00
        1   -1    0    0  501    0  0.00000000000E+00  0.00000000000E+00  0.11321076403E+03  0.11321076414E+03  0.50400001928E-02 0.  1.
       -1   -1    0    0    0  501  0.00000000000E+00  0.00000000000E+00 -0.55374739576E+03  0.55374739578E+03  0.50400001928E-02 0. -1.
    10030    2    1    2    0    0  0.00000000000E+00  0.00000000000E+00 -0.44053663173E+03  0.66695815993E+03  0.50076008547E+03 0.  0.
        4    1    3    3  502    0  0.55861543733E+02 -0.24207399679E+03 -0.26171178619E+03  0.36085316116E+03  0.12699999809E+01 0. -1.
       -4    1    3    3    0  502 -0.55861543733E+02  0.24207399679E+03 -0.17882484554E+03  0.30610499877E+03  0.12699999809E+01 0.  1.
</event>
<event>
 5   0  0.2715483E-02  0.4988706E+03  0.7818609E-02  0.1014074E+00
        1   -1    0    0  501    0  0.00000000000E+00  0.00000000000E+00  0.12593354187E+03  0.12593354197E+03  0.50400001928E-02 0.  1.
       -1   -1    0    0    0  501  0.00000000000E+00  0.00000000000E+00 -0.49405399237E+03  0.49405399239E+03  0.50400001928E-02 0. -1.
    10030    2    1    2    0    0  0.00000000000E+00  0.00000000000E+00 -0.36812045050E+03  0.61998753436E+03  0.49887060115E+03 0.  0.
        5    1    3    3  502    0  0.23750995036E+03 -0.66958039991E+02 -0.22889562636E+03  0.33661499284E+03  0.46999998093E+01 0.  1.
       -5    1    3    3    0  502 -0.23750995036E+03  0.66958039991E+02 -0.13922482414E+03  0.28337254153E+03  0.46999998093E+01 0. -1.
</event>
<event>
 5   0  0.2723308E-02  0.4999191E+03  0.7818609E-02  0.1013800E+00
       -1   -1    0    0    0  501  0.00000000000E+00  0.00000000000E+00  0.11675744840E+03  0.11675744851E+03  0.50400001928E-02 0. -1.
        1   -1    0    0  501    0  0.00000000000E+00  0.00000000000E+00 -0.53512464202E+03  0.53512464204E+03  0.50400001928E-02 0.  1.
    10030    2    1    2    0    0  0.00000000000E+00  0.00000000000E+00 -0.41836719362E+03  0.65188209055E+03  0.49991914474E+03 0.  0.
        4    1    3    3  502    0  0.24203902518E+03 -0.10041168992E+02 -0.28950740274E+03  0.37749154153E+03  0.12699999809E+01 0.  1.
       -4    1    3    3    0  502 -0.24203902518E+03  0.10041168992E+02 -0.12885979087E+03  0.27439054902E+03  0.12699999809E+01 0. -1.
</event>
<event>
 5   0  0.4409622E-02  0.4964066E+03  0.7818609E-02  0.1014721E+00
        2   -1    0    0  501    0  0.00000000000E+00  0.00000000000E+00  0.10103357067E+04  0.10103357067E+04  0.25500000920E-02 0. -1.
       -2   -1    0    0    0  501  0.00000000000E+00  0.00000000000E+00 -0.60974667885E+02  0.60974667938E+02  0.25500000920E-02 0.  1.
    10030    2    1    2    0    0  0.00000000000E+00  0.00000000000E+00  0.94936103883E+03  0.10713103747E+04  0.49640662445E+03 0.  0.
        3    1    3    3  502    0 -0.30902482874E+01  0.11154835551E+03  0.95314490302E+03  0.95965504303E+03  0.10100000352E+00 0. -1.
       -3    1    3    3    0  502  0.30902482874E+01 -0.11154835551E+03 -0.37838641970E+01  0.11165533162E+03  0.10100000352E+00 0.  1.
</event>
<event>
 5   0  0.2723308E-02  0.5000492E+03  0.7818609E-02  0.1013766E+00
       -1   -1    0    0    0  501  0.00000000000E+00  0.00000000000E+00  0.67584386330E+02  0.67584386518E+02  0.50400001928E-02 0. -1.
        1   -1    0    0  501    0  0.00000000000E+00  0.00000000000E+00 -0.92495170005E+03  0.92495170007E+03  0.50400001928E-02 0.  1.
    10030    2    1    2    0    0  0.00000000000E+00  0.00000000000E+00 -0.85736731372E+03  0.99253608658E+03  0.50004917011E+03 0.  0.
        4    1    3    3  502    0 -0.12390508982E+03 -0.18234107201E+02 -0.85819620481E+03  0.86728731849E+03  0.12699999809E+01 0.  1.
       -4    1    3    3    0  502  0.12390508982E+03  0.18234107201E+02  0.82889109120E+00  0.12524876810E+03  0.12699999809E+01 0. -1.
</event>
<event>
 5   0  0.4409622E-02  0.5029723E+03  0.7818609E-02  0.1013006E+00
       -2   -1    0    0    0  501  0.00000000000E+00  0.00000000000E+00  0.13974515337E+03  0.13974515339E+03  0.25500000920E-02 0. -1.
        2   -1    0    0  501    0  0.00000000000E+00  0.00000000000E+00 -0.45257591460E+03  0.45257591461E+03  0.25500000920E-02 0.  1.
    10030    2    1    2    0    0  0.00000000000E+00  0.00000000000E+00 -0.31283076123E+03  0.59232106800E+03  0.50297232769E+03 0.  0.
        3    1    3    3  502    0 -0.10413539745E+03  0.47442687680E+01 -0.42593475840E+03  0.43850555036E+03  0.10100000352E+00 0.  1.
       -3    1    3    3    0  502  0.10413539745E+03 -0.47442687680E+01  0.11310399717E+03  0.15381551763E+03  0.10100000352E+00 0. -1.
</event>
<event>
 5   0  0.4519539E-02  0.5030410E+03  0.7818609E-02  0.1012988E+00
        2   -1    0    0  501    0  0.00000000000E+00  0.00000000000E+00  0.13955894489E+04  0.13955894489E+04  0.25500000920E-02 0.  1.
       -2   -1    0    0    0  501  0.00000000000E+00  0.00000000000E+00 -0.45330361028E+02  0.45330361099E+02  0.25500000920E-02 0. -1.
    10030    2    1    2    0    0  0.00000000000E+00  0.00000000000E+00  0.13502590879E+04  0.14409198100E+04  0.50304104651E+03 0.  0.
        4    1    3    3  502    0  0.31612714639E+02  0.11442599764E+03  0.13102833901E+04  0.13156507317E+04  0.12699999809E+01 0.  1.
       -4    1    3    3    0  502 -0.31612714639E+02 -0.11442599764E+03  0.39975697811E+02  0.12526907830E+03  0.12699999809E+01 0. -1.
</event>
<event>
 5   0  0.2723308E-02  0.4997844E+03  0.7818609E-02  0.1013835E+00
        1   -1    0    0  501    0  0.00000000000E+00  0.00000000000E+00  0.77307367109E+03  0.77307367111E+03  0.50400001928E-02 0.  1.
       -1   -1    0    0    0  501  0.00000000000E+00  0.00000000000E+00 -0.80776394515E+02  0.80776394673E+02  0.50400001928E-02 0. -1.
    10030    2    1    2    0    0  0.00000000000E+00  0.00000000000E+00  0.69229727658E+03  0.85385006578E+03  0.49978436918E+03 0.  0.
        4    1    3    3  502    0  0.21632617937E+02 -0.14862179832E+03  0.68735767399E+03  0.70357557803E+03  0.12699999809E+01 0.  1.
       -4    1    3    3    0  502 -0.21632617937E+02  0.14862179832E+03  0.49396025813E+01  0.15027448775E+03  0.12699999809E+01 0. -1.
</event>
<event>
 5   0  0.2643185E-02  0.4995658E+03  0.7818609E-02  0.1013892E+00
        1   -1    0    0  501    0  0.00000000000E+00  0.00000000000E+00  0.85099083076E+02  0.85099083225E+02  0.50400001928E-02 0.  1.
       -1   -1    0    0    0  501  0.00000000000E+00  0.00000000000E+00 -0.73316305977E+03  0.73316305979E+03  0.50400001928E-02 0. -1.
    10030    2    1    2    0    0  0.00000000000E+00  0.00000000000E+00 -0.64806397670E+03  0.81826214302E+03  0.49956582829E+03 0.  0.
        1    1    3    3  502    0  0.84629239178E+01  0.23874175571E+03 -0.44352641867E+03  0.50377071281E+03  0.50400001928E-02 0. -1.
       -1    1    3    3    0  502 -0.84629239178E+01 -0.23874175571E+03 -0.20453755802E+03  0.31449143020E+03  0.50400001928E-02 0.  1.
</event>
<event>
 5   0  0.4534223E-02  0.5003225E+03  0.7818609E-02  0.1013695E+00
        2   -1    0    0  501    0  0.00000000000E+00  0.00000000000E+00  0.17725198046E+04  0.17725198046E+04  0.25500000920E-02 0. -1.
       -2   -1    0    0    0  501  0.00000000000E+00  0.00000000000E+00 -0.35306042808E+02  0.35306042900E+02  0.25500000920E-02 0.  1.
    10030    2    1    2    0    0  0.00000000000E+00  0.00000000000E+00  0.17372137618E+04  0.18078258475E+04  0.50032253671E+03 0.  0.
        2    1    3    3  502    0  0.94292204294E+02 -0.71396076795E+02  0.72099163396E+02  0.13851609633E+03  0.25500000920E-02 0.  1.
       -2    1    3    3    0  502 -0.94292204294E+02  0.71396076795E+02  0.16651145984E+04  0.16693097512E+04  0.25500000920E-02 0. -1.
</event>
<event>
 5   0  0.4409622E-02  0.4995214E+03  0.7818609E-02  0.1013904E+00
        2   -1    0    0  501    0  0.00000000000E+00  0.00000000000E+00  0.93701508862E+03  0.93701508862E+03  0.25500000920E-02 0.  1.
       -2   -1    0    0    0  501  0.00000000000E+00  0.00000000000E+00 -0.66573536816E+02  0.66573536864E+02  0.25500000920E-02 0. -1.
    10030    2    1    2    0    0  0.00000000000E+00  0.00000000000E+00  0.87044155180E+03  0.10035886255E+04  0.49952140505E+03 0.  0.
        3    1    3    3  502    0  0.93804820449E+02 -0.20890540870E+03  0.63552298358E+03  0.67552223278E+03  0.10100000352E+00 0. -1.
       -3    1    3    3    0  502 -0.93804820449E+02  0.20890540870E+03  0.23491856822E+03  0.32806639270E+03  0.10100000352E+00 0.  1.
</event>
<event>
 5   0  0.2723308E-02  0.5007639E+03  0.7818609E-02  0.1013580E+00
        1   -1    0    0  501    0  0.00000000000E+00  0.00000000000E+00  0.16744756716E+03  0.16744756723E+03  0.50400001928E-02 0. -1.
       -1   -1    0    0    0  501  0.00000000000E+00  0.00000000000E+00 -0.37439253757E+03  0.37439253761E+03  0.50400001928E-02 0.  1.
    10030    2    1    2    0    0  0.00000000000E+00  0.00000000000E+00 -0.20694497042E+03  0.54184010484E+03  0.50076389490E+03 0.  0.
        4    1    3    3  502    0 -0.53082403130E+02  0.63589964612E+02 -0.35913348927E+03  0.36856464988E+03  0.12699999809E+01 0.  1.
       -4    1    3    3    0  502  0.53082403130E+02 -0.63589964612E+02  0.15218851886E+03  0.17327545496E+03  0.12699999809E+01 0. -1.
</event>
<event>
 5   0  0.2719671E-02  0.4750509E+03  0.7818609E-02  0.1020504E+00
       -1   -1    0    0    0  501  0.00000000000E+00  0.00000000000E+00  0.57317034633E+02  0.57317034855E+02  0.50400001928E-02 0.  1.
        1   -1    0    0  501    0  0.00000000000E+00  0.00000000000E+00 -0.98432066155E+03  0.98432066156E+03  0.50400001928E-02 0. -1.
    10030    2    1    2    0    0  0.00000000000E+00  0.00000000000E+00 -0.92700362692E+03  0.10416376964E+04  0.47505090915E+03 0.  0.
        2    1    3    3  502    0  0.19298522531E+03  0.10211192474E+03 -0.66858774357E+03  0.70333470924E+03  0.25500000920E-02 0. -1.
       -2    1    3    3    0  502 -0.19298522531E+03 -0.10211192474E+03 -0.25841588335E+03  0.33830298718E+03  0.25500000920E-02 0.  1.
</event>
<event>
 5   0  0.2643185E-02  0.5019659E+03  0.7818609E-02  0.1013267E+00
        1   -1    0    0  501    0  0.00000000000E+00  0.00000000000E+00  0.18144918642E+03  0.18144918649E+03  0.50400001928E-02 0. -1.
       -1   -1    0    0    0  501  0.00000000000E+00  0.00000000000E+00 -0.34716296832E+03  0.34716296836E+03  0.50400001928E-02 0.  1.
    10030    2    1    2    0    0  0.00000000000E+00  0.00000000000E+00 -0.16571378189E+03  0.52861215485E+03  0.50196588803E+03 0.  0.
        1    1    3    3  502    0  0.24663410194E+03  0.81114882937E+01 -0.13109527653E+03  0.27942825204E+03  0.50400001928E-02 0.  1.
       -1    1    3    3    0  502 -0.24663410194E+03 -0.81114882937E+01 -0.34618505368E+02  0.24918390281E+03  0.50400001928E-02 0. -1.
</event>
<event>
 5   0  0.4534223E-02  0.4943896E+03  0.7818609E-02  0.1015254E+00
       -2   -1    0    0    0  501  0.00000000000E+00  0.00000000000E+00  0.36113892652E+02  0.36113892742E+02  0.25500000920E-02 0. -1.
        2   -1    0    0  501    0  0.00000000000E+00  0.00000000000E+00 -0.16920156723E+04  0.16920156723E+04  0.25500000920E-02 0.  1.
    10030    2    1    2    0    0  0.00000000000E+00  0.00000000000E+00 -0.16559017796E+04  0.17281295650E+04  0.49438961329E+03 0.  0.
        2    1    3    3  502    0 -0.10997131232E+02  0.10752615471E+03 -0.50864775869E+02  0.11945725710E+03  0.25500000920E-02 0. -1.
       -2    1    3    3    0  502  0.10997131232E+02 -0.10752615471E+03 -0.16050370037E+04  0.16086723079E+04  0.25500000920E-02 0.  1.
</event>
<event>
 5   0  0.1805500E-02  0.5012521E+03  0.7818609E-02  0.1013453E+00
        3   -1    0    0  501    0  0.00000000000E+00  0.00000000000E+00  0.22496461461E+03  0.22496463728E+03  0.10100000352E+00 0. -1.
       -3   -1    0    0    0  501  0.00000000000E+00  0.00000000000E+00 -0.27921461357E+03  0.27921463184E+03  0.10100000352E+00 0.  1.
    10030    2    1    2    0    0  0.00000000000E+00  0.00000000000E+00 -0.54249998960E+02  0.50417926912E+03  0.50125210525E+03 0.  0.
        4    1    3    3  502    0  0.21812631627E+02  0.21134705947E+03 -0.16082389363E+03  0.26647571767E+03  0.12699999809E+01 0.  1.
       -4    1    3    3    0  502 -0.21812631627E+02 -0.21134705947E+03  0.10657389467E+03  0.23770355145E+03  0.12699999809E+01 0. -1.
</event>
<event>
 5   0  0.2779445E-02  0.4979729E+03  0.7818609E-02  0.1014309E+00
       -1   -1    0    0    0  501  0.00000000000E+00  0.00000000000E+00  0.34788664547E+02  0.34788664912E+02  0.50400001928E-02 0.  1.
        1   -1    0    0  501    0  0.00000000000E+00  0.00000000000E+00 -0.17820244650E+04  0.17820244650E+04  0.50400001928E-02 0. -1.
    10030    2    1    2    0    0  0.00000000000E+00  0.00000000000E+00 -0.17472358005E+04  0.18168131299E+04  0.49797289752E+03 0.  0.
        3    1    3    3  502    0  0.11627965575E+03 -0.12835365650E+03 -0.15262526454E+04  0.15360477750E+04  0.10100000352E+00 0. -1.
       -3    1    3    3    0  502 -0.11627965575E+03  0.12835365650E+03 -0.22098315511E+03  0.28076535491E+03  0.10100000352E+00 0.  1.
</event>
<event>
 5   0  0.2643185E-02  0.5023878E+03  0.7818609E-02  0.1013158E+00
        1   -1    0    0  501    0  0.00000000000E+00  0.00000000000E+00  0.29480990732E+03  0.29480990736E+03  0.50400001928E-02 0. -1.
       -1   -1    0    0    0  501  0.00000000000E+00  0.00000000000E+00 -0.21403073812E+03  0.21403073818E+03  0.50400001928E-02 0.  1.
    10030    2    1    2    0    0  0.00000000000E+00  0.00000000000E+00  0.80779169201E+02  0.50884064554E+03  0.50238782666E+03 0.  0.
        1    1    3    3  502    0 -0.13175457676E+03  0.21795909033E+02 -0.17509658510E+03  0.22021158981E+03  0.50400001928E-02 0.  1.
       -1    1    3    3    0  502  0.13175457676E+03 -0.21795909033E+02  0.25587575430E+03  0.28862905573E+03  0.50400001928E-02 0. -1.
</event>
<event>
 5   0  0.4409622E-02  0.4962281E+03  0.7818609E-02  0.1014768E+00
       -2   -1    0    0    0  501  0.00000000000E+00  0.00000000000E+00  0.19200435566E+03  0.19200435568E+03  0.25500000920E-02 0.  1.
        2   -1    0    0  501    0  0.00000000000E+00  0.00000000000E+00 -0.32062078432E+03  0.32062078433E+03  0.25500000920E-02 0. -1.
    10030    2    1    2    0    0  0.00000000000E+00  0.00000000000E+00 -0.12861642866E+03  0.51262514001E+03  0.49622812138E+03 0.  0.
        3    1    3    3  502    0  0.15580093090E+03  0.17204871030E+03 -0.15487429172E+03  0.27903538347E+03  0.10100000352E+00 0. -1.
       -3    1    3    3    0  502 -0.15580093090E+03 -0.17204871030E+03  0.26257863060E+02  0.23358975654E+03  0.10100000352E+00 0.  1.
</event>
<event>
 5   0  0.4409622E-02  0.5333373E+03  0.7818609E-02  0.1005426E+00
        2   -1    0    0  501    0  0.00000000000E+00  0.00000000000E+00  0.11944722995E+03  0.11944722998E+03  0.25500000920E-02 0.  1.
       -2   -1    0    0    0  501  0.00000000000E+00  0.00000000000E+00 -0.59534385138E+03  0.59534385139E+03  0.25500000920E-02 0. -1.
    10030    2    1    2    0    0  0.00000000000E+00  0.00000000000E+00 -0.47589662143E+03  0.71479108137E+03  0.53333731888E+03 0.  0.
        3    1    3    3  502    0 -0.15775037028E+03 -0.21495659728E+03 -0.24403795370E+03  0.36144992888E+03  0.10100000352E+00 0.  1.
       -3    1    3    3    0  502  0.15775037028E+03  0.21495659728E+03 -0.23185866773E+03  0.35334115249E+03  0.10100000352E+00 0. -1.
</event>
<event>
 5   0  0.2643185E-02  0.5005012E+03  0.7818609E-02  0.1013648E+00
        1   -1    0    0  501    0  0.00000000000E+00  0.00000000000E+00  0.12101966544E+03  0.12101966555E+03  0.50400001928E-02 0.  1.
       -1   -1    0    0    0  501  0.00000000000E+00  0.00000000000E+00 -0.51748087790E+03  0.51748087793E+03  0.50400001928E-02 0. -1.
    10030    2    1    2    0    0  0.00000000000E+00  0.00000000000E+00 -0.39646121246E+03  0.63850054347E+03  0.50050119983E+03 0.  0.
        1    1    3    3  502    0 -0.20999893657E+02  0.95432245045E+02  0.95676138339E+02  0.13675610553E+03  0.50400001928E-02 0.  1.
       -1    1    3    3    0  502  0.20999893657E+02 -0.95432245045E+02 -0.49213735080E+03  0.50174443794E+03  0.50400001928E-02 0. -1.
</event>
<event>
 5   0  0.1805500E-02  0.5010453E+03  0.7818609E-02  0.1013506E+00
       -3   -1    0    0    0  501  0.00000000000E+00  0.00000000000E+00  0.12219246492E+04  0.12219246533E+04  0.10100000352E+00 0.  1.
        3   -1    0    0  501    0  0.00000000000E+00  0.00000000000E+00 -0.51362845957E+02  0.51362945260E+02  0.10100000352E+00 0. -1.
    10030    2    1    2    0    0  0.00000000000E+00  0.00000000000E+00  0.11705618032E+04  0.12732875986E+04  0.50104528100E+03 0.  0.
        3    1    3    3  502    0  0.44654736767E+02  0.17069487635E+03  0.10372456884E+04  0.10521451491E+04  0.10100000352E+00 0.  1.
       -3    1    3    3    0  502 -0.44654736767E+02 -0.17069487635E+03  0.13331611478E+03  0.22114244954E+03  0.10100000352E+00 0. -1.
</event>
<event>
 5   0  0.4451135E-02  0.5001315E+03  0.7818609E-02  0.1013745E+00
        2   -1    0    0  501    0  0.00000000000E+00  0.00000000000E+00  0.88363141407E+03  0.88363141407E+03  0.25500000920E-02 0. -1.
       -2   -1    0    0    0  501  0.00000000000E+00  0.00000000000E+00 -0.70768070922E+02  0.70768070967E+02  0.25500000920E-02 0.  1.
    10030    2    1    2    0    0  0.00000000000E+00  0.00000000000E+00  0.81286334315E+03  0.95439948504E+03  0.50013154511E+03 0.  0.
        1    1    3    3  502    0 -0.14547383616E+03  0.20338430072E+03  0.40213067641E+03  0.47353657907E+03  0.50400001928E-02 0.  1.
       -1    1    3    3    0  502  0.14547383616E+03 -0.20338430072E+03  0.41073266674E+03  0.48086290597E+03  0.50400001928E-02 0. -1.
</event>
<event>
 5   0  0.2719671E-02  0.4962851E+03  0.7818609E-02  0.1014753E+00
       -1   -1    0    0    0  501  0.00000000000E+00  0.00000000000E+00  0.89850774448E+02  0.89850774589E+02  0.50400001928E-02 0.  1.
        1   -1    0    0  501    0  0.00000000000E+00  0.00000000000E+00 -0.68530000285E+03  0.68530000287E+03  0.50400001928E-02 0. -1.
    10030    2    1    2    0    0  0.00000000000E+00  0.00000000000E+00 -0.59544922840E+03  0.77515077746E+03  0.49628514403E+03 0.  0.
        2    1    3    3  502    0 -0.92448021420E+02  0.20147976908E+03 -0.12355981685E+03  0.25378684434E+03  0.25500000920E-02 0.  1.
       -2    1    3    3    0  502  0.92448021420E+02 -0.20147976908E+03 -0.47188941154E+03  0.52136393311E+03  0.25500000920E-02 0. -1.
</event>
<event>
 5   0  0.2643185E-02  0.5008715E+03  0.7818609E-02  0.1013552E+00
        1   -1    0    0  501    0  0.00000000000E+00  0.00000000000E+00  0.15886256442E+04  0.15886256442E+04  0.50400001928E-02 0.  1.
       -1   -1    0    0    0  501  0.00000000000E+00  0.00000000000E+00 -0.39479443426E+02  0.39479443748E+02  0.50400001928E-02 0. -1.
    10030    2    1    2    0    0  0.00000000000E+00  0.00000000000E+00  0.15491462008E+04  0.16281050880E+04  0.50087146661E+03 0.  0.
        1    1    3    3  502    0  0.10693597396E+03  0.19708869752E+02  0.15078884506E+04  0.15118039958E+04  0.50400001928E-02 0.  1.
       -1    1    3    3    0  502 -0.10693597396E+03 -0.19708869752E+02  0.41257750172E+02  0.11630109221E+03  0.50400001928E-02 0. -1.
</event>
<event>
 5   0  0.1805500E-02  0.5014688E+03  0.7818609E-02  0.1013396E+00
       -4   -1    0    0    0  501  0.00000000000E+00  0.00000000000E+00  0.63306281989E+03  0.63306409378E+03  0.12699999809E+01 0. -1.
        4   -1    0    0  501    0  0.00000000000E+00  0.00000000000E+00 -0.99301822930E+02  0.99309943798E+02  0.12699999809E+01 0.  1.
    10030    2    1    2    0    0  0.00000000000E+00  0.00000000000E+00  0.53376099696E+03  0.73237403757E+03  0.50146877175E+03 0.  0.
        4    1    3    3  502    0  0.17419003588E+03  0.17588647721E+03  0.20868353389E+03  0.32377253077E+03  0.12699999809E+01 0.  1.
       -4    1    3    3    0  502 -0.17419003588E+03 -0.17588647721E+03  0.32507746307E+03  0.40860150680E+03  0.12699999809E+01 0. -1.
</event>
<event>
 5   0  0.4451135E-02  0.4999580E+03  0.7818609E-02  0.1013790E+00
        2   -1    0    0  501    0  0.00000000000E+00  0.00000000000E+00  0.87674096259E+03  0.87674096259E+03  0.25500000920E-02 0. -1.
       -2   -1    0    0    0  501  0.00000000000E+00  0.00000000000E+00 -0.71274762350E+02  0.71274762395E+02  0.25500000920E-02 0.  1.
    10030    2    1    2    0    0  0.00000000000E+00  0.00000000000E+00  0.80546620024E+03  0.94801572498E+03  0.49995801333E+03 0.  0.
        1    1    3    3  502    0  0.17019717626E+03  0.20277245667E+02  0.57692778646E+02  0.18084994397E+03  0.50400001928E-02 0.  1.
       -1    1    3    3    0  502 -0.17019717626E+03 -0.20277245667E+02  0.74777342159E+03  0.76716578102E+03  0.50400001928E-02 0. -1.
</event>
<event>
 5   0  0.2719671E-02  0.5004904E+03  0.7818609E-02  0.1013651E+00
       -1   -1    0    0    0  501  0.00000000000E+00  0.00000000000E+00  0.79228324099E+03  0.79228324101E+03  0.50400001928E-02 0. -1.
        1   -1    0    0  501    0  0.00000000000E+00  0.00000000000E+00 -0.79040754351E+02  0.79040754511E+02  0.50400001928E-02 0.  1.
    10030    2    1    2    0    0  0.00000000000E+00  0.00000000000E+00  0.71324248664E+03  0.87132399552E+03  0.50049041991E+03 0.  0.
        2    1    3    3  502    0 -0.12467119021E+03  0.21693690940E+03  0.36403543577E+03  0.44173105713E+03  0.25500000920E-02 0. -1.
       -2    1    3    3    0  502  0.12467119021E+03 -0.21693690940E+03  0.34920705087E+03  0.42959293839E+03  0.25500000920E-02 0.  1.
</event>
<event>
 5   0  0.2719671E-02  0.4862851E+03  0.7818609E-02  0.1017422E+00
       -1   -1    0    0    0  501  0.00000000000E+00  0.00000000000E+00  0.11560288360E+03  0.11560288371E+03  0.50400001928E-02 0. -1.
        1   -1    0    0  501    0  0.00000000000E+00  0.00000000000E+00 -0.51139126920E+03  0.51139126923E+03  0.50400001928E-02 0.  1.
    10030    2    1    2    0    0  0.00000000000E+00  0.00000000000E+00 -0.39578838560E+03  0.62699415294E+03  0.48628512381E+03 0.  0.
        2    1    3    3  502    0 -0.13412994330E+03  0.64434247788E+02 -0.44582509380E+03  0.47000279600E+03  0.25500000920E-02 0.  1.
       -2    1    3    3    0  502  0.13412994330E+03 -0.64434247788E+02  0.50036708200E+02  0.15699135693E+03  0.25500000920E-02 0. -1.
</event>
<event>
 5   0  0.4534223E-02  0.5035580E+03  0.7818609E-02  0.1012854E+00
       -2   -1    0    0    0  501  0.00000000000E+00  0.00000000000E+00  0.33229936050E+03  0.33229936051E+03  0.25500000920E-02 0.  1.
        2   -1    0    0  501    0  0.00000000000E+00  0.00000000000E+00 -0.19076970926E+03  0.19076970927E+03  0.25500000920E-02 0. -1.
    10030    2    1    2    0    0  0.00000000000E+00  0.00000000000E+00  0.14152965124E+03  0.52306906978E+03  0.50355795057E+03 0.  0.
        2    1    3    3  502    0  0.57328982226E+02 -0.90247507552E+01 -0.18372721172E+03  0.19267523625E+03  0.25500000920E-02 0. -1.
       -2    1    3    3    0  502 -0.57328982226E+02  0.90247507552E+01  0.32525686296E+03  0.33039383354E+03  0.25500000920E-02 0.  1.
</event>
<event>
 5   0  0.1805500E-02  0.4978825E+03  0.7818609E-02  0.1014333E+00
       -3   -1    0    0    0  501  0.00000000000E+00  0.00000000000E+00  0.32360736363E+03  0.32360737939E+03  0.10100000352E+00 0. -1.
        3   -1    0    0  501    0  0.00000000000E+00  0.00000000000E+00 -0.19150283332E+03  0.19150285995E+03  0.10100000352E+00 0.  1.
    10030    2    1    2    0    0  0.00000000000E+00  0.00000000000E+00  0.13210453031E+03  0.51511023934E+03  0.49788246781E+03 0.  0.
        2    1    3    3  502    0  0.16466978372E+03 -0.16426481007E+03  0.15785052322E+03  0.28109758658E+03  0.25500000920E-02 0. -1.
       -2    1    3    3    0  502 -0.16466978372E+03  0.16426481007E+03 -0.25745992913E+02  0.23401265276E+03  0.25500000920E-02 0.  1.
</event>
<event>
 5   0  0.2643185E-02  0.4999430E+03  0.7818609E-02  0.1013794E+00
       -1   -1    0    0    0  501  0.00000000000E+00  0.00000000000E+00  0.22817463269E+03  0.22817463275E+03  0.50400001928E-02 0. -1.
        1   -1    0    0  501    0  0.00000000000E+00  0.00000000000E+00 -0.27385050568E+03  0.27385050572E+03  0.50400001928E-02 0.  1.
    10030    2    1    2    0    0  0.00000000000E+00  0.00000000000E+00 -0.45675872984E+02  0.50202513847E+03  0.49994295103E+03 0.  0.
        1    1    3    3  502    0 -0.17930074262E+03  0.11757791921E+03  0.10619789205E+03  0.23927247165E+03  0.50400001928E-02 0. -1.
       -1    1    3    3    0  502  0.17930074262E+03 -0.11757791921E+03 -0.15187376503E+03  0.26275266682E+03  0.50400001928E-02 0.  1.
</event>
<event>
 5   0  0.4631619E-02  0.4989942E+03  0.7818609E-02  0.1014042E+00
        2   -1    0    0  501    0  0.00000000000E+00  0.00000000000E+00  0.69074275729E+03  0.69074275729E+03  0.25500000920E-02 0.  1.
       -2   -1    0    0    0  501  0.00000000000E+00  0.00000000000E+00 -0.90118649416E+02  0.90118649452E+02  0.25500000920E-02 0. -1.
    10030    2    1    2    0    0  0.00000000000E+00  0.00000000000E+00  0.60062410787E+03  0.78086140675E+03  0.49899420596E+03 0.  0.
        5    1    3    3  502    0 -0.88919911342E+02 -0.12138364346E+03  0.61166223902E+03  0.62991548971E+03  0.46999998093E+01 0.  1.
       -5    1    3    3    0  502  0.88919911342E+02  0.12138364346E+03 -0.11038131149E+02  0.15094591704E+03  0.46999998093E+01 0. -1.
</event>
<event>
 5   0  0.2779445E-02  0.5021442E+03  0.7818609E-02  0.1013221E+00
       -1   -1    0    0    0  501  0.00000000000E+00  0.00000000000E+00  0.39518970063E+03  0.39518970066E+03  0.50400001928E-02 0. -1.
        1   -1    0    0  501    0  0.00000000000E+00  0.00000000000E+00 -0.15951124307E+03  0.15951124315E+03  0.50400001928E-02 0.  1.
    10030    2    1    2    0    0  0.00000000000E+00  0.00000000000E+00  0.23567845756E+03  0.55470094381E+03  0.50214420410E+03 0.  0.
        3    1    3    3  502    0  0.19306854921E+03  0.91590473032E+02  0.26344102920E+03  0.33921300905E+03  0.10100000352E+00 0. -1.
       -3    1    3    3    0  502 -0.19306854921E+03 -0.91590473032E+02 -0.27762571637E+02  0.21548793476E+03  0.10100000352E+00 0.  1.
</event>
<event>
 5   0  0.4534223E-02  0.5026623E+03  0.7818609E-02  0.1013086E+00
        2   -1    0    0  501    0  0.00000000000E+00  0.00000000000E+00  0.64002773223E+03  0.64002773224E+03  0.25500000920E-02 0.  1.
       -2   -1    0    0    0  501  0.00000000000E+00  0.00000000000E+00 -0.98694715792E+02  0.98694715825E+02  0.25500000920E-02 0. -1.
    10030    2    1    2    0    0  0.00000000000E+00  0.00000000000E+00  0.54133301644E+03  0.73872244806E+03  0.50266233257E+03 0.  0.
        2    1    3    3  502    0  0.26837499009E+02 -0.24977050613E+03  0.25911357240E+03  0.36089527635E+03  0.25500000920E-02 0. -1.
       -2    1    3    3    0  502 -0.26837499009E+02  0.24977050613E+03  0.28221944404E+03  0.37782717171E+03  0.25500000920E-02 0.  1.
</event>
<event>
 5   0  0.4534223E-02  0.4970354E+03  0.7818609E-02  0.1014556E+00
        2   -1    0    0  501    0  0.00000000000E+00  0.00000000000E+00  0.65760112816E+03  0.65760112816E+03  0.25500000920E-02 0. -1.
       -2   -1    0    0    0  501  0.00000000000E+00  0.00000000000E+00 -0.93918717239E+02  0.93918717274E+02  0.25500000920E-02 0.  1.
    10030    2    1    2    0    0  0.00000000000E+00  0.00000000000E+00  0.56368241092E+03  0.75151984544E+03  0.49703542903E+03 0.  0.
        2    1    3    3  502    0  0.24841926221E+03 -0.69868386735E+01  0.28233964077E+03  0.37613377740E+03  0.25500000920E-02 0. -1.
       -2    1    3    3    0  502 -0.24841926221E+03  0.69868386735E+01  0.28134277015E+03  0.37538606803E+03  0.25500000920E-02 0.  1.
</event>
<event>
 5   0  0.2643185E-02  0.4997362E+03  0.7818609E-02  0.1013848E+00
        1   -1    0    0  501    0  0.00000000000E+00  0.00000000000E+00  0.20691740107E+04  0.20691740107E+04  0.50400001928E-02 0.  1.
       -1   -1    0    0    0  501  0.00000000000E+00  0.00000000000E+00 -0.30173425155E+02  0.30173425576E+02  0.50400001928E-02 0. -1.
    10030    2    1    2    0    0  0.00000000000E+00  0.00000000000E+00  0.20390005856E+04  0.20993474363E+04  0.49973620078E+03 0.  0.
        1    1    3    3  502    0 -0.97775959098E+02  0.12650104612E+03  0.18261563680E+04  0.18331420385E+04  0.50400001928E-02 0.  1.
       -1    1    3    3    0  502  0.97775959098E+02 -0.12650104612E+03  0.21284421754E+03  0.26620539779E+03  0.50400001928E-02 0. -1.
</event>
<event>
 5   0  0.4409622E-02  0.4993745E+03  0.7818609E-02  0.1013942E+00
        2   -1    0    0  501    0  0.00000000000E+00  0.00000000000E+00  0.72729784102E+03  0.72729784102E+03  0.25500000920E-02 0. -1.
       -2   -1    0    0    0  501  0.00000000000E+00  0.00000000000E+00 -0.85719668137E+02  0.85719668175E+02  0.25500000920E-02 0.  1.
    10030    2    1    2    0    0  0.00000000000E+00  0.00000000000E+00  0.64157817288E+03  0.81301750920E+03  0.49937452713E+03 0.  0.
        3    1    3    3  502    0 -0.12418973005E+02  0.11729065431E+03 -0.37506507632E+02  0.12376621831E+03  0.10100000352E+00 0.  1.
       -3    1    3    3    0  502  0.12418973005E+02 -0.11729065431E+03  0.67908468051E+03  0.68925129088E+03  0.10100000352E+00 0. -1.
</event>
<event>
 5   0  0.4534223E-02  0.5113085E+03  0.7818609E-02  0.1010869E+00
       -2   -1    0    0    0  501  0.00000000000E+00  0.00000000000E+00  0.18816944785E+03  0.18816944786E+03  0.25500000920E-02 0. -1.
        2   -1    0    0  501    0  0.00000000000E+00  0.00000000000E+00 -0.34734174083E+03  0.34734174084E+03  0.25500000920E-02 0.  1.
    10030    2    1    2    0    0  0.00000000000E+00  0.00000000000E+00 -0.15917229298E+03  0.53551118870E+03  0.51130853149E+03 0.  0.
        2    1    3    3  502    0  0.20111723841E+03 -0.52224679510E+02  0.76405363986E+02  0.22138956703E+03  0.25500000920E-02 0. -1.
       -2    1    3    3    0  502 -0.20111723841E+03  0.52224679510E+02 -0.23557765697E+03  0.31412162168E+03  0.25500000920E-02 0.  1.
</event>
<event>
 5   0  0.2779445E-02  0.4953525E+03  0.7818609E-02  0.1014999E+00
       -1   -1    0    0    0  501  0.00000000000E+00  0.00000000000E+00  0.14932320265E+03  0.14932320274E+03  0.50400001928E-02 0.  1.
        1   -1    0    0  501    0  0.00000000000E+00  0.00000000000E+00 -0.41081033817E+03  0.41081033820E+03  0.50400001928E-02 0. -1.
    10030    2    1    2    0    0  0.00000000000E+00  0.00000000000E+00 -0.26148713552E+03  0.56013354094E+03  0.49535246203E+03 0.  0.
        3    1    3    3  502    0  0.23078510434E+03 -0.23637316522E+02 -0.22882195285E+03  0.32585270204E+03  0.10100000352E+00 0. -1.
       -3    1    3    3    0  502 -0.23078510434E+03  0.23637316522E+02 -0.32665182667E+02  0.23428083890E+03  0.10100000352E+00 0.  1.
</event>
<event>
 5   0  0.2779445E-02  0.5066521E+03  0.7818609E-02  0.1012057E+00
       -1   -1    0    0    0  501  0.00000000000E+00  0.00000000000E+00  0.16814929315E+03  0.16814929323E+03  0.50400001928E-02 0. -1.
        1   -1    0    0  501    0  0.00000000000E+00  0.00000000000E+00 -0.38164942753E+03  0.38164942757E+03  0.50400001928E-02 0.  1.
    10030    2    1    2    0    0  0.00000000000E+00  0.00000000000E+00 -0.21350013438E+03  0.54979872079E+03  0.50665207589E+03 0.  0.
        3    1    3    3  502    0 -0.51312343342E+02  0.12831992750E+02  0.16209049683E+03  0.17050207031E+03  0.10100000352E+00 0. -1.
       -3    1    3    3    0  502  0.51312343342E+02 -0.12831992750E+02 -0.37559063121E+03  0.37929665048E+03  0.10100000352E+00 0.  1.
</event>
<event>
 5   0  0.2723308E-02  0.4994189E+03  0.7818609E-02  0.1013931E+00
        1   -1    0    0  501    0  0.00000000000E+00  0.00000000000E+00  0.20764445904E+03  0.20764445910E+03  0.50400001928E-02 0.  1.
       -1   -1    0    0    0  501  0.00000000000E+00  0.00000000000E+00 -0.30029608713E+03  0.30029608718E+03  0.50400001928E-02 0. -1.
    10030    2    1    2    0    0  0.00000000000E+00  0.00000000000E+00 -0.92651628096E+02  0.50794054627E+03  0.49941893673E+03 0.  0.
        4    1    3    3  502    0 -0.24728974514E+03  0.23522987448E+02 -0.20442474605E+02  0.24924898527E+03  0.12699999809E+01 0.  1.
       -4    1    3    3    0  502  0.24728974514E+03 -0.23522987448E+02 -0.72209153491E+02  0.25869156101E+03  0.12699999809E+01 0. -1.
</event>
<event>
 5   0  0.4409622E-02  0.4948869E+03  0.7818609E-02  0.1015122E+00
       -2   -1    0    0    0  501  0.00000000000E+00  0.00000000000E+00  0.33550318840E+02  0.33550318937E+02  0.25500000920E-02 0. -1.
        2   -1    0    0  501    0  0.00000000000E+00  0.00000000000E+00 -0.18249682988E+04  0.18249682988E+04  0.25500000920E-02 0.  1.
    10030    2    1    2    0    0  0.00000000000E+00  0.00000000000E+00 -0.17914179799E+04  0.18585186177E+04  0.49488693007E+03 0.  0.
        3    1    3    3  502    0  0.53456754640E+02 -0.41690736526E+02 -0.20046640183E+01  0.67821611655E+02  0.10100000352E+00 0. -1.
       -3    1    3    3    0  502 -0.53456754640E+02  0.41690736526E+02 -0.17894133159E+04  0.17906970060E+04  0.10100000352E+00 0.  1.
</event>
<event>
 5   0  0.4534223E-02  0.5001041E+03  0.7818609E-02  0.1013752E+00
       -2   -1    0    0    0  501  0.00000000000E+00  0.00000000000E+00  0.79842516118E+02  0.79842516158E+02  0.25500000920E-02 0.  1.
        2   -1    0    0  501    0  0.00000000000E+00  0.00000000000E+00 -0.78311695401E+03  0.78311695402E+03  0.25500000920E-02 0. -1.
    10030    2    1    2    0    0  0.00000000000E+00  0.00000000000E+00 -0.70327443790E+03  0.86295947018E+03  0.50010410133E+03 0.  0.
        2    1    3    3  502    0  0.35150645798E+02 -0.20064854049E+03 -0.10139760843E+03  0.22754533549E+03  0.25500000920E-02 0.  1.
       -2    1    3    3    0  502 -0.35150645798E+02  0.20064854049E+03 -0.60187682947E+03  0.63541413469E+03  0.25500000920E-02 0. -1.
</event>
<event>
 5   0  0.4519539E-02  0.4999277E+03  0.7818609E-02  0.1013798E+00
        2   -1    0    0  501    0  0.00000000000E+00  0.00000000000E+00  0.34471143089E+03  0.34471143090E+03  0.25500000920E-02 0.  1.
       -2   -1    0    0    0  501  0.00000000000E+00  0.00000000000E+00 -0.18125861227E+03  0.18125861229E+03  0.25500000920E-02 0. -1.
    10030    2    1    2    0    0  0.00000000000E+00  0.00000000000E+00  0.16345281862E+03  0.52597004318E+03  0.49992765718E+03 0.  0.
        4    1    3    3  502    0 -0.15154096706E+03 -0.23787319493E+02 -0.12591141514E+03  0.19845855645E+03  0.12699999809E+01 0. -1.
       -4    1    3    3    0  502  0.15154096706E+03  0.23787319493E+02  0.28936423376E+03  0.32751148674E+03  0.12699999809E+01 0.  1.
</event>
<event>
 5   0  0.2719671E-02  0.4987398E+03  0.7818609E-02  0.1014108E+00
       -1   -1    0    0    0  501  0.00000000000E+00  0.00000000000E+00  0.34700907040E+03  0.34700907044E+03  0.50400001928E-02 0. -1.
        1   -1    0    0  501    0  0.00000000000E+00  0.00000000000E+00 -0.17920384257E+03  0.17920384264E+03  0.50400001928E-02 0.  1.
    10030    2    1    2    0    0  0.00000000000E+00  0.00000000000E+00  0.16780522783E+03  0.52621291308E+03  0.49873984742E+03 0.  0.
        2    1    3    3  502    0  0.10531001221E+03 -0.46846507856E+02  0.31721853277E+03  0.33750909841E+03  0.25500000920E-02 0. -1.
       -2    1    3    3    0  502 -0.10531001221E+03  0.46846507856E+02 -0.14941330494E+03  0.18870381467E+03  0.25500000920E-02 0.  1.
</event>
<event>
 5   0  0.2715483E-02  0.5014347E+03  0.7818609E-02  0.1013405E+00
       -1   -1    0    0    0  501  0.00000000000E+00  0.00000000000E+00  0.15075606726E+03  0.15075606735E+03  0.50400001928E-02 0. -1.
        1   -1    0    0  501    0  0.00000000000E+00  0.00000000000E+00 -0.41695966478E+03  0.41695966481E+03  0.50400001928E-02 0.  1.
    10030    2    1    2    0    0  0.00000000000E+00  0.00000000000E+00 -0.26620359751E+03  0.56771573215E+03  0.50143473873E+03 0.  0.
        5    1    3    3  502    0 -0.49108381403E+02  0.19724478779E+03 -0.29918944893E+03  0.36173685987E+03  0.46999998093E+01 0.  1.
       -5    1    3    3    0  502  0.49108381403E+02 -0.19724478779E+03  0.32985851416E+02  0.20597887229E+03  0.46999998093E+01 0. -1.
</event>
<event>
 5   0  0.4409622E-02  0.4971789E+03  0.7818609E-02  0.1014518E+00
       -2   -1    0    0    0  501  0.00000000000E+00  0.00000000000E+00  0.14548486294E+03  0.14548486296E+03  0.25500000920E-02 0. -1.
        2   -1    0    0  501    0  0.00000000000E+00  0.00000000000E+00 -0.42476387404E+03  0.42476387404E+03  0.25500000920E-02 0.  1.
    10030    2    1    2    0    0  0.00000000000E+00  0.00000000000E+00 -0.27927901110E+03  0.57024873700E+03  0.49717889740E+03 0.  0.
        3    1    3    3  502    0  0.85403707253E+02  0.94303002315E+02  0.10531249338E+03  0.16515925927E+03  0.10100000352E+00 0. -1.
       -3    1    3    3    0  502 -0.85403707253E+02 -0.94303002315E+02 -0.38459150448E+03  0.40508947774E+03  0.10100000352E+00 0.  1.
</event>
<event>
 5   0  0.4534223E-02  0.4896218E+03  0.7818609E-02  0.1016524E+00
        2   -1    0    0  501    0  0.00000000000E+00  0.00000000000E+00  0.45565329208E+03  0.45565329209E+03  0.25500000920E-02 0. -1.
       -2   -1    0    0    0  501  0.00000000000E+00  0.00000000000E+00 -0.13153067673E+03  0.13153067676E+03  0.25500000920E-02 0.  1.
    10030    2    1    2    0    0  0.00000000000E+00  0.00000000000E+00  0.32412261535E+03  0.58718396884E+03  0.48962183722E+03 0.  0.
        2    1    3    3  502    0  0.67161311869E+02  0.19989512757E+03  0.31119297257E+03  0.37591191790E+03  0.25500000920E-02 0. -1.
       -2    1    3    3    0  502 -0.67161311869E+02 -0.19989512757E+03  0.12929642781E+02  0.21127205094E+03  0.25500000920E-02 0.  1.
</event>
<event>
 5   0  0.2643185E-02  0.4991565E+03  0.7818609E-02  0.1013999E+00
       -1   -1    0    0    0  501  0.00000000000E+00  0.00000000000E+00  0.17674586321E+03  0.17674586329E+03  0.50400001928E-02 0. -1.
        1   -1    0    0  501    0  0.00000000000E+00  0.00000000000E+00 -0.35242303718E+03  0.35242303722E+03  0.50400001928E-02 0.  1.
    10030    2    1    2    0    0  0.00000000000E+00  0.00000000000E+00 -0.17567717397E+03  0.52916890050E+03  0.49915654439E+03 0.  0.
        1    1    3    3  502    0  0.12925374934E+03 -0.12316758058E+03  0.97038808083E+02  0.20320756611E+03  0.50400001928E-02 0. -1.
       -1    1    3    3    0  502 -0.12925374934E+03  0.12316758058E+03 -0.27271598205E+03  0.32596133439E+03  0.50400001928E-02 0.  1.
</event>
<event>
 5   0  0.2779445E-02  0.4991917E+03  0.7818609E-02  0.1013990E+00
       -1   -1    0    0    0  501  0.00000000000E+00  0.00000000000E+00  0.20102007497E+02  0.20102008128E+02  0.50400001928E-02 0.  1.
        1   -1    0    0  501    0  0.00000000000E+00  0.00000000000E+00 -0.30990977232E+04  0.30990977232E+04  0.50400001928E-02 0. -1.
    10030    2    1    2    0    0  0.00000000000E+00  0.00000000000E+00 -0.30789957157E+04  0.31191997313E+04  0.49919169326E+03 0.  0.
        3    1    3    3  502    0  0.50953684138E+02  0.22126485453E+02 -0.30599806047E+04  0.30604847934E+04  0.10100000352E+00 0. -1.
       -3    1    3    3    0  502 -0.50953684138E+02 -0.22126485453E+02 -0.19015110961E+02  0.58714937892E+02  0.10100000352E+00 0.  1.
</event>
<event>
 5   0  0.2723308E-02  0.5012867E+03  0.7818609E-02  0.1013444E+00
        1   -1    0    0  501    0  0.00000000000E+00  0.00000000000E+00  0.41117973729E+03  0.41117973732E+03  0.50400001928E-02 0.  1.
       -1   -1    0    0    0  501  0.00000000000E+00  0.00000000000E+00 -0.15278496052E+03  0.15278496060E+03  0.50400001928E-02 0. -1.
    10030    2    1    2    0    0  0.00000000000E+00  0.00000000000E+00  0.25839477677E+03  0.56396469792E+03  0.50128666433E+03 0.  0.
        4    1    3    3  502    0  0.21055790405E+03  0.23218191482E+02  0.27991315791E+03  0.35103661382E+03  0.12699999809E+01 0.  1.
       -4    1    3    3    0  502 -0.21055790405E+03 -0.23218191482E+02 -0.21518381135E+02  0.21292808410E+03  0.12699999809E+01 0. -1.
</event>
<event>
 5   0  0.1805500E-02  0.4996717E+03  0.7818609E-02  0.1013865E+00
       -3   -1    0    0    0  501  0.00000000000E+00  0.00000000000E+00  0.18282091541E+03  0.18282094331E+03  0.10100000352E+00 0. -1.
        3   -1    0    0  501    0  0.00000000000E+00  0.00000000000E+00 -0.34141578307E+03  0.34141579801E+03  0.10100000352E+00 0.  1.
    10030    2    1    2    0    0  0.00000000000E+00  0.00000000000E+00 -0.15859486765E+03  0.52423674132E+03  0.49967172114E+03 0.  0.
        2    1    3    3  502    0  0.20585055274E+02  0.11185190426E+02  0.18166596386E+03  0.18317034536E+03  0.25500000920E-02 0. -1.
       -2    1    3    3    0  502 -0.20585055274E+02 -0.11185190426E+02 -0.34026083152E+03  0.34106639597E+03  0.25500000920E-02 0.  1.
</event>
<event>
 5   0  0.2643185E-02  0.4908786E+03  0.7818609E-02  0.1016188E+00
       -1   -1    0    0    0  501  0.00000000000E+00  0.00000000000E+00  0.11305148441E+03  0.11305148452E+03  0.50400001928E-02 0.  1.
        1   -1    0    0  501    0  0.00000000000E+00  0.00000000000E+00 -0.53285858729E+03  0.53285858731E+03  0.50400001928E-02 0. -1.
    10030    2    1    2    0    0  0.00000000000E+00  0.00000000000E+00 -0.41980710288E+03  0.64591007183E+03  0.49087861765E+03 0.  0.
        1    1    3    3  502    0 -0.11900771757E+03 -0.41896434505E+02 -0.48692227048E+03  0.50300243098E+03  0.50400001928E-02 0. -1.
       -1    1    3    3    0  502  0.11900771757E+03  0.41896434505E+02  0.67115167597E+02  0.14290764085E+03  0.50400001928E-02 0.  1.
</event>
<event>
 5   0  0.4409622E-02  0.5014553E+03  0.7818609E-02  0.1013400E+00
       -2   -1    0    0    0  501  0.00000000000E+00  0.00000000000E+00  0.75623714901E+02  0.75623714944E+02  0.25500000920E-02 0. -1.
        2   -1    0    0  501    0  0.00000000000E+00  0.00000000000E+00 -0.83127829816E+03  0.83127829816E+03  0.25500000920E-02 0.  1.
    10030    2    1    2    0    0  0.00000000000E+00  0.00000000000E+00 -0.75565458326E+03  0.90690201311E+03  0.50145529430E+03 0.  0.
        3    1    3    3  502    0 -0.21317766899E+03 -0.12879873050E+03 -0.42994687317E+03  0.49687841117E+03  0.10100000352E+00 0. -1.
       -3    1    3    3    0  502  0.21317766899E+03  0.12879873050E+03 -0.32570771008E+03  0.41002360194E+03  0.10100000352E+00 0.  1.
</event>
<event>
 5   0  0.2719671E-02  0.5001914E+03  0.7818609E-02  0.1013729E+00
       -1   -1    0    0    0  501  0.00000000000E+00  0.00000000000E+00  0.88952954673E+02  0.88952954816E+02  0.50400001928E-02 0.  1.
        1   -1    0    0  501    0  0.00000000000E+00  0.00000000000E+00 -0.70315651066E+03  0.70315651068E+03  0.50400001928E-02 0. -1.
    10030    2    1    2    0    0  0.00000000000E+00  0.00000000000E+00 -0.61420355599E+03  0.79210946550E+03  0.50019136052E+03 0.  0.
        2    1    3    3  502    0  0.88856251818E+02 -0.49922810075E+02 -0.66877665673E+03  0.67649829050E+03  0.25500000920E-02 0. -1.
       -2    1    3    3    0  502 -0.88856251818E+02  0.49922810075E+02  0.54573100742E+02  0.11561117500E+03  0.25500000920E-02 0.  1.
</event>
<event>
 5   0  0.1805500E-02  0.4998954E+03  0.7818609E-02  0.1013806E+00
       -3   -1    0    0    0  501  0.00000000000E+00  0.00000000000E+00  0.41181659722E+03  0.41181660961E+03  0.10100000352E+00 0. -1.
        3   -1    0    0  501    0  0.00000000000E+00  0.00000000000E+00 -0.15170307052E+03  0.15170310414E+03  0.10100000352E+00 0.  1.
    10030    2    1    2    0    0  0.00000000000E+00  0.00000000000E+00  0.26011352670E+03  0.56351971375E+03  0.49989541007E+03 0.  0.
        5    1    3    3  502    0  0.46269562677E+02 -0.22992839269E+03  0.22731538307E+03  0.32665319771E+03  0.46999998093E+01 0. -1.
       -5    1    3    3    0  502 -0.46269562677E+02  0.22992839269E+03  0.32798143636E+02  0.23686651604E+03  0.46999998093E+01 0.  1.
</event>
<event>
 5   0  0.4451135E-02  0.5010317E+03  0.7818609E-02  0.1013510E+00
        2   -1    0    0  501    0  0.00000000000E+00  0.00000000000E+00  0.45003764218E+03  0.45003764219E+03  0.25500000920E-02 0. -1.
       -2   -1    0    0    0  501  0.00000000000E+00  0.00000000000E+00 -0.13945100131E+03  0.13945100133E+03  0.25500000920E-02 0.  1.
    10030    2    1    2    0    0  0.00000000000E+00  0.00000000000E+00  0.31058664088E+03  0.58948864352E+03  0.50103173487E+03 0.  0.
        1    1    3    3  502    0 -0.21747449906E+01 -0.87840206081E+02  0.43131286044E+03  0.44017202879E+03  0.50400001928E-02 0. -1.
       -1    1    3    3    0  502  0.21747449906E+01  0.87840206081E+02 -0.12072621956E+03  0.14931661473E+03  0.50400001928E-02 0.  1.
</event>
<event>
 5   0  0.2719671E-02  0.4999880E+03  0.7818609E-02  0.1013782E+00
        1   -1    0    0  501    0  0.00000000000E+00  0.00000000000E+00  0.12324099434E+04  0.12324099434E+04  0.50400001928E-02 0. -1.
       -1   -1    0    0    0  501  0.00000000000E+00  0.00000000000E+00 -0.50711212998E+02  0.50711213249E+02  0.50400001928E-02 0.  1.
    10030    2    1    2    0    0  0.00000000000E+00  0.00000000000E+00  0.11816987304E+04  0.12831211566E+04  0.49998801309E+03 0.  0.
        2    1    3    3  502    0  0.16808781918E+01  0.24060330743E+03  0.41671422940E+03  0.48118969845E+03  0.25500000920E-02 0. -1.
       -2    1    3    3    0  502 -0.16808781918E+01 -0.24060330743E+03  0.76498450098E+03  0.80193145819E+03  0.25500000920E-02 0.  1.
</event>
<event>
 5   0  0.2779445E-02  0.5008183E+03  0.7818609E-02  0.1013566E+00
        1   -1    0    0  501    0  0.00000000000E+00  0.00000000000E+00  0.75199953670E+03  0.75199953672E+03  0.50400001928E-02 0. -1.
       -1   -1    0    0    0  501  0.00000000000E+00  0.00000000000E+00 -0.83384025571E+02  0.83384025723E+02  0.50400001928E-02 0.  1.
    10030    2    1    2    0    0  0.00000000000E+00  0.00000000000E+00  0.66861551113E+03  0.83538356244E+03  0.50081832502E+03 0.  0.
        3    1    3    3  502    0 -0.74307418514E+02 -0.23596574923E+03  0.26963369002E+03  0.36592863273E+03  0.10100000352E+00 0. -1.
       -3    1    3    3    0  502  0.74307418514E+02  0.23596574923E+03  0.39898182111E+03  0.46945492971E+03  0.10100000352E+00 0.  1.
</event>
<event>
 5   0  0.4451135E-02  0.5001590E+03  0.7818609E-02  0.1013737E+00
       -2   -1    0    0    0  501  0.00000000000E+00  0.00000000000E+00  0.10147510078E+03  0.10147510081E+03  0.25500000920E-02 0.  1.
        2   -1    0    0  501    0  0.00000000000E+00  0.00000000000E+00 -0.61630641566E+03  0.61630641566E+03  0.25500000920E-02 0. -1.
    10030    2    1    2    0    0  0.00000000000E+00  0.00000000000E+00 -0.51483131488E+03  0.71778151647E+03  0.50015899733E+03 0.  0.
        1    1    3    3  502    0  0.11963358701E+03 -0.42115590654E+02  0.51895070599E+02  0.13703655168E+03  0.50400001928E-02 0.  1.
       -1    1    3    3    0  502 -0.11963358701E+03  0.42115590654E+02 -0.56672638547E+03  0.58074496480E+03  0.50400001928E-02 0. -1.
</event>
<event>
 5   0  0.2723308E-02  0.4964833E+03  0.7818609E-02  0.1014701E+00
        1   -1    0    0  501    0  0.00000000000E+00  0.00000000000E+00  0.27268498330E+03  0.27268498335E+03  0.50400001928E-02 0.  1.
       -1   -1    0    0    0  501  0.00000000000E+00  0.00000000000E+00 -0.22598940903E+03  0.22598940909E+03  0.50400001928E-02 0. -1.
    10030    2    1    2    0    0  0.00000000000E+00  0.00000000000E+00  0.46695574271E+02  0.49867439244E+03  0.49648330588E+03 0.  0.
        4    1    3    3  502    0  0.44101536522E+02 -0.99534115563E+02  0.24742496816E+03  0.27031965052E+03  0.12699999809E+01 0.  1.
       -4    1    3    3    0  502 -0.44101536522E+02  0.99534115563E+02 -0.20072939389E+03  0.22835474192E+03  0.12699999809E+01 0. -1.
</event>
<event>
 5   0  0.4534223E-02  0.4997370E+03  0.7818609E-02  0.1013848E+00
       -2   -1    0    0    0  501  0.00000000000E+00  0.00000000000E+00  0.41990510725E+03  0.41990510725E+03  0.25500000920E-02 0.  1.
        2   -1    0    0  501    0  0.00000000000E+00  0.00000000000E+00 -0.14868662318E+03  0.14868662320E+03  0.25500000920E-02 0. -1.
    10030    2    1    2    0    0  0.00000000000E+00  0.00000000000E+00  0.27121848407E+03  0.56859173045E+03  0.49973702068E+03 0.  0.
        2    1    3    3  502    0 -0.77915551088E+02 -0.23258633264E+03  0.81435561693E+02  0.25845499792E+03  0.25500000920E-02 0. -1.
       -2    1    3    3    0  502  0.77915551088E+02  0.23258633264E+03  0.18978292238E+03  0.31013673253E+03  0.25500000920E-02 0.  1.
</event>
<event>
 5   0  0.2779445E-02  0.5041851E+03  0.7818609E-02  0.1012692E+00
        1   -1    0    0  501    0  0.00000000000E+00  0.00000000000E+00  0.13368161218E+04  0.13368161218E+04  0.50400001928E-02 0. -1.
       -1   -1    0    0    0  501  0.00000000000E+00  0.00000000000E+00 -0.47538811226E+02  0.47538811493E+02  0.50400001928E-02 0.  1.
    10030    2    1    2    0    0  0.00000000000E+00  0.00000000000E+00  0.12892773106E+04  0.13843549333E+04  0.50418508288E+03 0.  0.
        3    1    3    3  502    0 -0.16815392530E+03 -0.17668742200E+03  0.46976249554E+03  0.52931181746E+03  0.10100000352E+00 0. -1.
       -3    1    3    3    0  502  0.16815392530E+03  0.17668742200E+03  0.81951481505E+03  0.85504311585E+03  0.10100000352E+00 0.  1.
</event>
<event>
 5   0  0.4409622E-02  0.4994579E+03  0.7818609E-02  0.1013921E+00
        2   -1    0    0  501    0  0.00000000000E+00  0.00000000000E+00  0.57954421263E+03  0.57954421264E+03  0.25500000920E-02 0. -1.
       -2   -1    0    0    0  501  0.00000000000E+00  0.00000000000E+00 -0.10760965117E+03  0.10760965120E+03  0.25500000920E-02 0.  1.
    10030    2    1    2    0    0  0.00000000000E+00  0.00000000000E+00  0.47193456146E+03  0.68715386384E+03  0.49945790842E+03 0.  0.
        3    1    3    3  502    0 -0.54122238041E+02 -0.17869594501E+02  0.57047613960E+03  0.57331629587E+03  0.10100000352E+00 0. -1.
       -3    1    3    3    0  502  0.54122238041E+02  0.17869594501E+02 -0.98541578137E+02  0.11383756797E+03  0.10100000352E+00 0.  1.
</event>
<event>
 5   0  0.2719671E-02  0.5010761E+03  0.7818609E-02  0.1013498E+00
       -1   -1    0    0    0  501  0.00000000000E+00  0.00000000000E+00  0.15097207862E+03  0.15097207871E+03  0.50400001928E-02 0. -1.
        1   -1    0    0  501    0  0.00000000000E+00  0.00000000000E+00 -0.41576775944E+03  0.41576775948E+03  0.50400001928E-02 0.  1.
    10030    2    1    2    0    0  0.00000000000E+00  0.00000000000E+00 -0.26479568082E+03  0.56673983818E+03  0.50107613354E+03 0.  0.
        2    1    3    3  502    0  0.21185330143E+02 -0.69830093585E+02 -0.40348150884E+03  0.41002730173E+03  0.25500000920E-02 0.  1.
       -2    1    3    3    0  502 -0.21185330143E+02  0.69830093585E+02  0.13868582801E+03  0.15671253645E+03  0.25500000920E-02 0. -1.
</event>
<event>
 5   0  0.4534223E-02  0.4822033E+03  0.7818609E-02  0.1018531E+00
       -2   -1    0    0    0  501  0.00000000000E+00  0.00000000000E+00  0.20204309151E+03  0.20204309153E+03  0.25500000920E-02 0. -1.
        2   -1    0    0  501    0  0.00000000000E+00  0.00000000000E+00 -0.28771094611E+03  0.28771094613E+03  0.25500000920E-02 0.  1.
    10030    2    1    2    0    0  0.00000000000E+00  0.00000000000E+00 -0.85667854602E+02  0.48975403765E+03  0.48220331406E+03 0.  0.
        2    1    3    3  502    0  0.10595125507E+03 -0.21071340429E+03  0.79916707260E+01  0.23598659709E+03  0.25500000920E-02 0.  1.
       -2    1    3    3    0  502 -0.10595125507E+03  0.21071340429E+03 -0.93659525328E+02  0.25376744056E+03  0.25500000920E-02 0. -1.
</event>
<event>
 5   0  0.4451135E-02  0.4980867E+03  0.7818609E-02  0.1014280E+00
       -2   -1    0    0    0  501  0.00000000000E+00  0.00000000000E+00  0.22348025056E+03  0.22348025058E+03  0.25500000920E-02 0. -1.
        2   -1    0    0  501    0  0.00000000000E+00  0.00000000000E+00 -0.27753048979E+03  0.27753048980E+03  0.25500000920E-02 0.  1.
    10030    2    1    2    0    0  0.00000000000E+00  0.00000000000E+00 -0.54050239227E+02  0.50101074038E+03  0.49808667280E+03 0.  0.
        1    1    3    3  502    0 -0.16921113320E+03 -0.11536744313E+03 -0.16956280025E+03  0.26588267674E+03  0.50400001928E-02 0.  1.
       -1    1    3    3    0  502  0.16921113320E+03  0.11536744313E+03  0.11551256102E+03  0.23512806365E+03  0.50400001928E-02 0. -1.
</event>
<event>
 5   0  0.2643185E-02  0.4997889E+03  0.7818609E-02  0.1013834E+00
        1   -1    0    0  501    0  0.00000000000E+00  0.00000000000E+00  0.10294067138E+03  0.10294067151E+03  0.50400001928E-02 0. -1.
       -1   -1    0    0    0  501  0.00000000000E+00  0.00000000000E+00 -0.60663327203E+03  0.60663327205E+03  0.50400001928E-02 0.  1.
    10030    2    1    2    0    0  0.00000000000E+00  0.00000000000E+00 -0.50369260065E+03  0.70957394356E+03  0.49978890087E+03 0.  0.
        1    1    3    3  502    0 -0.57187844347E+02 -0.11367951238E+03  0.53494297157E+02  0.13804028734E+03  0.50400001928E-02 0. -1.
       -1    1    3    3    0  502  0.57187844347E+02  0.11367951238E+03 -0.55718689780E+03  0.57153365622E+03  0.50400001928E-02 0.  1.
</event>
<event>
 5   0  0.2719671E-02  0.5006894E+03  0.7818609E-02  0.1013599E+00
        1   -1    0    0  501    0  0.00000000000E+00  0.00000000000E+00  0.58575680017E+03  0.58575680019E+03  0.50400001928E-02 0. -1.
       -1   -1    0    0    0  501  0.00000000000E+00  0.00000000000E+00 -0.10699402495E+03  0.10699402507E+03  0.50400001928E-02 0.  1.
    10030    2    1    2    0    0  0.00000000000E+00  0.00000000000E+00  0.47876277522E+03  0.69275082527E+03  0.50068943565E+03 0.  0.
        2    1    3    3  502    0 -0.18625919289E+01  0.10882263336E+03  0.55130937045E+03  0.56195004825E+03  0.25500000920E-02 0. -1.
       -2    1    3    3    0  502  0.18625919289E+01 -0.10882263336E+03 -0.72546595231E+02  0.13080077701E+03  0.25500000920E-02 0.  1.
</event>
<event>
 5   0  0.4534223E-02  0.4983899E+03  0.7818609E-02  0.1014200E+00
        2   -1    0    0  501    0  0.00000000000E+00  0.00000000000E+00  0.28968852154E+03  0.28968852156E+03  0.25500000920E-02 0. -1.
       -2   -1    0    0    0  501  0.00000000000E+00  0.00000000000E+00 -0.21436172338E+03  0.21436172339E+03  0.25500000920E-02 0.  1.
    10030    2    1    2    0    0  0.00000000000E+00  0.00000000000E+00  0.75326798164E+02  0.50405024495E+03  0.49838993059E+03 0.  0.
        2    1    3    3  502    0 -0.13210728296E+02 -0.16870543802E+03  0.22266737164E+03  0.27967267754E+03  0.25500000920E-02 0. -1.
       -2    1    3    3    0  502  0.13210728296E+02  0.16870543802E+03 -0.14734057348E+03  0.22437756741E+03  0.25500000920E-02 0.  1.
</event>
<event>
 5   0  0.4519539E-02  0.5012565E+03  0.7818609E-02  0.1013451E+00
        2   -1    0    0  501    0  0.00000000000E+00  0.00000000000E+00  0.86443024853E+03  0.86443024853E+03  0.25500000920E-02 0.  1.
       -2   -1    0    0    0  501  0.00000000000E+00  0.00000000000E+00 -0.72665816692E+02  0.72665816737E+02  0.25500000920E-02 0. -1.
    10030    2    1    2    0    0  0.00000000000E+00  0.00000000000E+00  0.79176443183E+03  0.93709606527E+03  0.50125654113E+03 0.  0.
        4    1    3    3  502    0 -0.16895227012E+03  0.10911342051E+03  0.67544694825E+03  0.70475584490E+03  0.12699999809E+01 0.  1.
       -4    1    3    3    0  502  0.16895227012E+03 -0.10911342051E+03  0.11631748358E+03  0.23234022037E+03  0.12699999809E+01 0. -1.
</event>
<event>
 5   0  0.4409622E-02  0.4989765E+03  0.7818609E-02  0.1014046E+00
        2   -1    0    0  501    0  0.00000000000E+00  0.00000000000E+00  0.14449355327E+04  0.14449355327E+04  0.25500000920E-02 0. -1.
       -2   -1    0    0    0  501  0.00000000000E+00  0.00000000000E+00 -0.43077621544E+02  0.43077621620E+02  0.25500000920E-02 0.  1.
    10030    2    1    2    0    0  0.00000000000E+00  0.00000000000E+00  0.14018579111E+04  0.14880131543E+04  0.49897649681E+03 0.  0.
        3    1    3    3  502    0 -0.88559610661E+02 -0.22196742144E+03  0.48729440637E+03  0.54274136520E+03  0.10100000352E+00 0.  1.
       -3    1    3    3    0  502  0.88559610661E+02  0.22196742144E+03  0.91456350478E+03  0.94527178911E+03  0.10100000352E+00 0. -1.
</event>
<event>
 5   0  0.4631619E-02  0.4999507E+03  0.7818609E-02  0.1013792E+00
       -2   -1    0    0    0  501  0.00000000000E+00  0.00000000000E+00  0.92364536336E+03  0.92364536336E+03  0.25500000920E-02 0.  1.
        2   -1    0    0  501    0  0.00000000000E+00  0.00000000000E+00 -0.67653307633E+02  0.67653307681E+02  0.25500000920E-02 0. -1.
    10030    2    1    2    0    0  0.00000000000E+00  0.00000000000E+00  0.85599205572E+03  0.99129867104E+03  0.49995065331E+03 0.  0.
        5    1    3    3  502    0 -0.13508340778E+03  0.16339970350E+03  0.16555793028E+03  0.26903254160E+03  0.46999998093E+01 0. -1.
       -5    1    3    3    0  502  0.13508340778E+03 -0.16339970350E+03  0.69043412544E+03  0.72226612944E+03  0.46999998093E+01 0.  1.
</event>
<event>
 5   0  0.2723308E-02  0.5002183E+03  0.7818609E-02  0.1013722E+00
       -1   -1    0    0    0  501  0.00000000000E+00  0.00000000000E+00  0.56855194660E+02  0.56855194884E+02  0.50400001928E-02 0. -1.
        1   -1    0    0  501    0  0.00000000000E+00  0.00000000000E+00 -0.11002440545E+04  0.11002440545E+04  0.50400001928E-02 0.  1.
    10030    2    1    2    0    0  0.00000000000E+00  0.00000000000E+00 -0.10433888598E+04  0.11570992494E+04  0.50021831245E+03 0.  0.
        4    1    3    3  502    0  0.70337166992E+02 -0.41976186051E+01 -0.10768020310E+04  0.10791057242E+04  0.12699999809E+01 0.  1.
       -4    1    3    3    0  502 -0.70337166992E+02  0.41976186051E+01  0.33413171197E+02  0.77993525192E+02  0.12699999809E+01 0. -1.
</event>
<event>
 5   0  0.2779445E-02  0.5000394E+03  0.7818609E-02  0.1013769E+00
       -1   -1    0    0    0  501  0.00000000000E+00  0.00000000000E+00  0.75127514456E+02  0.75127514626E+02  0.50400001928E-02 0.  1.
        1   -1    0    0  501    0  0.00000000000E+00  0.00000000000E+00 -0.83204996599E+03  0.83204996600E+03  0.50400001928E-02 0. -1.
    10030    2    1    2    0    0  0.00000000000E+00  0.00000000000E+00 -0.75692245153E+03  0.90717748063E+03  0.50003938218E+03 0.  0.
        3    1    3    3  502    0  0.17994786782E+03 -0.17040064502E+03 -0.31850376007E+03  0.40356197831E+03  0.10100000352E+00 0. -1.
       -3    1    3    3    0  502 -0.17994786782E+03  0.17040064502E+03 -0.43841869146E+03  0.50361550232E+03  0.10100000352E+00 0.  1.
</event>
<event>
 5   0  0.2723308E-02  0.4965090E+03  0.7818609E-02  0.1014694E+00
       -1   -1    0    0    0  501  0.00000000000E+00  0.00000000000E+00  0.29084457866E+03  0.29084457871E+03  0.50400001928E-02 0. -1.
        1   -1    0    0  501    0  0.00000000000E+00  0.00000000000E+00 -0.21190110591E+03  0.21190110597E+03  0.50400001928E-02 0.  1.
    10030    2    1    2    0    0  0.00000000000E+00  0.00000000000E+00  0.78943472755E+02  0.50274568467E+03  0.49650896423E+03 0.  0.
        4    1    3    3  502    0 -0.95386251295E+01  0.89483573202E+02  0.27374429448E+03  0.28815941231E+03  0.12699999809E+01 0. -1.
       -4    1    3    3    0  502  0.95386251295E+01 -0.89483573202E+02 -0.19480082172E+03  0.21458627236E+03  0.12699999809E+01 0.  1.
</event>
<event>
 5   0  0.4519539E-02  0.4996821E+03  0.7818609E-02  0.1013862E+00
       -2   -1    0    0    0  501  0.00000000000E+00  0.00000000000E+00  0.64125701560E+02  0.64125701611E+02  0.25500000920E-02 0.  1.
        2   -1    0    0  501    0  0.00000000000E+00  0.00000000000E+00 -0.97340905548E+03  0.97340905548E+03  0.25500000920E-02 0. -1.
    10030    2    1    2    0    0  0.00000000000E+00  0.00000000000E+00 -0.90928335391E+03  0.10375347571E+04  0.49968205337E+03 0.  0.
        4    1    3    3  502    0 -0.19785854489E+03  0.20769113808E+01 -0.77136164334E+03  0.79633706122E+03  0.12699999809E+01 0. -1.
       -4    1    3    3    0  502  0.19785854489E+03 -0.20769113808E+01 -0.13792171057E+03  0.24119769587E+03  0.12699999809E+01 0.  1.
</event>
<event>
 5   0  0.4519539E-02  0.5000082E+03  0.7818609E-02  0.1013777E+00
       -2   -1    0    0    0  501  0.00000000000E+00  0.00000000000E+00  0.34266812949E+02  0.34266813044E+02  0.25500000920E-02 0.  1.
        2   -1    0    0  501    0  0.00000000000E+00  0.00000000000E+00 -0.18239818380E+04  0.18239818380E+04  0.25500000920E-02 0. -1.
    10030    2    1    2    0    0  0.00000000000E+00  0.00000000000E+00 -0.17897150250E+04  0.18582486510E+04  0.50000817815E+03 0.  0.
        4    1    3    3  502    0  0.18491259509E+03  0.31826614516E+02 -0.28085956575E+03  0.33777109081E+03  0.12699999809E+01 0.  1.
       -4    1    3    3    0  502 -0.18491259509E+03 -0.31826614516E+02 -0.15088554593E+04  0.15204775602E+04  0.12699999809E+01 0. -1.
</event>
<event>
 5   0  0.2715483E-02  0.4996076E+03  0.7818609E-02  0.1013881E+00
        1   -1    0    0  501    0  0.00000000000E+00  0.00000000000E+00  0.24160941588E+03  0.24160941593E+03  0.50400001928E-02 0.  1.
       -1   -1    0    0    0  501  0.00000000000E+00  0.00000000000E+00 -0.25827605249E+03  0.25827605254E+03  0.50400001928E-02 0. -1.
    10030    2    1    2    0    0  0.00000000000E+00  0.00000000000E+00 -0.16666636613E+02  0.49988546847E+03  0.49960755080E+03 0.  0.
        5    1    3    3  502    0 -0.15331879887E+03 -0.19552467031E+03 -0.33710498979E+02  0.25078883254E+03  0.46999998093E+01 0. -1.
       -5    1    3    3    0  502  0.15331879887E+03  0.19552467031E+03  0.17043862366E+02  0.24909663593E+03  0.46999998093E+01 0.  1.
</event>
<event>
 5   0  0.4534223E-02  0.4979849E+03  0.7818609E-02  0.1014306E+00
        2   -1    0    0  501    0  0.00000000000E+00  0.00000000000E+00  0.74460266218E+02  0.74460266261E+02  0.25500000920E-02 0. -1.
       -2   -1    0    0    0  501  0.00000000000E+00  0.00000000000E+00 -0.83262172329E+03  0.83262172329E+03  0.25500000920E-02 0.  1.
    10030    2    1    2    0    0  0.00000000000E+00  0.00000000000E+00 -0.75816145707E+03  0.90708198955E+03  0.49798488008E+03 0.  0.
        2    1    3    3  502    0 -0.16860550783E+03  0.18157842022E+03 -0.42364976915E+03  0.49079289610E+03  0.25500000920E-02 0.  1.
       -2    1    3    3    0  502  0.16860550783E+03 -0.18157842022E+03 -0.33451168792E+03  0.41628909345E+03  0.25500000920E-02 0. -1.
</event>
<event>
 5   0  0.2719671E-02  0.5012085E+03  0.7818609E-02  0.1013464E+00
        1   -1    0    0  501    0  0.00000000000E+00  0.00000000000E+00  0.45845019743E+03  0.45845019745E+03  0.50400001928E-02 0. -1.
       -1   -1    0    0    0  501  0.00000000000E+00  0.00000000000E+00 -0.13698868498E+03  0.13698868507E+03  0.50400001928E-02 0.  1.
    10030    2    1    2    0    0  0.00000000000E+00  0.00000000000E+00  0.32146151245E+03  0.59543888253E+03  0.50120849837E+03 0.  0.
        2    1    3    3  502    0  0.12850157636E+03  0.15136656545E+03 -0.20913813086E+02  0.19965440102E+03  0.25500000920E-02 0.  1.
       -2    1    3    3    0  502 -0.12850157636E+03 -0.15136656545E+03  0.34237532553E+03  0.39578448151E+03  0.25500000920E-02 0. -1.
</event>
<event>
 5   0  0.2779445E-02  0.5118857E+03  0.7818609E-02  0.1010722E+00
        1   -1    0    0  501    0  0.00000000000E+00  0.00000000000E+00  0.10454393865E+04  0.10454393865E+04  0.50400001928E-02 0. -1.
       -1   -1    0    0    0  501  0.00000000000E+00  0.00000000000E+00 -0.62659526370E+02  0.62659526573E+02  0.50400001928E-02 0.  1.
    10030    2    1    2    0    0  0.00000000000E+00  0.00000000000E+00  0.98277986010E+03  0.11080989131E+04  0.51188567835E+03 0.  0.
        3    1    3    3  502    0  0.19530863029E+03 -0.16535662846E+03  0.50068850580E+03  0.56229642155E+03  0.10100000352E+00 0.  1.
       -3    1    3    3    0  502 -0.19530863029E+03  0.16535662846E+03  0.48209135430E+03  0.54580249151E+03  0.10100000352E+00 0. -1.
</event>
<event>
 5   0  0.4631619E-02  0.5007444E+03  0.7818609E-02  0.1013585E+00
        2   -1    0    0  501    0  0.00000000000E+00  0.00000000000E+00  0.84259673880E+03  0.84259673881E+03  0.25500000920E-02 0. -1.
       -2   -1    0    0    0  501  0.00000000000E+00  0.00000000000E+00 -0.74396497768E+02  0.74396497812E+02  0.25500000920E-02 0.  1.
    10030    2    1    2    0    0  0.00000000000E+00  0.00000000000E+00  0.76820024103E+03  0.91699323662E+03  0.50074443150E+03 0.  0.
        5    1    3    3  502    0 -0.58645315945E+01 -0.14043888447E+02 -0.73467707621E+02  0.75174580776E+02  0.46999998093E+01 0.  1.
       -5    1    3    3    0  502  0.58645315945E+01  0.14043888447E+02  0.84166794865E+03  0.84181865584E+03  0.46999998093E+01 0. -1.
</event>
<event>
 5   0  0.4451135E-02  0.5054827E+03  0.7818609E-02  0.1012358E+00
        2   -1    0    0  501    0  0.00000000000E+00  0.00000000000E+00  0.14854242292E+03  0.14854242294E+03  0.25500000920E-02 0.  1.
       -2   -1    0    0    0  501  0.00000000000E+00  0.00000000000E+00 -0.43003338839E+03  0.43003338840E+03  0.25500000920E-02 0. -1.
    10030    2    1    2    0    0  0.00000000000E+00  0.00000000000E+00 -0.28149096548E+03  0.57857581134E+03  0.50548274533E+03 0.  0.
        1    1    3    3  502    0 -0.69668411185E+02 -0.61598493528E+01  0.13724537256E+03  0.15403870804E+03  0.50400001928E-02 0.  1.
       -1    1    3    3    0  502  0.69668411185E+02  0.61598493528E+01 -0.41873633804E+03  0.42453710330E+03  0.50400001928E-02 0. -1.
</event>
<event>
 5   0  0.2723308E-02  0.5020842E+03  0.7818609E-02  0.1013236E+00
       -1   -1    0    0    0  501  0.00000000000E+00  0.00000000000E+00  0.33727697178E+03  0.33727697182E+03  0.50400001928E-02 0.  1.
        1   -1    0    0  501    0  0.00000000000E+00  0.00000000000E+00 -0.18685570234E+03  0.18685570240E+03  0.50400001928E-02 0. -1.
    10030    2    1    2    0    0  0.00000000000E+00  0.00000000000E+00  0.15042126944E+03  0.52413267422E+03  0.50208415817E+03 0.  0.
        4    1    3    3  502    0 -0.13494663651E+03 -0.56893503181E+02  0.28805915956E+03  0.32315191120E+03  0.12699999809E+01 0.  1.
       -4    1    3    3    0  502  0.13494663651E+03  0.56893503181E+02 -0.13763789011E+03  0.20098076302E+03  0.12699999809E+01 0. -1.
</event>
<event>
 5   0  0.2723308E-02  0.4930473E+03  0.7818609E-02  0.1015610E+00
        1   -1    0    0  501    0  0.00000000000E+00  0.00000000000E+00  0.23689812129E+03  0.23689812134E+03  0.50400001928E-02 0. -1.
       -1   -1    0    0    0  501  0.00000000000E+00  0.00000000000E+00 -0.25654031712E+03  0.25654031717E+03  0.50400001928E-02 0.  1.
    10030    2    1    2    0    0  0.00000000000E+00  0.00000000000E+00 -0.19642195829E+02  0.49343843851E+03  0.49304733722E+03 0.  0.
        4    1    3    3  502    0  0.23291567755E+03  0.53480947439E+02 -0.70386717238E+02  0.24913014160E+03  0.12699999809E+01 0. -1.
       -4    1    3    3    0  502 -0.23291567755E+03 -0.53480947439E+02  0.50744521410E+02  0.24430829691E+03  0.12699999809E+01 0.  1.
</event>
<event>
 5   0  0.2779445E-02  0.4986062E+03  0.7818609E-02  0.1014143E+00
        1   -1    0    0  501    0  0.00000000000E+00  0.00000000000E+00  0.48726635488E+03  0.48726635490E+03  0.50400001928E-02 0. -1.
       -1   -1    0    0    0  501  0.00000000000E+00  0.00000000000E+00 -0.12755246840E+03  0.12755246850E+03  0.50400001928E-02 0.  1.
    10030    2    1    2    0    0  0.00000000000E+00  0.00000000000E+00  0.35971388647E+03  0.61481882340E+03  0.49860616271E+03 0.  0.
        3    1    3    3  502    0  0.12957372172E+03  0.99009561855E+02  0.41238159697E+03  0.44345330579E+03  0.10100000352E+00 0. -1.
       -3    1    3    3    0  502 -0.12957372172E+03 -0.99009561855E+02 -0.52667710491E+02  0.17136551762E+03  0.10100000352E+00 0.  1.
</event>
<event>
 5   0  0.4519539E-02  0.4951239E+03  0.7818609E-02  0.1015060E+00
       -2   -1    0    0    0  501  0.00000000000E+00  0.00000000000E+00  0.10792285322E+03  0.10792285325E+03  0.25500000920E-02 0.  1.
        2   -1    0    0  501    0  0.00000000000E+00  0.00000000000E+00 -0.56787705845E+03  0.56787705846E+03  0.25500000920E-02 0. -1.
    10030    2    1    2    0    0  0.00000000000E+00  0.00000000000E+00 -0.45995420524E+03  0.67579991170E+03  0.49512387313E+03 0.  0.
        4    1    3    3  502    0 -0.24093461582E+02 -0.71377195830E+02  0.91893344958E+02  0.11883265007E+03  0.12699999809E+01 0.  1.
       -4    1    3    3    0  502  0.24093461582E+02  0.71377195830E+02 -0.55184755019E+03  0.55696726163E+03  0.12699999809E+01 0. -1.
</event>
<event>
 5   0  0.2715483E-02  0.4974749E+03  0.7818609E-02  0.1014440E+00
        1   -1    0    0  501    0  0.00000000000E+00  0.00000000000E+00  0.48470073856E+03  0.48470073859E+03  0.50400001928E-02 0.  1.
       -1   -1    0    0    0  501  0.00000000000E+00  0.00000000000E+00 -0.12764642947E+03  0.12764642957E+03  0.50400001928E-02 0. -1.
    10030    2    1    2    0    0  0.00000000000E+00  0.00000000000E+00  0.35705430909E+03  0.61234716816E+03  0.49747489858E+03 0.  0.
        5    1    3    3  502    0 -0.67133982677E+02  0.42927573867E+02  0.46850651505E+03  0.47525802767E+03  0.46999998093E+01 0.  1.
       -5    1    3    3    0  502  0.67133982677E+02 -0.42927573867E+02 -0.11145220596E+03  0.13708914049E+03  0.46999998093E+01 0. -1.
</event>
<event>
 5   0  0.4409622E-02  0.5021198E+03  0.7818609E-02  0.1013227E+00
        2   -1    0    0  501    0  0.00000000000E+00  0.00000000000E+00  0.79739717563E+03  0.79739717563E+03  0.25500000920E-02 0.  1.
       -2   -1    0    0    0  501  0.00000000000E+00  0.00000000000E+00 -0.79046028466E+02  0.79046028507E+02  0.25500000920E-02 0. -1.
    10030    2    1    2    0    0  0.00000000000E+00  0.00000000000E+00  0.71835114716E+03  0.87644320414E+03  0.50211982579E+03 0.  0.
        3    1    3    3  502    0  0.53469961523E+02 -0.24376978677E+03  0.31142690936E+03  0.39908580005E+03  0.10100000352E+00 0. -1.
       -3    1    3    3    0  502 -0.53469961523E+02  0.24376978677E+03  0.40692423780E+03  0.47735740409E+03  0.10100000352E+00 0.  1.
</event>
<event>
 5   0  0.4409622E-02  0.4955773E+03  0.7818609E-02  0.1014940E+00
        2   -1    0    0  501    0  0.00000000000E+00  0.00000000000E+00  0.16219031328E+04  0.16219031328E+04  0.25500000920E-02 0. -1.
       -2   -1    0    0    0  501  0.00000000000E+00  0.00000000000E+00 -0.37856273894E+02  0.37856273980E+02  0.25500000920E-02 0.  1.
    10030    2    1    2    0    0  0.00000000000E+00  0.00000000000E+00  0.15840468589E+04  0.16597594068E+04  0.49557727671E+03 0.  0.
        3    1    3    3  502    0  0.45230276033E+02 -0.21173727064E+03  0.11956021599E+04  0.12150485524E+04  0.10100000352E+00 0. -1.
       -3    1    3    3    0  502 -0.45230276033E+02  0.21173727064E+03  0.38844469902E+03  0.44471085443E+03  0.10100000352E+00 0.  1.
</event>
<event>
 5   0  0.2715483E-02  0.5015307E+03  0.7818609E-02  0.1013380E+00
       -1   -1    0    0    0  501  0.00000000000E+00  0.00000000000E+00  0.73416530100E+02  0.73416530273E+02  0.50400001928E-02 0. -1.
        1   -1    0    0  501    0  0.00000000000E+00  0.00000000000E+00 -0.85652733873E+03  0.85652733875E+03  0.50400001928E-02 0.  1.
    10030    2    1    2    0    0  0.00000000000E+00  0.00000000000E+00 -0.78311080863E+03  0.92994386902E+03  0.50153071784E+03 0.  0.
        5    1    3    3  502    0 -0.25066843610E+03 -0.24386922976E+01 -0.39996362548E+03  0.47205254345E+03  0.46999998093E+01 0.  1.
       -5    1    3    3    0  502  0.25066843610E+03  0.24386922976E+01 -0.38314718315E+03  0.45789132557E+03  0.46999998093E+01 0. -1.
</event>
<event>
 5   0  0.1805500E-02  0.4683032E+03  0.7818609E-02  0.1022400E+00
       -3   -1    0    0    0  501  0.00000000000E+00  0.00000000000E+00  0.37130745777E+03  0.37130747150E+03  0.10100000352E+00 0.  1.
        3   -1    0    0  501    0  0.00000000000E+00  0.00000000000E+00 -0.14765916107E+03  0.14765919562E+03  0.10100000352E+00 0. -1.
    10030    2    1    2    0    0  0.00000000000E+00  0.00000000000E+00  0.22364829669E+03  0.51896666712E+03  0.46830315071E+03 0.  0.
        1    1    3    3  502    0  0.15702192023E+03 -0.11750176570E+03 -0.29938750398E+02  0.19839071847E+03  0.50400001928E-02 0. -1.
       -1    1    3    3    0  502 -0.15702192023E+03  0.11750176570E+03  0.25358704709E+03  0.32057594865E+03  0.50400001928E-02 0.  1.
</event>
<event>
 5   0  0.1805500E-02  0.4991840E+03  0.7818609E-02  0.1013992E+00
       -3   -1    0    0    0  501  0.00000000000E+00  0.00000000000E+00  0.12499523656E+03  0.12499527736E+03  0.10100000352E+00 0.  1.
        3   -1    0    0  501    0  0.00000000000E+00  0.00000000000E+00 -0.49838824782E+03  0.49838825805E+03  0.10100000352E+00 0. -1.
    10030    2    1    2    0    0  0.00000000000E+00  0.00000000000E+00 -0.37339301126E+03  0.62338353542E+03  0.49918402556E+03 0.  0.
        4    1    3    3  502    0 -0.58898126975E+02 -0.10282121622E+03 -0.46101713271E+03  0.47600378299E+03  0.12699999809E+01 0. -1.
       -4    1    3    3    0  502  0.58898126975E+02  0.10282121622E+03  0.87624121452E+02  0.14737975243E+03  0.12699999809E+01 0.  1.
</event>
<event>
 5   0  0.2715483E-02  0.4989970E+03  0.7818609E-02  0.1014041E+00
       -1   -1    0    0    0  501  0.00000000000E+00  0.00000000000E+00  0.57298937549E+02  0.57298937771E+02  0.50400001928E-02 0.  1.
        1   -1    0    0  501    0  0.00000000000E+00  0.00000000000E+00 -0.10863987764E+04  0.10863987765E+04  0.50400001928E-02 0. -1.
    10030    2    1    2    0    0  0.00000000000E+00  0.00000000000E+00 -0.10290998389E+04  0.11436977142E+04  0.49899697706E+03 0.  0.
        5    1    3    3  502    0  0.10149697284E+02  0.24501877244E+03 -0.61933664789E+03  0.66613601360E+03  0.46999998093E+01 0.  1.
       -5    1    3    3    0  502 -0.10149697284E+02 -0.24501877244E+03 -0.40976319101E+03  0.47756170063E+03  0.46999998093E+01 0. -1.
</event>
<event>
 5   0  0.4409622E-02  0.5029047E+03  0.7818609E-02  0.1013024E+00
       -2   -1    0    0    0  501  0.00000000000E+00  0.00000000000E+00  0.54809773787E+02  0.54809773846E+02  0.25500000920E-02 0. -1.
        2   -1    0    0  501    0  0.00000000000E+00  0.00000000000E+00 -0.11535951146E+04  0.11535951146E+04  0.25500000920E-02 0.  1.
    10030    2    1    2    0    0  0.00000000000E+00  0.00000000000E+00 -0.10987853409E+04  0.12084048885E+04  0.50290471190E+03 0.  0.
        3    1    3    3  502    0 -0.16911634053E+03  0.95035497289E+02 -0.16496514898E+03  0.25464797851E+03  0.10100000352E+00 0. -1.
       -3    1    3    3    0  502  0.16911634053E+03 -0.95035497289E+02 -0.93382019187E+03  0.95375690997E+03  0.10100000352E+00 0.  1.
</event>
<event>
 5   0  0.2715483E-02  0.4987064E+03  0.7818609E-02  0.1014117E+00
        1   -1    0    0  501    0  0.00000000000E+00  0.00000000000E+00  0.10736478734E+03  0.10736478746E+03  0.50400001928E-02 0. -1.
       -1   -1    0    0    0  501  0.00000000000E+00  0.00000000000E+00 -0.57911937614E+03  0.57911937616E+03  0.50400001928E-02 0.  1.
    10030    2    1    2    0    0  0.00000000000E+00  0.00000000000E+00 -0.47175458880E+03  0.68648416363E+03  0.49870644156E+03 0.  0.
        5    1    3    3  502    0  0.95250074499E+02 -0.10693726097E+02  0.80927947040E+02  0.12553228700E+03  0.46999998093E+01 0. -1.
       -5    1    3    3    0  502 -0.95250074499E+02  0.10693726097E+02 -0.55268253584E+03  0.56095187662E+03  0.46999998093E+01 0.  1.
</event>
<event>
 5   0  0.4534223E-02  0.5040250E+03  0.7818609E-02  0.1012734E+00
        2   -1    0    0  501    0  0.00000000000E+00  0.00000000000E+00  0.60186594471E+03  0.60186594472E+03  0.25500000920E-02 0.  1.
       -2   -1    0    0    0  501  0.00000000000E+00  0.00000000000E+00 -0.10552233867E+03  0.10552233870E+03  0.25500000920E-02 0. -1.
    10030    2    1    2    0    0  0.00000000000E+00  0.00000000000E+00  0.49634360604E+03  0.70738828341E+03  0.50402500756E+03 0.  0.
        2    1    3    3  502    0  0.31295898891E+02 -0.42551845219E+02  0.59400956107E+03  0.59635346186E+03  0.25500000920E-02 0.  1.
       -2    1    3    3    0  502 -0.31295898891E+02  0.42551845219E+02 -0.97665955030E+02  0.11103482155E+03  0.25500000920E-02 0. -1.
</event>
<event>
 5   0  0.4451135E-02  0.4996163E+03  0.7818609E-02  0.1013879E+00
        2   -1    0    0  501    0  0.00000000000E+00  0.00000000000E+00  0.12189879433E+04  0.12189879433E+04  0.25500000920E-02 0. -1.
       -2   -1    0    0    0  501  0.00000000000E+00  0.00000000000E+00 -0.51193376516E+02  0.51193376579E+02  0.25500000920E-02 0.  1.
    10030    2    1    2    0    0  0.00000000000E+00  0.00000000000E+00  0.11677945668E+04  0.12701813199E+04  0.49961628793E+03 0.  0.
        1    1    3    3  502    0  0.24632378763E+02  0.88298777089E+02 -0.68867507628E+01  0.91928534637E+02  0.50400001928E-02 0.  1.
       -1    1    3    3    0  502 -0.24632378763E+02 -0.88298777089E+02  0.11746813176E+04  0.11782527852E+04  0.50400001928E-02 0. -1.
</event>
<event>
 5   0  0.2643185E-02  0.5001975E+03  0.7818609E-02  0.1013727E+00
        1   -1    0    0  501    0  0.00000000000E+00  0.00000000000E+00  0.59551074148E+03  0.59551074150E+03  0.50400001928E-02 0. -1.
       -1   -1    0    0    0  501  0.00000000000E+00  0.00000000000E+00 -0.10503484049E+03  0.10503484061E+03  0.50400001928E-02 0.  1.
    10030    2    1    2    0    0  0.00000000000E+00  0.00000000000E+00  0.49047590098E+03  0.70054558211E+03  0.50019746418E+03 0.  0.
        1    1    3    3  502    0  0.15668858789E+03 -0.18195234299E+03  0.34318961411E+03  0.41885209794E+03  0.50400001928E-02 0. -1.
       -1    1    3    3    0  502 -0.15668858789E+03  0.18195234299E+03  0.14728628687E+03  0.28169348417E+03  0.50400001928E-02 0.  1.
</event>
<event>
 5   0  0.4519539E-02  0.5007749E+03  0.7818609E-02  0.1013577E+00
        2   -1    0    0  501    0  0.00000000000E+00  0.00000000000E+00  0.81863710988E+03  0.81863710988E+03  0.25500000920E-02 0.  1.
       -2   -1    0    0    0  501  0.00000000000E+00  0.00000000000E+00 -0.76583241045E+02  0.76583241088E+02  0.25500000920E-02 0. -1.
    10030    2    1    2    0    0  0.00000000000E+00  0.00000000000E+00  0.74205386884E+03  0.89522035097E+03  0.50077493202E+03 0.  0.
        4    1    3    3  502    0  0.36906375160E+02 -0.16193501976E+03  0.36072521254E+02  0.16996432226E+03  0.12699999809E+01 0. -1.
       -4    1    3    3    0  502 -0.36906375160E+02  0.16193501976E+03  0.70598134758E+03  0.72525602871E+03  0.12699999809E+01 0.  1.
</event>
<event>
 5   0  0.4519539E-02  0.4995101E+03  0.7818609E-02  0.1013907E+00
        2   -1    0    0  501    0  0.00000000000E+00  0.00000000000E+00  0.10586664006E+04  0.10586664006E+04  0.25500000920E-02 0. -1.
       -2   -1    0    0    0  501  0.00000000000E+00  0.00000000000E+00 -0.58920900696E+02  0.58920900751E+02  0.25500000920E-02 0.  1.
    10030    2    1    2    0    0  0.00000000000E+00  0.00000000000E+00  0.99974549990E+03  0.11175873014E+04  0.49951007154E+03 0.  0.
        4    1    3    3  502    0  0.18022546778E+03  0.93358980610E+02  0.82547572205E+03  0.85006405587E+03  0.12699999809E+01 0. -1.
       -4    1    3    3    0  502 -0.18022546778E+03 -0.93358980610E+02  0.17426977786E+03  0.26752324548E+03  0.12699999809E+01 0.  1.
</event>
<event>
 5   0  0.4631619E-02  0.4970881E+03  0.7818609E-02  0.1014542E+00
        2   -1    0    0  501    0  0.00000000000E+00  0.00000000000E+00  0.12859476585E+04  0.12859476585E+04  0.25500000920E-02 0. -1.
       -2   -1    0    0    0  501  0.00000000000E+00  0.00000000000E+00 -0.48037844976E+02  0.48037845043E+02  0.25500000920E-02 0.  1.
    10030    2    1    2    0    0  0.00000000000E+00  0.00000000000E+00  0.12379098136E+04  0.13339855036E+04  0.49708813832E+03 0.  0.
        5    1    3    3  502    0 -0.72463794865E+02  0.23904157263E+02 -0.15701657776E+02  0.78045130250E+02  0.46999998093E+01 0.  1.
       -5    1    3    3    0  502  0.72463794865E+02 -0.23904157263E+02  0.12536114713E+04  0.12559403733E+04  0.46999998093E+01 0. -1.
</event>
<event>
 5   0  0.1805500E-02  0.4992142E+03  0.7818609E-02  0.1013984E+00
       -3   -1    0    0    0  501  0.00000000000E+00  0.00000000000E+00  0.89658091466E+02  0.89658148355E+02  0.10100000352E+00 0.  1.
        3   -1    0    0  501    0  0.00000000000E+00  0.00000000000E+00 -0.69490301178E+03  0.69490301912E+03  0.10100000352E+00 0. -1.
    10030    2    1    2    0    0  0.00000000000E+00  0.00000000000E+00 -0.60524492031E+03  0.78456116747E+03  0.49921419445E+03 0.  0.
        3    1    3    3  502    0 -0.20689763070E+03 -0.81046459596E+02 -0.12392658248E+03  0.25442674043E+03  0.10100000352E+00 0.  1.
       -3    1    3    3    0  502  0.20689763070E+03  0.81046459596E+02 -0.48131833783E+03  0.53013442704E+03  0.10100000352E+00 0. -1.
</event>
<event>
 5   0  0.2723308E-02  0.5012761E+03  0.7818609E-02  0.1013446E+00
       -1   -1    0    0    0  501  0.00000000000E+00  0.00000000000E+00  0.41074079581E+02  0.41074079890E+02  0.50400001928E-02 0.  1.
        1   -1    0    0  501    0  0.00000000000E+00  0.00000000000E+00 -0.15294176364E+04  0.15294176365E+04  0.50400001928E-02 0. -1.
    10030    2    1    2    0    0  0.00000000000E+00  0.00000000000E+00 -0.14883435569E+04  0.15704917163E+04  0.50127605951E+03 0.  0.
        4    1    3    3  502    0 -0.19955953487E+03  0.13745960725E+03 -0.94474802479E+03  0.97533050543E+03  0.12699999809E+01 0.  1.
       -4    1    3    3    0  502  0.19955953487E+03 -0.13745960725E+03 -0.54359553207E+03  0.59516121091E+03  0.12699999809E+01 0. -1.
</event>
<event>
 5   0  0.2719671E-02  0.5031227E+03  0.7818609E-02  0.1012967E+00
       -1   -1    0    0    0  501  0.00000000000E+00  0.00000000000E+00  0.10794915713E+03  0.10794915725E+03  0.50400001928E-02 0.  1.
        1   -1    0    0  501    0  0.00000000000E+00  0.00000000000E+00 -0.58623067914E+03  0.58623067916E+03  0.50400001928E-02 0. -1.
    10030    2    1    2    0    0  0.00000000000E+00  0.00000000000E+00 -0.47828152200E+03  0.69417983640E+03  0.50312267985E+03 0.  0.
        2    1    3    3  502    0  0.22362024681E+03  0.59675760842E+02 -0.37514095886E+03  0.44079241172E+03  0.25500000920E-02 0. -1.
       -2    1    3    3    0  502 -0.22362024681E+03 -0.59675760842E+02 -0.10314056315E+03  0.25338742468E+03  0.25500000920E-02 0.  1.
</event>
<event>
 5   0  0.4409622E-02  0.5001145E+03  0.7818609E-02  0.1013749E+00
        2   -1    0    0  501    0  0.00000000000E+00  0.00000000000E+00  0.10216113396E+04  0.10216113396E+04  0.25500000920E-02 0.  1.
       -2   -1    0    0    0  501  0.00000000000E+00  0.00000000000E+00 -0.61205897835E+02  0.61205897888E+02  0.25500000920E-02 0. -1.
    10030    2    1    2    0    0  0.00000000000E+00  0.00000000000E+00  0.96040544177E+03  0.10828172375E+04  0.50011454412E+03 0.  0.
        3    1    3    3  502    0  0.22111527588E+03 -0.59181284979E+02  0.69816495734E+03  0.73473036387E+03  0.10100000352E+00 0. -1.
       -3    1    3    3    0  502 -0.22111527588E+03  0.59181284979E+02  0.26224048443E+03  0.34808687363E+03  0.10100000352E+00 0.  1.
</event>
<event>
 5   0  0.4451135E-02  0.5006349E+03  0.7818609E-02  0.1013613E+00
       -2   -1    0    0    0  501  0.00000000000E+00  0.00000000000E+00  0.89982531979E+02  0.89982532015E+02  0.25500000920E-02 0.  1.
        2   -1    0    0  501    0  0.00000000000E+00  0.00000000000E+00 -0.69634431194E+03  0.69634431195E+03  0.25500000920E-02 0. -1.
    10030    2    1    2    0    0  0.00000000000E+00  0.00000000000E+00 -0.60636177996E+03  0.78632684396E+03  0.50063489424E+03 0.  0.
        1    1    3    3  502    0  0.19479093440E+03  0.12617949656E+03 -0.45047197833E+03  0.50674429130E+03  0.50400001928E-02 0. -1.
       -1    1    3    3    0  502 -0.19479093440E+03 -0.12617949656E+03 -0.15588980163E+03  0.27958255266E+03  0.50400001928E-02 0.  1.
</event>
<event>
 5   0  0.4519539E-02  0.5002743E+03  0.7818609E-02  0.1013707E+00
        2   -1    0    0  501    0  0.00000000000E+00  0.00000000000E+00  0.11766145098E+04  0.11766145098E+04  0.25500000920E-02 0. -1.
       -2   -1    0    0    0  501  0.00000000000E+00  0.00000000000E+00 -0.53176805170E+02  0.53176805231E+02  0.25500000920E-02 0.  1.
    10030    2    1    2    0    0  0.00000000000E+00  0.00000000000E+00  0.11234377046E+04  0.12297913150E+04  0.50027432709E+03 0.  0.
        4    1    3    3  502    0  0.20559672151E+03  0.14240740426E+03  0.55155144561E+03  0.60560753854E+03  0.12699999809E+01 0. -1.
       -4    1    3    3    0  502 -0.20559672151E+03 -0.14240740426E+03  0.57188625901E+03  0.62418377649E+03  0.12699999809E+01 0.  1.
</event>
<event>
 5   0  0.2779445E-02  0.4990670E+03  0.7818609E-02  0.1014023E+00
        1   -1    0    0  501    0  0.00000000000E+00  0.00000000000E+00  0.60002989446E+03  0.60002989448E+03  0.50400001928E-02 0. -1.
       -1   -1    0    0    0  501  0.00000000000E+00  0.00000000000E+00 -0.10377312203E+03  0.10377312216E+03  0.50400001928E-02 0.  1.
    10030    2    1    2    0    0  0.00000000000E+00  0.00000000000E+00  0.49625677243E+03  0.70380301664E+03  0.49906703162E+03 0.  0.
        3    1    3    3  502    0  0.23429362399E+02  0.14164464381E+03 -0.39694219532E+02  0.14895563571E+03  0.10100000352E+00 0.  1.
       -3    1    3    3    0  502 -0.23429362399E+02 -0.14164464381E+03  0.53595099196E+03  0.55484738093E+03  0.10100000352E+00 0. -1.
</event>
<event>
 5   0  0.2643185E-02  0.5015248E+03  0.7818609E-02  0.1013382E+00
        1   -1    0    0  501    0  0.00000000000E+00  0.00000000000E+00  0.45291322344E+03  0.45291322347E+03  0.50400001928E-02 0. -1.
       -1   -1    0    0    0  501  0.00000000000E+00  0.00000000000E+00 -0.13883849455E+03  0.13883849464E+03  0.50400001928E-02 0.  1.
    10030    2    1    2    0    0  0.00000000000E+00  0.00000000000E+00  0.31407472890E+03  0.59175171811E+03  0.50152483543E+03 0.  0.
        1    1    3    3  502    0 -0.24151173162E+03 -0.72416886115E+01  0.77874334446E+02  0.25385974583E+03  0.50400001928E-02 0. -1.
       -1    1    3    3    0  502  0.24151173162E+03  0.72416886115E+01  0.23620039445E+03  0.33789197227E+03  0.50400001928E-02 0.  1.
</event>
<event>
 5   0  0.2719671E-02  0.4998549E+03  0.7818609E-02  0.1013817E+00
        1   -1    0    0  501    0  0.00000000000E+00  0.00000000000E+00  0.54347320225E+03  0.54347320228E+03  0.50400001928E-02 0. -1.
       -1   -1    0    0    0  501  0.00000000000E+00  0.00000000000E+00 -0.11493433188E+03  0.11493433199E+03  0.50400001928E-02 0.  1.
    10030    2    1    2    0    0  0.00000000000E+00  0.00000000000E+00  0.42853887037E+03  0.65840753427E+03  0.49985489670E+03 0.  0.
        2    1    3    3  502    0  0.12416402185E+03 -0.98622998179E+02  0.46873249115E+03  0.49482658413E+03  0.25500000920E-02 0. -1.
       -2    1    3    3    0  502 -0.12416402185E+03  0.98622998179E+02 -0.40193620777E+02  0.16358095014E+03  0.25500000920E-02 0.  1.
</event>
<event>
 5   0  0.4451135E-02  0.4989397E+03  0.7818609E-02  0.1014056E+00
        2   -1    0    0  501    0  0.00000000000E+00  0.00000000000E+00  0.68114017881E+03  0.68114017881E+03  0.25500000920E-02 0. -1.
       -2   -1    0    0    0  501  0.00000000000E+00  0.00000000000E+00 -0.91369158140E+02  0.91369158176E+02  0.25500000920E-02 0.  1.
    10030    2    1    2    0    0  0.00000000000E+00  0.00000000000E+00  0.58977102067E+03  0.77250933699E+03  0.49893969467E+03 0.  0.
        1    1    3    3  502    0  0.47703667165E+02 -0.19714346493E+03  0.70013528429E+02  0.21457651273E+03  0.50400001928E-02 0.  1.
       -1    1    3    3    0  502 -0.47703667165E+02  0.19714346493E+03  0.51975749224E+03  0.55793282426E+03  0.50400001928E-02 0. -1.
</event>
<event>
 5   0  0.4519539E-02  0.5002255E+03  0.7818609E-02  0.1013720E+00
       -2   -1    0    0    0  501  0.00000000000E+00  0.00000000000E+00  0.15458470971E+03  0.15458470973E+03  0.25500000920E-02 0.  1.
        2   -1    0    0  501    0  0.00000000000E+00  0.00000000000E+00 -0.40467384683E+03  0.40467384684E+03  0.25500000920E-02 0. -1.
    10030    2    1    2    0    0  0.00000000000E+00  0.00000000000E+00 -0.25008913712E+03  0.55925855657E+03  0.50022550574E+03 0.  0.
        4    1    3    3  502    0  0.16800244993E+02  0.86335787831E+02  0.13672009066E+03  0.16257340675E+03  0.12699999809E+01 0.  1.
       -4    1    3    3    0  502 -0.16800244993E+02 -0.86335787831E+02 -0.38680922778E+03  0.39668514982E+03  0.12699999809E+01 0. -1.
</event>
<event>
 5   0  0.2715483E-02  0.5004594E+03  0.7818609E-02  0.1013659E+00
       -1   -1    0    0    0  501  0.00000000000E+00  0.00000000000E+00  0.13990449013E+03  0.13990449022E+03  0.50400001928E-02 0.  1.
        1   -1    0    0  501    0  0.00000000000E+00  0.00000000000E+00 -0.44755467377E+03  0.44755467380E+03  0.50400001928E-02 0. -1.
    10030    2    1    2    0    0  0.00000000000E+00  0.00000000000E+00 -0.30765018364E+03  0.58745916402E+03  0.50045942282E+03 0.  0.
        5    1    3    3  502    0  0.19697389684E+03  0.12935466299E+03 -0.55184315370E+02  0.24207177352E+03  0.46999998093E+01 0.  1.
       -5    1    3    3    0  502 -0.19697389684E+03 -0.12935466299E+03 -0.25246586827E+03  0.34538739050E+03  0.46999998093E+01 0. -1.
</event>
<event>
 5   0  0.4451135E-02  0.4982778E+03  0.7818609E-02  0.1014229E+00
       -2   -1    0    0    0  501  0.00000000000E+00  0.00000000000E+00  0.12624058451E+03  0.12624058453E+03  0.25500000920E-02 0.  1.
        2   -1    0    0  501    0  0.00000000000E+00  0.00000000000E+00 -0.49168183752E+03  0.49168183753E+03  0.25500000920E-02 0. -1.
    10030    2    1    2    0    0  0.00000000000E+00  0.00000000000E+00 -0.36544125301E+03  0.61792242206E+03  0.49827784446E+03 0.  0.
        1    1    3    3  502    0 -0.91025270266E+02 -0.22955572415E+03 -0.22364018076E+03  0.33316116339E+03  0.50400001928E-02 0. -1.
       -1    1    3    3    0  502  0.91025270266E+02  0.22955572415E+03 -0.14180107225E+03  0.28476125867E+03  0.50400001928E-02 0.  1.
</event>
<event>
 5   0  0.2643185E-02  0.4942720E+03  0.7818609E-02  0.1015285E+00
       -1   -1    0    0    0  501  0.00000000000E+00  0.00000000000E+00  0.11408619984E+03  0.11408619995E+03  0.50400001928E-02 0. -1.
        1   -1    0    0  501    0  0.00000000000E+00  0.00000000000E+00 -0.53535134924E+03  0.53535134926E+03  0.50400001928E-02 0.  1.
    10030    2    1    2    0    0  0.00000000000E+00  0.00000000000E+00 -0.42126514940E+03  0.64943754921E+03  0.49427199417E+03 0.  0.
        1    1    3    3  502    0  0.50881523219E+02 -0.22157220606E+03 -0.33797532515E+03  0.40732111698E+03  0.50400001928E-02 0.  1.
       -1    1    3    3    0  502 -0.50881523219E+02  0.22157220606E+03 -0.83289824248E+02  0.24211643222E+03  0.50400001928E-02 0. -1.
</event>
<event>
 5   0  0.2715483E-02  0.4997265E+03  0.7818609E-02  0.1013850E+00
       -1   -1    0    0    0  501  0.00000000000E+00  0.00000000000E+00  0.17523888121E+03  0.17523888128E+03  0.50400001928E-02 0. -1.
        1   -1    0    0  501    0  0.00000000000E+00  0.00000000000E+00 -0.35626599398E+03  0.35626599402E+03  0.50400001928E-02 0.  1.
    10030    2    1    2    0    0  0.00000000000E+00  0.00000000000E+00 -0.18102711277E+03  0.53150487530E+03  0.49972654213E+03 0.  0.
        5    1    3    3  502    0  0.50628910142E+02  0.15961024655E+03 -0.28769677539E+03  0.33291176296E+03  0.46999998093E+01 0.  1.
       -5    1    3    3    0  502 -0.50628910142E+02 -0.15961024655E+03  0.10666966262E+03  0.19859311234E+03  0.46999998093E+01 0. -1.
</event>
<event>
 5   0  0.2715483E-02  0.5017748E+03  0.7818609E-02  0.1013317E+00
       -1   -1    0    0    0  501  0.00000000000E+00  0.00000000000E+00  0.19839132907E+03  0.19839132913E+03  0.50400001928E-02 0. -1.
        1   -1    0    0  501    0  0.00000000000E+00  0.00000000000E+00 -0.31727437916E+03  0.31727437920E+03  0.50400001928E-02 0.  1.
    10030    2    1    2    0    0  0.00000000000E+00  0.00000000000E+00 -0.11888305010E+03  0.51566570833E+03  0.50177479326E+03 0.  0.
        5    1    3    3  502    0 -0.68028642007E+02 -0.23867831252E+03 -0.96880289607E+02  0.26646409423E+03  0.46999998093E+01 0.  1.
       -5    1    3    3    0  502  0.68028642007E+02  0.23867831252E+03 -0.22002760489E+02  0.24920161410E+03  0.46999998093E+01 0. -1.
</event>
<event>
 5   0  0.1805500E-02  0.5009547E+03  0.7818609E-02  0.1013530E+00
       -4   -1    0    0    0  501  0.00000000000E+00  0.00000000000E+00  0.46925442704E+02  0.46942625330E+02  0.12699999809E+01 0. -1.
        4   -1    0    0  501    0  0.00000000000E+00  0.00000000000E+00 -0.13367289672E+04  0.13367295705E+04  0.12699999809E+01 0.  1.
    10030    2    1    2    0    0  0.00000000000E+00  0.00000000000E+00 -0.12898035245E+04  0.13836721958E+04  0.50095470226E+03 0.  0.
        2    1    3    3  502    0 -0.14764793390E+03  0.19337988752E+03 -0.80931364841E+03  0.84509424019E+03  0.25500000920E-02 0.  1.
       -2    1    3    3    0  502  0.14764793390E+03 -0.19337988752E+03 -0.48048987608E+03  0.53857795564E+03  0.25500000920E-02 0. -1.
</event>
<event>
 5   0  0.4631619E-02  0.4988676E+03  0.7818609E-02  0.1014075E+00
       -2   -1    0    0    0  501  0.00000000000E+00  0.00000000000E+00  0.70773276505E+02  0.70773276551E+02  0.25500000920E-02 0.  1.
        2   -1    0    0  501    0  0.00000000000E+00  0.00000000000E+00 -0.87910609204E+03  0.87910609205E+03  0.25500000920E-02 0. -1.
    10030    2    1    2    0    0  0.00000000000E+00  0.00000000000E+00 -0.80833281554E+03  0.94987936860E+03  0.49886759186E+03 0.  0.
        5    1    3    3  502    0 -0.19740701410E+03 -0.10889217897E+03 -0.20115195051E+03  0.30217748601E+03  0.46999998093E+01 0.  1.
       -5    1    3    3    0  502  0.19740701410E+03  0.10889217897E+03 -0.60718086503E+03  0.64770188259E+03  0.46999998093E+01 0. -1.
</event>
<event>
 5   0  0.4519539E-02  0.4770633E+03  0.7818609E-02  0.1019945E+00
       -2   -1    0    0    0  501  0.00000000000E+00  0.00000000000E+00  0.89059331199E+02  0.89059331235E+02  0.25500000920E-02 0. -1.
        2   -1    0    0  501    0  0.00000000000E+00  0.00000000000E+00 -0.63887019206E+03  0.63887019207E+03  0.25500000920E-02 0.  1.
    10030    2    1    2    0    0  0.00000000000E+00  0.00000000000E+00 -0.54981086086E+03  0.72792952330E+03  0.47706331673E+03 0.  0.
        4    1    3    3  502    0  0.13620036771E+03  0.19544352496E+03 -0.25640368763E+03  0.34999025064E+03  0.12699999809E+01 0.  1.
       -4    1    3    3    0  502 -0.13620036771E+03 -0.19544352496E+03 -0.29340717324E+03  0.37793927267E+03  0.12699999809E+01 0. -1.
</event>
<event>
 5   0  0.2643185E-02  0.4820845E+03  0.7818609E-02  0.1018564E+00
       -1   -1    0    0    0  501  0.00000000000E+00  0.00000000000E+00  0.17086090390E+03  0.17086090398E+03  0.50400001928E-02 0. -1.
        1   -1    0    0  501    0  0.00000000000E+00  0.00000000000E+00 -0.34005061863E+03  0.34005061866E+03  0.50400001928E-02 0.  1.
    10030    2    1    2    0    0  0.00000000000E+00  0.00000000000E+00 -0.16918971473E+03  0.51091152264E+03  0.48208445774E+03 0.  0.
        1    1    3    3  502    0 -0.22297088032E+03  0.90977255887E+02 -0.95633112639E+02  0.25911110902E+03  0.50400001928E-02 0.  1.
       -1    1    3    3    0  502  0.22297088032E+03 -0.90977255887E+02 -0.73556602087E+02  0.25180041362E+03  0.50400001928E-02 0. -1.
</event>
<event>
 5   0  0.4631619E-02  0.5026103E+03  0.7818609E-02  0.1013100E+00
       -2   -1    0    0    0  501  0.00000000000E+00  0.00000000000E+00  0.31797965744E+02  0.31797965847E+02  0.25500000920E-02 0. -1.
        2   -1    0    0  501    0  0.00000000000E+00  0.00000000000E+00 -0.19861108922E+04  0.19861108922E+04  0.25500000920E-02 0.  1.
    10030    2    1    2    0    0  0.00000000000E+00  0.00000000000E+00 -0.19543129265E+04  0.20179088581E+04  0.50261033106E+03 0.  0.
        5    1    3    3  502    0  0.11342185604E+03 -0.86435161300E+02 -0.14658887203E+03  0.20456280683E+03  0.46999998093E+01 0. -1.
       -5    1    3    3    0  502 -0.11342185604E+03  0.86435161300E+02 -0.18077240545E+04  0.18133460513E+04  0.46999998093E+01 0.  1.
</event>
<event>
 5   0  0.2779445E-02  0.5003597E+03  0.7818609E-02  0.1013685E+00
       -1   -1    0    0    0  501  0.00000000000E+00  0.00000000000E+00  0.11874004269E+04  0.11874004269E+04  0.50400001928E-02 0. -1.
        1   -1    0    0  501    0  0.00000000000E+00  0.00000000000E+00 -0.52711757095E+02  0.52711757336E+02  0.50400001928E-02 0.  1.
    10030    2    1    2    0    0  0.00000000000E+00  0.00000000000E+00  0.11346886698E+04  0.12401121843E+04  0.50035972274E+03 0.  0.
        3    1    3    3  502    0 -0.19739645706E+03  0.36230391255E+02  0.93755369805E+03  0.95879348633E+03  0.10100000352E+00 0. -1.
       -3    1    3    3    0  502  0.19739645706E+03 -0.36230391255E+02  0.19713497179E+03  0.28131869795E+03  0.10100000352E+00 0.  1.
</event>
<event>
 5   0  0.4409622E-02  0.4979499E+03  0.7818609E-02  0.1014315E+00
       -2   -1    0    0    0  501  0.00000000000E+00  0.00000000000E+00  0.76947548810E+02  0.76947548853E+02  0.25500000920E-02 0. -1.
        2   -1    0    0  501    0  0.00000000000E+00  0.00000000000E+00 -0.80559458427E+03  0.80559458428E+03  0.25500000920E-02 0.  1.
    10030    2    1    2    0    0  0.00000000000E+00  0.00000000000E+00 -0.72864703546E+03  0.88254213313E+03  0.49794991160E+03 0.  0.
        3    1    3    3  502    0  0.17309609571E+03 -0.15637206956E+03 -0.51856936089E+03  0.56861997392E+03  0.10100000352E+00 0.  1.
       -3    1    3    3    0  502 -0.17309609571E+03  0.15637206956E+03 -0.21007767458E+03  0.31392215921E+03  0.10100000352E+00 0. -1.
</event>
<event>
 5   0  0.4631619E-02  0.4983544E+03  0.7818609E-02  0.1014209E+00
       -2   -1    0    0    0  501  0.00000000000E+00  0.00000000000E+00  0.16784730806E+03  0.16784730808E+03  0.25500000920E-02 0. -1.
        2   -1    0    0  501    0  0.00000000000E+00  0.00000000000E+00 -0.36991518571E+03  0.36991518572E+03  0.25500000920E-02 0.  1.
    10030    2    1    2    0    0  0.00000000000E+00  0.00000000000E+00 -0.20206787765E+03  0.53776249380E+03  0.49835436444E+03 0.  0.
        5    1    3    3  502    0 -0.24550689295E+03 -0.41681818442E+02 -0.92946645984E+02  0.26584239216E+03  0.46999998093E+01 0.  1.
       -5    1    3    3    0  502  0.24550689295E+03  0.41681818442E+02 -0.10912123166E+03  0.27192010163E+03  0.46999998093E+01 0. -1.
</event>
<event>
 5   0  0.2723308E-02  0.5007186E+03  0.7818609E-02  0.1013592E+00
        1   -1    0    0  501    0  0.00000000000E+00  0.00000000000E+00  0.58065797958E+02  0.58065798177E+02  0.50400001928E-02 0. -1.
       -1   -1    0    0    0  501  0.00000000000E+00  0.00000000000E+00 -0.10794613890E+04  0.10794613890E+04  0.50400001928E-02 0.  1.
    10030    2    1    2    0    0  0.00000000000E+00  0.00000000000E+00 -0.10213955910E+04  0.11375271872E+04  0.50071863176E+03 0.  0.
        4    1    3    3  502    0  0.23168955954E+03 -0.92542551670E+02 -0.46337046207E+03  0.52626796776E+03  0.12699999809E+01 0.  1.
       -4    1    3    3    0  502 -0.23168955954E+03  0.92542551670E+02 -0.55802512896E+03  0.61125921942E+03  0.12699999809E+01 0. -1.
</event>
<event>
 5   0  0.4409622E-02  0.4974611E+03  0.7818609E-02  0.1014444E+00
       -2   -1    0    0    0  501  0.00000000000E+00  0.00000000000E+00  0.10611294151E+03  0.10611294154E+03  0.25500000920E-02 0.  1.
        2   -1    0    0  501    0  0.00000000000E+00  0.00000000000E+00 -0.58302860166E+03  0.58302860167E+03  0.25500000920E-02 0. -1.
    10030    2    1    2    0    0  0.00000000000E+00  0.00000000000E+00 -0.47691566015E+03  0.68914154321E+03  0.49746107353E+03 0.  0.
        3    1    3    3  502    0  0.91546470497E+02 -0.13607151159E+03 -0.49751834552E+03  0.52385181765E+03  0.10100000352E+00 0. -1.
       -3    1    3    3    0  502 -0.91546470497E+02  0.13607151159E+03  0.20602685372E+02  0.16528972555E+03  0.10100000352E+00 0.  1.
</event>
<event>
 5   0  0.4534223E-02  0.4993282E+03  0.7818609E-02  0.1013954E+00
       -2   -1    0    0    0  501  0.00000000000E+00  0.00000000000E+00  0.30842570825E+02  0.30842570930E+02  0.25500000920E-02 0.  1.
        2   -1    0    0  501    0  0.00000000000E+00  0.00000000000E+00 -0.20209783901E+04  0.20209783901E+04  0.25500000920E-02 0. -1.
    10030    2    1    2    0    0  0.00000000000E+00  0.00000000000E+00 -0.19901358193E+04  0.20518209611E+04  0.49932822569E+03 0.  0.
        2    1    3    3  502    0 -0.13223393786E+03 -0.16956646295E+03 -0.47377773828E+03  0.52029217271E+03  0.25500000920E-02 0. -1.
       -2    1    3    3    0  502  0.13223393786E+03  0.16956646295E+03 -0.15163580810E+04  0.15315287884E+04  0.25500000920E-02 0.  1.
</event>
<event>
 5   0  0.4519539E-02  0.4913592E+03  0.7818609E-02  0.1016059E+00
       -2   -1    0    0    0  501  0.00000000000E+00  0.00000000000E+00  0.24079025967E+02  0.24079026102E+02  0.25500000920E-02 0. -1.
        2   -1    0    0  501    0  0.00000000000E+00  0.00000000000E+00 -0.25066826936E+04  0.25066826936E+04  0.25500000920E-02 0.  1.
    10030    2    1    2    0    0  0.00000000000E+00  0.00000000000E+00 -0.24826036676E+04  0.25307617197E+04  0.49135924879E+03 0.  0.
        4    1    3    3  502    0 -0.10164184067E+03  0.21740208098E+03 -0.97061029656E+03  0.99984033189E+03  0.12699999809E+01 0. -1.
       -4    1    3    3    0  502  0.10164184067E+03 -0.21740208098E+03 -0.15119933711E+04  0.15309213878E+04  0.12699999809E+01 0.  1.
</event>
<event>
 5   0  0.4631619E-02  0.4961664E+03  0.7818609E-02  0.1014784E+00
       -2   -1    0    0    0  501  0.00000000000E+00  0.00000000000E+00  0.14775897744E+03  0.14775897746E+03  0.25500000920E-02 0.  1.
        2   -1    0    0  501    0  0.00000000000E+00  0.00000000000E+00 -0.41652482302E+03  0.41652482303E+03  0.25500000920E-02 0. -1.
    10030    2    1    2    0    0  0.00000000000E+00  0.00000000000E+00 -0.26876584558E+03  0.56428380050E+03  0.49616643150E+03 0.  0.
        5    1    3    3  502    0 -0.14226451809E+03 -0.73049098279E+02  0.81245761142E+02  0.17943892434E+03  0.46999998093E+01 0.  1.
       -5    1    3    3    0  502  0.14226451809E+03  0.73049098279E+02 -0.35001160672E+03  0.38484487616E+03  0.46999998093E+01 0. -1.
</event>
<event>
 5   0  0.4451135E-02  0.4995294E+03  0.7818609E-02  0.1013902E+00
       -2   -1    0    0    0  501  0.00000000000E+00  0.00000000000E+00  0.27482308190E+03  0.27482308191E+03  0.25500000920E-02 0.  1.
        2   -1    0    0  501    0  0.00000000000E+00  0.00000000000E+00 -0.22699117469E+03  0.22699117471E+03  0.25500000920E-02 0. -1.
    10030    2    1    2    0    0  0.00000000000E+00  0.00000000000E+00  0.47831907205E+02  0.50181425662E+03  0.49952943537E+03 0.  0.
        1    1    3    3  502    0  0.14202611572E+03  0.10592510764E+03 -0.15293148841E+03  0.23405039233E+03  0.50400001928E-02 0. -1.
       -1    1    3    3    0  502 -0.14202611572E+03 -0.10592510764E+03  0.20076339562E+03  0.26776386429E+03  0.50400001928E-02 0.  1.
</event>
<event>
 5   0  0.4451135E-02  0.4991488E+03  0.7818609E-02  0.1014001E+00
        2   -1    0    0  501    0  0.00000000000E+00  0.00000000000E+00  0.31111013758E+03  0.31111013759E+03  0.25500000920E-02 0.  1.
       -2   -1    0    0    0  501  0.00000000000E+00  0.00000000000E+00 -0.20021008699E+03  0.20021008700E+03  0.25500000920E-02 0. -1.
    10030    2    1    2    0    0  0.00000000000E+00  0.00000000000E+00  0.11090005059E+03  0.51132022459E+03  0.49914882636E+03 0.  0.
        1    1    3    3  502    0  0.94635698715E+02  0.11445260260E+03  0.26092035948E+03  0.30022449555E+03  0.50400001928E-02 0.  1.
       -1    1    3    3    0  502 -0.94635698715E+02 -0.11445260260E+03 -0.15002030889E+03  0.21109572904E+03  0.50400001928E-02 0. -1.
</event>
<event>
 5   0  0.2643185E-02  0.5094835E+03  0.7818609E-02  0.1011333E+00
        1   -1    0    0  501    0  0.00000000000E+00  0.00000000000E+00  0.48543924777E+03  0.48543924780E+03  0.50400001928E-02 0.  1.
       -1   -1    0    0    0  501  0.00000000000E+00  0.00000000000E+00 -0.13367969013E+03  0.13367969023E+03  0.50400001928E-02 0. -1.
    10030    2    1    2    0    0  0.00000000000E+00  0.00000000000E+00  0.35175955764E+03  0.61911893802E+03  0.50948353558E+03 0.  0.
        1    1    3    3  502    0 -0.47907312176E+02  0.19350992026E+02  0.47900508070E+03  0.48178360165E+03  0.50400001928E-02 0.  1.
       -1    1    3    3    0  502  0.47907312176E+02 -0.19350992026E+02 -0.12724552306E+03  0.13733533638E+03  0.50400001928E-02 0. -1.
</event>
<event>
 5   0  0.2719671E-02  0.4967956E+03  0.7818609E-02  0.1014619E+00
       -1   -1    0    0    0  501  0.00000000000E+00  0.00000000000E+00  0.98213963114E+02  0.98213963243E+02  0.50400001928E-02 0. -1.
        1   -1    0    0  501    0  0.00000000000E+00  0.00000000000E+00 -0.62823512219E+03  0.62823512221E+03  0.50400001928E-02 0.  1.
    10030    2    1    2    0    0  0.00000000000E+00  0.00000000000E+00 -0.53002115908E+03  0.72644908546E+03  0.49679557636E+03 0.  0.
        2    1    3    3  502    0  0.50540240319E+02  0.14022544816E+02 -0.62004565217E+03  0.62226004085E+03  0.25500000920E-02 0.  1.
       -2    1    3    3    0  502 -0.50540240319E+02 -0.14022544816E+02  0.90024493088E+02  0.10418904461E+03  0.25500000920E-02 0. -1.
</event>
<event>
 5   0  0.4451135E-02  0.4990499E+03  0.7818609E-02  0.1014027E+00
       -2   -1    0    0    0  501  0.00000000000E+00  0.00000000000E+00  0.24491973025E+03  0.24491973026E+03  0.25500000920E-02 0. -1.
        2   -1    0    0  501    0  0.00000000000E+00  0.00000000000E+00 -0.25421674431E+03  0.25421674432E+03  0.25500000920E-02 0.  1.
    10030    2    1    2    0    0  0.00000000000E+00  0.00000000000E+00 -0.92970140588E+01  0.49913647458E+03  0.49904988306E+03 0.  0.
        1    1    3    3  502    0 -0.41883965373E+02  0.21191804963E+03  0.12026980182E+03  0.24724148432E+03  0.50400001928E-02 0. -1.
       -1    1    3    3    0  502  0.41883965373E+02 -0.21191804963E+03 -0.12956681588E+03  0.25189499026E+03  0.50400001928E-02 0.  1.
</event>
<event>
 5   0  0.2779445E-02  0.5015424E+03  0.7818609E-02  0.1013377E+00
       -1   -1    0    0    0  501  0.00000000000E+00  0.00000000000E+00  0.69990471117E+02  0.69990471298E+02  0.50400001928E-02 0. -1.
        1   -1    0    0  501    0  0.00000000000E+00  0.00000000000E+00 -0.89849635465E+03  0.89849635466E+03  0.50400001928E-02 0.  1.
    10030    2    1    2    0    0  0.00000000000E+00  0.00000000000E+00 -0.82850588353E+03  0.96848682596E+03  0.50154235416E+03 0.  0.
        3    1    3    3  502    0 -0.21116133866E+03 -0.43972332162E+02 -0.66126841133E+03  0.69555632336E+03  0.10100000352E+00 0.  1.
       -3    1    3    3    0  502  0.21116133866E+03  0.43972332162E+02 -0.16723747220E+03  0.27293050260E+03  0.10100000352E+00 0. -1.
</event>
<event>
 5   0  0.4631619E-02  0.5018409E+03  0.7818609E-02  0.1013300E+00
        2   -1    0    0  501    0  0.00000000000E+00  0.00000000000E+00  0.10692129118E+03  0.10692129121E+03  0.25500000920E-02 0.  1.
       -2   -1    0    0    0  501  0.00000000000E+00  0.00000000000E+00 -0.58885430640E+03  0.58885430640E+03  0.25500000920E-02 0. -1.
    10030    2    1    2    0    0  0.00000000000E+00  0.00000000000E+00 -0.48193301522E+03  0.69577559761E+03  0.50184086229E+03 0.  0.
        5    1    3    3  502    0  0.20187894807E+03  0.90429575333E+02 -0.40505031963E+03  0.46154140572E+03  0.46999998093E+01 0. -1.
       -5    1    3    3    0  502 -0.20187894807E+03 -0.90429575333E+02 -0.76882695597E+02  0.23423419189E+03  0.46999998093E+01 0.  1.
</event>
<event>
 5   0  0.2779445E-02  0.4992110E+03  0.7818609E-02  0.1013985E+00
       -1   -1    0    0    0  501  0.00000000000E+00  0.00000000000E+00  0.10372451431E+04  0.10372451431E+04  0.50400001928E-02 0. -1.
        1   -1    0    0  501    0  0.00000000000E+00  0.00000000000E+00 -0.60065748301E+02  0.60065748512E+02  0.50400001928E-02 0.  1.
    10030    2    1    2    0    0  0.00000000000E+00  0.00000000000E+00  0.97717939476E+03  0.10973108916E+04  0.49921100073E+03 0.  0.
        3    1    3    3  502    0 -0.16714724858E+03 -0.18348860539E+03  0.54660531832E+03  0.60031962756E+03  0.10100000352E+00 0. -1.
       -3    1    3    3    0  502  0.16714724858E+03  0.18348860539E+03  0.43057407645E+03  0.49699126403E+03  0.10100000352E+00 0.  1.
</event>
<event>
 5   0  0.4534223E-02  0.4997663E+03  0.7818609E-02  0.1013840E+00
        2   -1    0    0  501    0  0.00000000000E+00  0.00000000000E+00  0.39226293871E+03  0.39226293872E+03  0.25500000920E-02 0.  1.
       -2   -1    0    0    0  501  0.00000000000E+00  0.00000000000E+00 -0.15918298440E+03  0.15918298442E+03  0.25500000920E-02 0. -1.
    10030    2    1    2    0    0  0.00000000000E+00  0.00000000000E+00  0.23307995431E+03  0.55144592314E+03  0.49976628643E+03 0.  0.
        2    1    3    3  502    0  0.18686299898E+03  0.12059243520E+03  0.24225713570E+03  0.32885990273E+03  0.25500000920E-02 0.  1.
       -2    1    3    3    0  502 -0.18686299898E+03 -0.12059243520E+03 -0.91771813968E+01  0.22258602041E+03  0.25500000920E-02 0. -1.
</event>
<event>
 5   0  0.2723308E-02  0.5003401E+03  0.7818609E-02  0.1013690E+00
        1   -1    0    0  501    0  0.00000000000E+00  0.00000000000E+00  0.33310159455E+03  0.33310159459E+03  0.50400001928E-02 0. -1.
       -1   -1    0    0    0  501  0.00000000000E+00  0.00000000000E+00 -0.18788578943E+03  0.18788578949E+03  0.50400001928E-02 0.  1.
    10030    2    1    2    0    0  0.00000000000E+00  0.00000000000E+00  0.14521580513E+03  0.52098738408E+03  0.50034010864E+03 0.  0.
        4    1    3    3  502    0 -0.17744081807E+03  0.45083034275E+02  0.25013000213E+03  0.30997476472E+03  0.12699999809E+01 0. -1.
       -4    1    3    3    0  502  0.17744081807E+03 -0.45083034275E+02 -0.10491419701E+03  0.21101261936E+03  0.12699999809E+01 0.  1.
</event>
<event>
 5   0  0.2715483E-02  0.4987406E+03  0.7818609E-02  0.1014108E+00
        1   -1    0    0  501    0  0.00000000000E+00  0.00000000000E+00  0.83936025367E+02  0.83936025519E+02  0.50400001928E-02 0.  1.
       -1   -1    0    0    0  501  0.00000000000E+00  0.00000000000E+00 -0.74086825005E+03  0.74086825006E+03  0.50400001928E-02 0. -1.
    10030    2    1    2    0    0  0.00000000000E+00  0.00000000000E+00 -0.65693222468E+03  0.82480427558E+03  0.49874055900E+03 0.  0.
        5    1    3    3  502    0 -0.18793314867E+03  0.93025944687E+02 -0.10541646705E+03  0.23474968856E+03  0.46999998093E+01 0.  1.
       -5    1    3    3    0  502  0.18793314867E+03 -0.93025944687E+02 -0.55151575763E+03  0.59005458702E+03  0.46999998093E+01 0. -1.
</event>
<event>
 5   0  0.2643185E-02  0.5006280E+03  0.7818609E-02  0.1013615E+00
       -1   -1    0    0    0  501  0.00000000000E+00  0.00000000000E+00  0.14781157289E+03  0.14781157297E+03  0.50400001928E-02 0.  1.
        1   -1    0    0  501    0  0.00000000000E+00  0.00000000000E+00 -0.42389843880E+03  0.42389843883E+03  0.50400001928E-02 0. -1.
    10030    2    1    2    0    0  0.00000000000E+00  0.00000000000E+00 -0.27608686592E+03  0.57171001181E+03  0.50062798570E+03 0.  0.
        1    1    3    3  502    0  0.24279760709E+03 -0.57782199998E+02 -0.11614723490E+03  0.27528102159E+03  0.50400001928E-02 0. -1.
       -1    1    3    3    0  502 -0.24279760709E+03  0.57782199998E+02 -0.15993963102E+03  0.29642899022E+03  0.50400001928E-02 0.  1.
</event>
<event>
 5   0  0.2719671E-02  0.5005216E+03  0.7818609E-02  0.1013643E+00
        1   -1    0    0  501    0  0.00000000000E+00  0.00000000000E+00  0.80928311377E+03  0.80928311379E+03  0.50400001928E-02 0. -1.
       -1   -1    0    0    0  501  0.00000000000E+00  0.00000000000E+00 -0.77390057907E+02  0.77390058072E+02  0.50400001928E-02 0.  1.
    10030    2    1    2    0    0  0.00000000000E+00  0.00000000000E+00  0.73189305586E+03  0.88667317186E+03  0.50052159641E+03 0.  0.
        2    1    3    3  502    0 -0.12586386068E+02  0.90893895414E+02 -0.46513485725E+02  0.10287673060E+03  0.25500000920E-02 0.  1.
       -2    1    3    3    0  502  0.12586386068E+02 -0.90893895414E+02  0.77840654159E+03  0.78379644126E+03  0.25500000920E-02 0. -1.
</event>
<event>
 5   0  0.4409622E-02  0.4990061E+03  0.7818609E-02  0.1014039E+00
        2   -1    0    0  501    0  0.00000000000E+00  0.00000000000E+00  0.15869779807E+03  0.15869779809E+03  0.25500000920E-02 0. -1.
       -2   -1    0    0    0  501  0.00000000000E+00  0.00000000000E+00 -0.39226612460E+03  0.39226612461E+03  0.25500000920E-02 0.  1.
    10030    2    1    2    0    0  0.00000000000E+00  0.00000000000E+00 -0.23356832653E+03  0.55096392270E+03  0.49900609311E+03 0.  0.
        3    1    3    3  502    0 -0.20889846809E+03 -0.13523699962E+03 -0.96905539733E+02  0.26705488175E+03  0.10100000352E+00 0. -1.
       -3    1    3    3    0  502  0.20889846809E+03  0.13523699962E+03 -0.13666278680E+03  0.28390904095E+03  0.10100000352E+00 0.  1.
</event>
<event>
 5   0  0.4451135E-02  0.5132667E+03  0.7818609E-02  0.1010373E+00
       -2   -1    0    0    0  501  0.00000000000E+00  0.00000000000E+00  0.24482802679E+02  0.24482802812E+02  0.25500000920E-02 0.  1.
        2   -1    0    0  501    0  0.00000000000E+00  0.00000000000E+00 -0.26900788842E+04  0.26900788842E+04  0.25500000920E-02 0. -1.
    10030    2    1    2    0    0  0.00000000000E+00  0.00000000000E+00 -0.26655960815E+04  0.27145616870E+04  0.51326667803E+03 0.  0.
        1    1    3    3  502    0 -0.93631475558E+01  0.10342067730E+03 -0.25739999541E+04  0.25760938004E+04  0.50400001928E-02 0. -1.
       -1    1    3    3    0  502  0.93631475558E+01 -0.10342067730E+03 -0.91596127450E+02  0.13846788658E+03  0.50400001928E-02 0.  1.
</event>
<event>
 5   0  0.1805500E-02  0.4984681E+03  0.7818609E-02  0.1014180E+00
       -4   -1    0    0    0  501  0.00000000000E+00  0.00000000000E+00  0.22446943216E+03  0.22447302482E+03  0.12699999809E+01 0.  1.
        4   -1    0    0  501    0  0.00000000000E+00  0.00000000000E+00 -0.27672357597E+03  0.27672649023E+03  0.12699999809E+01 0. -1.
    10030    2    1    2    0    0  0.00000000000E+00  0.00000000000E+00 -0.52254143810E+02  0.50119951505E+03  0.49846811166E+03 0.  0.
        5    1    3    3  502    0  0.60773873513E+02  0.20250286141E+03 -0.15873855555E+03  0.26442558802E+03  0.46999998093E+01 0. -1.
       -5    1    3    3    0  502 -0.60773873513E+02 -0.20250286141E+03  0.10648441174E+03  0.23677392704E+03  0.46999998093E+01 0.  1.
</event>
<event>
 5   0  0.2719671E-02  0.5022942E+03  0.7818609E-02  0.1013182E+00
       -1   -1    0    0    0  501  0.00000000000E+00  0.00000000000E+00  0.13464610519E+03  0.13464610528E+03  0.50400001928E-02 0. -1.
        1   -1    0    0  501    0  0.00000000000E+00  0.00000000000E+00 -0.46844915387E+03  0.46844915389E+03  0.50400001928E-02 0.  1.
    10030    2    1    2    0    0  0.00000000000E+00  0.00000000000E+00 -0.33380304868E+03  0.60309525917E+03  0.50229415319E+03 0.  0.
        2    1    3    3  502    0  0.13989012531E+03  0.20201072886E+03 -0.22925923910E+03  0.33606157242E+03  0.25500000920E-02 0.  1.
       -2    1    3    3    0  502 -0.13989012531E+03 -0.20201072886E+03 -0.10454380958E+03  0.26703368676E+03  0.25500000920E-02 0. -1.
</event>
<event>
 5   0  0.2779445E-02  0.5015917E+03  0.7818609E-02  0.1013364E+00
        1   -1    0    0  501    0  0.00000000000E+00  0.00000000000E+00  0.78057343726E+03  0.78057343727E+03  0.50400001928E-02 0.  1.
       -1   -1    0    0    0  501  0.00000000000E+00  0.00000000000E+00 -0.80579925893E+02  0.80579926051E+02  0.50400001928E-02 0. -1.
    10030    2    1    2    0    0  0.00000000000E+00  0.00000000000E+00  0.69999351137E+03  0.86115336333E+03  0.50159166581E+03 0.  0.
        3    1    3    3  502    0  0.78199806837E+02 -0.22346942170E+03  0.20795733173E+03  0.31511911120E+03  0.10100000352E+00 0. -1.
       -3    1    3    3    0  502 -0.78199806837E+02  0.22346942170E+03  0.49203617964E+03  0.54603425213E+03  0.10100000352E+00 0.  1.
</event>
<event>
 5   0  0.2723308E-02  0.5016239E+03  0.7818609E-02  0.1013356E+00
       -1   -1    0    0    0  501  0.00000000000E+00  0.00000000000E+00  0.58916354463E+03  0.58916354465E+03  0.50400001928E-02 0.  1.
        1   -1    0    0  501    0  0.00000000000E+00  0.00000000000E+00 -0.10677278407E+03  0.10677278419E+03  0.50400001928E-02 0. -1.
    10030    2    1    2    0    0  0.00000000000E+00  0.00000000000E+00  0.48239076057E+03  0.69593632884E+03  0.50162389090E+03 0.  0.
        4    1    3    3  502    0 -0.22895443767E+03  0.98249439714E+02  0.20117923518E+03  0.32023083003E+03  0.12699999809E+01 0.  1.
       -4    1    3    3    0  502  0.22895443767E+03 -0.98249439714E+02  0.28121152538E+03  0.37570549881E+03  0.12699999809E+01 0. -1.
</event>
<event>
 5   0  0.4534223E-02  0.4864411E+03  0.7818609E-02  0.1017380E+00
        2   -1    0    0  501    0  0.00000000000E+00  0.00000000000E+00  0.12811427350E+03  0.12811427353E+03  0.25500000920E-02 0. -1.
       -2   -1    0    0    0  501  0.00000000000E+00  0.00000000000E+00 -0.46174580598E+03  0.46174580599E+03  0.25500000920E-02 0.  1.
    10030    2    1    2    0    0  0.00000000000E+00  0.00000000000E+00 -0.33363153248E+03  0.58986007952E+03  0.48644106935E+03 0.  0.
        2    1    3    3  502    0  0.12366074028E+03  0.24475827135E+02 -0.41904071730E+03  0.43759132482E+03  0.25500000920E-02 0.  1.
       -2    1    3    3    0  502 -0.12366074028E+03 -0.24475827135E+02  0.85409184815E+02  0.15226875470E+03  0.25500000920E-02 0. -1.
</event>
<event>
 5   0  0.4451135E-02  0.5005601E+03  0.7818609E-02  0.1013633E+00
       -2   -1    0    0    0  501  0.00000000000E+00  0.00000000000E+00  0.10596765937E+03  0.10596765940E+03  0.25500000920E-02 0. -1.
        2   -1    0    0  501    0  0.00000000000E+00  0.00000000000E+00 -0.59112465830E+03  0.59112465831E+03  0.25500000920E-02 0.  1.
    10030    2    1    2    0    0  0.00000000000E+00  0.00000000000E+00 -0.48515699893E+03  0.69709231771E+03  0.50056007212E+03 0.  0.
        1    1    3    3  502    0  0.10616601800E+03  0.21607393230E+03 -0.14729885874E+03  0.28223416060E+03  0.50400001928E-02 0. -1.
       -1    1    3    3    0  502 -0.10616601800E+03 -0.21607393230E+03 -0.33785814019E+03  0.41485815711E+03  0.50400001928E-02 0.  1.
</event>
<event>
 5   0  0.1805500E-02  0.5025414E+03  0.7818609E-02  0.1013118E+00
       -3   -1    0    0    0  501  0.00000000000E+00  0.00000000000E+00  0.26885234837E+03  0.26885236735E+03  0.10100000352E+00 0. -1.
        3   -1    0    0  501    0  0.00000000000E+00  0.00000000000E+00 -0.23483876960E+03  0.23483879132E+03  0.10100000352E+00 0.  1.
    10030    2    1    2    0    0  0.00000000000E+00  0.00000000000E+00  0.34013578775E+02  0.50369115866E+03  0.50254140106E+03 0.  0.
        2    1    3    3  502    0  0.11041613563E+03 -0.12867450657E+03  0.20287137848E+03  0.26439676220E+03  0.25500000920E-02 0. -1.
       -2    1    3    3    0  502 -0.11041613563E+03  0.12867450657E+03 -0.16885779971E+03  0.23929439646E+03  0.25500000920E-02 0.  1.
</event>
<event>
 5   0  0.2643185E-02  0.5011326E+03  0.7818609E-02  0.1013484E+00
        1   -1    0    0  501    0  0.00000000000E+00  0.00000000000E+00  0.16936657309E+04  0.16936657309E+04  0.50400001928E-02 0.  1.
       -1   -1    0    0    0  501  0.00000000000E+00  0.00000000000E+00 -0.37069568705E+02  0.37069569048E+02  0.50400001928E-02 0. -1.
    10030    2    1    2    0    0  0.00000000000E+00  0.00000000000E+00  0.16565961622E+04  0.17307352999E+04  0.50113255124E+03 0.  0.
        1    1    3    3  502    0 -0.45001405887E+02  0.19609089050E+03  0.13441150781E+04  0.13590887046E+04  0.50400001928E-02 0.  1.
       -1    1    3    3    0  502  0.45001405887E+02 -0.19609089050E+03  0.31248108408E+03  0.37164659530E+03  0.50400001928E-02 0. -1.
</event>
<event>
 5   0  0.4534223E-02  0.4973531E+03  0.7818609E-02  0.1014472E+00
        2   -1    0    0  501    0  0.00000000000E+00  0.00000000000E+00  0.18070937913E+03  0.18070937915E+03  0.25500000920E-02 0. -1.
       -2   -1    0    0    0  501  0.00000000000E+00  0.00000000000E+00 -0.34220709544E+03  0.34220709545E+03  0.25500000920E-02 0.  1.
    10030    2    1    2    0    0  0.00000000000E+00  0.00000000000E+00 -0.16149771630E+03  0.52291647460E+03  0.49735312107E+03 0.  0.
        2    1    3    3  502    0 -0.19659306399E+02  0.85687490816E+02 -0.32532328750E+03  0.33699269399E+03  0.25500000920E-02 0.  1.
       -2    1    3    3    0  502  0.19659306399E+02 -0.85687490816E+02  0.16382557119E+03  0.18592378060E+03  0.25500000920E-02 0. -1.
</event>
<event>
 5   0  0.2643185E-02  0.4985325E+03  0.7818609E-02  0.1014163E+00
        1   -1    0    0  501    0  0.00000000000E+00  0.00000000000E+00  0.16364963564E+03  0.16364963572E+03  0.50400001928E-02 0. -1.
       -1   -1    0    0    0  501  0.00000000000E+00  0.00000000000E+00 -0.37967495950E+03  0.37967495953E+03  0.50400001928E-02 0.  1.
    10030    2    1    2    0    0  0.00000000000E+00  0.00000000000E+00 -0.21602532386E+03  0.54332459525E+03  0.49853252176E+03 0.  0.
        1    1    3    3  502    0  0.11487956479E+03  0.10156453946E+03  0.10616670000E+03  0.18650479430E+03  0.50400001928E-02 0. -1.
       -1    1    3    3    0  502 -0.11487956479E+03 -0.10156453946E+03 -0.32219202386E+03  0.35681980095E+03  0.50400001928E-02 0.  1.
</event>
<event>
 5   0  0.4451135E-02  0.4999819E+03  0.7818609E-02  0.1013784E+00
        2   -1    0    0  501    0  0.00000000000E+00  0.00000000000E+00  0.46199749529E+03  0.46199749530E+03  0.25500000920E-02 0. -1.
       -2   -1    0    0    0  501  0.00000000000E+00  0.00000000000E+00 -0.13527233600E+03  0.13527233602E+03  0.25500000920E-02 0.  1.
    10030    2    1    2    0    0  0.00000000000E+00  0.00000000000E+00  0.32672515929E+03  0.59726983132E+03  0.49998192137E+03 0.  0.
        1    1    3    3  502    0 -0.31411989185E+02 -0.16794205888E+03 -0.54642187436E+02  0.17937953306E+03  0.50400001928E-02 0.  1.
       -1    1    3    3    0  502  0.31411989185E+02  0.16794205888E+03  0.38136734673E+03  0.41789029826E+03  0.50400001928E-02 0. -1.
</event>
<event>
 5   0  0.2779445E-02  0.5029805E+03  0.7818609E-02  0.1013004E+00
       -1   -1    0    0    0  501  0.00000000000E+00  0.00000000000E+00  0.83763754956E+02  0.83763755108E+02  0.50400001928E-02 0. -1.
        1   -1    0    0  501    0  0.00000000000E+00  0.00000000000E+00 -0.75506809261E+03  0.75506809263E+03  0.50400001928E-02 0.  1.
    10030    2    1    2    0    0  0.00000000000E+00  0.00000000000E+00 -0.67130433766E+03  0.83883184774E+03  0.50298047181E+03 0.  0.
        3    1    3    3  502    0 -0.23866695986E+03 -0.66752922146E+02 -0.26432006490E+03  0.36232992873E+03  0.10100000352E+00 0. -1.
       -3    1    3    3    0  502  0.23866695986E+03  0.66752922146E+02 -0.40698427276E+03  0.47650191901E+03  0.10100000352E+00 0.  1.
</event>
<event>
 5   0  0.4631619E-02  0.5010265E+03  0.7818609E-02  0.1013511E+00
       -2   -1    0    0    0  501  0.00000000000E+00  0.00000000000E+00  0.56972413221E+02  0.56972413278E+02  0.25500000920E-02 0.  1.
        2   -1    0    0  501    0  0.00000000000E+00  0.00000000000E+00 -0.11015309913E+04  0.11015309913E+04  0.25500000920E-02 0. -1.
    10030    2    1    2    0    0  0.00000000000E+00  0.00000000000E+00 -0.10445585780E+04  0.11585034045E+04  0.50102646175E+03 0.  0.
        5    1    3    3  502    0  0.21917599474E+02 -0.37225147948E+02  0.48191813238E+02  0.64889395650E+02  0.46999998093E+01 0.  1.
       -5    1    3    3    0  502 -0.21917599474E+02  0.37225147948E+02 -0.10927503913E+04  0.10936140089E+04  0.46999998093E+01 0. -1.
</event>
<event>
 5   0  0.4451135E-02  0.4973728E+03  0.7818609E-02  0.1014467E+00
        2   -1    0    0  501    0  0.00000000000E+00  0.00000000000E+00  0.11420069533E+03  0.11420069536E+03  0.25500000920E-02 0. -1.
       -2   -1    0    0    0  501  0.00000000000E+00  0.00000000000E+00 -0.54154598944E+03  0.54154598945E+03  0.25500000920E-02 0.  1.
    10030    2    1    2    0    0  0.00000000000E+00  0.00000000000E+00 -0.42734529411E+03  0.65574668481E+03  0.49737281212E+03 0.  0.
        1    1    3    3  502    0 -0.20883313338E+03  0.69564556223E+02 -0.36625913401E+03  0.42731283429E+03  0.50400001928E-02 0.  1.
       -1    1    3    3    0  502  0.20883313338E+03 -0.69564556223E+02 -0.61086160099E+02  0.22843385051E+03  0.50400001928E-02 0. -1.
</event>
<event>
 5   0  0.2719671E-02  0.4993320E+03  0.7818609E-02  0.1013953E+00
        1   -1    0    0  501    0  0.00000000000E+00  0.00000000000E+00  0.92960957837E+03  0.92960957838E+03  0.50400001928E-02 0. -1.
       -1   -1    0    0    0  501  0.00000000000E+00  0.00000000000E+00 -0.67053007694E+02  0.67053007884E+02  0.50400001928E-02 0.  1.
    10030    2    1    2    0    0  0.00000000000E+00  0.00000000000E+00  0.86255657067E+03  0.99666258627E+03  0.49933202706E+03 0.  0.
        2    1    3    3  502    0 -0.78488679812E+02 -0.30903065053E+02  0.90030510519E+03  0.90424817098E+03  0.25500000920E-02 0. -1.
       -2    1    3    3    0  502  0.78488679812E+02  0.30903065053E+02 -0.37748534513E+02  0.92414415286E+02  0.25500000920E-02 0.  1.
</event>
<event>
 5   0  0.4534223E-02  0.4992377E+03  0.7818609E-02  0.1013978E+00
       -2   -1    0    0    0  501  0.00000000000E+00  0.00000000000E+00  0.22041966324E+02  0.22041966472E+02  0.25500000920E-02 0.  1.
        2   -1    0    0  501    0  0.00000000000E+00  0.00000000000E+00 -0.28268607267E+04  0.28268607267E+04  0.25500000920E-02 0. -1.
    10030    2    1    2    0    0  0.00000000000E+00  0.00000000000E+00 -0.28048187603E+04  0.28489026931E+04  0.49923769550E+03 0.  0.
        2    1    3    3  502    0  0.17621878370E+03  0.16151447970E+03 -0.18127060305E+04  0.18283990647E+04  0.25500000920E-02 0.  1.
       -2    1    3    3    0  502 -0.17621878370E+03 -0.16151447970E+03 -0.99211272987E+03  0.10205036284E+04  0.25500000920E-02 0. -1.
</event>
<event>
 5   0  0.4451135E-02  0.4942488E+03  0.7818609E-02  0.1015291E+00
        2   -1    0    0  501    0  0.00000000000E+00  0.00000000000E+00  0.95165604180E+03  0.95165604180E+03  0.25500000920E-02 0. -1.
       -2   -1    0    0    0  501  0.00000000000E+00  0.00000000000E+00 -0.64172831728E+02  0.64172831778E+02  0.25500000920E-02 0.  1.
    10030    2    1    2    0    0  0.00000000000E+00  0.00000000000E+00  0.88748321007E+03  0.10158288736E+04  0.49424877566E+03 0.  0.
        1    1    3    3  502    0 -0.40676087960E+02  0.13418092127E+03  0.25492612607E+02  0.14250942807E+03  0.50400001928E-02 0.  1.
       -1    1    3    3    0  502  0.40676087960E+02 -0.13418092127E+03  0.86199059746E+03  0.87331944551E+03  0.50400001928E-02 0. -1.
</event>
<event>
 5   0  0.2719671E-02  0.4985330E+03  0.7818609E-02  0.1014163E+00
       -1   -1    0    0    0  501  0.00000000000E+00  0.00000000000E+00  0.15996922422E+03  0.15996922430E+03  0.50400001928E-02 0. -1.
        1   -1    0    0  501    0  0.00000000000E+00  0.00000000000E+00 -0.38841083143E+03  0.38841083146E+03  0.50400001928E-02 0.  1.
    10030    2    1    2    0    0  0.00000000000E+00  0.00000000000E+00 -0.22844160721E+03  0.54838005576E+03  0.49853296546E+03 0.  0.
        2    1    3    3  502    0  0.85221946736E+01 -0.13125418199E+03  0.11868968694E+03  0.17716526150E+03  0.25500000920E-02 0. -1.
       -2    1    3    3    0  502 -0.85221946736E+01  0.13125418199E+03 -0.34713129415E+03  0.37121479426E+03  0.25500000920E-02 0.  1.
</event>
<event>
 5   0  0.2723308E-02  0.5001231E+03  0.7818609E-02  0.1013747E+00
       -1   -1    0    0    0  501  0.00000000000E+00  0.00000000000E+00  0.28693396365E+03  0.28693396369E+03  0.50400001928E-02 0.  1.
        1   -1    0    0  501    0  0.00000000000E+00  0.00000000000E+00 -0.21792743675E+03  0.21792743681E+03  0.50400001928E-02 0. -1.
    10030    2    1    2    0    0  0.00000000000E+00  0.00000000000E+00  0.69006526897E+02  0.50486140050E+03  0.50012311780E+03 0.  0.
        4    1    3    3  502    0 -0.10672306998E+03 -0.94815738162E+02 -0.17274485112E+03  0.22410317793E+03  0.12699999809E+01 0. -1.
       -4    1    3    3    0  502  0.10672306998E+03  0.94815738162E+02  0.24175137801E+03  0.28075822257E+03  0.12699999809E+01 0.  1.
</event>
<event>
 5   0  0.4631619E-02  0.5040580E+03  0.7818609E-02  0.1012725E+00
       -2   -1    0    0    0  501  0.00000000000E+00  0.00000000000E+00  0.41031002352E+03  0.41031002352E+03  0.25500000920E-02 0. -1.
        2   -1    0    0  501    0  0.00000000000E+00  0.00000000000E+00 -0.15480639066E+03  0.15480639068E+03  0.25500000920E-02 0.  1.
    10030    2    1    2    0    0  0.00000000000E+00  0.00000000000E+00  0.25550363286E+03  0.56511641420E+03  0.50405798793E+03 0.  0.
        5    1    3    3  502    0 -0.23488336883E+03 -0.10209633531E+02  0.22941144993E+03  0.32852113619E+03  0.46999998093E+01 0. -1.
       -5    1    3    3    0  502  0.23488336883E+03  0.10209633531E+02  0.26092182932E+02  0.23659527801E+03  0.46999998093E+01 0.  1.
</event>
<event>
 5   0  0.2779445E-02  0.5038772E+03  0.7818609E-02  0.1012772E+00
       -1   -1    0    0    0  501  0.00000000000E+00  0.00000000000E+00  0.22813265049E+03  0.22813265054E+03  0.50400001928E-02 0.  1.
        1   -1    0    0  501    0  0.00000000000E+00  0.00000000000E+00 -0.27822878265E+03  0.27822878270E+03  0.50400001928E-02 0. -1.
    10030    2    1    2    0    0  0.00000000000E+00  0.00000000000E+00 -0.50096132162E+02  0.50636143324E+03  0.50387724558E+03 0.  0.
        3    1    3    3  502    0  0.90495140131E+02  0.22010586379E+03  0.58046336477E+02  0.24495989272E+03  0.10100000352E+00 0.  1.
       -3    1    3    3    0  502 -0.90495140131E+02 -0.22010586379E+03 -0.10814246864E+03  0.26140154052E+03  0.10100000352E+00 0. -1.
</event>
<event>
 5   0  0.2643185E-02  0.4976337E+03  0.7818609E-02  0.1014398E+00
       -1   -1    0    0    0  501  0.00000000000E+00  0.00000000000E+00  0.58597909978E+02  0.58597910195E+02  0.50400001928E-02 0. -1.
        1   -1    0    0  501    0  0.00000000000E+00  0.00000000000E+00 -0.10565192175E+04  0.10565192175E+04  0.50400001928E-02 0.  1.
    10030    2    1    2    0    0  0.00000000000E+00  0.00000000000E+00 -0.99792130750E+03  0.11151171277E+04  0.49763367299E+03 0.  0.
        1    1    3    3  502    0 -0.18939642617E+02  0.27222804063E+02  0.53623370292E+02  0.63049639098E+02  0.50400001928E-02 0. -1.
       -1    1    3    3    0  502  0.18939642617E+02 -0.27222804063E+02 -0.10515446778E+04  0.10520674886E+04  0.50400001928E-02 0.  1.
</event>
<event>
 5   0  0.4409622E-02  0.5001244E+03  0.7818609E-02  0.1013746E+00
        2   -1    0    0  501    0  0.00000000000E+00  0.00000000000E+00  0.24652605055E+03  0.24652605056E+03  0.25500000920E-02 0. -1.
       -2   -1    0    0    0  501  0.00000000000E+00  0.00000000000E+00 -0.25364909252E+03  0.25364909254E+03  0.25500000920E-02 0.  1.
    10030    2    1    2    0    0  0.00000000000E+00  0.00000000000E+00 -0.71230419757E+01  0.50017514310E+03  0.50012442056E+03 0.  0.
        3    1    3    3  502    0 -0.10220511509E+03 -0.15606773420E+03 -0.17009590255E+03  0.25245920358E+03  0.10100000352E+00 0.  1.
       -3    1    3    3    0  502  0.10220511509E+03  0.15606773420E+03  0.16297286057E+03  0.24771593952E+03  0.10100000352E+00 0. -1.
</event>
<event>
 5   0  0.4631619E-02  0.5029965E+03  0.7818609E-02  0.1013000E+00
        2   -1    0    0  501    0  0.00000000000E+00  0.00000000000E+00  0.99906304287E+03  0.99906304287E+03  0.25500000920E-02 0.  1.
       -2   -1    0    0    0  501  0.00000000000E+00  0.00000000000E+00 -0.63310691159E+02  0.63310691210E+02  0.25500000920E-02 0. -1.
    10030    2    1    2    0    0  0.00000000000E+00  0.00000000000E+00  0.93575235171E+03  0.10623737341E+04  0.50299650808E+03 0.  0.
        5    1    3    3  502    0 -0.20168823875E+03  0.81860087421E+02  0.73378199425E+03  0.76540010756E+03  0.46999998093E+01 0.  1.
       -5    1    3    3    0  502  0.20168823875E+03 -0.81860087421E+02  0.20197035746E+03  0.29697362652E+03  0.46999998093E+01 0. -1.
</event>
<event>
 5   0  0.2715483E-02  0.4995526E+03  0.7818609E-02  0.1013896E+00
       -1   -1    0    0    0  501  0.00000000000E+00  0.00000000000E+00  0.10560803631E+03  0.10560803643E+03  0.50400001928E-02 0.  1.
        1   -1    0    0  501    0  0.00000000000E+00  0.00000000000E+00 -0.59075239341E+03  0.59075239343E+03  0.50400001928E-02 0. -1.
    10030    2    1    2    0    0  0.00000000000E+00  0.00000000000E+00 -0.48514435710E+03  0.69636042987E+03  0.49955260089E+03 0.  0.
        5    1    3    3  502    0  0.23808970406E+03  0.72163101717E+02 -0.27285338484E+03  0.36927669849E+03  0.46999998093E+01 0.  1.
       -5    1    3    3    0  502 -0.23808970406E+03 -0.72163101717E+02 -0.21229097226E+03  0.32708373138E+03  0.46999998093E+01 0. -1.
</event>
<event>
 5   0  0.2719671E-02  0.4986317E+03  0.7818609E-02  0.1014137E+00
        1   -1    0    0  501    0  0.00000000000E+00  0.00000000000E+00  0.12301118627E+03  0.12301118637E+03  0.50400001928E-02 0. -1.
       -1   -1    0    0    0  501  0.00000000000E+00  0.00000000000E+00 -0.50530675689E+03  0.50530675692E+03  0.50400001928E-02 0.  1.
    10030    2    1    2    0    0  0.00000000000E+00  0.00000000000E+00 -0.38229557063E+03  0.62831794329E+03  0.49863166219E+03 0.  0.
        2    1    3    3  502    0  0.10122458149E+03 -0.20617009986E+03 -0.68940017559E+02  0.23980252710E+03  0.25500000920E-02 0. -1.
       -2    1    3    3    0  502 -0.10122458149E+03  0.20617009986E+03 -0.31335555307E+03  0.38851541619E+03  0.25500000920E-02 0.  1.
</event>
<event>
 5   0  0.4519539E-02  0.5003553E+03  0.7818609E-02  0.1013686E+00
       -2   -1    0    0    0  501  0.00000000000E+00  0.00000000000E+00  0.37444564988E+02  0.37444565075E+02  0.25500000920E-02 0.  1.
        2   -1    0    0  501    0  0.00000000000E+00  0.00000000000E+00 -0.16715074061E+04  0.16715074061E+04  0.25500000920E-02 0. -1.
    10030    2    1    2    0    0  0.00000000000E+00  0.00000000000E+00 -0.16340628411E+04  0.17089519712E+04  0.50035534482E+03 0.  0.
        4    1    3    3  502    0 -0.14587669174E+01 -0.10227824329E+03 -0.37252697021E+02  0.10886846829E+03  0.12699999809E+01 0.  1.
       -4    1    3    3    0  502  0.14587669174E+01  0.10227824329E+03 -0.15968101441E+04  0.16000835029E+04  0.12699999809E+01 0. -1.
</event>
<event>
 5   0  0.4631619E-02  0.4990288E+03  0.7818609E-02  0.1014033E+00
       -2   -1    0    0    0  501  0.00000000000E+00  0.00000000000E+00  0.15158376554E+03  0.15158376557E+03  0.25500000920E-02 0.  1.
        2   -1    0    0  501    0  0.00000000000E+00  0.00000000000E+00 -0.41071315301E+03  0.41071315302E+03  0.25500000920E-02 0. -1.
    10030    2    1    2    0    0  0.00000000000E+00  0.00000000000E+00 -0.25912938746E+03  0.56229691858E+03  0.49902884205E+03 0.  0.
        5    1    3    3  502    0 -0.41233132165E+02 -0.19578878767E+02  0.14678854612E+03  0.15379359854E+03  0.46999998093E+01 0.  1.
       -5    1    3    3    0  502  0.41233132165E+02  0.19578878767E+02 -0.40591793358E+03  0.40850332004E+03  0.46999998093E+01 0. -1.
</event>
<event>
 5   0  0.2723308E-02  0.5004003E+03  0.7818609E-02  0.1013674E+00
       -1   -1    0    0    0  501  0.00000000000E+00  0.00000000000E+00  0.74748078668E+02  0.74748078838E+02  0.50400001928E-02 0. -1.
        1   -1    0    0  501    0  0.00000000000E+00  0.00000000000E+00 -0.83748135780E+03  0.83748135781E+03  0.50400001928E-02 0.  1.
    10030    2    1    2    0    0  0.00000000000E+00  0.00000000000E+00 -0.76273327913E+03  0.91222943665E+03  0.50040032973E+03 0.  0.
        4    1    3    3  502    0  0.37936342330E+02  0.23806213624E+03 -0.25926973645E+03  0.35402705535E+03  0.12699999809E+01 0. -1.
       -4    1    3    3    0  502 -0.37936342330E+02 -0.23806213624E+03 -0.50346354267E+03  0.55820238130E+03  0.12699999809E+01 0.  1.
</event>
<event>
 5   0  0.4534223E-02  0.4973112E+03  0.7818609E-02  0.1014483E+00
       -2   -1    0    0    0  501  0.00000000000E+00  0.00000000000E+00  0.84185137538E+02  0.84185137576E+02  0.25500000920E-02 0.  1.
        2   -1    0    0  501    0  0.00000000000E+00  0.00000000000E+00 -0.73444788727E+03  0.73444788727E+03  0.25500000920E-02 0. -1.
    10030    2    1    2    0    0  0.00000000000E+00  0.00000000000E+00 -0.65026274973E+03  0.81863302485E+03  0.49731115580E+03 0.  0.
        2    1    3    3  502    0  0.34943436195E+02 -0.68777695746E+02  0.63987403878E+02  0.10022875349E+03  0.25500000920E-02 0.  1.
       -2    1    3    3    0  502 -0.34943436195E+02  0.68777695746E+02 -0.71425015361E+03  0.71840427136E+03  0.25500000920E-02 0. -1.
</event>
<event>
 5   0  0.1805500E-02  0.4997871E+03  0.7818609E-02  0.1013835E+00
       -3   -1    0    0    0  501  0.00000000000E+00  0.00000000000E+00  0.38175681722E+03  0.38175683058E+03  0.10100000352E+00 0. -1.
        3   -1    0    0  501    0  0.00000000000E+00  0.00000000000E+00 -0.16357734338E+03  0.16357737456E+03  0.10100000352E+00 0.  1.
    10030    2    1    2    0    0  0.00000000000E+00  0.00000000000E+00  0.21817947385E+03  0.54533420514E+03  0.49978706715E+03 0.  0.
        1    1    3    3  502    0  0.23123316860E+03  0.82213382313E+02  0.16048847106E+03  0.29323091218E+03  0.50400001928E-02 0. -1.
       -1    1    3    3    0  502 -0.23123316860E+03 -0.82213382313E+02  0.57691002791E+02  0.25210329296E+03  0.50400001928E-02 0.  1.
</event>
<event>
 5   0  0.2719671E-02  0.4992236E+03  0.7818609E-02  0.1013982E+00
       -1   -1    0    0    0  501  0.00000000000E+00  0.00000000000E+00  0.62602635177E+02  0.62602635380E+02  0.50400001928E-02 0.  1.
        1   -1    0    0  501    0  0.00000000000E+00  0.00000000000E+00 -0.99526250090E+03  0.99526250091E+03  0.50400001928E-02 0. -1.
    10030    2    1    2    0    0  0.00000000000E+00  0.00000000000E+00 -0.93265986572E+03  0.10578651363E+04  0.49922361869E+03 0.  0.
        2    1    3    3  502    0  0.13476099900E+03 -0.20822163229E+03 -0.40679788439E+03  0.47644652770E+03  0.25500000920E-02 0.  1.
       -2    1    3    3    0  502 -0.13476099900E+03  0.20822163229E+03 -0.52586198133E+03  0.58141860859E+03  0.25500000920E-02 0. -1.
</event>
<event>
 5   0  0.4451135E-02  0.4947377E+03  0.7818609E-02  0.1015162E+00
       -2   -1    0    0    0  501  0.00000000000E+00  0.00000000000E+00  0.98349788381E+02  0.98349788414E+02  0.25500000920E-02 0. -1.
        2   -1    0    0  501    0  0.00000000000E+00  0.00000000000E+00 -0.62218068056E+03  0.62218068056E+03  0.25500000920E-02 0.  1.
    10030    2    1    2    0    0  0.00000000000E+00  0.00000000000E+00 -0.52383089218E+03  0.72053046898E+03  0.49473766091E+03 0.  0.
        1    1    3    3  502    0 -0.16820954486E+03 -0.17747663507E+03 -0.20744316414E+03  0.32066348927E+03  0.50400001928E-02 0.  1.
       -1    1    3    3    0  502  0.16820954486E+03  0.17747663507E+03 -0.31638772804E+03  0.39986697971E+03  0.50400001928E-02 0. -1.
</event>
<event>
 5   0  0.2643185E-02  0.5004192E+03  0.7818609E-02  0.1013670E+00
        1   -1    0    0  501    0  0.00000000000E+00  0.00000000000E+00  0.50849654084E+03  0.50849654086E+03  0.50400001928E-02 0. -1.
       -1   -1    0    0    0  501  0.00000000000E+00  0.00000000000E+00 -0.12311753908E+03  0.12311753918E+03  0.50400001928E-02 0.  1.
    10030    2    1    2    0    0  0.00000000000E+00  0.00000000000E+00  0.38537900176E+03  0.63161408005E+03  0.50041919539E+03 0.  0.
        1    1    3    3  502    0  0.15092378563E+02 -0.47168756614E+02 -0.11686954306E+03  0.12692975070E+03  0.50400001928E-02 0.  1.
       -1    1    3    3    0  502 -0.15092378563E+02  0.47168756614E+02  0.50224854482E+03  0.50468432935E+03  0.50400001928E-02 0. -1.
</event>
<event>
 5   0  0.2779445E-02  0.5034132E+03  0.7818609E-02  0.1012892E+00
       -1   -1    0    0    0  501  0.00000000000E+00  0.00000000000E+00  0.12929747997E+03  0.12929748007E+03  0.50400001928E-02 0.  1.
        1   -1    0    0  501    0  0.00000000000E+00  0.00000000000E+00 -0.49000343759E+03  0.49000343762E+03  0.50400001928E-02 0. -1.
    10030    2    1    2    0    0  0.00000000000E+00  0.00000000000E+00 -0.36070595762E+03  0.61930091769E+03  0.50341318893E+03 0.  0.
        3    1    3    3  502    0  0.13863753764E+03  0.16526908755E+03 -0.20796130388E+02  0.21671808274E+03  0.10100000352E+00 0.  1.
       -3    1    3    3    0  502 -0.13863753764E+03 -0.16526908755E+03 -0.33990982724E+03  0.40258283495E+03  0.10100000352E+00 0. -1.
</event>
<event>
 5   0  0.4519539E-02  0.4978483E+03  0.7818609E-02  0.1014342E+00
        2   -1    0    0  501    0  0.00000000000E+00  0.00000000000E+00  0.38462046043E+03  0.38462046044E+03  0.25500000920E-02 0.  1.
       -2   -1    0    0    0  501  0.00000000000E+00  0.00000000000E+00 -0.16110224781E+03  0.16110224783E+03  0.25500000920E-02 0. -1.
    10030    2    1    2    0    0  0.00000000000E+00  0.00000000000E+00  0.22351821262E+03  0.54572270827E+03  0.49784825293E+03 0.  0.
        4    1    3    3  502    0  0.36185493900E+01  0.82752919258E+02  0.36906674735E+03  0.37824993912E+03  0.12699999809E+01 0.  1.
       -4    1    3    3    0  502 -0.36185493900E+01 -0.82752919258E+02 -0.14554853473E+03  0.16747276915E+03  0.12699999809E+01 0. -1.
</event>
<event>
 5   0  0.4451135E-02  0.4989345E+03  0.7818609E-02  0.1014057E+00
        2   -1    0    0  501    0  0.00000000000E+00  0.00000000000E+00  0.30910588959E+04  0.30910588959E+04  0.25500000920E-02 0.  1.
       -2   -1    0    0    0  501  0.00000000000E+00  0.00000000000E+00 -0.20133526116E+02  0.20133526277E+02  0.25500000920E-02 0. -1.
    10030    2    1    2    0    0  0.00000000000E+00  0.00000000000E+00  0.30709253698E+04  0.31111924221E+04  0.49893452580E+03 0.  0.
        1    1    3    3  502    0 -0.69610635428E+02  0.14273408486E+03  0.33575983245E+03  0.37142068421E+03  0.50400001928E-02 0. -1.
       -1    1    3    3    0  502  0.69610635428E+02 -0.14273408486E+03  0.27351655373E+04  0.27397717379E+04  0.50400001928E-02 0.  1.
</event>
<event>
 5   0  0.1805500E-02  0.4997959E+03  0.7818609E-02  0.1013832E+00
        4   -1    0    0  501    0  0.00000000000E+00  0.00000000000E+00  0.58251865415E+03  0.58252003857E+03  0.12699999809E+01 0. -1.
       -4   -1    0    0    0  501  0.00000000000E+00  0.00000000000E+00 -0.10719986715E+03  0.10720738975E+03  0.12699999809E+01 0.  1.
    10030    2    1    2    0    0  0.00000000000E+00  0.00000000000E+00  0.47531878700E+03  0.68972742833E+03  0.49979593447E+03 0.  0.
        4    1    3    3  502    0  0.11451928005E+03 -0.41966032155E+02  0.53865385886E+03  0.55229105183E+03  0.12699999809E+01 0. -1.
       -4    1    3    3    0  502 -0.11451928005E+03  0.41966032155E+02 -0.63335071866E+02  0.13743637650E+03  0.12699999809E+01 0.  1.
</event>
<event>
 5   0  0.2723308E-02  0.5012771E+03  0.7818609E-02  0.1013446E+00
       -1   -1    0    0    0  501  0.00000000000E+00  0.00000000000E+00  0.36932164518E+03  0.36932164521E+03  0.50400001928E-02 0. -1.
        1   -1    0    0  501    0  0.00000000000E+00  0.00000000000E+00 -0.17009476751E+03  0.17009476759E+03  0.50400001928E-02 0.  1.
    10030    2    1    2    0    0  0.00000000000E+00  0.00000000000E+00  0.19922687767E+03  0.53941641280E+03  0.50127708666E+03 0.  0.
        4    1    3    3  502    0 -0.92305671563E+01 -0.11880766063E+03  0.33688357208E+03  0.35734103827E+03  0.12699999809E+01 0. -1.
       -4    1    3    3    0  502  0.92305671563E+01  0.11880766063E+03 -0.13765669441E+03  0.18207537453E+03  0.12699999809E+01 0.  1.
</event>
<event>
 5   0  0.2715483E-02  0.5012694E+03  0.7818609E-02  0.1013448E+00
        1   -1    0    0  501    0  0.00000000000E+00  0.00000000000E+00  0.59714873953E+03  0.59714873955E+03  0.50400001928E-02 0. -1.
       -1   -1    0    0    0  501  0.00000000000E+00  0.00000000000E+00 -0.10519616432E+03  0.10519616444E+03  0.50400001928E-02 0.  1.
    10030    2    1    2    0    0  0.00000000000E+00  0.00000000000E+00  0.49195257521E+03  0.70234490399E+03  0.50126941650E+03 0.  0.
        5    1    3    3  502    0  0.24157148230E+03  0.30539971281E+02  0.32894174792E+03  0.40928502834E+03  0.46999998093E+01 0. -1.
       -5    1    3    3    0  502 -0.24157148230E+03 -0.30539971281E+02  0.16301082729E+03  0.29305987565E+03  0.46999998093E+01 0.  1.
</event>
<event>
 5   0  0.4534223E-02  0.4996745E+03  0.7818609E-02  0.1013864E+00
        2   -1    0    0  501    0  0.00000000000E+00  0.00000000000E+00  0.44996126088E+03  0.44996126089E+03  0.25500000920E-02 0. -1.
       -2   -1    0    0    0  501  0.00000000000E+00  0.00000000000E+00 -0.13872005643E+03  0.13872005646E+03  0.25500000920E-02 0.  1.
    10030    2    1    2    0    0  0.00000000000E+00  0.00000000000E+00  0.31124120445E+03  0.58868131734E+03  0.49967450009E+03 0.  0.
        2    1    3    3  502    0 -0.21614482814E+03 -0.12452107958E+03  0.17205394812E+03  0.30302911917E+03  0.25500000920E-02 0.  1.
       -2    1    3    3    0  502  0.21614482814E+03  0.12452107958E+03  0.13918725633E+03  0.28565219818E+03  0.25500000920E-02 0. -1.
</event>
<event>
 5   0  0.2723308E-02  0.5037183E+03  0.7818609E-02  0.1012813E+00
       -1   -1    0    0    0  501  0.00000000000E+00  0.00000000000E+00  0.43236515674E+02  0.43236515968E+02  0.50400001928E-02 0. -1.
        1   -1    0    0  501    0  0.00000000000E+00  0.00000000000E+00 -0.14671168250E+04  0.14671168251E+04  0.50400001928E-02 0.  1.
    10030    2    1    2    0    0  0.00000000000E+00  0.00000000000E+00 -0.14238803094E+04  0.15103533410E+04  0.50371825391E+03 0.  0.
        4    1    3    3  502    0 -0.74609404729E+02 -0.19708201415E+03 -0.29838222808E+03  0.36529638721E+03  0.12699999809E+01 0. -1.
       -4    1    3    3    0  502  0.74609404729E+02  0.19708201415E+03 -0.11254980813E+04  0.11450569538E+04  0.12699999809E+01 0.  1.
</event>
<event>
 5   0  0.4631619E-02  0.5008201E+03  0.7818609E-02  0.1013565E+00
       -2   -1    0    0    0  501  0.00000000000E+00  0.00000000000E+00  0.50859729667E+02  0.50859729731E+02  0.25500000920E-02 0.  1.
        2   -1    0    0  501    0  0.00000000000E+00  0.00000000000E+00 -0.12329045110E+04  0.12329045110E+04  0.25500000920E-02 0. -1.
    10030    2    1    2    0    0  0.00000000000E+00  0.00000000000E+00 -0.11820447813E+04  0.12837642407E+04  0.50082008817E+03 0.  0.
        5    1    3    3  502    0 -0.81413900223E+02  0.14685379125E+03 -0.10670617194E+04  0.10802023247E+04  0.46999998093E+01 0. -1.
       -5    1    3    3    0  502  0.81413900223E+02 -0.14685379125E+03 -0.11498306193E+03  0.20356191609E+03  0.46999998093E+01 0.  1.
</event>
<event>
 5   0  0.2715483E-02  0.4999234E+03  0.7818609E-02  0.1013799E+00
        1   -1    0    0  501    0  0.00000000000E+00  0.00000000000E+00  0.34564827233E+03  0.34564827237E+03  0.50400001928E-02 0. -1.
       -1   -1    0    0    0  501  0.00000000000E+00  0.00000000000E+00 -0.18076425164E+03  0.18076425171E+03  0.50400001928E-02 0.  1.
    10030    2    1    2    0    0  0.00000000000E+00  0.00000000000E+00  0.16488402069E+03  0.52641252407E+03  0.49992339936E+03 0.  0.
        5    1    3    3  502    0 -0.86109300310E+02  0.13724150373E+03 -0.11792643608E+03  0.20044644240E+03  0.46999998093E+01 0.  1.
       -5    1    3    3    0  502  0.86109300310E+02 -0.13724150373E+03  0.28281045677E+03  0.32596608168E+03  0.46999998093E+01 0. -1.
</event>
<event>
 5   0  0.2723308E-02  0.4996985E+03  0.7818609E-02  0.1013858E+00
       -1   -1    0    0    0  501  0.00000000000E+00  0.00000000000E+00  0.24818968005E+03  0.24818968010E+03  0.50400001928E-02 0. -1.
        1   -1    0    0  501    0  0.00000000000E+00  0.00000000000E+00 -0.25151996411E+03  0.25151996416E+03  0.50400001928E-02 0.  1.
    10030    2    1    2    0    0  0.00000000000E+00  0.00000000000E+00 -0.33302840594E+01  0.49970964426E+03  0.49969854690E+03 0.  0.
        4    1    3    3  502    0  0.86662704447E+02 -0.57956007100E+02 -0.22872463487E+03  0.25136804610E+03  0.12699999809E+01 0.  1.
       -4    1    3    3    0  502 -0.86662704447E+02  0.57956007100E+02  0.22539435081E+03  0.24834159817E+03  0.12699999809E+01 0. -1.
</event>
<event>
 5   0  0.4534223E-02  0.4994282E+03  0.7818609E-02  0.1013928E+00
        2   -1    0    0  501    0  0.00000000000E+00  0.00000000000E+00  0.13704056280E+03  0.13704056283E+03  0.25500000920E-02 0. -1.
       -2   -1    0    0    0  501  0.00000000000E+00  0.00000000000E+00 -0.45502682114E+03  0.45502682115E+03  0.25500000920E-02 0.  1.
    10030    2    1    2    0    0  0.00000000000E+00  0.00000000000E+00 -0.31798625834E+03  0.59206738398E+03  0.49942819972E+03 0.  0.
        2    1    3    3  502    0  0.13171655480E+03  0.87238282149E+02 -0.38824799719E+03  0.41916139613E+03  0.25500000920E-02 0.  1.
       -2    1    3    3    0  502 -0.13171655480E+03 -0.87238282149E+02  0.70261738849E+02  0.17290598784E+03  0.25500000920E-02 0. -1.
</event>
<event>
 5   0  0.2715483E-02  0.5002615E+03  0.7818609E-02  0.1013711E+00
       -1   -1    0    0    0  501  0.00000000000E+00  0.00000000000E+00  0.22942582607E+03  0.22942582613E+03  0.50400001928E-02 0.  1.
        1   -1    0    0  501    0  0.00000000000E+00  0.00000000000E+00 -0.27270419941E+03  0.27270419946E+03  0.50400001928E-02 0. -1.
    10030    2    1    2    0    0  0.00000000000E+00  0.00000000000E+00 -0.43278373342E+02  0.50213002559E+03  0.50026147662E+03 0.  0.
        5    1    3    3  502    0 -0.22648571125E+03 -0.81620253872E+02 -0.89609570926E+02  0.25692335130E+03  0.46999998093E+01 0. -1.
       -5    1    3    3    0  502  0.22648571125E+03  0.81620253872E+02  0.46331197584E+02  0.24520667428E+03  0.46999998093E+01 0.  1.
</event>
<event>
 5   0  0.4451135E-02  0.4984038E+03  0.7818609E-02  0.1014196E+00
       -2   -1    0    0    0  501  0.00000000000E+00  0.00000000000E+00  0.31123501332E+02  0.31123501436E+02  0.25500000920E-02 0.  1.
        2   -1    0    0  501    0  0.00000000000E+00  0.00000000000E+00 -0.19953277136E+04  0.19953277136E+04  0.25500000920E-02 0. -1.
    10030    2    1    2    0    0  0.00000000000E+00  0.00000000000E+00 -0.19642042123E+04  0.20264512151E+04  0.49840379156E+03 0.  0.
        1    1    3    3  502    0  0.17465205270E+03 -0.58093997838E+02 -0.16651622786E+04  0.16753040518E+04  0.50400001928E-02 0. -1.
       -1    1    3    3    0  502 -0.17465205270E+03  0.58093997838E+02 -0.29904193375E+03  0.35114716326E+03  0.50400001928E-02 0.  1.
</event>
<event>
 5   0  0.2643185E-02  0.4971042E+03  0.7818609E-02  0.1014538E+00
       -1   -1    0    0    0  501  0.00000000000E+00  0.00000000000E+00  0.22020817915E+03  0.22020817921E+03  0.50400001928E-02 0.  1.
        1   -1    0    0  501    0  0.00000000000E+00  0.00000000000E+00 -0.28054423137E+03  0.28054423141E+03  0.50400001928E-02 0. -1.
    10030    2    1    2    0    0  0.00000000000E+00  0.00000000000E+00 -0.60336052217E+02  0.50075241062E+03  0.49710415161E+03 0.  0.
        1    1    3    3  502    0  0.32419196768E+02 -0.19261044034E+02  0.21730985849E+03  0.22055740015E+03  0.50400001928E-02 0.  1.
       -1    1    3    3    0  502 -0.32419196768E+02  0.19261044034E+02 -0.27764591071E+03  0.28019501048E+03  0.50400001928E-02 0. -1.
</event>
<event>
 5   0  0.2719671E-02  0.5060290E+03  0.7818609E-02  0.1012217E+00
        1   -1    0    0  501    0  0.00000000000E+00  0.00000000000E+00  0.25326245789E+03  0.25326245794E+03  0.50400001928E-02 0. -1.
       -1   -1    0    0    0  501  0.00000000000E+00  0.00000000000E+00 -0.25276678356E+03  0.25276678361E+03  0.50400001928E-02 0.  1.
    10030    2    1    2    0    0  0.00000000000E+00  0.00000000000E+00  0.49567433107E+00  0.50602924155E+03  0.50602899878E+03 0.  0.
        2    1    3    3  502    0  0.22915330761E+03  0.38198100491E+02  0.10047763945E+03  0.25311279957E+03  0.25500000920E-02 0.  1.
       -2    1    3    3    0  502 -0.22915330761E+03 -0.38198100491E+02 -0.99981965114E+02  0.25291644198E+03  0.25500000920E-02 0. -1.
</event>
<event>
 5   0  0.4519539E-02  0.5006251E+03  0.7818609E-02  0.1013616E+00
        2   -1    0    0  501    0  0.00000000000E+00  0.00000000000E+00  0.10250628903E+04  0.10250628903E+04  0.25500000920E-02 0. -1.
       -2   -1    0    0    0  501  0.00000000000E+00  0.00000000000E+00 -0.61124430130E+02  0.61124430183E+02  0.25500000920E-02 0.  1.
    10030    2    1    2    0    0  0.00000000000E+00  0.00000000000E+00  0.96393846019E+03  0.10861873205E+04  0.50062514938E+03 0.  0.
        4    1    3    3  502    0  0.36599715827E+02  0.21203239802E+03  0.20447723093E+03  0.29683299661E+03  0.12699999809E+01 0.  1.
       -4    1    3    3    0  502 -0.36599715827E+02 -0.21203239802E+03  0.75946122926E+03  0.78935432390E+03  0.12699999809E+01 0. -1.
</event>
<event>
 5   0  0.4534223E-02  0.5007305E+03  0.7818609E-02  0.1013588E+00
       -2   -1    0    0    0  501  0.00000000000E+00  0.00000000000E+00  0.12195224864E+03  0.12195224866E+03  0.25500000920E-02 0.  1.
        2   -1    0    0  501    0  0.00000000000E+00  0.00000000000E+00 -0.51399425073E+03  0.51399425073E+03  0.25500000920E-02 0. -1.
    10030    2    1    2    0    0  0.00000000000E+00  0.00000000000E+00 -0.39204200209E+03  0.63594649940E+03  0.50073048508E+03 0.  0.
        2    1    3    3  502    0 -0.24768079491E+02 -0.11084138595E+03  0.87352471420E+02  0.14328197678E+03  0.25500000920E-02 0.  1.
       -2    1    3    3    0  502  0.24768079491E+02  0.11084138595E+03 -0.47939447351E+03  0.49266452261E+03  0.25500000920E-02 0. -1.
</event>
<event>
 5   0  0.4519539E-02  0.4917697E+03  0.7818609E-02  0.1015950E+00
        2   -1    0    0  501    0  0.00000000000E+00  0.00000000000E+00  0.20907766250E+04  0.20907766251E+04  0.25500000920E-02 0. -1.
       -2   -1    0    0    0  501  0.00000000000E+00  0.00000000000E+00 -0.28917181147E+02  0.28917181259E+02  0.25500000920E-02 0.  1.
    10030    2    1    2    0    0  0.00000000000E+00  0.00000000000E+00  0.20618594439E+04  0.21196938063E+04  0.49176972874E+03 0.  0.
        4    1    3    3  502    0  0.73154207287E+02  0.80652411288E+02  0.19811750591E+04  0.19841654612E+04  0.12699999809E+01 0. -1.
       -4    1    3    3    0  502 -0.73154207287E+02 -0.80652411288E+02  0.80684384776E+02  0.13552834514E+03  0.12699999809E+01 0.  1.
</event>
<event>
 5   0  0.1805500E-02  0.4982281E+03  0.7818609E-02  0.1014242E+00
        4   -1    0    0  501    0  0.00000000000E+00  0.00000000000E+00  0.42822974449E+03  0.42823162770E+03  0.12699999809E+01 0. -1.
       -4   -1    0    0    0  501  0.00000000000E+00  0.00000000000E+00 -0.14491213734E+03  0.14491770232E+03  0.12699999809E+01 0.  1.
    10030    2    1    2    0    0  0.00000000000E+00  0.00000000000E+00  0.28331760715E+03  0.57314933002E+03  0.49822814853E+03 0.  0.
        5    1    3    3  502    0  0.13972204048E+03 -0.15341766288E+03 -0.16811406361E+02  0.20824010483E+03  0.46999998093E+01 0.  1.
       -5    1    3    3    0  502 -0.13972204048E+03  0.15341766288E+03  0.30012901351E+03  0.36490922519E+03  0.46999998093E+01 0. -1.
</event>
<event>
 5   0  0.4451135E-02  0.5051368E+03  0.7818609E-02  0.1012447E+00
       -2   -1    0    0    0  501  0.00000000000E+00  0.00000000000E+00  0.49849199456E+02  0.49849199521E+02  0.25500000920E-02 0.  1.
        2   -1    0    0  501    0  0.00000000000E+00  0.00000000000E+00 -0.12796755265E+04  0.12796755265E+04  0.25500000920E-02 0. -1.
    10030    2    1    2    0    0  0.00000000000E+00  0.00000000000E+00 -0.12298263271E+04  0.13295247260E+04  0.50513681555E+03 0.  0.
        1    1    3    3  502    0 -0.10727220020E+03 -0.16659427067E+03 -0.20268788686E+03  0.28344903503E+03  0.50400001928E-02 0.  1.
       -1    1    3    3    0  502  0.10727220020E+03  0.16659427067E+03 -0.10271384402E+04  0.10460756910E+04  0.50400001928E-02 0. -1.
</event>
<event>
 5   0  0.2723308E-02  0.5026659E+03  0.7818609E-02  0.1013085E+00
       -1   -1    0    0    0  501  0.00000000000E+00  0.00000000000E+00  0.26891918922E+03  0.26891918926E+03  0.50400001928E-02 0. -1.
        1   -1    0    0  501    0  0.00000000000E+00  0.00000000000E+00 -0.23489674653E+03  0.23489674658E+03  0.50400001928E-02 0.  1.
    10030    2    1    2    0    0  0.00000000000E+00  0.00000000000E+00  0.34022442688E+02  0.50381593585E+03  0.50266586378E+03 0.  0.
        4    1    3    3  502    0 -0.13252392909E+03 -0.30164982003E+02 -0.19488229241E+03  0.23759890302E+03  0.12699999809E+01 0.  1.
       -4    1    3    3    0  502  0.13252392909E+03  0.30164982003E+02  0.22890473510E+03  0.26621703283E+03  0.12699999809E+01 0. -1.
</event>
<event>
 5   0  0.2719671E-02  0.5001005E+03  0.7818609E-02  0.1013753E+00
       -1   -1    0    0    0  501  0.00000000000E+00  0.00000000000E+00  0.11187461186E+03  0.11187461197E+03  0.50400001928E-02 0.  1.
        1   -1    0    0  501    0  0.00000000000E+00  0.00000000000E+00 -0.55888584098E+03  0.55888584100E+03  0.50400001928E-02 0. -1.
    10030    2    1    2    0    0  0.00000000000E+00  0.00000000000E+00 -0.44701122912E+03  0.67076045297E+03  0.50010053621E+03 0.  0.
        2    1    3    3  502    0  0.16053887703E+03 -0.13624476689E+03 -0.40439943096E+03  0.45593230562E+03  0.25500000920E-02 0. -1.
       -2    1    3    3    0  502 -0.16053887703E+03  0.13624476689E+03 -0.42611798158E+02  0.21482814735E+03  0.25500000920E-02 0.  1.
</event>
<event>
 5   0  0.2723308E-02  0.4993108E+03  0.7818609E-02  0.1013959E+00
        1   -1    0    0  501    0  0.00000000000E+00  0.00000000000E+00  0.22301766677E+03  0.22301766683E+03  0.50400001928E-02 0. -1.
       -1   -1    0    0    0  501  0.00000000000E+00  0.00000000000E+00 -0.27947480795E+03  0.27947480800E+03  0.50400001928E-02 0.  1.
    10030    2    1    2    0    0  0.00000000000E+00  0.00000000000E+00 -0.56457141185E+02  0.50249247482E+03  0.49931080347E+03 0.  0.
        4    1    3    3  502    0  0.18629440353E+03  0.12771140955E+03  0.78799461292E+02  0.23922118826E+03  0.12699999809E+01 0. -1.
       -4    1    3    3    0  502 -0.18629440353E+03 -0.12771140955E+03 -0.13525660248E+03  0.26327128656E+03  0.12699999809E+01 0.  1.
</event>
<event>
 5   0  0.4451135E-02  0.5001758E+03  0.7818609E-02  0.1013733E+00
        2   -1    0    0  501    0  0.00000000000E+00  0.00000000000E+00  0.73078410069E+03  0.73078410070E+03  0.25500000920E-02 0. -1.
       -2   -1    0    0    0  501  0.00000000000E+00  0.00000000000E+00 -0.85584726491E+02  0.85584726529E+02  0.25500000920E-02 0.  1.
    10030    2    1    2    0    0  0.00000000000E+00  0.00000000000E+00  0.64519937420E+03  0.81636882723E+03  0.50017579869E+03 0.  0.
        1    1    3    3  502    0  0.29226861465E+02 -0.19742869842E+03  0.76626284506E+02  0.21378467647E+03  0.50400001928E-02 0. -1.
       -1    1    3    3    0  502 -0.29226861465E+02  0.19742869842E+03  0.56857308970E+03  0.60258415076E+03  0.50400001928E-02 0.  1.
</event>
<event>
 5   0  0.2643185E-02  0.4987482E+03  0.7818609E-02  0.1014106E+00
       -1   -1    0    0    0  501  0.00000000000E+00  0.00000000000E+00  0.50273795308E+03  0.50273795310E+03  0.50400001928E-02 0.  1.
        1   -1    0    0  501    0  0.00000000000E+00  0.00000000000E+00 -0.12369751524E+03  0.12369751534E+03  0.50400001928E-02 0. -1.
    10030    2    1    2    0    0  0.00000000000E+00  0.00000000000E+00  0.37904043783E+03  0.62643546845E+03  0.49874817555E+03 0.  0.
        1    1    3    3  502    0 -0.20658879507E+03 -0.72299951732E+02  0.39421249681E+02  0.22239660119E+03  0.50400001928E-02 0. -1.
       -1    1    3    3    0  502  0.20658879507E+03  0.72299951732E+02  0.33961918815E+03  0.40403886726E+03  0.50400001928E-02 0.  1.
</event>
<event>
 5   0  0.2715483E-02  0.4942837E+03  0.7818609E-02  0.1015282E+00
       -1   -1    0    0    0  501  0.00000000000E+00  0.00000000000E+00  0.58017190245E+02  0.58017190464E+02  0.50400001928E-02 0. -1.
        1   -1    0    0  501    0  0.00000000000E+00  0.00000000000E+00 -0.10527758677E+04  0.10527758677E+04  0.50400001928E-02 0.  1.
    10030    2    1    2    0    0  0.00000000000E+00  0.00000000000E+00 -0.99475867742E+03  0.11107930581E+04  0.49428371580E+03 0.  0.
        5    1    3    3  502    0 -0.24077222765E+03  0.54294244482E+02 -0.52376714587E+03  0.57902784362E+03  0.46999998093E+01 0.  1.
       -5    1    3    3    0  502  0.24077222765E+03 -0.54294244482E+02 -0.47099153155E+03  0.53176521452E+03  0.46999998093E+01 0. -1.
</event>
<event>
 5   0  0.2779445E-02  0.4944763E+03  0.7818609E-02  0.1015231E+00
       -1   -1    0    0    0  501  0.00000000000E+00  0.00000000000E+00  0.55423649636E+03  0.55423649638E+03  0.50400001928E-02 0. -1.
        1   -1    0    0  501    0  0.00000000000E+00  0.00000000000E+00 -0.11028992601E+03  0.11028992613E+03  0.50400001928E-02 0.  1.
    10030    2    1    2    0    0  0.00000000000E+00  0.00000000000E+00  0.44394657035E+03  0.66452642251E+03  0.49447629760E+03 0.  0.
        3    1    3    3  502    0 -0.89970882980E+02 -0.20112287427E+03  0.71231602044E+02  0.23155803089E+03  0.10100000352E+00 0.  1.
       -3    1    3    3    0  502  0.89970882980E+02  0.20112287427E+03  0.37271496830E+03  0.43296839162E+03  0.10100000352E+00 0. -1.
</event>
<event>
 5   0  0.4534223E-02  0.4965913E+03  0.7818609E-02  0.1014672E+00
       -2   -1    0    0    0  501  0.00000000000E+00  0.00000000000E+00  0.73983063010E+02  0.73983063054E+02  0.25500000920E-02 0. -1.
        2   -1    0    0  501    0  0.00000000000E+00  0.00000000000E+00 -0.83330862426E+03  0.83330862427E+03  0.25500000920E-02 0.  1.
    10030    2    1    2    0    0  0.00000000000E+00  0.00000000000E+00 -0.75932556125E+03  0.90729168732E+03  0.49659127853E+03 0.  0.
        2    1    3    3  502    0  0.56235536267E+02  0.12593384286E+03 -0.75688754254E+03  0.76935071350E+03  0.25500000920E-02 0.  1.
       -2    1    3    3    0  502 -0.56235536267E+02 -0.12593384286E+03 -0.24380187147E+01  0.13794097382E+03  0.25500000920E-02 0. -1.
</event>
<event>
 5   0  0.4534223E-02  0.5004493E+03  0.7818609E-02  0.1013662E+00
        2   -1    0    0  501    0  0.00000000000E+00  0.00000000000E+00  0.10173357387E+04  0.10173357387E+04  0.25500000920E-02 0. -1.
       -2   -1    0    0    0  501  0.00000000000E+00  0.00000000000E+00 -0.61545451003E+02  0.61545451056E+02  0.25500000920E-02 0.  1.
    10030    2    1    2    0    0  0.00000000000E+00  0.00000000000E+00  0.95579028767E+03  0.10788811897E+04  0.50044934564E+03 0.  0.
        2    1    3    3  502    0  0.17600300285E+01  0.44614732951E+02 -0.52888114224E+02  0.69215061472E+02  0.25500000920E-02 0.  1.
       -2    1    3    3    0  502 -0.17600300285E+01 -0.44614732951E+02  0.10086784019E+04  0.10096661283E+04  0.25500000920E-02 0. -1.
</event>
<event>
 5   0  0.1805500E-02  0.4992187E+03  0.7818609E-02  0.1013983E+00
        3   -1    0    0  501    0  0.00000000000E+00  0.00000000000E+00  0.29547818903E+03  0.29547820629E+03  0.10100000352E+00 0.  1.
       -3   -1    0    0    0  501  0.00000000000E+00  0.00000000000E+00 -0.21086096549E+03  0.21086098967E+03  0.10100000352E+00 0. -1.
    10030    2    1    2    0    0  0.00000000000E+00  0.00000000000E+00  0.84617223546E+02  0.50633919597E+03  0.49921869642E+03 0.  0.
        1    1    3    3  502    0  0.18462249249E+03  0.53156275544E+02  0.20393576232E+03  0.28018003059E+03  0.50400001928E-02 0.  1.
       -1    1    3    3    0  502 -0.18462249249E+03 -0.53156275544E+02 -0.11931853878E+03  0.22615916538E+03  0.50400001928E-02 0. -1.
</event>
<event>
 5   0  0.4519539E-02  0.4995635E+03  0.7818609E-02  0.1013893E+00
        2   -1    0    0  501    0  0.00000000000E+00  0.00000000000E+00  0.81884938185E+02  0.81884938225E+02  0.25500000920E-02 0. -1.
       -2   -1    0    0    0  501  0.00000000000E+00  0.00000000000E+00 -0.76193401631E+03  0.76193401632E+03  0.25500000920E-02 0.  1.
    10030    2    1    2    0    0  0.00000000000E+00  0.00000000000E+00 -0.68004907813E+03  0.84381895454E+03  0.49956348884E+03 0.  0.
        4    1    3    3  502    0 -0.21039956581E+02 -0.44246781834E+02 -0.75373247613E+03  0.75532424557E+03  0.12699999809E+01 0.  1.
       -4    1    3    3    0  502  0.21039956581E+02  0.44246781834E+02  0.73683397999E+02  0.88494708973E+02  0.12699999809E+01 0. -1.
</event>
<event>
 5   0  0.1805500E-02  0.4964400E+03  0.7818609E-02  0.1014712E+00
        3   -1    0    0  501    0  0.00000000000E+00  0.00000000000E+00  0.19779360847E+04  0.19779360873E+04  0.10100000352E+00 0. -1.
       -3   -1    0    0    0  501  0.00000000000E+00  0.00000000000E+00 -0.31150147592E+02  0.31150311330E+02  0.10100000352E+00 0.  1.
    10030    2    1    2    0    0  0.00000000000E+00  0.00000000000E+00  0.19467859371E+04  0.20090863986E+04  0.49643999854E+03 0.  0.
        1    1    3    3  502    0  0.17985562976E+03 -0.13494558389E+03  0.54788520717E+03  0.59223015663E+03  0.50400001928E-02 0.  1.
       -1    1    3    3    0  502 -0.17985562976E+03  0.13494558389E+03  0.13989007299E+04  0.14168562420E+04  0.50400001928E-02 0. -1.
</event>
<event>
 5   0  0.2715483E-02  0.5000054E+03  0.7818609E-02  0.1013777E+00
        1   -1    0    0  501    0  0.00000000000E+00  0.00000000000E+00  0.30788733450E+03  0.30788733455E+03  0.50400001928E-02 0.  1.
       -1   -1    0    0    0  501  0.00000000000E+00  0.00000000000E+00 -0.20300074578E+03  0.20300074584E+03  0.50400001928E-02 0. -1.
    10030    2    1    2    0    0  0.00000000000E+00  0.00000000000E+00  0.10488658872E+03  0.51088808039E+03  0.50000543416E+03 0.  0.
        5    1    3    3  502    0  0.24600615832E+02 -0.44993929663E+02  0.30240976654E+03  0.30676277627E+03  0.46999998093E+01 0.  1.
       -5    1    3    3    0  502 -0.24600615832E+02  0.44993929663E+02 -0.19752317782E+03  0.20412530412E+03  0.46999998093E+01 0. -1.
</event>
<event>
 5   0  0.2643185E-02  0.4986680E+03  0.7818609E-02  0.1014127E+00
       -1   -1    0    0    0  501  0.00000000000E+00  0.00000000000E+00  0.74262574682E+02  0.74262574853E+02  0.50400001928E-02 0. -1.
        1   -1    0    0  501    0  0.00000000000E+00  0.00000000000E+00 -0.83713032996E+03  0.83713032997E+03  0.50400001928E-02 0.  1.
    10030    2    1    2    0    0  0.00000000000E+00  0.00000000000E+00 -0.76286775528E+03  0.91139290483E+03  0.49866804081E+03 0.  0.
        1    1    3    3  502    0 -0.12388468185E+03  0.20160733189E+03 -0.23782019610E+03  0.33548677524E+03  0.50400001928E-02 0. -1.
       -1    1    3    3    0  502  0.12388468185E+03 -0.20160733189E+03 -0.52504755918E+03  0.57590612958E+03  0.50400001928E-02 0.  1.
</event>
<event>
 5   0  0.2719671E-02  0.4999638E+03  0.7818609E-02  0.1013788E+00
       -1   -1    0    0    0  501  0.00000000000E+00  0.00000000000E+00  0.11531702041E+03  0.11531702052E+03  0.50400001928E-02 0. -1.
        1   -1    0    0  501    0  0.00000000000E+00  0.00000000000E+00 -0.54190564815E+03  0.54190564817E+03  0.50400001928E-02 0.  1.
    10030    2    1    2    0    0  0.00000000000E+00  0.00000000000E+00 -0.42658862774E+03  0.65722266869E+03  0.49996377762E+03 0.  0.
        2    1    3    3  502    0  0.21144535445E+03  0.11824270760E+03 -0.29433303627E+03  0.38121176801E+03  0.25500000920E-02 0.  1.
       -2    1    3    3    0  502 -0.21144535445E+03 -0.11824270760E+03 -0.13225559146E+03  0.27601090069E+03  0.25500000920E-02 0. -1.
</event>
<event>
 5   0  0.4631619E-02  0.4910730E+03  0.7818609E-02  0.1016136E+00
       -2   -1    0    0    0  501  0.00000000000E+00  0.00000000000E+00  0.64005380103E+02  0.64005380154E+02  0.25500000920E-02 0. -1.
        2   -1    0    0  501    0  0.00000000000E+00  0.00000000000E+00 -0.94192350514E+03  0.94192350514E+03  0.25500000920E-02 0.  1.
    10030    2    1    2    0    0  0.00000000000E+00  0.00000000000E+00 -0.87791812503E+03  0.10059288853E+04  0.49107299662E+03 0.  0.
        5    1    3    3  502    0  0.41403961795E+02  0.20205772196E+03 -0.16624479085E+03  0.26495477262E+03  0.46999998093E+01 0. -1.
       -5    1    3    3    0  502 -0.41403961795E+02 -0.20205772196E+03 -0.71167333419E+03  0.74097411267E+03  0.46999998093E+01 0.  1.
</event>
<event>
 5   0  0.2779445E-02  0.4998334E+03  0.7818609E-02  0.1013822E+00
       -1   -1    0    0    0  501  0.00000000000E+00  0.00000000000E+00  0.12486361071E+03  0.12486361081E+03  0.50400001928E-02 0. -1.
        1   -1    0    0  501    0  0.00000000000E+00  0.00000000000E+00 -0.50021257398E+03  0.50021257401E+03  0.50400001928E-02 0.  1.
    10030    2    1    2    0    0  0.00000000000E+00  0.00000000000E+00 -0.37534896327E+03  0.62507618482E+03  0.49983336483E+03 0.  0.
        3    1    3    3  502    0  0.77011496863E+02 -0.78540633667E+02  0.92963199711E+02  0.14401933373E+03  0.10100000352E+00 0. -1.
       -3    1    3    3    0  502 -0.77011496863E+02  0.78540633667E+02 -0.46831216298E+03  0.48105685109E+03  0.10100000352E+00 0.  1.
</event>
<event>
 5   0  0.2719671E-02  0.5028249E+03  0.7818609E-02  0.1013044E+00
       -1   -1    0    0    0  501  0.00000000000E+00  0.00000000000E+00  0.17796963763E+03  0.17796963770E+03  0.50400001928E-02 0.  1.
        1   -1    0    0  501    0  0.00000000000E+00  0.00000000000E+00 -0.35516294741E+03  0.35516294744E+03  0.50400001928E-02 0. -1.
    10030    2    1    2    0    0  0.00000000000E+00  0.00000000000E+00 -0.17719330978E+03  0.53313258514E+03  0.50282490422E+03 0.  0.
        2    1    3    3  502    0  0.69348429172E+02 -0.15853621168E+03 -0.28197777834E+03  0.33083893744E+03  0.25500000920E-02 0. -1.
       -2    1    3    3    0  502 -0.69348429172E+02  0.15853621168E+03  0.10478446856E+03  0.20229364770E+03  0.25500000920E-02 0.  1.
</event>
<event>
 5   0  0.4409622E-02  0.4993204E+03  0.7818609E-02  0.1013956E+00
        2   -1    0    0  501    0  0.00000000000E+00  0.00000000000E+00  0.30362991887E+03  0.30362991888E+03  0.25500000920E-02 0.  1.
       -2   -1    0    0    0  501  0.00000000000E+00  0.00000000000E+00 -0.20528348201E+03  0.20528348203E+03  0.25500000920E-02 0. -1.
    10030    2    1    2    0    0  0.00000000000E+00  0.00000000000E+00  0.98346436863E+02  0.50891340091E+03  0.49932036608E+03 0.  0.
        3    1    3    3  502    0  0.49387868014E+02 -0.20411352209E+03  0.18678084991E+03  0.28104908379E+03  0.10100000352E+00 0.  1.
       -3    1    3    3    0  502 -0.49387868014E+02  0.20411352209E+03 -0.88434413046E+02  0.22786431712E+03  0.10100000352E+00 0. -1.
</event>
<event>
 5   0  0.2779445E-02  0.4991285E+03  0.7818609E-02  0.1014007E+00
        1   -1    0    0  501    0  0.00000000000E+00  0.00000000000E+00  0.29567016470E+03  0.29567016474E+03  0.50400001928E-02 0.  1.
       -1   -1    0    0    0  501  0.00000000000E+00  0.00000000000E+00 -0.21064796843E+03  0.21064796849E+03  0.50400001928E-02 0. -1.
    10030    2    1    2    0    0  0.00000000000E+00  0.00000000000E+00  0.85022196265E+02  0.50631813323E+03  0.49912851870E+03 0.  0.
        3    1    3    3  502    0 -0.97060153250E+01  0.22231382959E+03 -0.72097126927E+02  0.23391376931E+03  0.10100000352E+00 0. -1.
       -3    1    3    3    0  502  0.97060153250E+01 -0.22231382959E+03  0.15711932319E+03  0.27240436392E+03  0.10100000352E+00 0.  1.
</event>
<event>
 5   0  0.2779445E-02  0.5022691E+03  0.7818609E-02  0.1013188E+00
       -1   -1    0    0    0  501  0.00000000000E+00  0.00000000000E+00  0.30184644605E+03  0.30184644609E+03  0.50400001928E-02 0. -1.
        1   -1    0    0  501    0  0.00000000000E+00  0.00000000000E+00 -0.20894252401E+03  0.20894252407E+03  0.50400001928E-02 0.  1.
    10030    2    1    2    0    0  0.00000000000E+00  0.00000000000E+00  0.92903922036E+02  0.51078897016E+03  0.50226908456E+03 0.  0.
        3    1    3    3  502    0 -0.50563307943E+02 -0.12835376006E+03 -0.16695814059E+03  0.21657877723E+03  0.10100000352E+00 0.  1.
       -3    1    3    3    0  502  0.50563307943E+02  0.12835376006E+03  0.25986206263E+03  0.29421019294E+03  0.10100000352E+00 0. -1.
</event>
<event>
 5   0  0.2643185E-02  0.5006967E+03  0.7818609E-02  0.1013597E+00
       -1   -1    0    0    0  501  0.00000000000E+00  0.00000000000E+00  0.48266106711E+02  0.48266106974E+02  0.50400001928E-02 0. -1.
        1   -1    0    0  501    0  0.00000000000E+00  0.00000000000E+00 -0.12985157968E+04  0.12985157968E+04  0.50400001928E-02 0.  1.
    10030    2    1    2    0    0  0.00000000000E+00  0.00000000000E+00 -0.12502496901E+04  0.13467819038E+04  0.50069672338E+03 0.  0.
        1    1    3    3  502    0  0.16210308824E+03 -0.13095127777E+03 -0.99830857732E+03  0.10198262911E+04  0.50400001928E-02 0.  1.
       -1    1    3    3    0  502 -0.16210308824E+03  0.13095127777E+03 -0.25194111280E+03  0.32695561275E+03  0.50400001928E-02 0. -1.
</event>
<event>
 5   0  0.1805500E-02  0.5005485E+03  0.7818609E-02  0.1013636E+00
        4   -1    0    0  501    0  0.00000000000E+00  0.00000000000E+00  0.98154244632E+02  0.98162460438E+02  0.12699999809E+01 0. -1.
       -4   -1    0    0    0  501  0.00000000000E+00  0.00000000000E+00 -0.63811515875E+03  0.63811642255E+03  0.12699999809E+01 0.  1.
    10030    2    1    2    0    0  0.00000000000E+00  0.00000000000E+00 -0.53996091412E+03  0.73627888299E+03  0.50054850390E+03 0.  0.
        4    1    3    3  502    0 -0.22330680361E+03 -0.33509745501E+02 -0.42872495399E+03  0.48455704582E+03  0.12699999809E+01 0.  1.
       -4    1    3    3    0  502  0.22330680361E+03  0.33509745501E+02 -0.11123596013E+03  0.25172183716E+03  0.12699999809E+01 0. -1.
</event>
<event>
 5   0  0.2723308E-02  0.5019965E+03  0.7818609E-02  0.1013259E+00
       -1   -1    0    0    0  501  0.00000000000E+00  0.00000000000E+00  0.24205628205E+03  0.24205628210E+03  0.50400001928E-02 0.  1.
        1   -1    0    0  501    0  0.00000000000E+00  0.00000000000E+00 -0.26027054939E+03  0.26027054943E+03  0.50400001928E-02 0. -1.
    10030    2    1    2    0    0  0.00000000000E+00  0.00000000000E+00 -0.18214267335E+02  0.50232683154E+03  0.50199650013E+03 0.  0.
        4    1    3    3  502    0 -0.47037286176E+02  0.24734111436E+02 -0.25457290656E+03  0.26006395408E+03  0.12699999809E+01 0. -1.
       -4    1    3    3    0  502  0.47037286176E+02 -0.24734111436E+02  0.23635863922E+03  0.24226287746E+03  0.12699999809E+01 0.  1.
</event>
<event>
 5   0  0.2719671E-02  0.5001593E+03  0.7818609E-02  0.1013737E+00
        1   -1    0    0  501    0  0.00000000000E+00  0.00000000000E+00  0.73906992598E+03  0.73906992600E+03  0.50400001928E-02 0.  1.
       -1   -1    0    0    0  501  0.00000000000E+00  0.00000000000E+00 -0.84619643544E+02  0.84619643694E+02  0.50400001928E-02 0. -1.
    10030    2    1    2    0    0  0.00000000000E+00  0.00000000000E+00  0.65445028244E+03  0.82368956970E+03  0.50015930966E+03 0.  0.
        2    1    3    3  502    0 -0.99197602115E+02 -0.21800239956E+03  0.44569137406E+03  0.50597036613E+03  0.25500000920E-02 0.  1.
       -2    1    3    3    0  502  0.99197602115E+02  0.21800239956E+03  0.20875890838E+03  0.31771920356E+03  0.25500000920E-02 0. -1.
</event>
<event>
 5   0  0.4409622E-02  0.4988128E+03  0.7818609E-02  0.1014089E+00
       -2   -1    0    0    0  501  0.00000000000E+00  0.00000000000E+00  0.19937539061E+03  0.19937539063E+03  0.25500000920E-02 0. -1.
        2   -1    0    0  501    0  0.00000000000E+00  0.00000000000E+00 -0.31199218489E+03  0.31199218490E+03  0.25500000920E-02 0.  1.
    10030    2    1    2    0    0  0.00000000000E+00  0.00000000000E+00 -0.11261679428E+03  0.51136757553E+03  0.49881284562E+03 0.  0.
        3    1    3    3  502    0 -0.11122400715E+03  0.16288971859E+03 -0.21279272437E+03  0.29014581495E+03  0.10100000352E+00 0.  1.
       -3    1    3    3    0  502  0.11122400715E+03 -0.16288971859E+03  0.10017593009E+03  0.22122176059E+03  0.10100000352E+00 0. -1.
</event>
<event>
 5   0  0.4519539E-02  0.4994978E+03  0.7818609E-02  0.1013910E+00
       -2   -1    0    0    0  501  0.00000000000E+00  0.00000000000E+00  0.20833335154E+03  0.20833335155E+03  0.25500000920E-02 0.  1.
        2   -1    0    0  501    0  0.00000000000E+00  0.00000000000E+00 -0.29939769358E+03  0.29939769360E+03  0.25500000920E-02 0. -1.
    10030    2    1    2    0    0  0.00000000000E+00  0.00000000000E+00 -0.91064342048E+02  0.50773104515E+03  0.49949784766E+03 0.  0.
        4    1    3    3  502    0 -0.24745055781E+02 -0.16167553657E+03  0.14631566352E+03  0.21945656336E+03  0.12699999809E+01 0.  1.
       -4    1    3    3    0  502  0.24745055781E+02  0.16167553657E+03 -0.23738000556E+03  0.28827448179E+03  0.12699999809E+01 0. -1.
</event>
<event>
 5   0  0.4519539E-02  0.5055560E+03  0.7818609E-02  0.1012339E+00
        2   -1    0    0  501    0  0.00000000000E+00  0.00000000000E+00  0.19865576552E+03  0.19865576554E+03  0.25500000920E-02 0. -1.
       -2   -1    0    0    0  501  0.00000000000E+00  0.00000000000E+00 -0.32164548200E+03  0.32164548201E+03  0.25500000920E-02 0.  1.
    10030    2    1    2    0    0  0.00000000000E+00  0.00000000000E+00 -0.12298971648E+03  0.52030124755E+03  0.50555604817E+03 0.  0.
        4    1    3    3  502    0 -0.65091597894E+02 -0.24399616493E+03 -0.50031223254E+02  0.25744082974E+03  0.12699999809E+01 0. -1.
       -4    1    3    3    0  502  0.65091597894E+02  0.24399616493E+03 -0.72958493223E+02  0.26286041781E+03  0.12699999809E+01 0.  1.
</event>
<event>
 5   0  0.2715483E-02  0.5001498E+03  0.7818609E-02  0.1013740E+00
       -1   -1    0    0    0  501  0.00000000000E+00  0.00000000000E+00  0.47274105958E+02  0.47274106226E+02  0.50400001928E-02 0. -1.
        1   -1    0    0  501    0  0.00000000000E+00  0.00000000000E+00 -0.13228691933E+04  0.13228691933E+04  0.50400001928E-02 0.  1.
    10030    2    1    2    0    0  0.00000000000E+00  0.00000000000E+00 -0.12755950873E+04  0.13701432995E+04  0.50014981197E+03 0.  0.
        5    1    3    3  502    0 -0.24163376884E+03 -0.50476035135E+02 -0.74671190414E+03  0.78647025764E+03  0.46999998093E+01 0. -1.
       -5    1    3    3    0  502  0.24163376884E+03  0.50476035135E+02 -0.52888318319E+03  0.58367304189E+03  0.46999998093E+01 0.  1.
</event>
<event>
 5   0  0.2779445E-02  0.5023818E+03  0.7818609E-02  0.1013159E+00
        1   -1    0    0  501    0  0.00000000000E+00  0.00000000000E+00  0.23482995182E+04  0.23482995182E+04  0.50400001928E-02 0. -1.
       -1   -1    0    0    0  501  0.00000000000E+00  0.00000000000E+00 -0.26869169332E+02  0.26869169805E+02  0.50400001928E-02 0.  1.
    10030    2    1    2    0    0  0.00000000000E+00  0.00000000000E+00  0.23214303489E+04  0.23751686880E+04  0.50238175908E+03 0.  0.
        3    1    3    3  502    0  0.10456612699E+02 -0.99022738466E+02  0.22510074804E+04  0.22532087188E+04  0.10100000352E+00 0. -1.
       -3    1    3    3    0  502 -0.10456612699E+02  0.99022738466E+02  0.70422868451E+02  0.12195996919E+03  0.10100000352E+00 0.  1.
</event>
<event>
 5   0  0.4519539E-02  0.4997077E+03  0.7818609E-02  0.1013855E+00
       -2   -1    0    0    0  501  0.00000000000E+00  0.00000000000E+00  0.55844419309E+02  0.55844419367E+02  0.25500000920E-02 0. -1.
        2   -1    0    0  501    0  0.00000000000E+00  0.00000000000E+00 -0.11178723928E+04  0.11178723928E+04  0.25500000920E-02 0.  1.
    10030    2    1    2    0    0  0.00000000000E+00  0.00000000000E+00 -0.10620279735E+04  0.11737168121E+04  0.49970765322E+03 0.  0.
        4    1    3    3  502    0  0.25177226806E+02 -0.22423166993E+03 -0.27900563795E+03  0.35883073092E+03  0.12699999809E+01 0.  1.
       -4    1    3    3    0  502 -0.25177226806E+02  0.22423166993E+03 -0.78302233551E+03  0.81488608121E+03  0.12699999809E+01 0. -1.
</event>
<event>
 5   0  0.1805500E-02  0.4967736E+03  0.7818609E-02  0.1014624E+00
        3   -1    0    0  501    0  0.00000000000E+00  0.00000000000E+00  0.32129919227E+02  0.32130077973E+02  0.10100000352E+00 0.  1.
       -3   -1    0    0    0  501  0.00000000000E+00  0.00000000000E+00 -0.19201994069E+04  0.19201994095E+04  0.10100000352E+00 0. -1.
    10030    2    1    2    0    0  0.00000000000E+00  0.00000000000E+00 -0.18880694877E+04  0.19523294875E+04  0.49677362812E+03 0.  0.
        1    1    3    3  502    0 -0.13788401800E+03 -0.18298642175E+03 -0.56708110678E+03  0.61161835703E+03  0.50400001928E-02 0.  1.
       -1    1    3    3    0  502  0.13788401800E+03  0.18298642175E+03 -0.13209883809E+04  0.13407111305E+04  0.50400001928E-02 0. -1.
</event>
<event>
 5   0  0.4631619E-02  0.5027657E+03  0.7818609E-02  0.1013060E+00
       -2   -1    0    0    0  501  0.00000000000E+00  0.00000000000E+00  0.22746644299E+02  0.22746644442E+02  0.25500000920E-02 0. -1.
        2   -1    0    0  501    0  0.00000000000E+00  0.00000000000E+00 -0.27781389264E+04  0.27781389264E+04  0.25500000920E-02 0.  1.
    10030    2    1    2    0    0  0.00000000000E+00  0.00000000000E+00 -0.27553922821E+04  0.28008855708E+04  0.50276570357E+03 0.  0.
        5    1    3    3  502    0  0.21926994103E+02  0.51300667361E+01 -0.27722627267E+04  0.27723581707E+04  0.46999998093E+01 0.  1.
       -5    1    3    3    0  502 -0.21926994103E+02 -0.51300667361E+01  0.16870444666E+02  0.28527400102E+02  0.46999998093E+01 0. -1.
</event>
<event>
 5   0  0.2715483E-02  0.4862996E+03  0.7818609E-02  0.1017418E+00
       -1   -1    0    0    0  501  0.00000000000E+00  0.00000000000E+00  0.14496890303E+03  0.14496890312E+03  0.50400001928E-02 0.  1.
        1   -1    0    0  501    0  0.00000000000E+00  0.00000000000E+00 -0.40782416200E+03  0.40782416203E+03  0.50400001928E-02 0. -1.
    10030    2    1    2    0    0  0.00000000000E+00  0.00000000000E+00 -0.26285525896E+03  0.55279306515E+03  0.48629958433E+03 0.  0.
        5    1    3    3  502    0 -0.65626212265E+02 -0.18579009767E+03 -0.29328735958E+03  0.35336146566E+03  0.46999998093E+01 0. -1.
       -5    1    3    3    0  502  0.65626212265E+02  0.18579009767E+03  0.30432100613E+02  0.19943159949E+03  0.46999998093E+01 0.  1.
</event>
<event>
 5   0  0.2643185E-02  0.5020292E+03  0.7818609E-02  0.1013251E+00
        1   -1    0    0  501    0  0.00000000000E+00  0.00000000000E+00  0.30733483579E+03  0.30733483583E+03  0.50400001928E-02 0.  1.
       -1   -1    0    0    0  501  0.00000000000E+00  0.00000000000E+00 -0.20501527605E+03  0.20501527611E+03  0.50400001928E-02 0. -1.
    10030    2    1    2    0    0  0.00000000000E+00  0.00000000000E+00  0.10231955974E+03  0.51235011194E+03  0.50202922713E+03 0.  0.
        1    1    3    3  502    0  0.18730982598E+03  0.92862352714E+02 -0.90620526846E+02  0.22786063147E+03  0.50400001928E-02 0. -1.
       -1    1    3    3    0  502 -0.18730982598E+03 -0.92862352714E+02  0.19294008658E+03  0.28448948047E+03  0.50400001928E-02 0.  1.
</event>
<event>
 5   0  0.4534223E-02  0.5002561E+03  0.7818609E-02  0.1013712E+00
        2   -1    0    0  501    0  0.00000000000E+00  0.00000000000E+00  0.12881632989E+04  0.12881632989E+04  0.25500000920E-02 0.  1.
       -2   -1    0    0    0  501  0.00000000000E+00  0.00000000000E+00 -0.48568404106E+02  0.48568404173E+02  0.25500000920E-02 0. -1.
    10030    2    1    2    0    0  0.00000000000E+00  0.00000000000E+00  0.12395948948E+04  0.13367317031E+04  0.50025607724E+03 0.  0.
        2    1    3    3  502    0  0.21844646709E+03  0.69009450405E+02  0.88811186647E+03  0.91718256122E+03  0.25500000920E-02 0. -1.
       -2    1    3    3    0  502 -0.21844646709E+03 -0.69009450405E+02  0.35148302835E+03  0.41954914188E+03  0.25500000920E-02 0.  1.
</event>
<event>
 5   0  0.4631619E-02  0.4938066E+03  0.7818609E-02  0.1015408E+00
        2   -1    0    0  501    0  0.00000000000E+00  0.00000000000E+00  0.46092517735E+03  0.46092517735E+03  0.25500000920E-02 0.  1.
       -2   -1    0    0    0  501  0.00000000000E+00  0.00000000000E+00 -0.13225844372E+03  0.13225844374E+03  0.25500000920E-02 0. -1.
    10030    2    1    2    0    0  0.00000000000E+00  0.00000000000E+00  0.32866673363E+03  0.59318362110E+03  0.49380662870E+03 0.  0.
        5    1    3    3  502    0 -0.28056517631E+02  0.18570875526E+03  0.35677387533E+03  0.40321780476E+03  0.46999998093E+01 0.  1.
       -5    1    3    3    0  502  0.28056517631E+02 -0.18570875526E+03 -0.28107141703E+02  0.18996581633E+03  0.46999998093E+01 0. -1.
</event>
<event>
 5   0  0.4451135E-02  0.4941510E+03  0.7818609E-02  0.1015317E+00
       -2   -1    0    0    0  501  0.00000000000E+00  0.00000000000E+00  0.46987197477E+02  0.46987197547E+02  0.25500000920E-02 0.  1.
        2   -1    0    0  501    0  0.00000000000E+00  0.00000000000E+00 -0.12992111443E+04  0.12992111443E+04  0.25500000920E-02 0. -1.
    10030    2    1    2    0    0  0.00000000000E+00  0.00000000000E+00 -0.12522239468E+04  0.13461983418E+04  0.49415095123E+03 0.  0.
        1    1    3    3  502    0 -0.23140690963E+03  0.40458841358E+02 -0.41756389679E+03  0.47910926061E+03  0.50400001928E-02 0. -1.
       -1    1    3    3    0  502  0.23140690963E+03 -0.40458841358E+02 -0.83466005002E+03  0.86708908124E+03  0.50400001928E-02 0.  1.
</event>
<event>
 5   0  0.4519539E-02  0.5003382E+03  0.7818609E-02  0.1013691E+00
        2   -1    0    0  501    0  0.00000000000E+00  0.00000000000E+00  0.83828782110E+03  0.83828782110E+03  0.25500000920E-02 0. -1.
       -2   -1    0    0    0  501  0.00000000000E+00  0.00000000000E+00 -0.74657621124E+02  0.74657621168E+02  0.25500000920E-02 0.  1.
    10030    2    1    2    0    0  0.00000000000E+00  0.00000000000E+00  0.76363019997E+03  0.91294544227E+03  0.50033818388E+03 0.  0.
        4    1    3    3  502    0 -0.22676055982E+03  0.69619558729E+02  0.23680680073E+03  0.33518100814E+03  0.12699999809E+01 0.  1.
       -4    1    3    3    0  502  0.22676055982E+03 -0.69619558729E+02  0.52682339925E+03  0.57776443413E+03  0.12699999809E+01 0. -1.
</event>
<event>
 5   0  0.4631619E-02  0.4946748E+03  0.7818609E-02  0.1015178E+00
        2   -1    0    0  501    0  0.00000000000E+00  0.00000000000E+00  0.88474359986E+02  0.88474360023E+02  0.25500000920E-02 0. -1.
       -2   -1    0    0    0  501  0.00000000000E+00  0.00000000000E+00 -0.69145218101E+03  0.69145218102E+03  0.25500000920E-02 0.  1.
    10030    2    1    2    0    0  0.00000000000E+00  0.00000000000E+00 -0.60297782103E+03  0.77992654104E+03  0.49467479900E+03 0.  0.
        5    1    3    3  502    0 -0.16977806149E+03  0.65008083004E+02 -0.37180669210E+02  0.18562093950E+03  0.46999998093E+01 0. -1.
       -5    1    3    3    0  502  0.16977806149E+03 -0.65008083004E+02 -0.56579715182E+03  0.59430560154E+03  0.46999998093E+01 0.  1.
</event>
<event>
 5   0  0.4409622E-02  0.5010542E+03  0.7818609E-02  0.1013504E+00
       -2   -1    0    0    0  501  0.00000000000E+00  0.00000000000E+00  0.47139588569E+02  0.47139588638E+02  0.25500000920E-02 0. -1.
        2   -1    0    0  501    0  0.00000000000E+00  0.00000000000E+00 -0.13314460781E+04  0.13314460781E+04  0.25500000920E-02 0.  1.
    10030    2    1    2    0    0  0.00000000000E+00  0.00000000000E+00 -0.12843064896E+04  0.13785856668E+04  0.50105417022E+03 0.  0.
        3    1    3    3  502    0 -0.10609231303E+03 -0.16584842303E+03 -0.21589027611E+03  0.29218127905E+03  0.10100000352E+00 0. -1.
       -3    1    3    3    0  502  0.10609231303E+03  0.16584842303E+03 -0.10684162135E+04  0.10864043877E+04  0.10100000352E+00 0.  1.
</event>
<event>
 5   0  0.2719671E-02  0.4994270E+03  0.7818609E-02  0.1013929E+00
        1   -1    0    0  501    0  0.00000000000E+00  0.00000000000E+00  0.12561083912E+04  0.12561083913E+04  0.50400001928E-02 0.  1.
       -1   -1    0    0    0  501  0.00000000000E+00  0.00000000000E+00 -0.49642873277E+02  0.49642873533E+02  0.50400001928E-02 0. -1.
    10030    2    1    2    0    0  0.00000000000E+00  0.00000000000E+00  0.12064655180E+04  0.13057512648E+04  0.49942699111E+03 0.  0.
        2    1    3    3  502    0  0.19787219897E+02 -0.24256521060E+03  0.45702138417E+03  0.51778176972E+03  0.25500000920E-02 0. -1.
       -2    1    3    3    0  502 -0.19787219897E+02  0.24256521060E+03  0.74944413380E+03  0.78796949506E+03  0.25500000920E-02 0.  1.
</event>
<event>
 5   0  0.4631619E-02  0.4996839E+03  0.7818609E-02  0.1013861E+00
       -2   -1    0    0    0  501  0.00000000000E+00  0.00000000000E+00  0.14296894171E+03  0.14296894173E+03  0.25500000920E-02 0. -1.
        2   -1    0    0  501    0  0.00000000000E+00  0.00000000000E+00 -0.43660538007E+03  0.43660538008E+03  0.25500000920E-02 0.  1.
    10030    2    1    2    0    0  0.00000000000E+00  0.00000000000E+00 -0.29363643836E+03  0.57957432181E+03  0.49968393667E+03 0.  0.
        5    1    3    3  502    0  0.71917246428E+02 -0.31084061900E+02  0.12829785476E+03  0.15040192410E+03  0.46999998093E+01 0. -1.
       -5    1    3    3    0  502 -0.71917246428E+02  0.31084061900E+02 -0.42193429313E+03  0.42917239771E+03  0.46999998093E+01 0.  1.
</event>
<event>
 5   0  0.2715483E-02  0.4993028E+03  0.7818609E-02  0.1013961E+00
       -1   -1    0    0    0  501  0.00000000000E+00  0.00000000000E+00  0.16476999916E+03  0.16476999923E+03  0.50400001928E-02 0. -1.
        1   -1    0    0  501    0  0.00000000000E+00  0.00000000000E+00 -0.37825959199E+03  0.37825959202E+03  0.50400001928E-02 0.  1.
    10030    2    1    2    0    0  0.00000000000E+00  0.00000000000E+00 -0.21348959283E+03  0.54302959125E+03  0.49930284470E+03 0.  0.
        5    1    3    3  502    0 -0.17899831965E+03  0.11581085085E+03 -0.24792530996E+03  0.32701926691E+03  0.46999998093E+01 0.  1.
       -5    1    3    3    0  502  0.17899831965E+03 -0.11581085085E+03  0.34435717124E+02  0.21601032435E+03  0.46999998093E+01 0. -1.
</event>
<event>
 5   0  0.2779445E-02  0.4985912E+03  0.7818609E-02  0.1014147E+00
       -1   -1    0    0    0  501  0.00000000000E+00  0.00000000000E+00  0.27783667514E+02  0.27783667971E+02  0.50400001928E-02 0.  1.
        1   -1    0    0  501    0  0.00000000000E+00  0.00000000000E+00 -0.22368640783E+04  0.22368640783E+04  0.50400001928E-02 0. -1.
    10030    2    1    2    0    0  0.00000000000E+00  0.00000000000E+00 -0.22090804108E+04  0.22646477463E+04  0.49859116859E+03 0.  0.
        3    1    3    3  502    0 -0.21481149355E+03  0.11057093166E+03 -0.13837356248E+04  0.14046687147E+04  0.10100000352E+00 0. -1.
       -3    1    3    3    0  502  0.21481149355E+03 -0.11057093166E+03 -0.82534478605E+03  0.85997903157E+03  0.10100000352E+00 0.  1.
</event>
<event>
 5   0  0.2715483E-02  0.4958454E+03  0.7818609E-02  0.1014869E+00
       -1   -1    0    0    0  501  0.00000000000E+00  0.00000000000E+00  0.12556618408E+03  0.12556618418E+03  0.50400001928E-02 0.  1.
        1   -1    0    0  501    0  0.00000000000E+00  0.00000000000E+00 -0.48950801067E+03  0.48950801070E+03  0.50400001928E-02 0. -1.
    10030    2    1    2    0    0  0.00000000000E+00  0.00000000000E+00 -0.36394182659E+03  0.61507419488E+03  0.49584535096E+03 0.  0.
        5    1    3    3  502    0 -0.80061741380E+02  0.65620040782E+02 -0.46135637802E+03  0.47285057864E+03  0.46999998093E+01 0. -1.
       -5    1    3    3    0  502  0.80061741380E+02 -0.65620040782E+02  0.97414551435E+02  0.14222361623E+03  0.46999998093E+01 0.  1.
</event>
<event>
 5   0  0.2723308E-02  0.5009440E+03  0.7818609E-02  0.1013533E+00
        1   -1    0    0  501    0  0.00000000000E+00  0.00000000000E+00  0.96832642946E+03  0.96832642948E+03  0.50400001928E-02 0.  1.
       -1   -1    0    0    0  501  0.00000000000E+00  0.00000000000E+00 -0.64788291578E+02  0.64788291774E+02  0.50400001928E-02 0. -1.
    10030    2    1    2    0    0  0.00000000000E+00  0.00000000000E+00  0.90353813789E+03  0.10331147213E+04  0.50094396957E+03 0.  0.
        4    1    3    3  502    0 -0.57132255709E+01  0.55373917498E+02  0.95540014909E+03  0.95702140491E+03  0.12699999809E+01 0.  1.
       -4    1    3    3    0  502  0.57132255709E+01 -0.55373917498E+02 -0.51862011201E+02  0.76093316338E+02  0.12699999809E+01 0. -1.
</event>
<event>
 5   0  0.4409622E-02  0.5032119E+03  0.7818609E-02  0.1012944E+00
        2   -1    0    0  501    0  0.00000000000E+00  0.00000000000E+00  0.53016957028E+03  0.53016957028E+03  0.25500000920E-02 0. -1.
       -2   -1    0    0    0  501  0.00000000000E+00  0.00000000000E+00 -0.11940624768E+03  0.11940624771E+03  0.25500000920E-02 0.  1.
    10030    2    1    2    0    0  0.00000000000E+00  0.00000000000E+00  0.41076332259E+03  0.64957581799E+03  0.50321191970E+03 0.  0.
        3    1    3    3  502    0  0.12744300562E+03 -0.49071002661E+02  0.47816521716E+03  0.49728429303E+03  0.10100000352E+00 0. -1.
       -3    1    3    3    0  502 -0.12744300562E+03  0.49071002661E+02 -0.67401894569E+02  0.15229152497E+03  0.10100000352E+00 0.  1.
</event>
<event>
 5   0  0.1805500E-02  0.5023013E+03  0.7818609E-02  0.1013180E+00
       -4   -1    0    0    0  501  0.00000000000E+00  0.00000000000E+00  0.26423738545E+03  0.26424043742E+03  0.12699999809E+01 0. -1.
        4   -1    0    0  501    0  0.00000000000E+00  0.00000000000E+00 -0.23870593570E+03  0.23870931410E+03  0.12699999809E+01 0.  1.
    10030    2    1    2    0    0  0.00000000000E+00  0.00000000000E+00  0.25531449745E+02  0.50294975152E+03  0.50230130164E+03 0.  0.
        4    1    3    3  502    0 -0.23665679277E+02  0.13887536149E+03  0.22094903539E+03  0.26204297270E+03  0.12699999809E+01 0. -1.
       -4    1    3    3    0  502  0.23665679277E+02 -0.13887536149E+03 -0.19541758564E+03  0.24090677882E+03  0.12699999809E+01 0.  1.
</event>
<event>
 5   0  0.2723308E-02  0.4996004E+03  0.7818609E-02  0.1013883E+00
        1   -1    0    0  501    0  0.00000000000E+00  0.00000000000E+00  0.14280769058E+04  0.14280769058E+04  0.50400001928E-02 0. -1.
       -1   -1    0    0    0  501  0.00000000000E+00  0.00000000000E+00 -0.43695226775E+02  0.43695227066E+02  0.50400001928E-02 0.  1.
    10030    2    1    2    0    0  0.00000000000E+00  0.00000000000E+00  0.13843816790E+04  0.14717721328E+04  0.49960041821E+03 0.  0.
        4    1    3    3  502    0  0.11916141446E+03 -0.43115040069E+02  0.13263476352E+04  0.13323880860E+04  0.12699999809E+01 0.  1.
       -4    1    3    3    0  502 -0.11916141446E+03  0.43115040069E+02  0.58034043767E+02  0.13938404683E+03  0.12699999809E+01 0. -1.
</event>
<event>
 5   0  0.4519539E-02  0.4868526E+03  0.7818609E-02  0.1017269E+00
        2   -1    0    0  501    0  0.00000000000E+00  0.00000000000E+00  0.48058382534E+03  0.48058382534E+03  0.25500000920E-02 0.  1.
       -2   -1    0    0    0  501  0.00000000000E+00  0.00000000000E+00 -0.12330076855E+03  0.12330076858E+03  0.25500000920E-02 0. -1.
    10030    2    1    2    0    0  0.00000000000E+00  0.00000000000E+00  0.35728305678E+03  0.60388459392E+03  0.48685256507E+03 0.  0.
        4    1    3    3  502    0 -0.22284492027E+03 -0.94202157809E+02  0.21194389164E+03  0.32164534993E+03  0.12699999809E+01 0.  1.
       -4    1    3    3    0  502  0.22284492027E+03  0.94202157809E+02  0.14533916514E+03  0.28223924400E+03  0.12699999809E+01 0. -1.
</event>
<event>
 5   0  0.4534223E-02  0.5052854E+03  0.7818609E-02  0.1012408E+00
        2   -1    0    0  501    0  0.00000000000E+00  0.00000000000E+00  0.48047166394E+03  0.48047166394E+03  0.25500000920E-02 0.  1.
       -2   -1    0    0    0  501  0.00000000000E+00  0.00000000000E+00 -0.13284513958E+03  0.13284513961E+03  0.25500000920E-02 0. -1.
    10030    2    1    2    0    0  0.00000000000E+00  0.00000000000E+00  0.34762652435E+03  0.61331680355E+03  0.50528536599E+03 0.  0.
        2    1    3    3  502    0  0.43404638522E+02 -0.93941768160E+02 -0.10593947382E+03  0.14809520779E+03  0.25500000920E-02 0. -1.
       -2    1    3    3    0  502 -0.43404638522E+02  0.93941768160E+02  0.45356599818E+03  0.46522159576E+03  0.25500000920E-02 0.  1.
</event>
<event>
 5   0  0.2723308E-02  0.5012338E+03  0.7818609E-02  0.1013457E+00
        1   -1    0    0  501    0  0.00000000000E+00  0.00000000000E+00  0.53138163546E+03  0.53138163548E+03  0.50400001928E-02 0. -1.
       -1   -1    0    0    0  501  0.00000000000E+00  0.00000000000E+00 -0.11819911075E+03  0.11819911086E+03  0.50400001928E-02 0.  1.
    10030    2    1    2    0    0  0.00000000000E+00  0.00000000000E+00  0.41318252470E+03  0.64958074634E+03  0.50123382498E+03 0.  0.
        4    1    3    3  502    0  0.64576339328E+02  0.19666564463E+03  0.38968363905E+03  0.44125098393E+03  0.12699999809E+01 0. -1.
       -4    1    3    3    0  502 -0.64576339328E+02 -0.19666564463E+03  0.23498885652E+02  0.20832976241E+03  0.12699999809E+01 0.  1.
</event>
<event>
 5   0  0.4631619E-02  0.5032515E+03  0.7818609E-02  0.1012934E+00
       -2   -1    0    0    0  501  0.00000000000E+00  0.00000000000E+00  0.58468860414E+03  0.58468860414E+03  0.25500000920E-02 0. -1.
        2   -1    0    0  501    0  0.00000000000E+00  0.00000000000E+00 -0.10828928392E+03  0.10828928395E+03  0.25500000920E-02 0.  1.
    10030    2    1    2    0    0  0.00000000000E+00  0.00000000000E+00  0.47639932021E+03  0.69297788809E+03  0.50325146904E+03 0.  0.
        5    1    3    3  502    0 -0.15396595118E+03 -0.10004655996E+03  0.47502222161E+03  0.50929660249E+03  0.46999998093E+01 0. -1.
       -5    1    3    3    0  502  0.15396595118E+03  0.10004655996E+03  0.13770986022E+01  0.18368128561E+03  0.46999998093E+01 0.  1.
</event>
<event>
 5   0  0.1805500E-02  0.5312106E+03  0.7818609E-02  0.1005939E+00
       -3   -1    0    0    0  501  0.00000000000E+00  0.00000000000E+00  0.47518586527E+02  0.47518693864E+02  0.10100000352E+00 0. -1.
        3   -1    0    0  501    0  0.00000000000E+00  0.00000000000E+00 -0.14845996608E+04  0.14845996642E+04  0.10100000352E+00 0.  1.
    10030    2    1    2    0    0  0.00000000000E+00  0.00000000000E+00 -0.14370810742E+04  0.15321183581E+04  0.53121055071E+03 0.  0.
        3    1    3    3  502    0  0.23366290945E+03 -0.10455039059E+03 -0.92283106152E+03  0.95767756459E+03  0.10100000352E+00 0.  1.
       -3    1    3    3    0  502 -0.23366290945E+03  0.10455039059E+03 -0.51425001273E+03  0.57444079348E+03  0.10100000352E+00 0. -1.
</event>
<event>
 5   0  0.2779445E-02  0.4958865E+03  0.7818609E-02  0.1014858E+00
        1   -1    0    0  501    0  0.00000000000E+00  0.00000000000E+00  0.24322344464E+03  0.24322344469E+03  0.50400001928E-02 0.  1.
       -1   -1    0    0    0  501  0.00000000000E+00  0.00000000000E+00 -0.25275468006E+03  0.25275468011E+03  0.50400001928E-02 0. -1.
    10030    2    1    2    0    0  0.00000000000E+00  0.00000000000E+00 -0.95312354176E+01  0.49597812480E+03  0.49588653524E+03 0.  0.
        3    1    3    3  502    0  0.85047097604E+02  0.17989143219E+03 -0.15271831770E+03  0.25083227653E+03  0.10100000352E+00 0. -1.
       -3    1    3    3    0  502 -0.85047097604E+02 -0.17989143219E+03  0.14318708229E+03  0.24514584827E+03  0.10100000352E+00 0.  1.
</event>
<event>
 5   0  0.4519539E-02  0.5007853E+03  0.7818609E-02  0.1013574E+00
       -2   -1    0    0    0  501  0.00000000000E+00  0.00000000000E+00  0.95764317896E+02  0.95764317930E+02  0.25500000920E-02 0. -1.
        2   -1    0    0  501    0  0.00000000000E+00  0.00000000000E+00 -0.65469550601E+03  0.65469550602E+03  0.25500000920E-02 0.  1.
    10030    2    1    2    0    0  0.00000000000E+00  0.00000000000E+00 -0.55893118812E+03  0.75045982395E+03  0.50078525768E+03 0.  0.
        4    1    3    3  502    0  0.12889126413E+03 -0.15269367068E+03 -0.53353165712E+02  0.20682477663E+03  0.12699999809E+01 0.  1.
       -4    1    3    3    0  502 -0.12889126413E+03  0.15269367068E+03 -0.50557802240E+03  0.54363504732E+03  0.12699999809E+01 0. -1.
</event>
<event>
 5   0  0.2715483E-02  0.4978982E+03  0.7818609E-02  0.1014329E+00
        1   -1    0    0  501    0  0.00000000000E+00  0.00000000000E+00  0.95785884159E+03  0.95785884160E+03  0.50400001928E-02 0.  1.
       -1   -1    0    0    0  501  0.00000000000E+00  0.00000000000E+00 -0.64702284234E+02  0.64702284430E+02  0.50400001928E-02 0. -1.
    10030    2    1    2    0    0  0.00000000000E+00  0.00000000000E+00  0.89315655735E+03  0.10225611260E+04  0.49789820298E+03 0.  0.
        5    1    3    3  502    0  0.10664407287E+03  0.66378150290E+02  0.88789465769E+03  0.89674858810E+03  0.46999998093E+01 0.  1.
       -5    1    3    3    0  502 -0.10664407287E+03 -0.66378150290E+02  0.52618996649E+01  0.12581253793E+03  0.46999998093E+01 0. -1.
</event>
<event>
 5   0  0.1805500E-02  0.5012556E+03  0.7818609E-02  0.1013452E+00
        4   -1    0    0  501    0  0.00000000000E+00  0.00000000000E+00  0.10981317687E+03  0.10982052046E+03  0.12699999809E+01 0.  1.
       -4   -1    0    0    0  501  0.00000000000E+00  0.00000000000E+00 -0.57198344097E+03  0.57198485089E+03  0.12699999809E+01 0. -1.
    10030    2    1    2    0    0  0.00000000000E+00  0.00000000000E+00 -0.46217026409E+03  0.68180537135E+03  0.50125563477E+03 0.  0.
        4    1    3    3  502    0  0.15617732781E+03  0.17231522533E+03 -0.10400481016E+03  0.25475970647E+03  0.12699999809E+01 0.  1.
       -4    1    3    3    0  502 -0.15617732781E+03 -0.17231522533E+03 -0.35816545393E+03  0.42704566488E+03  0.12699999809E+01 0. -1.
</event>
<event>
 5   0  0.1805500E-02  0.4989562E+03  0.7818609E-02  0.1014052E+00
        3   -1    0    0  501    0  0.00000000000E+00  0.00000000000E+00  0.28585419570E+03  0.28585421355E+03  0.10100000352E+00 0.  1.
       -3   -1    0    0    0  501  0.00000000000E+00  0.00000000000E+00 -0.21773096982E+03  0.21773099325E+03  0.10100000352E+00 0. -1.
    10030    2    1    2    0    0  0.00000000000E+00  0.00000000000E+00  0.68123225881E+02  0.50358520680E+03  0.49895619707E+03 0.  0.
        5    1    3    3  502    0 -0.59706208289E+02 -0.11135670260E+03  0.25111981487E+03  0.28115546934E+03  0.46999998093E+01 0.  1.
       -5    1    3    3    0  502  0.59706208289E+02  0.11135670260E+03 -0.18299658899E+03  0.22242973745E+03  0.46999998093E+01 0. -1.
</event>
<event>
 5   0  0.2643185E-02  0.5007780E+03  0.7818609E-02  0.1013576E+00
       -1   -1    0    0    0  501  0.00000000000E+00  0.00000000000E+00  0.63921756623E+02  0.63921756822E+02  0.50400001928E-02 0. -1.
        1   -1    0    0  501    0  0.00000000000E+00  0.00000000000E+00 -0.98080295613E+03  0.98080295614E+03  0.50400001928E-02 0.  1.
    10030    2    1    2    0    0  0.00000000000E+00  0.00000000000E+00 -0.91688119951E+03  0.10447247130E+04  0.50077798661E+03 0.  0.
        1    1    3    3  502    0 -0.13433521507E+02 -0.88683684152E+02 -0.94613672826E+03  0.95037885284E+03  0.50400001928E-02 0.  1.
       -1    1    3    3    0  502  0.13433521507E+02  0.88683684152E+02  0.29255528754E+02  0.94345860126E+02  0.50400001928E-02 0. -1.
</event>
<event>
 5   0  0.2643185E-02  0.5004305E+03  0.7818609E-02  0.1013667E+00
        1   -1    0    0  501    0  0.00000000000E+00  0.00000000000E+00  0.12059305687E+03  0.12059305697E+03  0.50400001928E-02 0.  1.
       -1   -1    0    0    0  501  0.00000000000E+00  0.00000000000E+00 -0.51916490388E+03  0.51916490390E+03  0.50400001928E-02 0. -1.
    10030    2    1    2    0    0  0.00000000000E+00  0.00000000000E+00 -0.39857184701E+03  0.63975796088E+03  0.50043054590E+03 0.  0.
        1    1    3    3  502    0  0.46782399242E+02  0.23520772002E+03 -0.29055095829E+03  0.37673747335E+03  0.50400001928E-02 0. -1.
       -1    1    3    3    0  502 -0.46782399242E+02 -0.23520772002E+03 -0.10802088872E+03  0.26302048753E+03  0.50400001928E-02 0.  1.
</event>
<event>
 5   0  0.2779445E-02  0.4988894E+03  0.7818609E-02  0.1014069E+00
        1   -1    0    0  501    0  0.00000000000E+00  0.00000000000E+00  0.92291491042E+03  0.92291491044E+03  0.50400001928E-02 0.  1.
       -1   -1    0    0    0  501  0.00000000000E+00  0.00000000000E+00 -0.67419706533E+02  0.67419706722E+02  0.50400001928E-02 0. -1.
    10030    2    1    2    0    0  0.00000000000E+00  0.00000000000E+00  0.85549520389E+03  0.99033461716E+03  0.49888937658E+03 0.  0.
        3    1    3    3  502    0 -0.10647017129E+03 -0.14265735044E+03  0.80866122399E+02  0.19551561820E+03  0.10100000352E+00 0. -1.
       -3    1    3    3    0  502  0.10647017129E+03  0.14265735044E+03  0.77462908149E+03  0.79481899896E+03  0.10100000352E+00 0.  1.
</event>
<event>
 5   0  0.4519539E-02  0.5087209E+03  0.7818609E-02  0.1011527E+00
       -2   -1    0    0    0  501  0.00000000000E+00  0.00000000000E+00  0.74908747589E+02  0.74908747633E+02  0.25500000920E-02 0.  1.
        2   -1    0    0  501    0  0.00000000000E+00  0.00000000000E+00 -0.86370725061E+03  0.86370725061E+03  0.25500000920E-02 0. -1.
    10030    2    1    2    0    0  0.00000000000E+00  0.00000000000E+00 -0.78879850302E+03  0.93861599824E+03  0.50872086039E+03 0.  0.
        4    1    3    3  502    0 -0.18486972587E+03 -0.11168454021E+03 -0.64226429849E+03  0.67760998670E+03  0.12699999809E+01 0. -1.
       -4    1    3    3    0  502  0.18486972587E+03  0.11168454021E+03 -0.14653420453E+03  0.26100601155E+03  0.12699999809E+01 0.  1.
</event>
<event>
 5   0  0.4451135E-02  0.4900871E+03  0.7818609E-02  0.1016399E+00
       -2   -1    0    0    0  501  0.00000000000E+00  0.00000000000E+00  0.24110164497E+03  0.24110164499E+03  0.25500000920E-02 0.  1.
        2   -1    0    0  501    0  0.00000000000E+00  0.00000000000E+00 -0.24904990019E+03  0.24904990020E+03  0.25500000920E-02 0. -1.
    10030    2    1    2    0    0  0.00000000000E+00  0.00000000000E+00 -0.79482552146E+01  0.49015154519E+03  0.49008709684E+03 0.  0.
        1    1    3    3  502    0  0.58124785139E+02 -0.17190236416E+03  0.16072122664E+03  0.24240508692E+03  0.50400001928E-02 0.  1.
       -1    1    3    3    0  502 -0.58124785139E+02  0.17190236416E+03 -0.16866948185E+03  0.24774645827E+03  0.50400001928E-02 0. -1.
</event>
<event>
 5   0  0.1805500E-02  0.4985717E+03  0.7818609E-02  0.1014152E+00
       -4   -1    0    0    0  501  0.00000000000E+00  0.00000000000E+00  0.28458115748E+03  0.28458399127E+03  0.12699999809E+01 0. -1.
        4   -1    0    0  501    0  0.00000000000E+00  0.00000000000E+00 -0.21836229931E+03  0.21836599246E+03  0.12699999809E+01 0.  1.
    10030    2    1    2    0    0  0.00000000000E+00  0.00000000000E+00  0.66218858161E+02  0.50294998373E+03  0.49857170894E+03 0.  0.
        4    1    3    3  502    0 -0.13328772258E+03 -0.23206505520E+02 -0.17810368330E+03  0.22366647893E+03  0.12699999809E+01 0.  1.
       -4    1    3    3    0  502  0.13328772258E+03  0.23206505520E+02  0.24432254147E+03  0.27928350481E+03  0.12699999809E+01 0. -1.
</event>
<event>
 5   0  0.1805500E-02  0.4999687E+03  0.7818609E-02  0.1013787E+00
        4   -1    0    0  501    0  0.00000000000E+00  0.00000000000E+00  0.22865948962E+03  0.22866301645E+03  0.12699999809E+01 0.  1.
       -4   -1    0    0    0  501  0.00000000000E+00  0.00000000000E+00 -0.27329083757E+03  0.27329378844E+03  0.12699999809E+01 0. -1.
    10030    2    1    2    0    0  0.00000000000E+00  0.00000000000E+00 -0.44631347950E+02  0.50195680488E+03  0.49996867577E+03 0.  0.
        5    1    3    3  502    0  0.21441982107E+03  0.12797409120E+03 -0.33168446481E+02  0.25194337365E+03  0.46999998093E+01 0. -1.
       -5    1    3    3    0  502 -0.21441982107E+03 -0.12797409120E+03 -0.11462901469E+02  0.25001343123E+03  0.46999998093E+01 0.  1.
</event>
<event>
 5   0  0.1805500E-02  0.4996507E+03  0.7818609E-02  0.1013870E+00
       -3   -1    0    0    0  501  0.00000000000E+00  0.00000000000E+00  0.33550920701E+03  0.33550922222E+03  0.10100000352E+00 0.  1.
        3   -1    0    0  501    0  0.00000000000E+00  0.00000000000E+00 -0.18602382407E+03  0.18602385149E+03  0.10100000352E+00 0. -1.
    10030    2    1    2    0    0  0.00000000000E+00  0.00000000000E+00  0.14948538294E+03  0.52153307371E+03  0.49965074528E+03 0.  0.
        1    1    3    3  502    0 -0.15975436683E+03  0.16717725969E+03  0.17345185850E+03  0.28905923463E+03  0.50400001928E-02 0. -1.
       -1    1    3    3    0  502  0.15975436683E+03 -0.16717725969E+03 -0.23966475560E+02  0.23247383908E+03  0.50400001928E-02 0.  1.
</event>
<event>
 5   0  0.2715483E-02  0.5000842E+03  0.7818609E-02  0.1013757E+00
       -1   -1    0    0    0  501  0.00000000000E+00  0.00000000000E+00  0.70535145663E+03  0.70535145664E+03  0.50400001928E-02 0. -1.
        1   -1    0    0  501    0  0.00000000000E+00  0.00000000000E+00 -0.88638171942E+02  0.88638172086E+02  0.50400001928E-02 0.  1.
    10030    2    1    2    0    0  0.00000000000E+00  0.00000000000E+00  0.61671328468E+03  0.79398962873E+03  0.50008424793E+03 0.  0.
        5    1    3    3  502    0 -0.22030748005E+02  0.15308548940E+03  0.62020542847E+03  0.63921622666E+03  0.46999998093E+01 0. -1.
       -5    1    3    3    0  502  0.22030748005E+02 -0.15308548940E+03 -0.34921437830E+01  0.15477340207E+03  0.46999998093E+01 0.  1.
</event>
<event>
 5   0  0.4519539E-02  0.4999134E+03  0.7818609E-02  0.1013802E+00
        2   -1    0    0  501    0  0.00000000000E+00  0.00000000000E+00  0.12754176353E+04  0.12754176353E+04  0.25500000920E-02 0.  1.
       -2   -1    0    0    0  501  0.00000000000E+00  0.00000000000E+00 -0.48986578746E+02  0.48986578812E+02  0.25500000920E-02 0. -1.
    10030    2    1    2    0    0  0.00000000000E+00  0.00000000000E+00  0.12264310566E+04  0.13244042141E+04  0.49991337838E+03 0.  0.
        4    1    3    3  502    0  0.21611899143E+03  0.11152537123E+03  0.46030421394E+03  0.52060244828E+03  0.12699999809E+01 0. -1.
       -4    1    3    3    0  502 -0.21611899143E+03 -0.11152537123E+03  0.76612684263E+03  0.80380176585E+03  0.12699999809E+01 0.  1.
</event>
<event>
 5   0  0.2779445E-02  0.5004097E+03  0.7818609E-02  0.1013672E+00
        1   -1    0    0  501    0  0.00000000000E+00  0.00000000000E+00  0.40517865978E+03  0.40517865981E+03  0.50400001928E-02 0.  1.
       -1   -1    0    0    0  501  0.00000000000E+00  0.00000000000E+00 -0.15450585105E+03  0.15450585113E+03  0.50400001928E-02 0. -1.
    10030    2    1    2    0    0  0.00000000000E+00  0.00000000000E+00  0.25067280873E+03  0.55968451095E+03  0.50040972688E+03 0.  0.
        3    1    3    3  502    0  0.23433207647E+03  0.83101668842E+02  0.15667411943E+03  0.29387786464E+03  0.10100000352E+00 0. -1.
       -3    1    3    3    0  502 -0.23433207647E+03 -0.83101668842E+02  0.93998689305E+02  0.26580664630E+03  0.10100000352E+00 0.  1.
</event>
<event>
 5   0  0.4519539E-02  0.4982991E+03  0.7818609E-02  0.1014224E+00
        2   -1    0    0  501    0  0.00000000000E+00  0.00000000000E+00  0.63534019810E+02  0.63534019861E+02  0.25500000920E-02 0.  1.
       -2   -1    0    0    0  501  0.00000000000E+00  0.00000000000E+00 -0.97704334912E+03  0.97704334912E+03  0.25500000920E-02 0. -1.
    10030    2    1    2    0    0  0.00000000000E+00  0.00000000000E+00 -0.91350932931E+03  0.10405773690E+04  0.49829907295E+03 0.  0.
        4    1    3    3  502    0  0.20119864399E+03 -0.11968462908E+03 -0.27871822502E+03  0.36399281125E+03  0.12699999809E+01 0.  1.
       -4    1    3    3    0  502 -0.20119864399E+03  0.11968462908E+03 -0.63479110429E+03  0.67658455774E+03  0.12699999809E+01 0. -1.
</event>
<event>
 5   0  0.2643185E-02  0.5009908E+03  0.7818609E-02  0.1013521E+00
       -1   -1    0    0    0  501  0.00000000000E+00  0.00000000000E+00  0.16788237637E+03  0.16788237644E+03  0.50400001928E-02 0.  1.
        1   -1    0    0  501    0  0.00000000000E+00  0.00000000000E+00 -0.37376139791E+03  0.37376139795E+03  0.50400001928E-02 0. -1.
    10030    2    1    2    0    0  0.00000000000E+00  0.00000000000E+00 -0.20587902154E+03  0.54164377439E+03  0.50099082509E+03 0.  0.
        1    1    3    3  502    0 -0.18670198595E+03 -0.19104681020E+02 -0.28230969766E+03  0.33900056905E+03  0.50400001928E-02 0. -1.
       -1    1    3    3    0  502  0.18670198595E+03  0.19104681020E+02  0.76430676120E+02  0.20264320534E+03  0.50400001928E-02 0.  1.
</event>
<event>
 5   0  0.2643185E-02  0.5015777E+03  0.7818609E-02  0.1013368E+00
        1   -1    0    0  501    0  0.00000000000E+00  0.00000000000E+00  0.66926814809E+02  0.66926814999E+02  0.50400001928E-02 0.  1.
       -1   -1    0    0    0  501  0.00000000000E+00  0.00000000000E+00 -0.93975858245E+03  0.93975858246E+03  0.50400001928E-02 0. -1.
    10030    2    1    2    0    0  0.00000000000E+00  0.00000000000E+00 -0.87283176764E+03  0.10066853975E+04  0.50157770571E+03 0.  0.
        1    1    3    3  502    0  0.10907715017E+03  0.16388638053E+03 -0.12459120159E+03  0.23297969429E+03  0.50400001928E-02 0.  1.
       -1    1    3    3    0  502 -0.10907715017E+03 -0.16388638053E+03 -0.74824056605E+03  0.77370570317E+03  0.50400001928E-02 0. -1.
</event>
<event>
 5   0  0.4451135E-02  0.5002518E+03  0.7818609E-02  0.1013713E+00
       -2   -1    0    0    0  501  0.00000000000E+00  0.00000000000E+00  0.27487410524E+03  0.27487410525E+03  0.25500000920E-02 0. -1.
        2   -1    0    0  501    0  0.00000000000E+00  0.00000000000E+00 -0.22760592188E+03  0.22760592189E+03  0.25500000920E-02 0.  1.
    10030    2    1    2    0    0  0.00000000000E+00  0.00000000000E+00  0.47268183361E+02  0.50248002714E+03  0.50025183310E+03 0.  0.
        1    1    3    3  502    0 -0.35281348993E+02 -0.19341327071E+03 -0.13168163319E+03  0.23662949820E+03  0.50400001928E-02 0.  1.
       -1    1    3    3    0  502  0.35281348993E+02  0.19341327071E+03  0.17894981655E+03  0.26585052895E+03  0.50400001928E-02 0. -1.
</event>
<event>
 5   0  0.4451135E-02  0.5005464E+03  0.7818609E-02  0.1013636E+00
        2   -1    0    0  501    0  0.00000000000E+00  0.00000000000E+00  0.14172342409E+04  0.14172342409E+04  0.25500000920E-02 0. -1.
       -2   -1    0    0    0  501  0.00000000000E+00  0.00000000000E+00 -0.44196413448E+02  0.44196413522E+02  0.25500000920E-02 0.  1.
    10030    2    1    2    0    0  0.00000000000E+00  0.00000000000E+00  0.13730378274E+04  0.14614306544E+04  0.50054638354E+03 0.  0.
        1    1    3    3  502    0  0.16205680751E+03  0.13560067251E+03  0.10780893209E+04  0.10986020822E+04  0.50400001928E-02 0. -1.
       -1    1    3    3    0  502 -0.16205680751E+03 -0.13560067251E+03  0.29494850653E+03  0.36282857216E+03  0.50400001928E-02 0.  1.
</event>
<event>
 5   0  0.4519539E-02  0.4990788E+03  0.7818609E-02  0.1014020E+00
       -2   -1    0    0    0  501  0.00000000000E+00  0.00000000000E+00  0.13215535600E+03  0.13215535602E+03  0.25500000920E-02 0. -1.
        2   -1    0    0  501    0  0.00000000000E+00  0.00000000000E+00 -0.47118717287E+03  0.47118717288E+03  0.25500000920E-02 0.  1.
    10030    2    1    2    0    0  0.00000000000E+00  0.00000000000E+00 -0.33903181687E+03  0.60334252890E+03  0.49907878569E+03 0.  0.
        4    1    3    3  502    0  0.38795867807E+02 -0.15952435084E+03  0.57666869256E+02  0.17401212193E+03  0.12699999809E+01 0. -1.
       -4    1    3    3    0  502 -0.38795867807E+02  0.15952435084E+03 -0.39669868613E+03  0.42933040697E+03  0.12699999809E+01 0.  1.
</event>
<event>
 5   0  0.4519539E-02  0.5035346E+03  0.7818609E-02  0.1012860E+00
        2   -1    0    0  501    0  0.00000000000E+00  0.00000000000E+00  0.66566155706E+03  0.66566155706E+03  0.25500000920E-02 0.  1.
       -2   -1    0    0    0  501  0.00000000000E+00  0.00000000000E+00 -0.95223707896E+02  0.95223707930E+02  0.25500000920E-02 0. -1.
    10030    2    1    2    0    0  0.00000000000E+00  0.00000000000E+00  0.57043784916E+03  0.76088526499E+03  0.50353455366E+03 0.  0.
        4    1    3    3  502    0 -0.18305715538E+02 -0.18638864146E+03  0.30972622902E+02  0.18983345637E+03  0.12699999809E+01 0. -1.
       -4    1    3    3    0  502  0.18305715538E+02  0.18638864146E+03  0.53946522626E+03  0.57105180862E+03  0.12699999809E+01 0.  1.
</event>
<event>
 5   0  0.2643185E-02  0.5004753E+03  0.7818609E-02  0.1013655E+00
       -1   -1    0    0    0  501  0.00000000000E+00  0.00000000000E+00  0.86982928384E+02  0.86982928530E+02  0.50400001928E-02 0.  1.
        1   -1    0    0  501    0  0.00000000000E+00  0.00000000000E+00 -0.71989839239E+03  0.71989839241E+03  0.50400001928E-02 0. -1.
    10030    2    1    2    0    0  0.00000000000E+00  0.00000000000E+00 -0.63291546401E+03  0.80688132094E+03  0.50047525563E+03 0.  0.
        1    1    3    3  502    0  0.10739970145E+03 -0.20776348076E+03 -0.17299179428E+03  0.29090637793E+03  0.50400001928E-02 0.  1.
       -1    1    3    3    0  502 -0.10739970145E+03  0.20776348076E+03 -0.45992366973E+03  0.51597494301E+03  0.50400001928E-02 0. -1.
</event>
<event>
 5   0  0.2779445E-02  0.5004059E+03  0.7818609E-02  0.1013673E+00
       -1   -1    0    0    0  501  0.00000000000E+00  0.00000000000E+00  0.42107478712E+03  0.42107478715E+03  0.50400001928E-02 0.  1.
        1   -1    0    0  501    0  0.00000000000E+00  0.00000000000E+00 -0.14867077828E+03  0.14867077837E+03  0.50400001928E-02 0. -1.
    10030    2    1    2    0    0  0.00000000000E+00  0.00000000000E+00  0.27240400884E+03  0.56974556552E+03  0.50040590064E+03 0.  0.
        3    1    3    3  502    0 -0.13417311232E+02 -0.17995676572E+03  0.33352928446E+03  0.37921795259E+03  0.10100000352E+00 0.  1.
       -3    1    3    3    0  502  0.13417311232E+02  0.17995676572E+03 -0.61125275627E+02  0.19052761293E+03  0.10100000352E+00 0. -1.
</event>
<event>
 5   0  0.4534223E-02  0.5002225E+03  0.7818609E-02  0.1013721E+00
        2   -1    0    0  501    0  0.00000000000E+00  0.00000000000E+00  0.53278623640E+03  0.53278623641E+03  0.25500000920E-02 0.  1.
       -2   -1    0    0    0  501  0.00000000000E+00  0.00000000000E+00 -0.11741228391E+03  0.11741228394E+03  0.25500000920E-02 0. -1.
    10030    2    1    2    0    0  0.00000000000E+00  0.00000000000E+00  0.41537395249E+03  0.65019852035E+03  0.50022254593E+03 0.  0.
        2    1    3    3  502    0 -0.12178053027E+03  0.21821744709E+03  0.22108816735E+03  0.33366050038E+03  0.25500000920E-02 0. -1.
       -2    1    3    3    0  502  0.12178053027E+03 -0.21821744709E+03  0.19428578514E+03  0.31653801997E+03  0.25500000920E-02 0.  1.
</event>
<event>
 5   0  0.1805500E-02  0.4981003E+03  0.7818609E-02  0.1014276E+00
       -3   -1    0    0    0  501  0.00000000000E+00  0.00000000000E+00  0.13974555167E+03  0.13974558817E+03  0.10100000352E+00 0. -1.
        3   -1    0    0  501    0  0.00000000000E+00  0.00000000000E+00 -0.44384921952E+03  0.44384923101E+03  0.10100000352E+00 0.  1.
    10030    2    1    2    0    0  0.00000000000E+00  0.00000000000E+00 -0.30410366785E+03  0.58359481918E+03  0.49810026317E+03 0.  0.
        4    1    3    3  502    0 -0.64930818732E+02 -0.43115086928E+02 -0.42918755181E+03  0.43620922671E+03  0.12699999809E+01 0.  1.
       -4    1    3    3    0  502  0.64930818732E+02  0.43115086928E+02  0.12508388396E+03  0.14738559247E+03  0.12699999809E+01 0. -1.
</event>
<event>
 5   0  0.2719671E-02  0.4981100E+03  0.7818609E-02  0.1014273E+00
       -1   -1    0    0    0  501  0.00000000000E+00  0.00000000000E+00  0.39220942539E+03  0.39220942542E+03  0.50400001928E-02 0. -1.
        1   -1    0    0  501    0  0.00000000000E+00  0.00000000000E+00 -0.15815123394E+03  0.15815123402E+03  0.50400001928E-02 0.  1.
    10030    2    1    2    0    0  0.00000000000E+00  0.00000000000E+00  0.23405819144E+03  0.55036065944E+03  0.49811004656E+03 0.  0.
        2    1    3    3  502    0 -0.13661725556E+03 -0.10401411404E+03 -0.82297621657E+02  0.19041036992E+03  0.25500000920E-02 0.  1.
       -2    1    3    3    0  502  0.13661725556E+03  0.10401411404E+03  0.31635581310E+03  0.35995028952E+03  0.25500000920E-02 0. -1.
</event>
<event>
 5   0  0.2719671E-02  0.4992194E+03  0.7818609E-02  0.1013983E+00
        1   -1    0    0  501    0  0.00000000000E+00  0.00000000000E+00  0.58659805674E+03  0.58659805676E+03  0.50400001928E-02 0.  1.
       -1   -1    0    0    0  501  0.00000000000E+00  0.00000000000E+00 -0.10621414328E+03  0.10621414340E+03  0.50400001928E-02 0. -1.
    10030    2    1    2    0    0  0.00000000000E+00  0.00000000000E+00  0.48038391345E+03  0.69281220016E+03  0.49921943110E+03 0.  0.
        2    1    3    3  502    0  0.48126012007E+02  0.16706619720E+03 -0.83651683877E+01  0.17406091844E+03  0.25500000920E-02 0. -1.
       -2    1    3    3    0  502 -0.48126012007E+02 -0.16706619720E+03  0.48874908184E+03  0.51875128172E+03  0.25500000920E-02 0.  1.
</event>
<event>
 5   0  0.2723308E-02  0.5004296E+03  0.7818609E-02  0.1013667E+00
       -1   -1    0    0    0  501  0.00000000000E+00  0.00000000000E+00  0.33708210109E+02  0.33708210486E+02  0.50400001928E-02 0. -1.
        1   -1    0    0  501    0  0.00000000000E+00  0.00000000000E+00 -0.18573355612E+04  0.18573355612E+04  0.50400001928E-02 0.  1.
    10030    2    1    2    0    0  0.00000000000E+00  0.00000000000E+00 -0.18236273511E+04  0.18910437717E+04  0.50042964621E+03 0.  0.
        4    1    3    3  502    0 -0.13352764975E+03  0.17171943366E+03 -0.44457037027E+03  0.49493597987E+03  0.12699999809E+01 0. -1.
       -4    1    3    3    0  502  0.13352764975E+03 -0.17171943366E+03 -0.13790569808E+04  0.13961077918E+04  0.12699999809E+01 0.  1.
</event>
<event>
 5   0  0.4534223E-02  0.5018094E+03  0.7818609E-02  0.1013308E+00
       -2   -1    0    0    0  501  0.00000000000E+00  0.00000000000E+00  0.18789435969E+03  0.18789435970E+03  0.25500000920E-02 0.  1.
        2   -1    0    0  501    0  0.00000000000E+00  0.00000000000E+00 -0.33504552243E+03  0.33504552244E+03  0.25500000920E-02 0. -1.
    10030    2    1    2    0    0  0.00000000000E+00  0.00000000000E+00 -0.14715116275E+03  0.52293988215E+03  0.50180938178E+03 0.  0.
        2    1    3    3  502    0 -0.11915926675E+02  0.21541741746E+03  0.59905926219E+02  0.22390929650E+03  0.25500000920E-02 0.  1.
       -2    1    3    3    0  502  0.11915926675E+02 -0.21541741746E+03 -0.20705708896E+03  0.29903058565E+03  0.25500000920E-02 0. -1.
</event>
<event>
 5   0  0.2643185E-02  0.5025725E+03  0.7818609E-02  0.1013110E+00
       -1   -1    0    0    0  501  0.00000000000E+00  0.00000000000E+00  0.17716610543E+03  0.17716610550E+03  0.50400001928E-02 0.  1.
        1   -1    0    0  501    0  0.00000000000E+00  0.00000000000E+00 -0.35641564336E+03  0.35641564339E+03  0.50400001928E-02 0. -1.
    10030    2    1    2    0    0  0.00000000000E+00  0.00000000000E+00 -0.17924953792E+03  0.53358174890E+03  0.50257246832E+03 0.  0.
        1    1    3    3  502    0 -0.28865433775E+02  0.13212778336E+03  0.13522990930E+03  0.19125400074E+03  0.50400001928E-02 0.  1.
       -1    1    3    3    0  502  0.28865433775E+02 -0.13212778336E+03 -0.31447944723E+03  0.34232774816E+03  0.50400001928E-02 0. -1.
</event>
<event>
 5   0  0.4534223E-02  0.4998456E+03  0.7818609E-02  0.1013819E+00
       -2   -1    0    0    0  501  0.00000000000E+00  0.00000000000E+00  0.49856843297E+02  0.49856843362E+02  0.25500000920E-02 0. -1.
        2   -1    0    0  501    0  0.00000000000E+00  0.00000000000E+00 -0.12528148798E+04  0.12528148798E+04  0.25500000920E-02 0.  1.
    10030    2    1    2    0    0  0.00000000000E+00  0.00000000000E+00 -0.12029580365E+04  0.13026717232E+04  0.49984555689E+03 0.  0.
        2    1    3    3  502    0  0.11519805717E+03 -0.20274998983E+03 -0.36716838064E+03  0.43496065397E+03  0.25500000920E-02 0. -1.
       -2    1    3    3    0  502 -0.11519805717E+03  0.20274998983E+03 -0.83578965587E+03  0.86771106920E+03  0.25500000920E-02 0.  1.
</event>
<event>
 5   0  0.4534223E-02  0.4993920E+03  0.7818609E-02  0.1013938E+00
       -2   -1    0    0    0  501  0.00000000000E+00  0.00000000000E+00  0.10998689658E+03  0.10998689661E+03  0.25500000920E-02 0.  1.
        2   -1    0    0  501    0  0.00000000000E+00  0.00000000000E+00 -0.56686847024E+03  0.56686847025E+03  0.25500000920E-02 0. -1.
    10030    2    1    2    0    0  0.00000000000E+00  0.00000000000E+00 -0.45688157366E+03  0.67685536686E+03  0.49939204569E+03 0.  0.
        2    1    3    3  502    0 -0.10920077638E+03  0.21175168801E+03 -0.32972623643E+03  0.40679599056E+03  0.25500000920E-02 0.  1.
       -2    1    3    3    0  502  0.10920077638E+03 -0.21175168801E+03 -0.12715533723E+03  0.27005937630E+03  0.25500000920E-02 0. -1.
</event>
<event>
 5   0  0.4534223E-02  0.5011103E+03  0.7818609E-02  0.1013490E+00
       -2   -1    0    0    0  501  0.00000000000E+00  0.00000000000E+00  0.18793086869E+03  0.18793086871E+03  0.25500000920E-02 0. -1.
        2   -1    0    0  501    0  0.00000000000E+00  0.00000000000E+00 -0.33404770511E+03  0.33404770512E+03  0.25500000920E-02 0.  1.
    10030    2    1    2    0    0  0.00000000000E+00  0.00000000000E+00 -0.14611683642E+03  0.52197857383E+03  0.50111026896E+03 0.  0.
        2    1    3    3  502    0 -0.20579308392E+03 -0.11986752076E+03  0.80217823263E+01  0.23829260358E+03  0.25500000920E-02 0. -1.
       -2    1    3    3    0  502  0.20579308392E+03  0.11986752076E+03 -0.15413861875E+03  0.28368597025E+03  0.25500000920E-02 0.  1.
</event>
<event>
 5   0  0.4451135E-02  0.4908362E+03  0.7818609E-02  0.1016199E+00
        2   -1    0    0  501    0  0.00000000000E+00  0.00000000000E+00  0.11951796352E+04  0.11951796352E+04  0.25500000920E-02 0.  1.
       -2   -1    0    0    0  501  0.00000000000E+00  0.00000000000E+00 -0.50394137055E+02  0.50394137119E+02  0.25500000920E-02 0. -1.
    10030    2    1    2    0    0  0.00000000000E+00  0.00000000000E+00  0.11447854981E+04  0.12455737723E+04  0.49083621049E+03 0.  0.
        1    1    3    3  502    0  0.79665368315E+02  0.21057841182E+03  0.32452970424E+03  0.39498021139E+03  0.50400001928E-02 0. -1.
       -1    1    3    3    0  502 -0.79665368315E+02 -0.21057841182E+03  0.82025579390E+03  0.85059356093E+03  0.50400001928E-02 0.  1.
</event>
<event>
 5   0  0.2719671E-02  0.5000467E+03  0.7818609E-02  0.1013767E+00
       -1   -1    0    0    0  501  0.00000000000E+00  0.00000000000E+00  0.17424374351E+03  0.17424374359E+03  0.50400001928E-02 0.  1.
        1   -1    0    0  501    0  0.00000000000E+00  0.00000000000E+00 -0.35875997864E+03  0.35875997868E+03  0.50400001928E-02 0. -1.
    10030    2    1    2    0    0  0.00000000000E+00  0.00000000000E+00 -0.18451623513E+03  0.53300372226E+03  0.50004672474E+03 0.  0.
        2    1    3    3  502    0  0.19965504571E+03  0.78758104627E+02 -0.22895515788E+03  0.31382390069E+03  0.25500000920E-02 0. -1.
       -2    1    3    3    0  502 -0.19965504571E+03 -0.78758104627E+02  0.44438922747E+02  0.21917982157E+03  0.25500000920E-02 0.  1.
</event>
<event>
 5   0  0.4519539E-02  0.4995037E+03  0.7818609E-02  0.1013909E+00
        2   -1    0    0  501    0  0.00000000000E+00  0.00000000000E+00  0.42087128975E+03  0.42087128976E+03  0.25500000920E-02 0.  1.
       -2   -1    0    0    0  501  0.00000000000E+00  0.00000000000E+00 -0.14820682437E+03  0.14820682439E+03  0.25500000920E-02 0. -1.
    10030    2    1    2    0    0  0.00000000000E+00  0.00000000000E+00  0.27266446538E+03  0.56907811415E+03  0.49950374306E+03 0.  0.
        4    1    3    3  502    0  0.18047253603E+02 -0.24909558220E+03  0.13602653815E+03  0.28439258854E+03  0.12699999809E+01 0.  1.
       -4    1    3    3    0  502 -0.18047253603E+02  0.24909558220E+03  0.13663792724E+03  0.28468552562E+03  0.12699999809E+01 0. -1.
</event>
<event>
 5   0  0.4631619E-02  0.5048546E+03  0.7818609E-02  0.1012519E+00
        2   -1    0    0  501    0  0.00000000000E+00  0.00000000000E+00  0.85309844672E+03  0.85309844672E+03  0.25500000920E-02 0. -1.
       -2   -1    0    0    0  501  0.00000000000E+00  0.00000000000E+00 -0.74691905575E+02  0.74691905619E+02  0.25500000920E-02 0.  1.
    10030    2    1    2    0    0  0.00000000000E+00  0.00000000000E+00  0.77840654115E+03  0.92779035234E+03  0.50485462720E+03 0.  0.
        5    1    3    3  502    0 -0.13342297210E+03 -0.33940103958E+02  0.77793512535E+03  0.79003719495E+03  0.46999998093E+01 0. -1.
       -5    1    3    3    0  502  0.13342297210E+03  0.33940103958E+02  0.47141579219E+00  0.13775315740E+03  0.46999998093E+01 0.  1.
</event>
<event>
 5   0  0.2779445E-02  0.5012564E+03  0.7818609E-02  0.1013451E+00
        1   -1    0    0  501    0  0.00000000000E+00  0.00000000000E+00  0.22735330073E+03  0.22735330078E+03  0.50400001928E-02 0. -1.
       -1   -1    0    0    0  501  0.00000000000E+00  0.00000000000E+00 -0.27628587897E+03  0.27628587902E+03  0.50400001928E-02 0.  1.
    10030    2    1    2    0    0  0.00000000000E+00  0.00000000000E+00 -0.48932578244E+02  0.50363917980E+03  0.50125644756E+03 0.  0.
        3    1    3    3  502    0  0.24688632489E+02  0.13133196221E+03 -0.23750456305E+03  0.27251796371E+03  0.10100000352E+00 0.  1.
       -3    1    3    3    0  502 -0.24688632489E+02 -0.13133196221E+03  0.18857198481E+03  0.23112121609E+03  0.10100000352E+00 0. -1.
</event>
<event>
 5   0  0.4631619E-02  0.4986350E+03  0.7818609E-02  0.1014136E+00
       -2   -1    0    0    0  501  0.00000000000E+00  0.00000000000E+00  0.11128978759E+03  0.11128978762E+03  0.25500000920E-02 0.  1.
        2   -1    0    0  501    0  0.00000000000E+00  0.00000000000E+00 -0.55853467018E+03  0.55853467019E+03  0.25500000920E-02 0. -1.
    10030    2    1    2    0    0  0.00000000000E+00  0.00000000000E+00 -0.44724488259E+03  0.66982445781E+03  0.49863495593E+03 0.  0.
        5    1    3    3  502    0 -0.80508344211E+02 -0.10147047838E+03  0.62473223472E+02  0.14388483284E+03  0.46999998093E+01 0.  1.
       -5    1    3    3    0  502  0.80508344211E+02  0.10147047838E+03 -0.50971810606E+03  0.52593962497E+03  0.46999998093E+01 0. -1.
</event>
<event>
 5   0  0.2779445E-02  0.4996682E+03  0.7818609E-02  0.1013866E+00
       -1   -1    0    0    0  501  0.00000000000E+00  0.00000000000E+00  0.90577246534E+03  0.90577246536E+03  0.50400001928E-02 0.  1.
        1   -1    0    0  501    0  0.00000000000E+00  0.00000000000E+00 -0.68910327252E+02  0.68910327436E+02  0.50400001928E-02 0. -1.
    10030    2    1    2    0    0  0.00000000000E+00  0.00000000000E+00  0.83686213809E+03  0.97468279279E+03  0.49966819830E+03 0.  0.
        3    1    3    3  502    0 -0.26135781233E+02  0.24829729408E+03  0.40071959270E+03  0.47213433203E+03  0.10100000352E+00 0.  1.
       -3    1    3    3    0  502  0.26135781233E+02 -0.24829729408E+03  0.43614254539E+03  0.50254846076E+03  0.10100000352E+00 0. -1.
</event>
<event>
 5   0  0.4631619E-02  0.5138700E+03  0.7818609E-02  0.1010221E+00
        2   -1    0    0  501    0  0.00000000000E+00  0.00000000000E+00  0.68485335688E+02  0.68485335736E+02  0.25500000920E-02 0.  1.
       -2   -1    0    0    0  501  0.00000000000E+00  0.00000000000E+00 -0.96393756831E+03  0.96393756831E+03  0.25500000920E-02 0. -1.
    10030    2    1    2    0    0  0.00000000000E+00  0.00000000000E+00 -0.89545223262E+03  0.10324229040E+04  0.51386997567E+03 0.  0.
        5    1    3    3  502    0 -0.37318816228E+02  0.12159301637E+03  0.69758807430E+00  0.12727974034E+03  0.46999998093E+01 0.  1.
       -5    1    3    3    0  502  0.37318816228E+02 -0.12159301637E+03 -0.89614982070E+03  0.90514316371E+03  0.46999998093E+01 0. -1.
</event>
<event>
 5   0  0.4534223E-02  0.4951244E+03  0.7818609E-02  0.1015059E+00
       -2   -1    0    0    0  501  0.00000000000E+00  0.00000000000E+00  0.18048392158E+03  0.18048392160E+03  0.25500000920E-02 0.  1.
        2   -1    0    0  501    0  0.00000000000E+00  0.00000000000E+00 -0.33957059682E+03  0.33957059683E+03  0.25500000920E-02 0. -1.
    10030    2    1    2    0    0  0.00000000000E+00  0.00000000000E+00 -0.15908667524E+03  0.52005451843E+03  0.49512436003E+03 0.  0.
        2    1    3    3  502    0 -0.10303549502E+03  0.14580525606E+03 -0.25967643402E+03  0.31513066548E+03  0.25500000920E-02 0. -1.
       -2    1    3    3    0  502  0.10303549502E+03 -0.14580525606E+03  0.10058975878E+03  0.20492385295E+03  0.25500000920E-02 0.  1.
</event>
<event>
 5   0  0.2643185E-02  0.5015982E+03  0.7818609E-02  0.1013363E+00
        1   -1    0    0  501    0  0.00000000000E+00  0.00000000000E+00  0.24013262626E+03  0.24013262632E+03  0.50400001928E-02 0.  1.
       -1   -1    0    0    0  501  0.00000000000E+00  0.00000000000E+00 -0.26193934020E+03  0.26193934025E+03  0.50400001928E-02 0. -1.
    10030    2    1    2    0    0  0.00000000000E+00  0.00000000000E+00 -0.21806713940E+02  0.50207196657E+03  0.50159817269E+03 0.  0.
        1    1    3    3  502    0  0.81196188081E+02  0.48998851469E+02  0.22149362688E+03  0.24094218223E+03  0.50400001928E-02 0.  1.
       -1    1    3    3    0  502 -0.81196188081E+02 -0.48998851469E+02 -0.24330034082E+03  0.26112978434E+03  0.50400001928E-02 0. -1.
</event>
<event>
 5   0  0.2643185E-02  0.4976586E+03  0.7818609E-02  0.1014392E+00
       -1   -1    0    0    0  501  0.00000000000E+00  0.00000000000E+00  0.47767594166E+02  0.47767594432E+02  0.50400001928E-02 0.  1.
        1   -1    0    0  501    0  0.00000000000E+00  0.00000000000E+00 -0.12961929469E+04  0.12961929469E+04  0.50400001928E-02 0. -1.
    10030    2    1    2    0    0  0.00000000000E+00  0.00000000000E+00 -0.12484253527E+04  0.13439605413E+04  0.49765859314E+03 0.  0.
        1    1    3    3  502    0  0.10914349634E+03  0.16538686654E+03 -0.10306538957E+04  0.10495296905E+04  0.50400001928E-02 0. -1.
       -1    1    3    3    0  502 -0.10914349634E+03 -0.16538686654E+03 -0.21777145697E+03  0.29443085081E+03  0.50400001928E-02 0.  1.
</event>
<event>
 5   0  0.4519539E-02  0.4966381E+03  0.7818609E-02  0.1014660E+00
        2   -1    0    0  501    0  0.00000000000E+00  0.00000000000E+00  0.48402296726E+03  0.48402296726E+03  0.25500000920E-02 0. -1.
       -2   -1    0    0    0  501  0.00000000000E+00  0.00000000000E+00 -0.12739552334E+03  0.12739552336E+03  0.25500000920E-02 0.  1.
    10030    2    1    2    0    0  0.00000000000E+00  0.00000000000E+00  0.35662744392E+03  0.61141849062E+03  0.49663813478E+03 0.  0.
        4    1    3    3  502    0  0.19156918436E+03 -0.54998962818E+02 -0.40288983116E+01  0.19935266045E+03  0.12699999809E+01 0.  1.
       -4    1    3    3    0  502 -0.19156918436E+03  0.54998962818E+02  0.36065634223E+03  0.41206583018E+03  0.12699999809E+01 0. -1.
</event>
<event>
 5   0  0.4519539E-02  0.4994345E+03  0.7818609E-02  0.1013927E+00
       -2   -1    0    0    0  501  0.00000000000E+00  0.00000000000E+00  0.66897971005E+02  0.66897971053E+02  0.25500000920E-02 0. -1.
        2   -1    0    0  501    0  0.00000000000E+00  0.00000000000E+00 -0.93214650557E+03  0.93214650557E+03  0.25500000920E-02 0.  1.
    10030    2    1    2    0    0  0.00000000000E+00  0.00000000000E+00 -0.86524853456E+03  0.99904447663E+03  0.49943451994E+03 0.  0.
        4    1    3    3  502    0  0.10123123637E+03  0.13138153779E+03 -0.59205105609E+02  0.17611283065E+03  0.12699999809E+01 0. -1.
       -4    1    3    3    0  502 -0.10123123637E+03 -0.13138153779E+03 -0.80604342896E+03  0.82293164598E+03  0.12699999809E+01 0.  1.
</event>
<event>
 5   0  0.4451135E-02  0.5029663E+03  0.7818609E-02  0.1013008E+00
       -2   -1    0    0    0  501  0.00000000000E+00  0.00000000000E+00  0.99831620345E+02  0.99831620378E+02  0.25500000920E-02 0. -1.
        2   -1    0    0  501    0  0.00000000000E+00  0.00000000000E+00 -0.63350437364E+03  0.63350437364E+03  0.25500000920E-02 0.  1.
    10030    2    1    2    0    0  0.00000000000E+00  0.00000000000E+00 -0.53367275329E+03  0.73333599402E+03  0.50296627374E+03 0.  0.
        1    1    3    3  502    0 -0.14036092814E+03  0.53352748468E+01 -0.57098034200E+03  0.58800357676E+03  0.50400001928E-02 0.  1.
       -1    1    3    3    0  502  0.14036092814E+03 -0.53352748468E+01  0.37307588712E+02  0.14533241726E+03  0.50400001928E-02 0. -1.
</event>
<event>
 5   0  0.1805500E-02  0.4988113E+03  0.7818609E-02  0.1014090E+00
       -4   -1    0    0    0  501  0.00000000000E+00  0.00000000000E+00  0.15152584237E+03  0.15153116447E+03  0.12699999809E+01 0. -1.
        4   -1    0    0  501    0  0.00000000000E+00  0.00000000000E+00 -0.41049856838E+03  0.41050053293E+03  0.12699999809E+01 0.  1.
    10030    2    1    2    0    0  0.00000000000E+00  0.00000000000E+00 -0.25897272601E+03  0.56203169740E+03  0.49881134317E+03 0.  0.
        2    1    3    3  502    0 -0.14396481406E+03 -0.71718504145E+02 -0.34425940315E+03  0.37997887861E+03  0.25500000920E-02 0.  1.
       -2    1    3    3    0  502  0.14396481406E+03  0.71718504145E+02  0.85286677146E+02  0.18205281879E+03  0.25500000920E-02 0. -1.
</event>
<event>
 5   0  0.2779445E-02  0.5010560E+03  0.7818609E-02  0.1013504E+00
        1   -1    0    0  501    0  0.00000000000E+00  0.00000000000E+00  0.37459670962E+03  0.37459670965E+03  0.50400001928E-02 0.  1.
       -1   -1    0    0    0  501  0.00000000000E+00  0.00000000000E+00 -0.16755158261E+03  0.16755158269E+03  0.50400001928E-02 0. -1.
    10030    2    1    2    0    0  0.00000000000E+00  0.00000000000E+00  0.20704512700E+03  0.54214829234E+03  0.50105597120E+03 0.  0.
        3    1    3    3  502    0  0.34891963682E+02  0.16768888411E+03 -0.94302894237E+02  0.19552508035E+03  0.10100000352E+00 0. -1.
       -3    1    3    3    0  502 -0.34891963682E+02 -0.16768888411E+03  0.30134802124E+03  0.34662321199E+03  0.10100000352E+00 0.  1.
</event>
<event>
 5   0  0.2643185E-02  0.5013623E+03  0.7818609E-02  0.1013424E+00
        1   -1    0    0  501    0  0.00000000000E+00  0.00000000000E+00  0.15038889164E+03  0.15038889172E+03  0.50400001928E-02 0.  1.
       -1   -1    0    0    0  501  0.00000000000E+00  0.00000000000E+00 -0.41785684962E+03  0.41785684965E+03  0.50400001928E-02 0. -1.
    10030    2    1    2    0    0  0.00000000000E+00  0.00000000000E+00 -0.26746795798E+03  0.56824574137E+03  0.50136225829E+03 0.  0.
        1    1    3    3  502    0  0.14844428294E+03  0.52258346353E+02  0.87423189385E+02  0.18002625911E+03  0.50400001928E-02 0.  1.
       -1    1    3    3    0  502 -0.14844428294E+03 -0.52258346353E+02 -0.35489114737E+03  0.38821948226E+03  0.50400001928E-02 0. -1.
</event>
<event>
 5   0  0.4534223E-02  0.5148330E+03  0.7818609E-02  0.1009978E+00
       -2   -1    0    0    0  501  0.00000000000E+00  0.00000000000E+00  0.17102714188E+03  0.17102714190E+03  0.25500000920E-02 0.  1.
        2   -1    0    0  501    0  0.00000000000E+00  0.00000000000E+00 -0.38744286697E+03  0.38744286698E+03  0.25500000920E-02 0. -1.
    10030    2    1    2    0    0  0.00000000000E+00  0.00000000000E+00 -0.21641572509E+03  0.55847000888E+03  0.51483296782E+03 0.  0.
        2    1    3    3  502    0  0.91124565220E+02  0.21872030063E+03  0.92235007799E+00  0.23694536718E+03  0.25500000920E-02 0. -1.
       -2    1    3    3    0  502 -0.91124565220E+02 -0.21872030063E+03 -0.21733807517E+03  0.32152464170E+03  0.25500000920E-02 0.  1.
</event>
<event>
 5   0  0.2715483E-02  0.4997145E+03  0.7818609E-02  0.1013853E+00
       -1   -1    0    0    0  501  0.00000000000E+00  0.00000000000E+00  0.10743405805E+03  0.10743405817E+03  0.50400001928E-02 0.  1.
        1   -1    0    0  501    0  0.00000000000E+00  0.00000000000E+00 -0.58108806769E+03  0.58108806771E+03  0.50400001928E-02 0. -1.
    10030    2    1    2    0    0  0.00000000000E+00  0.00000000000E+00 -0.47365400963E+03  0.68852212588E+03  0.49971451549E+03 0.  0.
        5    1    3    3  502    0  0.85103598761E+02 -0.19274713486E+03 -0.42174649043E+03  0.47147245169E+03  0.46999998093E+01 0. -1.
       -5    1    3    3    0  502 -0.85103598761E+02  0.19274713486E+03 -0.51907519203E+02  0.21704967419E+03  0.46999998093E+01 0.  1.
</event>
<event>
 5   0  0.2643185E-02  0.5024563E+03  0.7818609E-02  0.1013140E+00
       -1   -1    0    0    0  501  0.00000000000E+00  0.00000000000E+00  0.14964416569E+03  0.14964416578E+03  0.50400001928E-02 0. -1.
        1   -1    0    0  501    0  0.00000000000E+00  0.00000000000E+00 -0.42177114626E+03  0.42177114629E+03  0.50400001928E-02 0.  1.
    10030    2    1    2    0    0  0.00000000000E+00  0.00000000000E+00 -0.27212698057E+03  0.57141531207E+03  0.50245633175E+03 0.  0.
        1    1    3    3  502    0  0.21275406508E+03  0.47667103359E+02 -0.27801021598E+03  0.35330740887E+03  0.50400001928E-02 0.  1.
       -1    1    3    3    0  502 -0.21275406508E+03 -0.47667103359E+02  0.58832354108E+01  0.21810790319E+03  0.50400001928E-02 0. -1.
</event>
<event>
 5   0  0.2719671E-02  0.5128457E+03  0.7818609E-02  0.1010479E+00
        1   -1    0    0  501    0  0.00000000000E+00  0.00000000000E+00  0.36528286862E+03  0.36528286866E+03  0.50400001928E-02 0.  1.
       -1   -1    0    0    0  501  0.00000000000E+00  0.00000000000E+00 -0.18000480603E+03  0.18000480610E+03  0.50400001928E-02 0. -1.
    10030    2    1    2    0    0  0.00000000000E+00  0.00000000000E+00  0.18527806259E+03  0.54528767476E+03  0.51284567636E+03 0.  0.
        2    1    3    3  502    0 -0.34142944897E+02 -0.79653185499E+01 -0.17744436784E+03  0.18087479280E+03  0.25500000920E-02 0. -1.
       -2    1    3    3    0  502  0.34142944897E+02  0.79653185499E+01  0.36272243044E+03  0.36441288195E+03  0.25500000920E-02 0.  1.
</event>
<event>
 5   0  0.4534223E-02  0.5011089E+03  0.7818609E-02  0.1013490E+00
       -2   -1    0    0    0  501  0.00000000000E+00  0.00000000000E+00  0.24410922561E+02  0.24410922694E+02  0.25500000920E-02 0. -1.
        2   -1    0    0  501    0  0.00000000000E+00  0.00000000000E+00 -0.25716983968E+04  0.25716983968E+04  0.25500000920E-02 0.  1.
    10030    2    1    2    0    0  0.00000000000E+00  0.00000000000E+00 -0.25472874742E+04  0.25961093195E+04  0.50110889271E+03 0.  0.
        2    1    3    3  502    0 -0.10671863466E+03 -0.13363612731E+03 -0.22222979963E+04  0.22288687413E+04  0.25500000920E-02 0.  1.
       -2    1    3    3    0  502  0.10671863466E+03  0.13363612731E+03 -0.32498947794E+03  0.36724057821E+03  0.25500000920E-02 0. -1.
</event>
<event>
 5   0  0.4409622E-02  0.4981428E+03  0.7818609E-02  0.1014265E+00
       -2   -1    0    0    0  501  0.00000000000E+00  0.00000000000E+00  0.38079943349E+03  0.38079943350E+03  0.25500000920E-02 0. -1.
        2   -1    0    0  501    0  0.00000000000E+00  0.00000000000E+00 -0.16291135571E+03  0.16291135573E+03  0.25500000920E-02 0.  1.
    10030    2    1    2    0    0  0.00000000000E+00  0.00000000000E+00  0.21788807779E+03  0.54371078923E+03  0.49814275854E+03 0.  0.
        3    1    3    3  502    0  0.11994995665E+03  0.13062444844E+03  0.29983003745E+03  0.34835154684E+03  0.10100000352E+00 0. -1.
       -3    1    3    3    0  502 -0.11994995665E+03 -0.13062444844E+03 -0.81941959661E+02  0.19535924238E+03  0.10100000352E+00 0.  1.
</event>
<event>
 5   0  0.2715483E-02  0.4998759E+03  0.7818609E-02  0.1013811E+00
       -1   -1    0    0    0  501  0.00000000000E+00  0.00000000000E+00  0.18653368640E+03  0.18653368647E+03  0.50400001928E-02 0. -1.
        1   -1    0    0  501    0  0.00000000000E+00  0.00000000000E+00 -0.33489385676E+03  0.33489385680E+03  0.50400001928E-02 0.  1.
    10030    2    1    2    0    0  0.00000000000E+00  0.00000000000E+00 -0.14836017035E+03  0.52142754327E+03  0.49987592734E+03 0.  0.
        5    1    3    3  502    0 -0.18867510098E+03 -0.95447967215E+02  0.64747213152E+02  0.22118521601E+03  0.46999998093E+01 0. -1.
       -5    1    3    3    0  502  0.18867510098E+03  0.95447967215E+02 -0.21310738351E+03  0.30024232726E+03  0.46999998093E+01 0.  1.
</event>
<event>
 5   0  0.2643185E-02  0.4992451E+03  0.7818609E-02  0.1013976E+00
       -1   -1    0    0    0  501  0.00000000000E+00  0.00000000000E+00  0.21328974833E+03  0.21328974839E+03  0.50400001928E-02 0. -1.
        1   -1    0    0  501    0  0.00000000000E+00  0.00000000000E+00 -0.29214442850E+03  0.29214442855E+03  0.50400001928E-02 0.  1.
    10030    2    1    2    0    0  0.00000000000E+00  0.00000000000E+00 -0.78854680175E+02  0.50543417693E+03  0.49924507672E+03 0.  0.
        1    1    3    3  502    0 -0.12748667450E+03  0.42176753242E+02 -0.25246336788E+03  0.28595363756E+03  0.50400001928E-02 0.  1.
       -1    1    3    3    0  502  0.12748667450E+03 -0.42176753242E+02  0.17360868770E+03  0.21948053937E+03  0.50400001928E-02 0. -1.
</event>
<event>
 5   0  0.2779445E-02  0.4983848E+03  0.7818609E-02  0.1014201E+00
       -1   -1    0    0    0  501  0.00000000000E+00  0.00000000000E+00  0.46187403613E+02  0.46187403888E+02  0.50400001928E-02 0.  1.
        1   -1    0    0  501    0  0.00000000000E+00  0.00000000000E+00 -0.13444540211E+04  0.13444540211E+04  0.50400001928E-02 0. -1.
    10030    2    1    2    0    0  0.00000000000E+00  0.00000000000E+00 -0.12982666175E+04  0.13906414250E+04  0.49838475382E+03 0.  0.
        3    1    3    3  502    0 -0.40563808357E+02  0.15545841333E+03 -0.11762687027E+03  0.19912014372E+03  0.10100000352E+00 0.  1.
       -3    1    3    3    0  502  0.40563808357E+02 -0.15545841333E+03 -0.11806397472E+04  0.11915212813E+04  0.10100000352E+00 0. -1.
</event>
<event>
 5   0  0.4631619E-02  0.4999278E+03  0.7818609E-02  0.1013798E+00
       -2   -1    0    0    0  501  0.00000000000E+00  0.00000000000E+00  0.47124212274E+02  0.47124212343E+02  0.25500000920E-02 0. -1.
        2   -1    0    0  501    0  0.00000000000E+00  0.00000000000E+00 -0.13258988672E+04  0.13258988672E+04  0.25500000920E-02 0.  1.
    10030    2    1    2    0    0  0.00000000000E+00  0.00000000000E+00 -0.12787746550E+04  0.13730230796E+04  0.49992775367E+03 0.  0.
        5    1    3    3  502    0 -0.21100401847E+02  0.60293267977E+02 -0.13029778849E+04  0.13045512499E+04  0.46999998093E+01 0.  1.
       -5    1    3    3    0  502  0.21100401847E+02 -0.60293267977E+02  0.24203229930E+02  0.68471829673E+02  0.46999998093E+01 0. -1.
</event>
<event>
 5   0  0.2715483E-02  0.5003864E+03  0.7818609E-02  0.1013678E+00
       -1   -1    0    0    0  501  0.00000000000E+00  0.00000000000E+00  0.11764988928E+04  0.11764988928E+04  0.50400001928E-02 0.  1.
        1   -1    0    0  501    0  0.00000000000E+00  0.00000000000E+00 -0.53205852175E+02  0.53205852414E+02  0.50400001928E-02 0. -1.
    10030    2    1    2    0    0  0.00000000000E+00  0.00000000000E+00  0.11232930406E+04  0.12297047452E+04  0.50038635604E+03 0.  0.
        5    1    3    3  502    0  0.14923659556E+03 -0.10806263611E+03  0.14585896479E+03  0.23504472423E+03  0.46999998093E+01 0. -1.
       -5    1    3    3    0  502 -0.14923659556E+03  0.10806263611E+03  0.97743407582E+03  0.99466002099E+03  0.46999998093E+01 0.  1.
</event>
<event>
 5   0  0.4534223E-02  0.4990816E+03  0.7818609E-02  0.1014019E+00
       -2   -1    0    0    0  501  0.00000000000E+00  0.00000000000E+00  0.25236984979E+02  0.25236985107E+02  0.25500000920E-02 0. -1.
        2   -1    0    0  501    0  0.00000000000E+00  0.00000000000E+00 -0.24674345367E+04  0.24674345367E+04  0.25500000920E-02 0.  1.
    10030    2    1    2    0    0  0.00000000000E+00  0.00000000000E+00 -0.24421975517E+04  0.24926715218E+04  0.49908159052E+03 0.  0.
        2    1    3    3  502    0  0.10612264539E+03 -0.58853717551E+02 -0.23101421139E+04  0.23133271196E+04  0.25500000920E-02 0.  1.
       -2    1    3    3    0  502 -0.10612264539E+03  0.58853717551E+02 -0.13205543783E+03  0.17934440220E+03  0.25500000920E-02 0. -1.
</event>
<event>
 5   0  0.4534223E-02  0.4996794E+03  0.7818609E-02  0.1013863E+00
       -2   -1    0    0    0  501  0.00000000000E+00  0.00000000000E+00  0.90255083398E+02  0.90255083434E+02  0.25500000920E-02 0. -1.
        2   -1    0    0  501    0  0.00000000000E+00  0.00000000000E+00 -0.69159407890E+03  0.69159407890E+03  0.25500000920E-02 0.  1.
    10030    2    1    2    0    0  0.00000000000E+00  0.00000000000E+00 -0.60133899550E+03  0.78184916234E+03  0.49967942237E+03 0.  0.
        2    1    3    3  502    0  0.17915629185E+03 -0.48751501634E+01 -0.28307418003E+02  0.18144435488E+03  0.25500000920E-02 0. -1.
       -2    1    3    3    0  502 -0.17915629185E+03  0.48751501634E+01 -0.57303157750E+03  0.60040480746E+03  0.25500000920E-02 0.  1.
</event>
<event>
 5   0  0.4631619E-02  0.5004224E+03  0.7818609E-02  0.1013669E+00
        2   -1    0    0  501    0  0.00000000000E+00  0.00000000000E+00  0.29865419629E+03  0.29865419630E+03  0.25500000920E-02 0. -1.
       -2   -1    0    0    0  501  0.00000000000E+00  0.00000000000E+00 -0.20962588553E+03  0.20962588555E+03  0.25500000920E-02 0.  1.
    10030    2    1    2    0    0  0.00000000000E+00  0.00000000000E+00  0.89028310753E+02  0.50828008185E+03  0.50042242304E+03 0.  0.
        5    1    3    3  502    0 -0.19687908159E+03  0.65235010282E+02 -0.97562852633E+02  0.22925439918E+03  0.46999998093E+01 0.  1.
       -5    1    3    3    0  502  0.19687908159E+03 -0.65235010282E+02  0.18659116339E+03  0.27902568266E+03  0.46999998093E+01 0. -1.
</event>
<event>
 5   0  0.4451135E-02  0.4988996E+03  0.7818609E-02  0.1014067E+00
        2   -1    0    0  501    0  0.00000000000E+00  0.00000000000E+00  0.82699837425E+03  0.82699837425E+03  0.25500000920E-02 0.  1.
       -2   -1    0    0    0  501  0.00000000000E+00  0.00000000000E+00 -0.75242239383E+02  0.75242239427E+02  0.25500000920E-02 0. -1.
    10030    2    1    2    0    0  0.00000000000E+00  0.00000000000E+00  0.75175613487E+03  0.90224061368E+03  0.49889962785E+03 0.  0.
        1    1    3    3  502    0  0.18336888287E+03  0.14212394166E+03  0.54164450092E+03  0.58923859972E+03  0.50400001928E-02 0.  1.
       -1    1    3    3    0  502 -0.18336888287E+03 -0.14212394166E+03  0.21011163394E+03  0.31300201396E+03  0.50400001928E-02 0. -1.
</event>
<event>
 5   0  0.4534223E-02  0.4999800E+03  0.7818609E-02  0.1013784E+00
        2   -1    0    0  501    0  0.00000000000E+00  0.00000000000E+00  0.19503077982E+03  0.19503077984E+03  0.25500000920E-02 0.  1.
       -2   -1    0    0    0  501  0.00000000000E+00  0.00000000000E+00 -0.32043664169E+03  0.32043664170E+03  0.25500000920E-02 0. -1.
    10030    2    1    2    0    0  0.00000000000E+00  0.00000000000E+00 -0.12540586187E+03  0.51546742154E+03  0.49998003208E+03 0.  0.
        2    1    3    3  502    0 -0.23310585701E+01 -0.20841984911E+03  0.79596936680E+02  0.22311418528E+03  0.25500000920E-02 0.  1.
       -2    1    3    3    0  502  0.23310585701E+01  0.20841984911E+03 -0.20500279855E+03  0.29235323627E+03  0.25500000920E-02 0. -1.
</event>
<event>
 5   0  0.4451135E-02  0.4996225E+03  0.7818609E-02  0.1013877E+00
       -2   -1    0    0    0  501  0.00000000000E+00  0.00000000000E+00  0.93149318943E+02  0.93149318977E+02  0.25500000920E-02 0. -1.
        2   -1    0    0  501    0  0.00000000000E+00  0.00000000000E+00 -0.66995289835E+03  0.66995289836E+03  0.25500000920E-02 0.  1.
    10030    2    1    2    0    0  0.00000000000E+00  0.00000000000E+00 -0.57680357941E+03  0.76310221733E+03  0.49962248236E+03 0.  0.
        1    1    3    3  502    0  0.34101262064E+02  0.17909990820E+03 -0.27558870561E+02  0.18438862374E+03  0.50400001928E-02 0. -1.
       -1    1    3    3    0  502 -0.34101262064E+02 -0.17909990820E+03 -0.54924470885E+03  0.57871359360E+03  0.50400001928E-02 0.  1.
</event>
<event>
 5   0  0.2719671E-02  0.5029719E+03  0.7818609E-02  0.1013006E+00
        1   -1    0    0  501    0  0.00000000000E+00  0.00000000000E+00  0.30998571609E+03  0.30998571613E+03  0.50400001928E-02 0. -1.
       -1   -1    0    0    0  501  0.00000000000E+00  0.00000000000E+00 -0.20402610314E+03  0.20402610321E+03  0.50400001928E-02 0.  1.
    10030    2    1    2    0    0  0.00000000000E+00  0.00000000000E+00  0.10595961294E+03  0.51401181934E+03  0.50297187878E+03 0.  0.
        2    1    3    3  502    0 -0.10221558851E+03  0.99078245480E+02  0.26484806799E+03  0.30068093452E+03  0.25500000920E-02 0. -1.
       -2    1    3    3    0  502  0.10221558851E+03 -0.99078245480E+02 -0.15888845504E+03  0.21333088481E+03  0.25500000920E-02 0.  1.
</event>
<event>
 5   0  0.2723308E-02  0.4984869E+03  0.7818609E-02  0.1014175E+00
       -1   -1    0    0    0  501  0.00000000000E+00  0.00000000000E+00  0.66501360194E+02  0.66501360385E+02  0.50400001928E-02 0. -1.
        1   -1    0    0  501    0  0.00000000000E+00  0.00000000000E+00 -0.93415080053E+03  0.93415080054E+03  0.50400001928E-02 0.  1.
    10030    2    1    2    0    0  0.00000000000E+00  0.00000000000E+00 -0.86764944033E+03  0.10006521609E+04  0.49848690640E+03 0.  0.
        4    1    3    3  502    0 -0.21140297480E+03 -0.13042173841E+03 -0.39270340242E+03  0.46467044535E+03  0.12699999809E+01 0. -1.
       -4    1    3    3    0  502  0.21140297480E+03  0.13042173841E+03 -0.47494603791E+03  0.53598171558E+03  0.12699999809E+01 0.  1.
</event>
<event>
 5   0  0.2723308E-02  0.4998957E+03  0.7818609E-02  0.1013806E+00
       -1   -1    0    0    0  501  0.00000000000E+00  0.00000000000E+00  0.92951035955E+02  0.92951036092E+02  0.50400001928E-02 0.  1.
        1   -1    0    0  501    0  0.00000000000E+00  0.00000000000E+00 -0.67211645634E+03  0.67211645636E+03  0.50400001928E-02 0. -1.
    10030    2    1    2    0    0  0.00000000000E+00  0.00000000000E+00 -0.57916542038E+03  0.76506749245E+03  0.49989567295E+03 0.  0.
        4    1    3    3  502    0 -0.37277954799E+02 -0.14066937676E+03  0.21422736695E+02  0.14709883079E+03  0.12699999809E+01 0.  1.
       -4    1    3    3    0  502  0.37277954799E+02  0.14066937676E+03 -0.60058815708E+03  0.61796866166E+03  0.12699999809E+01 0. -1.
</event>
<event>
 5   0  0.4519539E-02  0.4986507E+03  0.7818609E-02  0.1014132E+00
       -2   -1    0    0    0  501  0.00000000000E+00  0.00000000000E+00  0.29027713220E+03  0.29027713221E+03  0.25500000920E-02 0. -1.
        2   -1    0    0  501    0  0.00000000000E+00  0.00000000000E+00 -0.21415101142E+03  0.21415101144E+03  0.25500000920E-02 0.  1.
    10030    2    1    2    0    0  0.00000000000E+00  0.00000000000E+00  0.76126120780E+02  0.50442814365E+03  0.49865074535E+03 0.  0.
        4    1    3    3  502    0 -0.77061772691E+02  0.17410687145E+03  0.20089325539E+03  0.27678770287E+03  0.12699999809E+01 0. -1.
       -4    1    3    3    0  502  0.77061772691E+02 -0.17410687145E+03 -0.12476713461E+03  0.22764044078E+03  0.12699999809E+01 0.  1.
</event>
<event>
 5   0  0.2715483E-02  0.5005962E+03  0.7818609E-02  0.1013623E+00
        1   -1    0    0  501    0  0.00000000000E+00  0.00000000000E+00  0.29281629068E+03  0.29281629072E+03  0.50400001928E-02 0. -1.
       -1   -1    0    0    0  501  0.00000000000E+00  0.00000000000E+00 -0.21395376904E+03  0.21395376910E+03  0.50400001928E-02 0.  1.
    10030    2    1    2    0    0  0.00000000000E+00  0.00000000000E+00  0.78862521634E+02  0.50677005982E+03  0.50059624071E+03 0.  0.
        5    1    3    3  502    0 -0.12729107014E+03  0.84969911565E+02 -0.16101106006E+03  0.22219260534E+03  0.46999998093E+01 0.  1.
       -5    1    3    3    0  502  0.12729107014E+03 -0.84969911565E+02  0.23987358169E+03  0.28457745448E+03  0.46999998093E+01 0. -1.
</event>
<event>
 5   0  0.2719671E-02  0.5009226E+03  0.7818609E-02  0.1013538E+00
       -1   -1    0    0    0  501  0.00000000000E+00  0.00000000000E+00  0.20267001229E+03  0.20267001235E+03  0.50400001928E-02 0. -1.
        1   -1    0    0  501    0  0.00000000000E+00  0.00000000000E+00 -0.30952213607E+03  0.30952213611E+03  0.50400001928E-02 0.  1.
    10030    2    1    2    0    0  0.00000000000E+00  0.00000000000E+00 -0.10685212378E+03  0.51219214846E+03  0.50092256945E+03 0.  0.
        2    1    3    3  502    0  0.14503325682E+02  0.16432921181E+03 -0.24612392629E+03  0.29629617515E+03  0.25500000920E-02 0.  1.
       -2    1    3    3    0  502 -0.14503325682E+02 -0.16432921181E+03  0.13927180252E+03  0.21589597331E+03  0.25500000920E-02 0. -1.
</event>
<event>
 5   0  0.2723308E-02  0.4990592E+03  0.7818609E-02  0.1014025E+00
        1   -1    0    0  501    0  0.00000000000E+00  0.00000000000E+00  0.29730944968E+03  0.29730944972E+03  0.50400001928E-02 0. -1.
       -1   -1    0    0    0  501  0.00000000000E+00  0.00000000000E+00 -0.20942831072E+03  0.20942831078E+03  0.50400001928E-02 0.  1.
    10030    2    1    2    0    0  0.00000000000E+00  0.00000000000E+00  0.87881138960E+02  0.50673776049E+03  0.49905917818E+03 0.  0.
        4    1    3    3  502    0  0.14685053947E+03  0.18327717681E+03 -0.41664359798E+02  0.23852282126E+03  0.12699999809E+01 0.  1.
       -4    1    3    3    0  502 -0.14685053947E+03 -0.18327717681E+03  0.12954549876E+03  0.26821493924E+03  0.12699999809E+01 0. -1.
</event>
<event>
 5   0  0.2723308E-02  0.5008092E+03  0.7818609E-02  0.1013568E+00
        1   -1    0    0  501    0  0.00000000000E+00  0.00000000000E+00  0.18895538051E+03  0.18895538058E+03  0.50400001928E-02 0.  1.
       -1   -1    0    0    0  501  0.00000000000E+00  0.00000000000E+00 -0.33183745104E+03  0.33183745108E+03  0.50400001928E-02 0. -1.
    10030    2    1    2    0    0  0.00000000000E+00  0.00000000000E+00 -0.14288207052E+03  0.52079283166E+03  0.50080923257E+03 0.  0.
        4    1    3    3  502    0  0.16026571820E+03 -0.19143480805E+03 -0.51479433686E+02  0.25491985242E+03  0.12699999809E+01 0.  1.
       -4    1    3    3    0  502 -0.16026571820E+03  0.19143480805E+03 -0.91402636837E+02  0.26587297923E+03  0.12699999809E+01 0. -1.
</event>
<event>
 5   0  0.4409622E-02  0.4993022E+03  0.7818609E-02  0.1013961E+00
        2   -1    0    0  501    0  0.00000000000E+00  0.00000000000E+00  0.30296393734E+03  0.30296393735E+03  0.25500000920E-02 0.  1.
       -2   -1    0    0    0  501  0.00000000000E+00  0.00000000000E+00 -0.20571977450E+03  0.20571977452E+03  0.25500000920E-02 0. -1.
    10030    2    1    2    0    0  0.00000000000E+00  0.00000000000E+00  0.97244162838E+02  0.50868371187E+03  0.49930220460E+03 0.  0.
        3    1    3    3  502    0  0.75228355090E+02  0.23228345306E+03 -0.44210870204E+01  0.24420168752E+03  0.10100000352E+00 0.  1.
       -3    1    3    3    0  502 -0.75228355090E+02 -0.23228345306E+03  0.10166524986E+03  0.26448202435E+03  0.10100000352E+00 0. -1.
</event>
<event>
 5   0  0.2719671E-02  0.4973069E+03  0.7818609E-02  0.1014484E+00
        1   -1    0    0  501    0  0.00000000000E+00  0.00000000000E+00  0.92667847588E+03  0.92667847589E+03  0.50400001928E-02 0. -1.
       -1   -1    0    0    0  501  0.00000000000E+00  0.00000000000E+00 -0.66720583986E+02  0.66720584176E+02  0.50400001928E-02 0.  1.
    10030    2    1    2    0    0  0.00000000000E+00  0.00000000000E+00  0.85995789189E+03  0.99339906007E+03  0.49730686373E+03 0.  0.
        2    1    3    3  502    0 -0.10272474297E+03  0.21116113736E+02 -0.20381751506E+02  0.10683482053E+03  0.25500000920E-02 0.  1.
       -2    1    3    3    0  502  0.10272474297E+03 -0.21116113736E+02  0.88033964340E+03  0.88656423953E+03  0.25500000920E-02 0. -1.
</event>
<event>
 5   0  0.4409622E-02  0.4986393E+03  0.7818609E-02  0.1014135E+00
        2   -1    0    0  501    0  0.00000000000E+00  0.00000000000E+00  0.38399428034E+03  0.38399428035E+03  0.25500000920E-02 0. -1.
       -2   -1    0    0    0  501  0.00000000000E+00  0.00000000000E+00 -0.16187814405E+03  0.16187814407E+03  0.25500000920E-02 0.  1.
    10030    2    1    2    0    0  0.00000000000E+00  0.00000000000E+00  0.22211613629E+03  0.54587242442E+03  0.49863927417E+03 0.  0.
        3    1    3    3  502    0  0.15034531841E+03  0.94217652132E+01  0.32854144162E+03  0.36143045457E+03  0.10100000352E+00 0. -1.
       -3    1    3    3    0  502 -0.15034531841E+03 -0.94217652132E+01 -0.10642530533E+03  0.18444196985E+03  0.10100000352E+00 0.  1.
</event>
<event>
 5   0  0.2715483E-02  0.4998610E+03  0.7818609E-02  0.1013815E+00
        1   -1    0    0  501    0  0.00000000000E+00  0.00000000000E+00  0.73490368267E+03  0.73490368269E+03  0.50400001928E-02 0.  1.
       -1   -1    0    0    0  501  0.00000000000E+00  0.00000000000E+00 -0.84997866702E+02  0.84997866851E+02  0.50400001928E-02 0. -1.
    10030    2    1    2    0    0  0.00000000000E+00  0.00000000000E+00  0.64990581597E+03  0.81990154954E+03  0.49986096197E+03 0.  0.
        5    1    3    3  502    0 -0.99468575409E+02 -0.22379394146E+03  0.24350896536E+03  0.34539315560E+03  0.46999998093E+01 0.  1.
       -5    1    3    3    0  502  0.99468575409E+02  0.22379394146E+03  0.40639685061E+03  0.47450839393E+03  0.46999998093E+01 0. -1.
</event>
<event>
 5   0  0.4409622E-02  0.5072214E+03  0.7818609E-02  0.1011911E+00
        2   -1    0    0  501    0  0.00000000000E+00  0.00000000000E+00  0.13922708366E+04  0.13922708366E+04  0.25500000920E-02 0. -1.
       -2   -1    0    0    0  501  0.00000000000E+00  0.00000000000E+00 -0.46196740556E+02  0.46196740626E+02  0.25500000920E-02 0.  1.
    10030    2    1    2    0    0  0.00000000000E+00  0.00000000000E+00  0.13460740961E+04  0.14384675773E+04  0.50722135080E+03 0.  0.
        3    1    3    3  502    0  0.91963884156E+02  0.14931800383E+03  0.11926103141E+04  0.12054346079E+04  0.10100000352E+00 0. -1.
       -3    1    3    3    0  502 -0.91963884156E+02 -0.14931800383E+03  0.15346378194E+03  0.23303296940E+03  0.10100000352E+00 0.  1.
</event>
<event>
 5   0  0.2643185E-02  0.5036894E+03  0.7818609E-02  0.1012820E+00
        1   -1    0    0  501    0  0.00000000000E+00  0.00000000000E+00  0.78327969827E+03  0.78327969829E+03  0.50400001928E-02 0.  1.
       -1   -1    0    0    0  501  0.00000000000E+00  0.00000000000E+00 -0.80974606345E+02  0.80974606502E+02  0.50400001928E-02 0. -1.
    10030    2    1    2    0    0  0.00000000000E+00  0.00000000000E+00  0.70230509193E+03  0.86425430479E+03  0.50368944917E+03 0.  0.
        1    1    3    3  502    0 -0.78552628565E+02  0.21816460364E+03  0.51979038237E+03  0.56916460832E+03  0.50400001928E-02 0.  1.
       -1    1    3    3    0  502  0.78552628565E+02 -0.21816460364E+03  0.18251470956E+03  0.29508969647E+03  0.50400001928E-02 0. -1.
</event>
<event>
 5   0  0.2715483E-02  0.4980511E+03  0.7818609E-02  0.1014289E+00
        1   -1    0    0  501    0  0.00000000000E+00  0.00000000000E+00  0.16704589168E+04  0.16704589168E+04  0.50400001928E-02 0.  1.
       -1   -1    0    0    0  501  0.00000000000E+00  0.00000000000E+00 -0.37123764761E+02  0.37123765104E+02  0.50400001928E-02 0. -1.
    10030    2    1    2    0    0  0.00000000000E+00  0.00000000000E+00  0.16333351520E+04  0.17075826819E+04  0.49805109845E+03 0.  0.
        5    1    3    3  502    0 -0.83766844693E+02 -0.15617042788E+03  0.14162735730E+04  0.14273258248E+04  0.46999998093E+01 0.  1.
       -5    1    3    3    0  502  0.83766844693E+02  0.15617042788E+03  0.21706157903E+03  0.28025685702E+03  0.46999998093E+01 0. -1.
</event>
<event>
 5   0  0.4631619E-02  0.5003189E+03  0.7818609E-02  0.1013696E+00
       -2   -1    0    0    0  501  0.00000000000E+00  0.00000000000E+00  0.20724052902E+03  0.20724052904E+03  0.25500000920E-02 0. -1.
        2   -1    0    0  501    0  0.00000000000E+00  0.00000000000E+00 -0.30196674349E+03  0.30196674350E+03  0.25500000920E-02 0.  1.
    10030    2    1    2    0    0  0.00000000000E+00  0.00000000000E+00 -0.94726214468E+02  0.50920727253E+03  0.50031888900E+03 0.  0.
        5    1    3    3  502    0  0.11909283291E+03  0.16083730822E+03 -0.20004798872E+03  0.28300712068E+03  0.46999998093E+01 0.  1.
       -5    1    3    3    0  502 -0.11909283291E+03 -0.16083730822E+03  0.10532177425E+03  0.22620015185E+03  0.46999998093E+01 0. -1.
</event>
<event>
 5   0  0.2643185E-02  0.5000824E+03  0.7818609E-02  0.1013757E+00
       -1   -1    0    0    0  501  0.00000000000E+00  0.00000000000E+00  0.55161735851E+03  0.55161735853E+03  0.50400001928E-02 0. -1.
        1   -1    0    0  501    0  0.00000000000E+00  0.00000000000E+00 -0.11334054073E+03  0.11334054085E+03  0.50400001928E-02 0.  1.
    10030    2    1    2    0    0  0.00000000000E+00  0.00000000000E+00  0.43827681778E+03  0.66495789938E+03  0.50008243215E+03 0.  0.
        1    1    3    3  502    0  0.10659033305E+02  0.14068283112E+03  0.49363408558E+03  0.51340031597E+03  0.50400001928E-02 0. -1.
       -1    1    3    3    0  502 -0.10659033305E+02 -0.14068283112E+03 -0.55357267807E+02  0.15155758341E+03  0.50400001928E-02 0.  1.
</event>
<event>
 5   0  0.2719671E-02  0.5021474E+03  0.7818609E-02  0.1013220E+00
       -1   -1    0    0    0  501  0.00000000000E+00  0.00000000000E+00  0.24454926070E+03  0.24454926075E+03  0.50400001928E-02 0.  1.
        1   -1    0    0  501    0  0.00000000000E+00  0.00000000000E+00 -0.25777225227E+03  0.25777225232E+03  0.50400001928E-02 0. -1.
    10030    2    1    2    0    0  0.00000000000E+00  0.00000000000E+00 -0.13222991566E+02  0.50232151307E+03  0.50214744347E+03 0.  0.
        2    1    3    3  502    0  0.20907579795E+03 -0.84619090227E+02 -0.11694448922E+03  0.25406513591E+03  0.25500000920E-02 0. -1.
       -2    1    3    3    0  502 -0.20907579795E+03  0.84619090227E+02  0.10372149765E+03  0.24825637716E+03  0.25500000920E-02 0.  1.
</event>
<event>
 5   0  0.4534223E-02  0.4999636E+03  0.7818609E-02  0.1013788E+00
       -2   -1    0    0    0  501  0.00000000000E+00  0.00000000000E+00  0.14915963326E+03  0.14915963328E+03  0.25500000920E-02 0.  1.
        2   -1    0    0  501    0  0.00000000000E+00  0.00000000000E+00 -0.41895308212E+03  0.41895308213E+03  0.25500000920E-02 0. -1.
    10030    2    1    2    0    0  0.00000000000E+00  0.00000000000E+00 -0.26979344887E+03  0.56811271541E+03  0.49996355103E+03 0.  0.
        2    1    3    3  502    0 -0.11987025739E+02  0.65711730020E+02 -0.40862479550E+03  0.41404823844E+03  0.25500000920E-02 0. -1.
       -2    1    3    3    0  502  0.11987025739E+02 -0.65711730020E+02  0.13883134664E+03  0.15406447697E+03  0.25500000920E-02 0.  1.
</event>
<event>
 5   0  0.4534223E-02  0.4929812E+03  0.7818609E-02  0.1015627E+00
       -2   -1    0    0    0  501  0.00000000000E+00  0.00000000000E+00  0.35049605586E+03  0.35049605587E+03  0.25500000920E-02 0. -1.
        2   -1    0    0  501    0  0.00000000000E+00  0.00000000000E+00 -0.17334746886E+03  0.17334746888E+03  0.25500000920E-02 0.  1.
    10030    2    1    2    0    0  0.00000000000E+00  0.00000000000E+00  0.17714858700E+03  0.52384352476E+03  0.49298115233E+03 0.  0.
        2    1    3    3  502    0  0.12043379592E+03 -0.93566376772E+02  0.29434285034E+03  0.33150668110E+03  0.25500000920E-02 0. -1.
       -2    1    3    3    0  502 -0.12043379592E+03  0.93566376772E+02 -0.11719426334E+03  0.19233684366E+03  0.25500000920E-02 0.  1.
</event>
<event>
 5   0  0.4519539E-02  0.4998958E+03  0.7818609E-02  0.1013806E+00
       -2   -1    0    0    0  501  0.00000000000E+00  0.00000000000E+00  0.22864783850E+03  0.22864783851E+03  0.25500000920E-02 0. -1.
        2   -1    0    0  501    0  0.00000000000E+00  0.00000000000E+00 -0.27323224844E+03  0.27323224845E+03  0.25500000920E-02 0.  1.
    10030    2    1    2    0    0  0.00000000000E+00  0.00000000000E+00 -0.44584409938E+02  0.50188008696E+03  0.49989584123E+03 0.  0.
        4    1    3    3  502    0  0.79477535111E+02 -0.99319212201E+02  0.19371609417E+03  0.23175099253E+03  0.12699999809E+01 0. -1.
       -4    1    3    3    0  502 -0.79477535111E+02  0.99319212201E+02 -0.23830050411E+03  0.27012909443E+03  0.12699999809E+01 0.  1.
</event>
<event>
 5   0  0.4451135E-02  0.5021168E+03  0.7818609E-02  0.1013228E+00
       -2   -1    0    0    0  501  0.00000000000E+00  0.00000000000E+00  0.10106169124E+03  0.10106169127E+03  0.25500000920E-02 0. -1.
        2   -1    0    0  501    0  0.00000000000E+00  0.00000000000E+00 -0.62368168638E+03  0.62368168639E+03  0.25500000920E-02 0.  1.
    10030    2    1    2    0    0  0.00000000000E+00  0.00000000000E+00 -0.52261999514E+03  0.72474337766E+03  0.50211682319E+03 0.  0.
        1    1    3    3  502    0 -0.32661326488E+02 -0.24542540209E+03 -0.20127638576E+03  0.31908082632E+03  0.50400001928E-02 0. -1.
       -1    1    3    3    0  502  0.32661326488E+02  0.24542540209E+03 -0.32134360939E+03  0.40566255134E+03  0.50400001928E-02 0.  1.
</event>
<event>
 5   0  0.1805500E-02  0.5003578E+03  0.7818609E-02  0.1013686E+00
        4   -1    0    0  501    0  0.00000000000E+00  0.00000000000E+00  0.85710601682E+02  0.85720010153E+02  0.12699999809E+01 0.  1.
       -4   -1    0    0    0  501  0.00000000000E+00  0.00000000000E+00 -0.73019209912E+03  0.73019320355E+03  0.12699999809E+01 0. -1.
    10030    2    1    2    0    0  0.00000000000E+00  0.00000000000E+00 -0.64448149744E+03  0.81591321371E+03  0.50035784371E+03 0.  0.
        4    1    3    3  502    0  0.23653498342E+03  0.77624438030E+02 -0.28185012613E+03  0.37605246743E+03  0.12699999809E+01 0.  1.
       -4    1    3    3    0  502 -0.23653498342E+03 -0.77624438030E+02 -0.36263137131E+03  0.43986074628E+03  0.12699999809E+01 0. -1.
</event>
<event>
 5   0  0.4519539E-02  0.4997055E+03  0.7818609E-02  0.1013856E+00
        2   -1    0    0  501    0  0.00000000000E+00  0.00000000000E+00  0.11381657863E+04  0.11381657863E+04  0.25500000920E-02 0.  1.
       -2   -1    0    0    0  501  0.00000000000E+00  0.00000000000E+00 -0.54848249393E+02  0.54848249452E+02  0.25500000920E-02 0. -1.
    10030    2    1    2    0    0  0.00000000000E+00  0.00000000000E+00  0.10833175369E+04  0.11930140357E+04  0.49970551702E+03 0.  0.
        4    1    3    3  502    0 -0.15924605144E+03 -0.37374849712E+02  0.99255277589E+03  0.10059417528E+04  0.12699999809E+01 0.  1.
       -4    1    3    3    0  502  0.15924605144E+03  0.37374849712E+02  0.90764761008E+02  0.18707228290E+03  0.12699999809E+01 0. -1.
</event>
<event>
 5   0  0.4409622E-02  0.4990947E+03  0.7818609E-02  0.1014015E+00
        2   -1    0    0  501    0  0.00000000000E+00  0.00000000000E+00  0.62824572829E+03  0.62824572829E+03  0.25500000920E-02 0. -1.
       -2   -1    0    0    0  501  0.00000000000E+00  0.00000000000E+00 -0.99123431519E+02  0.99123431552E+02  0.25500000920E-02 0.  1.
    10030    2    1    2    0    0  0.00000000000E+00  0.00000000000E+00  0.52912229677E+03  0.72736915985E+03  0.49909467013E+03 0.  0.
        3    1    3    3  502    0 -0.15995037919E+03  0.46007887281E+02  0.53554322358E+03  0.56080959694E+03  0.10100000352E+00 0. -1.
       -3    1    3    3    0  502  0.15995037919E+03 -0.46007887281E+02 -0.64209268102E+01  0.16655956291E+03  0.10100000352E+00 0.  1.
</event>
<event>
 5   0  0.2715483E-02  0.4975286E+03  0.7818609E-02  0.1014426E+00
       -1   -1    0    0    0  501  0.00000000000E+00  0.00000000000E+00  0.10597748325E+03  0.10597748337E+03  0.50400001928E-02 0. -1.
        1   -1    0    0  501    0  0.00000000000E+00  0.00000000000E+00 -0.58393234469E+03  0.58393234471E+03  0.50400001928E-02 0.  1.
    10030    2    1    2    0    0  0.00000000000E+00  0.00000000000E+00 -0.47795486144E+03  0.68990982808E+03  0.49752861356E+03 0.  0.
        5    1    3    3  502    0 -0.17038914687E+03 -0.14065105044E+02 -0.48946805141E+03  0.51848949063E+03  0.46999998093E+01 0.  1.
       -5    1    3    3    0  502  0.17038914687E+03  0.14065105044E+02  0.11513189968E+02  0.17142033745E+03  0.46999998093E+01 0. -1.
</event>
<event>
 5   0  0.2715483E-02  0.4980803E+03  0.7818609E-02  0.1014281E+00
       -1   -1    0    0    0  501  0.00000000000E+00  0.00000000000E+00  0.10074910934E+03  0.10074910947E+03  0.50400001928E-02 0.  1.
        1   -1    0    0  501    0  0.00000000000E+00  0.00000000000E+00 -0.61559852765E+03  0.61559852767E+03  0.50400001928E-02 0. -1.
    10030    2    1    2    0    0  0.00000000000E+00  0.00000000000E+00 -0.51484941831E+03  0.71634763713E+03  0.49808032856E+03 0.  0.
        5    1    3    3  502    0 -0.10401240547E+03  0.26923113043E+02 -0.58048130264E+03  0.59035926962E+03  0.46999998093E+01 0. -1.
       -5    1    3    3    0  502  0.10401240547E+03 -0.26923113043E+02  0.65631884337E+02  0.12598836751E+03  0.46999998093E+01 0.  1.
</event>
<event>
 5   0  0.2643185E-02  0.4898209E+03  0.7818609E-02  0.1016470E+00
        1   -1    0    0  501    0  0.00000000000E+00  0.00000000000E+00  0.36837606983E+03  0.36837606986E+03  0.50400001928E-02 0.  1.
       -1   -1    0    0    0  501  0.00000000000E+00  0.00000000000E+00 -0.16282579951E+03  0.16282579959E+03  0.50400001928E-02 0. -1.
    10030    2    1    2    0    0  0.00000000000E+00  0.00000000000E+00  0.20555027032E+03  0.53120186945E+03  0.48982089837E+03 0.  0.
        1    1    3    3  502    0  0.63150741754E+02  0.69430022126E+02  0.34809965516E+03  0.36053004605E+03  0.50400001928E-02 0.  1.
       -1    1    3    3    0  502 -0.63150741754E+02 -0.69430022126E+02 -0.14254938485E+03  0.17067182340E+03  0.50400001928E-02 0. -1.
</event>
<event>
 5   0  0.1805500E-02  0.4996771E+03  0.7818609E-02  0.1013863E+00
        3   -1    0    0  501    0  0.00000000000E+00  0.00000000000E+00  0.32487823061E+03  0.32487824631E+03  0.10100000352E+00 0.  1.
       -3   -1    0    0    0  501  0.00000000000E+00  0.00000000000E+00 -0.19213130940E+03  0.19213133595E+03  0.10100000352E+00 0. -1.
    10030    2    1    2    0    0  0.00000000000E+00  0.00000000000E+00  0.13274692121E+03  0.51700958226E+03  0.49967705877E+03 0.  0.
        3    1    3    3  502    0  0.61432558384E+02  0.11846979387E+03  0.28491118148E+03  0.31461634227E+03  0.10100000352E+00 0.  1.
       -3    1    3    3    0  502 -0.61432558384E+02 -0.11846979387E+03 -0.15216426027E+03  0.20239323999E+03  0.10100000352E+00 0. -1.
</event>
<event>
 5   0  0.4631619E-02  0.4991922E+03  0.7818609E-02  0.1013990E+00
        2   -1    0    0  501    0  0.00000000000E+00  0.00000000000E+00  0.25848967584E+03  0.25848967586E+03  0.25500000920E-02 0. -1.
       -2   -1    0    0    0  501  0.00000000000E+00  0.00000000000E+00 -0.24100849796E+03  0.24100849797E+03  0.25500000920E-02 0.  1.
    10030    2    1    2    0    0  0.00000000000E+00  0.00000000000E+00  0.17481177887E+02  0.49949817383E+03  0.49919218151E+03 0.  0.
        5    1    3    3  502    0  0.47221081372E+02  0.19736304817E+02 -0.23565647506E+03  0.24119580529E+03  0.46999998093E+01 0.  1.
       -5    1    3    3    0  502 -0.47221081372E+02 -0.19736304817E+02  0.25313765295E+03  0.25830236854E+03  0.46999998093E+01 0. -1.
</event>
<event>
 5   0  0.2723308E-02  0.5009132E+03  0.7818609E-02  0.1013541E+00
        1   -1    0    0  501    0  0.00000000000E+00  0.00000000000E+00  0.41781724974E+03  0.41781724977E+03  0.50400001928E-02 0.  1.
       -1   -1    0    0    0  501  0.00000000000E+00  0.00000000000E+00 -0.15013386343E+03  0.15013386352E+03  0.50400001928E-02 0. -1.
    10030    2    1    2    0    0  0.00000000000E+00  0.00000000000E+00  0.26768338631E+03  0.56795111329E+03  0.50091323778E+03 0.  0.
        4    1    3    3  502    0 -0.21079722495E+03  0.10213101017E+03  0.23436779210E+03  0.33135492777E+03  0.12699999809E+01 0.  1.
       -4    1    3    3    0  502  0.21079722495E+03 -0.10213101017E+03  0.33315594212E+02  0.23659618552E+03  0.12699999809E+01 0. -1.
</event>
<event>
 5   0  0.4451135E-02  0.4997539E+03  0.7818609E-02  0.1013843E+00
        2   -1    0    0  501    0  0.00000000000E+00  0.00000000000E+00  0.43234011724E+03  0.43234011724E+03  0.25500000920E-02 0.  1.
       -2   -1    0    0    0  501  0.00000000000E+00  0.00000000000E+00 -0.14441983476E+03  0.14441983478E+03  0.25500000920E-02 0. -1.
    10030    2    1    2    0    0  0.00000000000E+00  0.00000000000E+00  0.28792028248E+03  0.57675995203E+03  0.49975389263E+03 0.  0.
        1    1    3    3  502    0  0.12188293120E+03  0.12013083354E+02 -0.10740521174E+03  0.16289764462E+03  0.50400001928E-02 0. -1.
       -1    1    3    3    0  502 -0.12188293120E+03 -0.12013083354E+02  0.39532549421E+03  0.41386230741E+03  0.50400001928E-02 0.  1.
</event>
<event>
 5   0  0.1805500E-02  0.5011117E+03  0.7818609E-02  0.1013489E+00
       -3   -1    0    0    0  501  0.00000000000E+00  0.00000000000E+00  0.13229513736E+04  0.13229513774E+04  0.10100000352E+00 0.  1.
        3   -1    0    0  501    0  0.00000000000E+00  0.00000000000E+00 -0.47453110470E+02  0.47453217955E+02  0.10100000352E+00 0. -1.
    10030    2    1    2    0    0  0.00000000000E+00  0.00000000000E+00  0.12754982631E+04  0.13704045954E+04  0.50111169999E+03 0.  0.
        2    1    3    3  502    0  0.14313875887E+03 -0.72565805624E+01  0.75718306155E+02  0.16209449141E+03  0.25500000920E-02 0. -1.
       -2    1    3    3    0  502 -0.14313875887E+03  0.72565805624E+01  0.11997799570E+04  0.12083101040E+04  0.25500000920E-02 0.  1.
</event>
<event>
 5   0  0.4534223E-02  0.5004572E+03  0.7818609E-02  0.1013660E+00
        2   -1    0    0  501    0  0.00000000000E+00  0.00000000000E+00  0.36174799178E+03  0.36174799179E+03  0.25500000920E-02 0.  1.
       -2   -1    0    0    0  501  0.00000000000E+00  0.00000000000E+00 -0.17308831398E+03  0.17308831400E+03  0.25500000920E-02 0. -1.
    10030    2    1    2    0    0  0.00000000000E+00  0.00000000000E+00  0.18865967780E+03  0.53483630579E+03  0.50045719094E+03 0.  0.
        2    1    3    3  502    0 -0.21529040914E+03  0.85388890516E+02 -0.69040349627E+01  0.23170862866E+03  0.25500000920E-02 0. -1.
       -2    1    3    3    0  502  0.21529040914E+03 -0.85388890516E+02  0.19556371277E+03  0.30312767714E+03  0.25500000920E-02 0.  1.
</event>
<event>
 5   0  0.2715483E-02  0.5003205E+03  0.7818609E-02  0.1013695E+00
        1   -1    0    0  501    0  0.00000000000E+00  0.00000000000E+00  0.11734522190E+04  0.11734522190E+04  0.50400001928E-02 0. -1.
       -1   -1    0    0    0  501  0.00000000000E+00  0.00000000000E+00 -0.53329962584E+02  0.53329962823E+02  0.50400001928E-02 0.  1.
    10030    2    1    2    0    0  0.00000000000E+00  0.00000000000E+00  0.11201222564E+04  0.12267821818E+04  0.50032054959E+03 0.  0.
        5    1    3    3  502    0  0.88886010611E+02  0.52353764870E+02  0.13702975895E+01  0.10327442710E+03  0.46999998093E+01 0.  1.
       -5    1    3    3    0  502 -0.88886010611E+02 -0.52353764870E+02  0.11187519588E+04  0.11235077547E+04  0.46999998093E+01 0. -1.
</event>
<event>
 5   0  0.4519539E-02  0.4995066E+03  0.7818609E-02  0.1013908E+00
       -2   -1    0    0    0  501  0.00000000000E+00  0.00000000000E+00  0.52608485376E+02  0.52608485438E+02  0.25500000920E-02 0.  1.
        2   -1    0    0  501    0  0.00000000000E+00  0.00000000000E+00 -0.11856777975E+04  0.11856777975E+04  0.25500000920E-02 0. -1.
    10030    2    1    2    0    0  0.00000000000E+00  0.00000000000E+00 -0.11330693121E+04  0.12382862830E+04  0.49950660901E+03 0.  0.
        4    1    3    3  502    0  0.12278488329E+03 -0.80642375725E+02 -0.10672460144E+04  0.10773091425E+04  0.12699999809E+01 0. -1.
       -4    1    3    3    0  502 -0.12278488329E+03  0.80642375725E+02 -0.65823297721E+02  0.16097714045E+03  0.12699999809E+01 0.  1.
</event>
<event>
 5   0  0.4631619E-02  0.4986893E+03  0.7818609E-02  0.1014122E+00
       -2   -1    0    0    0  501  0.00000000000E+00  0.00000000000E+00  0.17500939537E+03  0.17500939539E+03  0.25500000920E-02 0. -1.
        2   -1    0    0  501    0  0.00000000000E+00  0.00000000000E+00 -0.35525376480E+03  0.35525376480E+03  0.25500000920E-02 0.  1.
    10030    2    1    2    0    0  0.00000000000E+00  0.00000000000E+00 -0.18024436943E+03  0.53026316019E+03  0.49868926833E+03 0.  0.
        5    1    3    3  502    0  0.10160590828E+03 -0.32211323672E+02  0.14951138691E+03  0.18367654936E+03  0.46999998093E+01 0. -1.
       -5    1    3    3    0  502 -0.10160590828E+03  0.32211323672E+02 -0.32975575634E+03  0.34658661083E+03  0.46999998093E+01 0.  1.
</event>
<event>
 5   0  0.2723308E-02  0.4977082E+03  0.7818609E-02  0.1014379E+00
        1   -1    0    0  501    0  0.00000000000E+00  0.00000000000E+00  0.14386858377E+03  0.14386858385E+03  0.50400001928E-02 0.  1.
       -1   -1    0    0    0  501  0.00000000000E+00  0.00000000000E+00 -0.43045087674E+03  0.43045087677E+03  0.50400001928E-02 0. -1.
    10030    2    1    2    0    0  0.00000000000E+00  0.00000000000E+00 -0.28658229297E+03  0.57431946062E+03  0.49770817976E+03 0.  0.
        4    1    3    3  502    0  0.21014483700E+03  0.64904023405E+02 -0.27763018857E+03  0.35419418301E+03  0.12699999809E+01 0. -1.
       -4    1    3    3    0  502 -0.21014483700E+03 -0.64904023405E+02 -0.89521044013E+01  0.22012527761E+03  0.12699999809E+01 0.  1.
</event>
<event>
 5   0  0.4409622E-02  0.5007405E+03  0.7818609E-02  0.1013586E+00
        2   -1    0    0  501    0  0.00000000000E+00  0.00000000000E+00  0.84081098290E+03  0.84081098290E+03  0.25500000920E-02 0. -1.
       -2   -1    0    0    0  501  0.00000000000E+00  0.00000000000E+00 -0.74553331976E+02  0.74553332020E+02  0.25500000920E-02 0.  1.
    10030    2    1    2    0    0  0.00000000000E+00  0.00000000000E+00  0.76625765092E+03  0.91536431492E+03  0.50074049311E+03 0.  0.
        3    1    3    3  502    0 -0.10138247246E+03  0.21796096375E+03  0.25516912314E+03  0.35056622633E+03  0.10100000352E+00 0. -1.
       -3    1    3    3    0  502  0.10138247246E+03 -0.21796096375E+03  0.51108852778E+03  0.56479808859E+03  0.10100000352E+00 0.  1.
</event>
<event>
 5   0  0.2715483E-02  0.4939706E+03  0.7818609E-02  0.1015365E+00
       -1   -1    0    0    0  501  0.00000000000E+00  0.00000000000E+00  0.18227368889E+03  0.18227368896E+03  0.50400001928E-02 0.  1.
        1   -1    0    0  501    0  0.00000000000E+00  0.00000000000E+00 -0.33467117525E+03  0.33467117529E+03  0.50400001928E-02 0. -1.
    10030    2    1    2    0    0  0.00000000000E+00  0.00000000000E+00 -0.15239748636E+03  0.51694486424E+03  0.49397064571E+03 0.  0.
        5    1    3    3  502    0  0.68834695653E+02 -0.16494264416E+03  0.10212400749E+03  0.20590214689E+03  0.46999998093E+01 0.  1.
       -5    1    3    3    0  502 -0.68834695653E+02  0.16494264416E+03 -0.25452149385E+03  0.31104271736E+03  0.46999998093E+01 0. -1.
</event>
<event>
 5   0  0.2643185E-02  0.5007765E+03  0.7818609E-02  0.1013576E+00
        1   -1    0    0  501    0  0.00000000000E+00  0.00000000000E+00  0.23709149604E+03  0.23709149609E+03  0.50400001928E-02 0.  1.
       -1   -1    0    0    0  501  0.00000000000E+00  0.00000000000E+00 -0.26443067661E+03  0.26443067665E+03  0.50400001928E-02 0. -1.
    10030    2    1    2    0    0  0.00000000000E+00  0.00000000000E+00 -0.27339180566E+02  0.50152217275E+03  0.50077645608E+03 0.  0.
        1    1    3    3  502    0 -0.11457550673E+03 -0.78584502865E+02  0.19494613196E+03  0.23938894131E+03  0.50400001928E-02 0.  1.
       -1    1    3    3    0  502  0.11457550673E+03  0.78584502865E+02 -0.22228531252E+03  0.26213323143E+03  0.50400001928E-02 0. -1.
</event>
<event>
 5   0  0.2779445E-02  0.4998256E+03  0.7818609E-02  0.1013824E+00
       -1   -1    0    0    0  501  0.00000000000E+00  0.00000000000E+00  0.34710187819E+03  0.34710187823E+03  0.50400001928E-02 0. -1.
        1   -1    0    0  501    0  0.00000000000E+00  0.00000000000E+00 -0.17993679807E+03  0.17993679814E+03  0.50400001928E-02 0.  1.
    10030    2    1    2    0    0  0.00000000000E+00  0.00000000000E+00  0.16716508012E+03  0.52703867636E+03  0.49982557194E+03 0.  0.
        3    1    3    3  502    0 -0.19831446486E+03  0.15072364426E+03  0.62227838335E+02  0.25674609632E+03  0.10100000352E+00 0.  1.
       -3    1    3    3    0  502  0.19831446486E+03 -0.15072364426E+03  0.10493724179E+03  0.27029258004E+03  0.10100000352E+00 0. -1.
</event>
<event>
 5   0  0.2723308E-02  0.4990042E+03  0.7818609E-02  0.1014039E+00
       -1   -1    0    0    0  501  0.00000000000E+00  0.00000000000E+00  0.13037637844E+03  0.13037637854E+03  0.50400001928E-02 0. -1.
        1   -1    0    0  501    0  0.00000000000E+00  0.00000000000E+00 -0.47747376425E+03  0.47747376428E+03  0.50400001928E-02 0.  1.
    10030    2    1    2    0    0  0.00000000000E+00  0.00000000000E+00 -0.34709738581E+03  0.60785014281E+03  0.49900420928E+03 0.  0.
        4    1    3    3  502    0 -0.23376160741E+03  0.15095349459E+02 -0.68922149064E+02  0.24418074086E+03  0.12699999809E+01 0. -1.
       -4    1    3    3    0  502  0.23376160741E+03 -0.15095349459E+02 -0.27817523675E+03  0.36366940195E+03  0.12699999809E+01 0.  1.
</event>
<event>
 5   0  0.4409622E-02  0.4986673E+03  0.7818609E-02  0.1014127E+00
        2   -1    0    0  501    0  0.00000000000E+00  0.00000000000E+00  0.33965776642E+03  0.33965776643E+03  0.25500000920E-02 0. -1.
       -2   -1    0    0    0  501  0.00000000000E+00  0.00000000000E+00 -0.18302913945E+03  0.18302913946E+03  0.25500000920E-02 0.  1.
    10030    2    1    2    0    0  0.00000000000E+00  0.00000000000E+00  0.15662862697E+03  0.52268690589E+03  0.49866729871E+03 0.  0.
        3    1    3    3  502    0 -0.94623930445E+02  0.10380230445E+03  0.29424358570E+03  0.32604892968E+03  0.10100000352E+00 0. -1.
       -3    1    3    3    0  502  0.94623930445E+02 -0.10380230445E+03 -0.13761495873E+03  0.19663797621E+03  0.10100000352E+00 0.  1.
</event>
<event>
 5   0  0.2715483E-02  0.5020769E+03  0.7818609E-02  0.1013238E+00
       -1   -1    0    0    0  501  0.00000000000E+00  0.00000000000E+00  0.25218972133E+03  0.25218972138E+03  0.50400001928E-02 0. -1.
        1   -1    0    0  501    0  0.00000000000E+00  0.00000000000E+00 -0.24989244053E+03  0.24989244058E+03  0.50400001928E-02 0.  1.
    10030    2    1    2    0    0  0.00000000000E+00  0.00000000000E+00  0.22972807942E+01  0.50208216196E+03  0.50207690632E+03 0.  0.
        5    1    3    3  502    0  0.23279919428E+03 -0.75004225823E+02 -0.55217863227E+02  0.25078317561E+03  0.46999998093E+01 0. -1.
       -5    1    3    3    0  502 -0.23279919428E+03  0.75004225823E+02  0.57515144021E+02  0.25129898635E+03  0.46999998093E+01 0.  1.
</event>
<event>
 5   0  0.4409622E-02  0.4985361E+03  0.7818609E-02  0.1014162E+00
        2   -1    0    0  501    0  0.00000000000E+00  0.00000000000E+00  0.10428205899E+03  0.10428205902E+03  0.25500000920E-02 0.  1.
       -2   -1    0    0    0  501  0.00000000000E+00  0.00000000000E+00 -0.59583183304E+03  0.59583183305E+03  0.25500000920E-02 0. -1.
    10030    2    1    2    0    0  0.00000000000E+00  0.00000000000E+00 -0.49154977405E+03  0.70011389207E+03  0.49853613861E+03 0.  0.
        3    1    3    3  502    0 -0.18469851018E+03  0.37565608367E+02 -0.16691694494E+02  0.18921769859E+03  0.10100000352E+00 0.  1.
       -3    1    3    3    0  502  0.18469851018E+03 -0.37565608367E+02 -0.47485807956E+03  0.51089619348E+03  0.10100000352E+00 0. -1.
</event>
<event>
 5   0  0.4631619E-02  0.4997896E+03  0.7818609E-02  0.1013834E+00
        2   -1    0    0  501    0  0.00000000000E+00  0.00000000000E+00  0.79015022641E+03  0.79015022641E+03  0.25500000920E-02 0. -1.
       -2   -1    0    0    0  501  0.00000000000E+00  0.00000000000E+00 -0.79032318364E+02  0.79032318405E+02  0.25500000920E-02 0.  1.
    10030    2    1    2    0    0  0.00000000000E+00  0.00000000000E+00  0.71111790804E+03  0.86918254482E+03  0.49978957279E+03 0.  0.
        5    1    3    3  502    0 -0.13747845048E+02  0.12624197856E+03  0.72976508178E+03  0.74074638370E+03  0.46999998093E+01 0. -1.
       -5    1    3    3    0  502  0.13747845048E+02 -0.12624197856E+03 -0.18647173732E+02  0.12843616111E+03  0.46999998093E+01 0.  1.
</event>
<event>
 5   0  0.2719671E-02  0.5006746E+03  0.7818609E-02  0.1013603E+00
        1   -1    0    0  501    0  0.00000000000E+00  0.00000000000E+00  0.90000370320E+03  0.90000370322E+03  0.50400001928E-02 0.  1.
       -1   -1    0    0    0  501  0.00000000000E+00  0.00000000000E+00 -0.69631685747E+02  0.69631685929E+02  0.50400001928E-02 0. -1.
    10030    2    1    2    0    0  0.00000000000E+00  0.00000000000E+00  0.83037201746E+03  0.96963538915E+03  0.50067464536E+03 0.  0.
        2    1    3    3  502    0 -0.15035943818E+03  0.19500144453E+03  0.50255591268E+03  0.55963914212E+03  0.25500000920E-02 0.  1.
       -2    1    3    3    0  502  0.15035943818E+03 -0.19500144453E+03  0.32781610478E+03  0.40999624703E+03  0.25500000920E-02 0. -1.
</event>
<event>
 5   0  0.2723308E-02  0.4998584E+03  0.7818609E-02  0.1013816E+00
       -1   -1    0    0    0  501  0.00000000000E+00  0.00000000000E+00  0.87880937262E+02  0.87880937406E+02  0.50400001928E-02 0.  1.
        1   -1    0    0  501    0  0.00000000000E+00  0.00000000000E+00 -0.71078672025E+03  0.71078672026E+03  0.50400001928E-02 0. -1.
    10030    2    1    2    0    0  0.00000000000E+00  0.00000000000E+00 -0.62290578298E+03  0.79866765767E+03  0.49985839288E+03 0.  0.
        4    1    3    3  502    0 -0.22911542509E+03  0.37982443635E+02 -0.16391514702E+03  0.28426454644E+03  0.12699999809E+01 0.  1.
       -4    1    3    3    0  502  0.22911542509E+03 -0.37982443635E+02 -0.45899063597E+03  0.51440311123E+03  0.12699999809E+01 0. -1.
</event>
<event>
 5   0  0.4534223E-02  0.4848028E+03  0.7818609E-02  0.1017824E+00
       -2   -1    0    0    0  501  0.00000000000E+00  0.00000000000E+00  0.21593910645E+03  0.21593910646E+03  0.25500000920E-02 0. -1.
        2   -1    0    0  501    0  0.00000000000E+00  0.00000000000E+00 -0.27210655754E+03  0.27210655755E+03  0.25500000920E-02 0.  1.
    10030    2    1    2    0    0  0.00000000000E+00  0.00000000000E+00 -0.56167451094E+02  0.48804566401E+03  0.48480283374E+03 0.  0.
        2    1    3    3  502    0  0.20219542206E+03 -0.96221914847E+02  0.65363916655E+02  0.23326827304E+03  0.25500000920E-02 0. -1.
       -2    1    3    3    0  502 -0.20219542206E+03  0.96221914847E+02 -0.12153136775E+03  0.25477739098E+03  0.25500000920E-02 0.  1.
</event>
<event>
 5   0  0.4409622E-02  0.5018251E+03  0.7818609E-02  0.1013304E+00
       -2   -1    0    0    0  501  0.00000000000E+00  0.00000000000E+00  0.75053157655E+02  0.75053157698E+02  0.25500000920E-02 0.  1.
        2   -1    0    0  501    0  0.00000000000E+00  0.00000000000E+00 -0.83883372796E+03  0.83883372796E+03  0.25500000920E-02 0. -1.
    10030    2    1    2    0    0  0.00000000000E+00  0.00000000000E+00 -0.76378057030E+03  0.91388688566E+03  0.50182514904E+03 0.  0.
        3    1    3    3  502    0 -0.18959471642E+03 -0.16418689498E+03 -0.36855535408E+03  0.44579877994E+03  0.10100000352E+00 0. -1.
       -3    1    3    3    0  502  0.18959471642E+03  0.16418689498E+03 -0.39522521622E+03  0.46808810572E+03  0.10100000352E+00 0.  1.
</event>
<event>
 5   0  0.2643185E-02  0.5048917E+03  0.7818609E-02  0.1012510E+00
        1   -1    0    0  501    0  0.00000000000E+00  0.00000000000E+00  0.23657340602E+04  0.23657340602E+04  0.50400001928E-02 0.  1.
       -1   -1    0    0    0  501  0.00000000000E+00  0.00000000000E+00 -0.26938318163E+02  0.26938318635E+02  0.50400001928E-02 0. -1.
    10030    2    1    2    0    0  0.00000000000E+00  0.00000000000E+00  0.23387957420E+04  0.23926723788E+04  0.50489166115E+03 0.  0.
        1    1    3    3  502    0  0.23609660224E+03 -0.47789506170E+02  0.81150418020E+03  0.84650131541E+03  0.50400001928E-02 0.  1.
       -1    1    3    3    0  502 -0.23609660224E+03  0.47789506170E+02  0.15272915618E+04  0.15461710634E+04  0.50400001928E-02 0. -1.
</event>
<event>
 5   0  0.4631619E-02  0.5057759E+03  0.7818609E-02  0.1012282E+00
        2   -1    0    0  501    0  0.00000000000E+00  0.00000000000E+00  0.14328964304E+04  0.14328964304E+04  0.25500000920E-02 0.  1.
       -2   -1    0    0    0  501  0.00000000000E+00  0.00000000000E+00 -0.44631493891E+02  0.44631493964E+02  0.25500000920E-02 0. -1.
    10030    2    1    2    0    0  0.00000000000E+00  0.00000000000E+00  0.13882649365E+04  0.14775279243E+04  0.50577587263E+03 0.  0.
        5    1    3    3  502    0  0.22334134729E+03 -0.93764628618E+02  0.90594364066E+03  0.93777882949E+03  0.46999998093E+01 0.  1.
       -5    1    3    3    0  502 -0.22334134729E+03  0.93764628618E+02  0.48232129583E+03  0.53974909485E+03  0.46999998093E+01 0. -1.
</event>
<event>
 5   0  0.1805500E-02  0.4974217E+03  0.7818609E-02  0.1014454E+00
        3   -1    0    0  501    0  0.00000000000E+00  0.00000000000E+00  0.14366487762E+03  0.14366491312E+03  0.10100000352E+00 0.  1.
       -3   -1    0    0    0  501  0.00000000000E+00  0.00000000000E+00 -0.43056510646E+03  0.43056511831E+03  0.10100000352E+00 0. -1.
    10030    2    1    2    0    0  0.00000000000E+00  0.00000000000E+00 -0.28690022884E+03  0.57423003143E+03  0.49742174026E+03 0.  0.
        5    1    3    3  502    0  0.81746318354E+02  0.81856851583E+01  0.12749414153E+03  0.15174423261E+03  0.46999998093E+01 0.  1.
       -5    1    3    3    0  502 -0.81746318354E+02 -0.81856851583E+01 -0.41439437038E+03  0.42248579882E+03  0.46999998093E+01 0. -1.
</event>
<event>
 5   0  0.2723308E-02  0.5005907E+03  0.7818609E-02  0.1013625E+00
       -1   -1    0    0    0  501  0.00000000000E+00  0.00000000000E+00  0.75742014821E+02  0.75742014989E+02  0.50400001928E-02 0. -1.
        1   -1    0    0  501    0  0.00000000000E+00  0.00000000000E+00 -0.82712027038E+03  0.82712027040E+03  0.50400001928E-02 0.  1.
    10030    2    1    2    0    0  0.00000000000E+00  0.00000000000E+00 -0.75137825556E+03  0.90286228539E+03  0.50059067455E+03 0.  0.
        4    1    3    3  502    0 -0.11395639772E+03 -0.15271556854E+02 -0.77666687928E+03  0.78513204959E+03  0.12699999809E+01 0.  1.
       -4    1    3    3    0  502  0.11395639772E+03  0.15271556854E+02  0.25288623715E+02  0.11773023580E+03  0.12699999809E+01 0. -1.
</event>
<event>
 5   0  0.1805500E-02  0.4998912E+03  0.7818609E-02  0.1013807E+00
       -3   -1    0    0    0  501  0.00000000000E+00  0.00000000000E+00  0.32625321960E+03  0.32625323523E+03  0.10100000352E+00 0.  1.
        3   -1    0    0  501    0  0.00000000000E+00  0.00000000000E+00 -0.19148559157E+03  0.19148561821E+03  0.10100000352E+00 0. -1.
    10030    2    1    2    0    0  0.00000000000E+00  0.00000000000E+00  0.13476762803E+03  0.51773885344E+03  0.49989119496E+03 0.  0.
        5    1    3    3  502    0 -0.50389140626E+02  0.12220931544E+03 -0.15226468541E+03  0.20169483557E+03  0.46999998093E+01 0. -1.
       -5    1    3    3    0  502  0.50389140626E+02 -0.12220931544E+03  0.28703231344E+03  0.31604401787E+03  0.46999998093E+01 0.  1.
</event>
<event>
 5   0  0.2715483E-02  0.4996817E+03  0.7818609E-02  0.1013862E+00
        1   -1    0    0  501    0  0.00000000000E+00  0.00000000000E+00  0.56584289063E+03  0.56584289065E+03  0.50400001928E-02 0. -1.
       -1   -1    0    0    0  501  0.00000000000E+00  0.00000000000E+00 -0.11031408356E+03  0.11031408367E+03  0.50400001928E-02 0.  1.
    10030    2    1    2    0    0  0.00000000000E+00  0.00000000000E+00  0.45552880707E+03  0.67615697432E+03  0.49968165851E+03 0.  0.
        5    1    3    3  502    0  0.38234258549E+02  0.23913020450E+03  0.31066489455E+03  0.39392877520E+03  0.46999998093E+01 0. -1.
       -5    1    3    3    0  502 -0.38234258549E+02 -0.23913020450E+03  0.14486391252E+03  0.28222819912E+03  0.46999998093E+01 0.  1.
</event>
<event>
 5   0  0.4534223E-02  0.5001115E+03  0.7818609E-02  0.1013750E+00
        2   -1    0    0  501    0  0.00000000000E+00  0.00000000000E+00  0.23111250592E+03  0.23111250593E+03  0.25500000920E-02 0.  1.
       -2   -1    0    0    0  501  0.00000000000E+00  0.00000000000E+00 -0.27055172784E+03  0.27055172785E+03  0.25500000920E-02 0. -1.
    10030    2    1    2    0    0  0.00000000000E+00  0.00000000000E+00 -0.39439221916E+02  0.50166423378E+03  0.50011153879E+03 0.  0.
        2    1    3    3  502    0  0.10379272273E+03 -0.14718153510E+02  0.20800577875E+03  0.23292908220E+03  0.25500000920E-02 0.  1.
       -2    1    3    3    0  502 -0.10379272273E+03  0.14718153510E+02 -0.24744500067E+03  0.26873515158E+03  0.25500000920E-02 0. -1.
</event>
<event>
 5   0  0.2643185E-02  0.4938046E+03  0.7818609E-02  0.1015409E+00
       -1   -1    0    0    0  501  0.00000000000E+00  0.00000000000E+00  0.11291979877E+03  0.11291979888E+03  0.50400001928E-02 0.  1.
        1   -1    0    0  501    0  0.00000000000E+00  0.00000000000E+00 -0.53985871698E+03  0.53985871701E+03  0.50400001928E-02 0. -1.
    10030    2    1    2    0    0  0.00000000000E+00  0.00000000000E+00 -0.42693891822E+03  0.65277851589E+03  0.49380456753E+03 0.  0.
        1    1    3    3  502    0  0.15685236913E+02 -0.15750138347E+03  0.37029837557E+02  0.16255436429E+03  0.50400001928E-02 0.  1.
       -1    1    3    3    0  502 -0.15685236913E+02  0.15750138347E+03 -0.46396875577E+03  0.49022415160E+03  0.50400001928E-02 0. -1.
</event>
<event>
 5   0  0.2719671E-02  0.5008135E+03  0.7818609E-02  0.1013567E+00
        1   -1    0    0  501    0  0.00000000000E+00  0.00000000000E+00  0.40960041611E+03  0.40960041614E+03  0.50400001928E-02 0. -1.
       -1   -1    0    0    0  501  0.00000000000E+00  0.00000000000E+00 -0.15308465976E+03  0.15308465984E+03  0.50400001928E-02 0.  1.
    10030    2    1    2    0    0  0.00000000000E+00  0.00000000000E+00  0.25651575635E+03  0.56268507598E+03  0.50081349970E+03 0.  0.
        2    1    3    3  502    0 -0.49285025700E+02  0.21726522215E+03  0.25670754311E+03  0.33989991646E+03  0.25500000920E-02 0. -1.
       -2    1    3    3    0  502  0.49285025700E+02 -0.21726522215E+03 -0.19178675718E+00  0.22278515952E+03  0.25500000920E-02 0.  1.
</event>
<event>
 5   0  0.4631619E-02  0.4989438E+03  0.7818609E-02  0.1014055E+00
        2   -1    0    0  501    0  0.00000000000E+00  0.00000000000E+00  0.90934853461E+03  0.90934853461E+03  0.25500000920E-02 0. -1.
       -2   -1    0    0    0  501  0.00000000000E+00  0.00000000000E+00 -0.68440467141E+02  0.68440467189E+02  0.25500000920E-02 0.  1.
    10030    2    1    2    0    0  0.00000000000E+00  0.00000000000E+00  0.84090806747E+03  0.97778900180E+03  0.49894383863E+03 0.  0.
        5    1    3    3  502    0 -0.91825344651E+02 -0.40115354780E+02 -0.27173139682E+02  0.10393077084E+03  0.46999998093E+01 0.  1.
       -5    1    3    3    0  502  0.91825344651E+02  0.40115354780E+02  0.86808120715E+03  0.87385823096E+03  0.46999998093E+01 0. -1.
</event>
<event>
 5   0  0.4519539E-02  0.5083236E+03  0.7818609E-02  0.1011629E+00
       -2   -1    0    0    0  501  0.00000000000E+00  0.00000000000E+00  0.46377470936E+03  0.46377470936E+03  0.25500000920E-02 0.  1.
        2   -1    0    0  501    0  0.00000000000E+00  0.00000000000E+00 -0.13928795411E+03  0.13928795414E+03  0.25500000920E-02 0. -1.
    10030    2    1    2    0    0  0.00000000000E+00  0.00000000000E+00  0.32448675524E+03  0.60306266350E+03  0.50832363882E+03 0.  0.
        4    1    3    3  502    0  0.94561192234E+02 -0.16821654544E+02  0.44141198181E+03  0.45174211418E+03  0.12699999809E+01 0.  1.
       -4    1    3    3    0  502 -0.94561192234E+02  0.16821654544E+02 -0.11692522657E+03  0.15132054932E+03  0.12699999809E+01 0. -1.
</event>
<event>
 5   0  0.2719671E-02  0.5000017E+03  0.7818609E-02  0.1013778E+00
       -1   -1    0    0    0  501  0.00000000000E+00  0.00000000000E+00  0.52718264619E+03  0.52718264621E+03  0.50400001928E-02 0. -1.
        1   -1    0    0  501    0  0.00000000000E+00  0.00000000000E+00 -0.11855552572E+03  0.11855552582E+03  0.50400001928E-02 0.  1.
    10030    2    1    2    0    0  0.00000000000E+00  0.00000000000E+00  0.40862712047E+03  0.64573817203E+03  0.50000166324E+03 0.  0.
        2    1    3    3  502    0 -0.68215245020E+02  0.80508485639E+02  0.49701218770E+03  0.50809059295E+03  0.25500000920E-02 0. -1.
       -2    1    3    3    0  502  0.68215245020E+02 -0.80508485639E+02 -0.88385067230E+02  0.13764757909E+03  0.25500000920E-02 0.  1.
</event>
<event>
 5   0  0.2779445E-02  0.4988178E+03  0.7818609E-02  0.1014088E+00
        1   -1    0    0  501    0  0.00000000000E+00  0.00000000000E+00  0.81574602368E+03  0.81574602370E+03  0.50400001928E-02 0.  1.
       -1   -1    0    0    0  501  0.00000000000E+00  0.00000000000E+00 -0.76255113337E+02  0.76255113503E+02  0.50400001928E-02 0. -1.
    10030    2    1    2    0    0  0.00000000000E+00  0.00000000000E+00  0.73949091034E+03  0.89200113720E+03  0.49881782475E+03 0.  0.
        3    1    3    3  502    0  0.16410418387E+03  0.18146646832E+03  0.45633224255E+03  0.51778314774E+03  0.10100000352E+00 0.  1.
       -3    1    3    3    0  502 -0.16410418387E+03 -0.18146646832E+03  0.28315866780E+03  0.37421798946E+03  0.10100000352E+00 0. -1.
</event>
<event>
 5   0  0.2719671E-02  0.5026187E+03  0.7818609E-02  0.1013098E+00
       -1   -1    0    0    0  501  0.00000000000E+00  0.00000000000E+00  0.98441268469E+02  0.98441268598E+02  0.50400001928E-02 0. -1.
        1   -1    0    0  501    0  0.00000000000E+00  0.00000000000E+00 -0.64156410252E+03  0.64156410254E+03  0.50400001928E-02 0.  1.
    10030    2    1    2    0    0  0.00000000000E+00  0.00000000000E+00 -0.54312283405E+03  0.74000537114E+03  0.50261867897E+03 0.  0.
        2    1    3    3  502    0 -0.20145486391E+03  0.13733933777E+03 -0.36124161523E+03  0.43582296919E+03  0.25500000920E-02 0.  1.
       -2    1    3    3    0  502  0.20145486391E+03 -0.13733933777E+03 -0.18188121882E+03  0.30418240195E+03  0.25500000920E-02 0. -1.
</event>
<event>
 5   0  0.4409622E-02  0.5004118E+03  0.7818609E-02  0.1013671E+00
       -2   -1    0    0    0  501  0.00000000000E+00  0.00000000000E+00  0.89626372135E+02  0.89626372171E+02  0.25500000920E-02 0.  1.
        2   -1    0    0  501    0  0.00000000000E+00  0.00000000000E+00 -0.69848864322E+03  0.69848864322E+03  0.25500000920E-02 0. -1.
    10030    2    1    2    0    0  0.00000000000E+00  0.00000000000E+00 -0.60886227108E+03  0.78811501539E+03  0.50041184273E+03 0.  0.
        3    1    3    3  502    0  0.15213364195E+03 -0.18613919681E+02  0.70389286511E+01  0.15342972247E+03  0.10100000352E+00 0.  1.
       -3    1    3    3    0  502 -0.15213364195E+03  0.18613919681E+02 -0.61590119973E+03  0.63468529292E+03  0.10100000352E+00 0. -1.
</event>
<event>
 5   0  0.2715483E-02  0.5016423E+03  0.7818609E-02  0.1013351E+00
       -1   -1    0    0    0  501  0.00000000000E+00  0.00000000000E+00  0.56312309168E+02  0.56312309393E+02  0.50400001928E-02 0.  1.
        1   -1    0    0  501    0  0.00000000000E+00  0.00000000000E+00 -0.11171845694E+04  0.11171845694E+04  0.50400001928E-02 0. -1.
    10030    2    1    2    0    0  0.00000000000E+00  0.00000000000E+00 -0.10608722602E+04  0.11734968788E+04  0.50164227497E+03 0.  0.
        5    1    3    3  502    0  0.64294702395E+02  0.95145356289E+02 -0.89078963710E+01  0.11527310265E+03  0.46999998093E+01 0.  1.
       -5    1    3    3    0  502 -0.64294702395E+02 -0.95145356289E+02 -0.10519643639E+04  0.10582237761E+04  0.46999998093E+01 0. -1.
</event>
<event>
 5   0  0.2723308E-02  0.5002954E+03  0.7818609E-02  0.1013702E+00
        1   -1    0    0  501    0  0.00000000000E+00  0.00000000000E+00  0.55235397724E+03  0.55235397726E+03  0.50400001928E-02 0.  1.
       -1   -1    0    0    0  501  0.00000000000E+00  0.00000000000E+00 -0.11328583925E+03  0.11328583936E+03  0.50400001928E-02 0. -1.
    10030    2    1    2    0    0  0.00000000000E+00  0.00000000000E+00  0.43906813799E+03  0.66563981662E+03  0.50029544839E+03 0.  0.
        4    1    3    3  502    0  0.22219723138E+01  0.18225839678E+03 -0.84008973926E+01  0.18246985596E+03  0.12699999809E+01 0. -1.
       -4    1    3    3    0  502 -0.22219723138E+01 -0.18225839678E+03  0.44746903538E+03  0.48316996066E+03  0.12699999809E+01 0.  1.
</event>
<event>
 5   0  0.2643185E-02  0.4988694E+03  0.7818609E-02  0.1014074E+00
       -1   -1    0    0    0  501  0.00000000000E+00  0.00000000000E+00  0.45902637801E+02  0.45902638077E+02  0.50400001928E-02 0. -1.
        1   -1    0    0  501    0  0.00000000000E+00  0.00000000000E+00 -0.13554271183E+04  0.13554271184E+04  0.50400001928E-02 0.  1.
    10030    2    1    2    0    0  0.00000000000E+00  0.00000000000E+00 -0.13095244805E+04  0.14013297564E+04  0.49886944296E+03 0.  0.
        1    1    3    3  502    0  0.88240088257E+01  0.24898948941E+03 -0.62104810629E+03  0.66915945732E+03  0.50400001928E-02 0.  1.
       -1    1    3    3    0  502 -0.88240088257E+01 -0.24898948941E+03 -0.68847637425E+03  0.73217029911E+03  0.50400001928E-02 0. -1.
</event>
<event>
 5   0  0.4451135E-02  0.5000993E+03  0.7818609E-02  0.1013753E+00
       -2   -1    0    0    0  501  0.00000000000E+00  0.00000000000E+00  0.27268684578E+03  0.27268684579E+03  0.25500000920E-02 0.  1.
        2   -1    0    0  501    0  0.00000000000E+00  0.00000000000E+00 -0.22929170305E+03  0.22929170307E+03  0.25500000920E-02 0. -1.
    10030    2    1    2    0    0  0.00000000000E+00  0.00000000000E+00  0.43395142727E+02  0.50197854886E+03  0.50009931524E+03 0.  0.
        1    1    3    3  502    0 -0.23677314697E+03 -0.74764037596E+02 -0.79710144695E+01  0.24842447854E+03  0.50400001928E-02 0.  1.
       -1    1    3    3    0  502  0.23677314697E+03  0.74764037596E+02  0.51366157197E+02  0.25355407031E+03  0.50400001928E-02 0. -1.
</event>
<event>
 5   0  0.2643185E-02  0.4997067E+03  0.7818609E-02  0.1013856E+00
        1   -1    0    0  501    0  0.00000000000E+00  0.00000000000E+00  0.18482531814E+03  0.18482531821E+03  0.50400001928E-02 0.  1.
       -1   -1    0    0    0  501  0.00000000000E+00  0.00000000000E+00 -0.33776051477E+03  0.33776051480E+03  0.50400001928E-02 0. -1.
    10030    2    1    2    0    0  0.00000000000E+00  0.00000000000E+00 -0.15293519662E+03  0.52258583302E+03  0.49970669247E+03 0.  0.
        1    1    3    3  502    0 -0.13366385066E+03  0.87305983776E+02  0.12452548986E+03  0.20247211518E+03  0.50400001928E-02 0.  1.
       -1    1    3    3    0  502  0.13366385066E+03 -0.87305983776E+02 -0.27746068648E+03  0.32011371783E+03  0.50400001928E-02 0. -1.
</event>
<event>
 5   0  0.4409622E-02  0.5001439E+03  0.7818609E-02  0.1013741E+00
        2   -1    0    0  501    0  0.00000000000E+00  0.00000000000E+00  0.12751433235E+04  0.12751433235E+04  0.25500000920E-02 0. -1.
       -2   -1    0    0    0  501  0.00000000000E+00  0.00000000000E+00 -0.49042317542E+02  0.49042317608E+02  0.25500000920E-02 0.  1.
    10030    2    1    2    0    0  0.00000000000E+00  0.00000000000E+00  0.12261010060E+04  0.13241856411E+04  0.50014391460E+03 0.  0.
        3    1    3    3  502    0 -0.86603130660E+02  0.12901128768E+03  0.94281495865E+02  0.18174989753E+03  0.10100000352E+00 0.  1.
       -3    1    3    3    0  502  0.86603130660E+02 -0.12901128768E+03  0.11318195101E+04  0.11424357436E+04  0.10100000352E+00 0. -1.
</event>
<event>
 5   0  0.4409622E-02  0.4992453E+03  0.7818609E-02  0.1013976E+00
       -2   -1    0    0    0  501  0.00000000000E+00  0.00000000000E+00  0.56886664115E+03  0.56886664116E+03  0.25500000920E-02 0. -1.
        2   -1    0    0  501    0  0.00000000000E+00  0.00000000000E+00 -0.10953616986E+03  0.10953616989E+03  0.25500000920E-02 0.  1.
    10030    2    1    2    0    0  0.00000000000E+00  0.00000000000E+00  0.45933047129E+03  0.67840281105E+03  0.49924532265E+03 0.  0.
        3    1    3    3  502    0 -0.61813216568E+02  0.10647302609E+03 -0.65410358084E+02  0.13941271166E+03  0.10100000352E+00 0.  1.
       -3    1    3    3    0  502  0.61813216568E+02 -0.10647302609E+03  0.52474082937E+03  0.53899009939E+03  0.10100000352E+00 0. -1.
</event>
<event>
 5   0  0.4519539E-02  0.5008418E+03  0.7818609E-02  0.1013559E+00
       -2   -1    0    0    0  501  0.00000000000E+00  0.00000000000E+00  0.12765269189E+03  0.12765269191E+03  0.25500000920E-02 0.  1.
        2   -1    0    0  501    0  0.00000000000E+00  0.00000000000E+00 -0.49125978378E+03  0.49125978378E+03  0.25500000920E-02 0. -1.
    10030    2    1    2    0    0  0.00000000000E+00  0.00000000000E+00 -0.36360709189E+03  0.61891247569E+03  0.50084182663E+03 0.  0.
        4    1    3    3  502    0  0.20899389990E+03  0.13066307646E+03 -0.23648060854E+03  0.34157865985E+03  0.12699999809E+01 0. -1.
       -4    1    3    3    0  502 -0.20899389990E+03 -0.13066307646E+03 -0.12712648334E+03  0.27733381585E+03  0.12699999809E+01 0.  1.
</event>
<event>
 5   0  0.2779445E-02  0.4950179E+03  0.7818609E-02  0.1015088E+00
        1   -1    0    0  501    0  0.00000000000E+00  0.00000000000E+00  0.50178049605E+02  0.50178049858E+02  0.50400001928E-02 0. -1.
       -1   -1    0    0    0  501  0.00000000000E+00  0.00000000000E+00 -0.12208659941E+04  0.12208659941E+04  0.50400001928E-02 0.  1.
    10030    2    1    2    0    0  0.00000000000E+00  0.00000000000E+00 -0.11706879445E+04  0.12710440439E+04  0.49501787677E+03 0.  0.
        3    1    3    3  502    0 -0.75660718754E+01 -0.24051188679E+03 -0.43656396540E+03  0.49848903621E+03  0.10100000352E+00 0.  1.
       -3    1    3    3    0  502  0.75660718754E+01  0.24051188679E+03 -0.73412397906E+03  0.77255500773E+03  0.10100000352E+00 0. -1.
</event>
<event>
 5   0  0.4519539E-02  0.5147051E+03  0.7818609E-02  0.1010010E+00
       -2   -1    0    0    0  501  0.00000000000E+00  0.00000000000E+00  0.10463995612E+03  0.10463995615E+03  0.25500000920E-02 0.  1.
        2   -1    0    0  501    0  0.00000000000E+00  0.00000000000E+00 -0.63293544253E+03  0.63293544253E+03  0.25500000920E-02 0. -1.
    10030    2    1    2    0    0  0.00000000000E+00  0.00000000000E+00 -0.52829548641E+03  0.73757539868E+03  0.51470510759E+03 0.  0.
        4    1    3    3  502    0  0.49703870946E+02  0.14113721587E+03  0.35890050821E+02  0.15388273828E+03  0.12699999809E+01 0.  1.
       -4    1    3    3    0  502 -0.49703870946E+02 -0.14113721587E+03 -0.56418553723E+03  0.58369266041E+03  0.12699999809E+01 0. -1.
</event>
<event>
 5   0  0.2715483E-02  0.4979759E+03  0.7818609E-02  0.1014309E+00
       -1   -1    0    0    0  501  0.00000000000E+00  0.00000000000E+00  0.17619001792E+03  0.17619001799E+03  0.50400001928E-02 0. -1.
        1   -1    0    0  501    0  0.00000000000E+00  0.00000000000E+00 -0.35186436024E+03  0.35186436028E+03  0.50400001928E-02 0.  1.
    10030    2    1    2    0    0  0.00000000000E+00  0.00000000000E+00 -0.17567434232E+03  0.52805437827E+03  0.49797585469E+03 0.  0.
        5    1    3    3  502    0  0.23888962509E+03 -0.38200646617E+02 -0.15007972270E+03  0.28473418401E+03  0.46999998093E+01 0. -1.
       -5    1    3    3    0  502 -0.23888962509E+03  0.38200646617E+02 -0.25594619618E+02  0.24332019425E+03  0.46999998093E+01 0.  1.
</event>
<event>
 5   0  0.4451135E-02  0.4991833E+03  0.7818609E-02  0.1013992E+00
        2   -1    0    0  501    0  0.00000000000E+00  0.00000000000E+00  0.81789656212E+03  0.81789656213E+03  0.25500000920E-02 0. -1.
       -2   -1    0    0    0  501  0.00000000000E+00  0.00000000000E+00 -0.76166104671E+02  0.76166104714E+02  0.25500000920E-02 0.  1.
    10030    2    1    2    0    0  0.00000000000E+00  0.00000000000E+00  0.74173045745E+03  0.89406266684E+03  0.49918331375E+03 0.  0.
        1    1    3    3  502    0  0.90517738755E+02 -0.17777317284E+03  0.63951826845E+03  0.66991072369E+03  0.50400001928E-02 0. -1.
       -1    1    3    3    0  502 -0.90517738755E+02  0.17777317284E+03  0.10221218901E+03  0.22415194315E+03  0.50400001928E-02 0.  1.
</event>
<event>
 5   0  0.2719671E-02  0.4867563E+03  0.7818609E-02  0.1017295E+00
        1   -1    0    0  501    0  0.00000000000E+00  0.00000000000E+00  0.41355964744E+03  0.41355964747E+03  0.50400001928E-02 0.  1.
       -1   -1    0    0    0  501  0.00000000000E+00  0.00000000000E+00 -0.14322704206E+03  0.14322704215E+03  0.50400001928E-02 0. -1.
    10030    2    1    2    0    0  0.00000000000E+00  0.00000000000E+00  0.27033260537E+03  0.55678668962E+03  0.48675630475E+03 0.  0.
        2    1    3    3  502    0 -0.21044368384E+03  0.12073694443E+03  0.11319410436E+03  0.26772534263E+03  0.25500000920E-02 0. -1.
       -2    1    3    3    0  502  0.21044368384E+03 -0.12073694443E+03  0.15713850102E+03  0.28906134699E+03  0.25500000920E-02 0.  1.
</event>
<event>
 5   0  0.4631619E-02  0.4962689E+03  0.7818609E-02  0.1014757E+00
       -2   -1    0    0    0  501  0.00000000000E+00  0.00000000000E+00  0.31877120179E+02  0.31877120281E+02  0.25500000920E-02 0.  1.
        2   -1    0    0  501    0  0.00000000000E+00  0.00000000000E+00 -0.19315015357E+04  0.19315015357E+04  0.25500000920E-02 0. -1.
    10030    2    1    2    0    0  0.00000000000E+00  0.00000000000E+00 -0.18996244155E+04  0.19633786560E+04  0.49626890566E+03 0.  0.
        5    1    3    3  502    0 -0.20642797888E+03  0.13090967793E+03 -0.78201918170E+03  0.81934482654E+03  0.46999998093E+01 0.  1.
       -5    1    3    3    0  502  0.20642797888E+03 -0.13090967793E+03 -0.11176052338E+04  0.11440338295E+04  0.46999998093E+01 0. -1.
</event>
<event>
 5   0  0.2779445E-02  0.4989026E+03  0.7818609E-02  0.1014066E+00
       -1   -1    0    0    0  501  0.00000000000E+00  0.00000000000E+00  0.18311108721E+03  0.18311108728E+03  0.50400001928E-02 0.  1.
        1   -1    0    0  501    0  0.00000000000E+00  0.00000000000E+00 -0.33982627388E+03  0.33982627392E+03  0.50400001928E-02 0. -1.
    10030    2    1    2    0    0  0.00000000000E+00  0.00000000000E+00 -0.15671518667E+03  0.52293736120E+03  0.49890262979E+03 0.  0.
        3    1    3    3  502    0  0.21169908191E+03  0.54389386120E+01 -0.21654137595E+03  0.30287994492E+03  0.10100000352E+00 0.  1.
       -3    1    3    3    0  502 -0.21169908191E+03 -0.54389386120E+01  0.59826189283E+02  0.22005741628E+03  0.10100000352E+00 0. -1.
</event>
<event>
 5   0  0.2643185E-02  0.5001326E+03  0.7818609E-02  0.1013744E+00
       -1   -1    0    0    0  501  0.00000000000E+00  0.00000000000E+00  0.85727062959E+02  0.85727063107E+02  0.50400001928E-02 0.  1.
        1   -1    0    0  501    0  0.00000000000E+00  0.00000000000E+00 -0.72944486141E+03  0.72944486143E+03  0.50400001928E-02 0. -1.
    10030    2    1    2    0    0  0.00000000000E+00  0.00000000000E+00 -0.64371779845E+03  0.81517192454E+03  0.50013264491E+03 0.  0.
        1    1    3    3  502    0  0.13490222888E+03  0.12220400146E+03 -0.60133399516E+03  0.62827939891E+03  0.50400001928E-02 0. -1.
       -1    1    3    3    0  502 -0.13490222888E+03 -0.12220400146E+03 -0.42383803290E+02  0.18689252563E+03  0.50400001928E-02 0.  1.
</event>
<event>
 5   0  0.1805500E-02  0.4971597E+03  0.7818609E-02  0.1014523E+00
        3   -1    0    0  501    0  0.00000000000E+00  0.00000000000E+00  0.19433520868E+03  0.19433523492E+03  0.10100000352E+00 0. -1.
       -3   -1    0    0    0  501  0.00000000000E+00  0.00000000000E+00 -0.31796574356E+03  0.31796575960E+03  0.10100000352E+00 0.  1.
    10030    2    1    2    0    0  0.00000000000E+00  0.00000000000E+00 -0.12363053488E+03  0.51230099452E+03  0.49715973272E+03 0.  0.
        3    1    3    3  502    0 -0.15360045633E+03  0.47400400407E+02 -0.25720018321E+03  0.30330157037E+03  0.10100000352E+00 0.  1.
       -3    1    3    3    0  502  0.15360045633E+03 -0.47400400407E+02  0.13356964832E+03  0.20899942416E+03  0.10100000352E+00 0. -1.
</event>
<event>
 5   0  0.2715483E-02  0.5007672E+03  0.7818609E-02  0.1013579E+00
       -1   -1    0    0    0  501  0.00000000000E+00  0.00000000000E+00  0.73668662671E+02  0.73668662844E+02  0.50400001928E-02 0. -1.
        1   -1    0    0  501    0  0.00000000000E+00  0.00000000000E+00 -0.85099868404E+03  0.85099868406E+03  0.50400001928E-02 0.  1.
    10030    2    1    2    0    0  0.00000000000E+00  0.00000000000E+00 -0.77733002137E+03  0.92466734690E+03  0.50076715178E+03 0.  0.
        5    1    3    3  502    0  0.18574887950E+03  0.16402145110E+03 -0.45431748922E+03  0.51752502709E+03  0.46999998093E+01 0.  1.
       -5    1    3    3    0  502 -0.18574887950E+03 -0.16402145110E+03 -0.32301253214E+03  0.40714231981E+03  0.46999998093E+01 0. -1.
</event>
<event>
 5   0  0.2643185E-02  0.5018838E+03  0.7818609E-02  0.1013288E+00
       -1   -1    0    0    0  501  0.00000000000E+00  0.00000000000E+00  0.35030890240E+03  0.35030890244E+03  0.50400001928E-02 0.  1.
        1   -1    0    0  501    0  0.00000000000E+00  0.00000000000E+00 -0.17976086111E+03  0.17976086119E+03  0.50400001928E-02 0. -1.
    10030    2    1    2    0    0  0.00000000000E+00  0.00000000000E+00  0.17054804129E+03  0.53006976362E+03  0.50188377133E+03 0.  0.
        1    1    3    3  502    0 -0.16355538641E+03 -0.63560478391E+02 -0.10419282748E+03  0.20407460440E+03  0.50400001928E-02 0. -1.
       -1    1    3    3    0  502  0.16355538641E+03  0.63560478391E+02  0.27474086877E+03  0.32599515922E+03  0.50400001928E-02 0.  1.
</event>
<event>
 5   0  0.2719671E-02  0.4984891E+03  0.7818609E-02  0.1014174E+00
       -1   -1    0    0    0  501  0.00000000000E+00  0.00000000000E+00  0.77252083124E+03  0.77252083126E+03  0.50400001928E-02 0.  1.
        1   -1    0    0  501    0  0.00000000000E+00  0.00000000000E+00 -0.80415752042E+02  0.80415752200E+02  0.50400001928E-02 0. -1.
    10030    2    1    2    0    0  0.00000000000E+00  0.00000000000E+00  0.69210507920E+03  0.85293658346E+03  0.49848909190E+03 0.  0.
        2    1    3    3  502    0 -0.24356041457E+03  0.50470824192E+02  0.31879029082E+03  0.40434666954E+03  0.25500000920E-02 0.  1.
       -2    1    3    3    0  502  0.24356041457E+03 -0.50470824192E+02  0.37331478838E+03  0.44858991392E+03  0.25500000920E-02 0. -1.
</event>
<event>
 5   0  0.2779445E-02  0.4996043E+03  0.7818609E-02  0.1013882E+00
       -1   -1    0    0    0  501  0.00000000000E+00  0.00000000000E+00  0.26663488597E+03  0.26663488602E+03  0.50400001928E-02 0. -1.
        1   -1    0    0  501    0  0.00000000000E+00  0.00000000000E+00 -0.23403205545E+03  0.23403205550E+03  0.50400001928E-02 0.  1.
    10030    2    1    2    0    0  0.00000000000E+00  0.00000000000E+00  0.32602830523E+02  0.50066694152E+03  0.49960428518E+03 0.  0.
        3    1    3    3  502    0  0.21316201932E+02 -0.23719660282E+03  0.91857347419E+02  0.25525358241E+03  0.10100000352E+00 0. -1.
       -3    1    3    3    0  502 -0.21316201932E+02  0.23719660282E+03 -0.59254516895E+02  0.24541335911E+03  0.10100000352E+00 0.  1.
</event>
<event>
 5   0  0.4631619E-02  0.5000444E+03  0.7818609E-02  0.1013767E+00
        2   -1    0    0  501    0  0.00000000000E+00  0.00000000000E+00  0.40770691787E+03  0.40770691788E+03  0.25500000920E-02 0. -1.
       -2   -1    0    0    0  501  0.00000000000E+00  0.00000000000E+00 -0.15332359922E+03  0.15332359924E+03  0.25500000920E-02 0.  1.
    10030    2    1    2    0    0  0.00000000000E+00  0.00000000000E+00  0.25438331864E+03  0.56103051712E+03  0.50004436637E+03 0.  0.
        5    1    3    3  502    0  0.41083693376E+01  0.17307966785E+03  0.32950452971E+03  0.37224827094E+03  0.46999998093E+01 0. -1.
       -5    1    3    3    0  502 -0.41083693376E+01 -0.17307966785E+03 -0.75121211064E+02  0.18878224618E+03  0.46999998093E+01 0.  1.
</event>
<event>
 5   0  0.2715483E-02  0.4987891E+03  0.7818609E-02  0.1014095E+00
        1   -1    0    0  501    0  0.00000000000E+00  0.00000000000E+00  0.18791078292E+03  0.18791078299E+03  0.50400001928E-02 0. -1.
       -1   -1    0    0    0  501  0.00000000000E+00  0.00000000000E+00 -0.33099562709E+03  0.33099562713E+03  0.50400001928E-02 0.  1.
    10030    2    1    2    0    0  0.00000000000E+00  0.00000000000E+00 -0.14308484417E+03  0.51890641012E+03  0.49878912361E+03 0.  0.
        5    1    3    3  502    0  0.30451361401E+02  0.23015149375E+03 -0.16619871956E+03  0.28555402268E+03  0.46999998093E+01 0.  1.
       -5    1    3    3    0  502 -0.30451361401E+02 -0.23015149375E+03  0.23113875391E+02  0.23335238743E+03  0.46999998093E+01 0. -1.
</event>
<event>
 5   0  0.4451135E-02  0.4999762E+03  0.7818609E-02  0.1013785E+00
        2   -1    0    0  501    0  0.00000000000E+00  0.00000000000E+00  0.76597423447E+03  0.76597423448E+03  0.25500000920E-02 0.  1.
       -2   -1    0    0    0  501  0.00000000000E+00  0.00000000000E+00 -0.81587669617E+02  0.81587669657E+02  0.25500000920E-02 0. -1.
    10030    2    1    2    0    0  0.00000000000E+00  0.00000000000E+00  0.68438656485E+03  0.84756190413E+03  0.49997621062E+03 0.  0.
        1    1    3    3  502    0 -0.66685803674E+02  0.15664163617E+03  0.31871511987E+02  0.17320332530E+03  0.50400001928E-02 0. -1.
       -1    1    3    3    0  502  0.66685803674E+02 -0.15664163617E+03  0.65251505287E+03  0.67435857883E+03  0.50400001928E-02 0.  1.
</event>
<event>
 5   0  0.2643185E-02  0.5102556E+03  0.7818609E-02  0.1011136E+00
        1   -1    0    0  501    0  0.00000000000E+00  0.00000000000E+00  0.10318596538E+04  0.10318596538E+04  0.50400001928E-02 0.  1.
       -1   -1    0    0    0  501  0.00000000000E+00  0.00000000000E+00 -0.63080461172E+02  0.63080461373E+02  0.50400001928E-02 0. -1.
    10030    2    1    2    0    0  0.00000000000E+00  0.00000000000E+00  0.96877919264E+03  0.10949401152E+04  0.51025555536E+03 0.  0.
        1    1    3    3  502    0 -0.23739652735E+03  0.67900811635E+00  0.68491743579E+03  0.72489272732E+03  0.50400001928E-02 0.  1.
       -1    1    3    3    0  502  0.23739652735E+03 -0.67900811635E+00  0.28386175685E+03  0.37004738788E+03  0.50400001928E-02 0. -1.
</event>
<event>
 5   0  0.4519539E-02  0.5010938E+03  0.7818609E-02  0.1013494E+00
       -2   -1    0    0    0  501  0.00000000000E+00  0.00000000000E+00  0.18312409364E+03  0.18312409366E+03  0.25500000920E-02 0.  1.
        2   -1    0    0  501    0  0.00000000000E+00  0.00000000000E+00 -0.34279343715E+03  0.34279343716E+03  0.25500000920E-02 0. -1.
    10030    2    1    2    0    0  0.00000000000E+00  0.00000000000E+00 -0.15966934350E+03  0.52591753082E+03  0.50109375367E+03 0.  0.
        4    1    3    3  502    0  0.13002811494E+03 -0.12842814603E+03  0.10003511168E+03  0.20835003200E+03  0.12699999809E+01 0.  1.
       -4    1    3    3    0  502 -0.13002811494E+03  0.12842814603E+03 -0.25970445518E+03  0.31756749882E+03  0.12699999809E+01 0. -1.
</event>
<event>
 5   0  0.4409622E-02  0.5013676E+03  0.7818609E-02  0.1013423E+00
       -2   -1    0    0    0  501  0.00000000000E+00  0.00000000000E+00  0.11541737138E+03  0.11541737141E+03  0.25500000920E-02 0. -1.
        2   -1    0    0  501    0  0.00000000000E+00  0.00000000000E+00 -0.54447925035E+03  0.54447925035E+03  0.25500000920E-02 0.  1.
    10030    2    1    2    0    0  0.00000000000E+00  0.00000000000E+00 -0.42906187896E+03  0.65989662176E+03  0.50136758514E+03 0.  0.
        3    1    3    3  502    0 -0.67947599991E+02 -0.11956979102E+03 -0.49039368196E+03  0.50931305184E+03  0.10100000352E+00 0.  1.
       -3    1    3    3    0  502  0.67947599991E+02  0.11956979102E+03  0.61331803001E+02  0.15058356992E+03  0.10100000352E+00 0. -1.
</event>
<event>
 5   0  0.2643185E-02  0.5017331E+03  0.7818609E-02  0.1013328E+00
        1   -1    0    0  501    0  0.00000000000E+00  0.00000000000E+00  0.75701744359E+03  0.75701744361E+03  0.50400001928E-02 0. -1.
       -1   -1    0    0    0  501  0.00000000000E+00  0.00000000000E+00 -0.83134187691E+02  0.83134187844E+02  0.50400001928E-02 0.  1.
    10030    2    1    2    0    0  0.00000000000E+00  0.00000000000E+00  0.67388325590E+03  0.84015163145E+03  0.50173311755E+03 0.  0.
        1    1    3    3  502    0  0.18056468096E+02  0.18253861165E+02  0.75481148598E+03  0.75524805122E+03  0.50400001928E-02 0. -1.
       -1    1    3    3    0  502 -0.18056468096E+02 -0.18253861165E+02 -0.80928230075E+02  0.84903580231E+02  0.50400001928E-02 0.  1.
</event>
<event>
 5   0  0.2715483E-02  0.5001340E+03  0.7818609E-02  0.1013744E+00
       -1   -1    0    0    0  501  0.00000000000E+00  0.00000000000E+00  0.16149996922E+03  0.16149996930E+03  0.50400001928E-02 0. -1.
        1   -1    0    0  501    0  0.00000000000E+00  0.00000000000E+00 -0.38720446004E+03  0.38720446008E+03  0.50400001928E-02 0.  1.
    10030    2    1    2    0    0  0.00000000000E+00  0.00000000000E+00 -0.22570449082E+03  0.54870442937E+03  0.50013401568E+03 0.  0.
        5    1    3    3  502    0  0.89417237770E+02  0.10141658928E+03  0.11788289446E+03  0.17944144949E+03  0.46999998093E+01 0. -1.
       -5    1    3    3    0  502 -0.89417237770E+02 -0.10141658928E+03 -0.34358738528E+03  0.36926297988E+03  0.46999998093E+01 0.  1.
</event>
<event>
 5   0  0.2715483E-02  0.5017971E+03  0.7818609E-02  0.1013311E+00
        1   -1    0    0  501    0  0.00000000000E+00  0.00000000000E+00  0.76948667849E+03  0.76948667851E+03  0.50400001928E-02 0. -1.
       -1   -1    0    0    0  501  0.00000000000E+00  0.00000000000E+00 -0.81807900433E+02  0.81807900589E+02  0.50400001928E-02 0.  1.
    10030    2    1    2    0    0  0.00000000000E+00  0.00000000000E+00  0.68767877806E+03  0.85129457910E+03  0.50179712894E+03 0.  0.
        5    1    3    3  502    0 -0.77031051651E+02  0.23366751217E+03  0.42684118841E+03  0.49269643725E+03  0.46999998093E+01 0. -1.
       -5    1    3    3    0  502  0.77031051651E+02 -0.23366751217E+03  0.26083758966E+03  0.35859814185E+03  0.46999998093E+01 0.  1.
</event>
<event>
 5   0  0.2719671E-02  0.5002766E+03  0.7818609E-02  0.1013707E+00
       -1   -1    0    0    0  501  0.00000000000E+00  0.00000000000E+00  0.68381423374E+02  0.68381423559E+02  0.50400001928E-02 0.  1.
        1   -1    0    0  501    0  0.00000000000E+00  0.00000000000E+00 -0.91500238053E+03  0.91500238054E+03  0.50400001928E-02 0. -1.
    10030    2    1    2    0    0  0.00000000000E+00  0.00000000000E+00 -0.84662095715E+03  0.98338380410E+03  0.50027658458E+03 0.  0.
        2    1    3    3  502    0  0.99827551419E+01  0.82260717163E+02 -0.88723885498E+03  0.89110003186E+03  0.25500000920E-02 0. -1.
       -2    1    3    3    0  502 -0.99827551419E+01 -0.82260717163E+02  0.40617897827E+02  0.92283772240E+02  0.25500000920E-02 0.  1.
</event>
<event>
 5   0  0.4631619E-02  0.5110330E+03  0.7818609E-02  0.1010939E+00
       -2   -1    0    0    0  501  0.00000000000E+00  0.00000000000E+00  0.53425294860E+02  0.53425294920E+02  0.25500000920E-02 0. -1.
        2   -1    0    0  501    0  0.00000000000E+00  0.00000000000E+00 -0.12220555461E+04  0.12220555461E+04  0.25500000920E-02 0.  1.
    10030    2    1    2    0    0  0.00000000000E+00  0.00000000000E+00 -0.11686302512E+04  0.12754808410E+04  0.51103298494E+03 0.  0.
        5    1    3    3  502    0  0.64114508028E+02 -0.81533819016E+02 -0.16007338949E+01  0.10384163967E+03  0.46999998093E+01 0. -1.
       -5    1    3    3    0  502 -0.64114508028E+02  0.81533819016E+02 -0.11670295173E+04  0.11716392013E+04  0.46999998093E+01 0.  1.
</event>
<event>
 5   0  0.4534223E-02  0.5020758E+03  0.7818609E-02  0.1013239E+00
       -2   -1    0    0    0  501  0.00000000000E+00  0.00000000000E+00  0.49011997802E+02  0.49011997869E+02  0.25500000920E-02 0.  1.
        2   -1    0    0  501    0  0.00000000000E+00  0.00000000000E+00 -0.12858084141E+04  0.12858084141E+04  0.25500000920E-02 0. -1.
    10030    2    1    2    0    0  0.00000000000E+00  0.00000000000E+00 -0.12367964163E+04  0.13348204119E+04  0.50207584770E+03 0.  0.
        2    1    3    3  502    0  0.10422615068E+03 -0.22218585660E+02 -0.12226869593E+04  0.12273223523E+04  0.25500000920E-02 0. -1.
       -2    1    3    3    0  502 -0.10422615068E+03  0.22218585660E+02 -0.14109456931E+02  0.10749805959E+03  0.25500000920E-02 0.  1.
</event>
<event>
 5   0  0.4409622E-02  0.4989539E+03  0.7818609E-02  0.1014052E+00
        2   -1    0    0  501    0  0.00000000000E+00  0.00000000000E+00  0.17870833678E+03  0.17870833680E+03  0.25500000920E-02 0. -1.
       -2   -1    0    0    0  501  0.00000000000E+00  0.00000000000E+00 -0.34826994230E+03  0.34826994231E+03  0.25500000920E-02 0.  1.
    10030    2    1    2    0    0  0.00000000000E+00  0.00000000000E+00 -0.16956160552E+03  0.52697827911E+03  0.49895387421E+03 0.  0.
        3    1    3    3  502    0 -0.22621107679E+03 -0.10397294234E+03 -0.67852201161E+02  0.25804215819E+03  0.10100000352E+00 0.  1.
       -3    1    3    3    0  502  0.22621107679E+03  0.10397294234E+03 -0.10170940436E+03  0.26893612092E+03  0.10100000352E+00 0. -1.
</event>
<event>
 5   0  0.4534223E-02  0.5000322E+03  0.7818609E-02  0.1013771E+00
        2   -1    0    0  501    0  0.00000000000E+00  0.00000000000E+00  0.64758249730E+03  0.64758249730E+03  0.25500000920E-02 0.  1.
       -2   -1    0    0    0  501  0.00000000000E+00  0.00000000000E+00 -0.96525246638E+02  0.96525246671E+02  0.25500000920E-02 0. -1.
    10030    2    1    2    0    0  0.00000000000E+00  0.00000000000E+00  0.55105725066E+03  0.74410774398E+03  0.50003224010E+03 0.  0.
        2    1    3    3  502    0 -0.70483512905E+02 -0.23987210281E+03  0.27370061062E+03  0.37070011540E+03  0.25500000920E-02 0.  1.
       -2    1    3    3    0  502  0.70483512905E+02  0.23987210281E+03  0.27735664004E+03  0.37340762858E+03  0.25500000920E-02 0. -1.
</event>
<event>
 5   0  0.4409622E-02  0.4998809E+03  0.7818609E-02  0.1013810E+00
       -2   -1    0    0    0  501  0.00000000000E+00  0.00000000000E+00  0.16949490457E+03  0.16949490459E+03  0.25500000920E-02 0.  1.
        2   -1    0    0  501    0  0.00000000000E+00  0.00000000000E+00 -0.36856705628E+03  0.36856705629E+03  0.25500000920E-02 0. -1.
    10030    2    1    2    0    0  0.00000000000E+00  0.00000000000E+00 -0.19907215170E+03  0.53806196088E+03  0.49988093799E+03 0.  0.
        3    1    3    3  502    0 -0.27137720629E+02  0.62032183471E+02 -0.35850738930E+03  0.36484518093E+03  0.10100000352E+00 0. -1.
       -3    1    3    3    0  502  0.27137720629E+02 -0.62032183471E+02  0.15943523760E+03  0.17321677995E+03  0.10100000352E+00 0.  1.
</event>
<event>
 5   0  0.4631619E-02  0.5002933E+03  0.7818609E-02  0.1013702E+00
       -2   -1    0    0    0  501  0.00000000000E+00  0.00000000000E+00  0.97498661449E+02  0.97498661482E+02  0.25500000920E-02 0. -1.
        2   -1    0    0  501    0  0.00000000000E+00  0.00000000000E+00 -0.64178672968E+03  0.64178672968E+03  0.25500000920E-02 0.  1.
    10030    2    1    2    0    0  0.00000000000E+00  0.00000000000E+00 -0.54428806823E+03  0.73928539117E+03  0.50029330235E+03 0.  0.
        5    1    3    3  502    0 -0.18356146383E+03 -0.83305863266E+02 -0.53381059279E+02  0.20858165150E+03  0.46999998093E+01 0. -1.
       -5    1    3    3    0  502  0.18356146383E+03  0.83305863266E+02 -0.49090700895E+03  0.53070373966E+03  0.46999998093E+01 0.  1.
</event>
<event>
 5   0  0.4519539E-02  0.4987323E+03  0.7818609E-02  0.1014110E+00
        2   -1    0    0  501    0  0.00000000000E+00  0.00000000000E+00  0.33171484046E+03  0.33171484047E+03  0.25500000920E-02 0. -1.
       -2   -1    0    0    0  501  0.00000000000E+00  0.00000000000E+00 -0.18746065668E+03  0.18746065670E+03  0.25500000920E-02 0.  1.
    10030    2    1    2    0    0  0.00000000000E+00  0.00000000000E+00  0.14425418378E+03  0.51917549717E+03  0.49873232031E+03 0.  0.
        4    1    3    3  502    0 -0.44800703413E+00  0.15854469885E+03  0.27248796682E+03  0.31525850853E+03  0.12699999809E+01 0. -1.
       -4    1    3    3    0  502  0.44800703413E+00 -0.15854469885E+03 -0.12823378304E+03  0.20391698864E+03  0.12699999809E+01 0.  1.
</event>
<event>
 5   0  0.4519539E-02  0.5004485E+03  0.7818609E-02  0.1013662E+00
        2   -1    0    0  501    0  0.00000000000E+00  0.00000000000E+00  0.15889370264E+04  0.15889370264E+04  0.25500000920E-02 0. -1.
       -2   -1    0    0    0  501  0.00000000000E+00  0.00000000000E+00 -0.39405064792E+02  0.39405064875E+02  0.25500000920E-02 0.  1.
    10030    2    1    2    0    0  0.00000000000E+00  0.00000000000E+00  0.15495319616E+04  0.16283420913E+04  0.50044846506E+03 0.  0.
        4    1    3    3  502    0  0.16141721918E+02  0.23984181594E+03  0.54873106652E+03  0.59907599528E+03  0.12699999809E+01 0.  1.
       -4    1    3    3    0  502 -0.16141721918E+02 -0.23984181594E+03  0.10008008951E+04  0.10292660960E+04  0.12699999809E+01 0. -1.
</event>
<event>
 5   0  0.2643185E-02  0.4990936E+03  0.7818609E-02  0.1014016E+00
       -1   -1    0    0    0  501  0.00000000000E+00  0.00000000000E+00  0.58295435249E+02  0.58295435467E+02  0.50400001928E-02 0.  1.
        1   -1    0    0  501    0  0.00000000000E+00  0.00000000000E+00 -0.10682415086E+04  0.10682415086E+04  0.50400001928E-02 0. -1.
    10030    2    1    2    0    0  0.00000000000E+00  0.00000000000E+00 -0.10099460733E+04  0.11265369441E+04  0.49909359372E+03 0.  0.
        1    1    3    3  502    0 -0.10907241556E+03 -0.24290442957E+02 -0.10086133558E+04  0.10147845677E+04  0.50400001928E-02 0. -1.
       -1    1    3    3    0  502  0.10907241556E+03  0.24290442957E+02 -0.13327175714E+01  0.11175237633E+03  0.50400001928E-02 0.  1.
</event>
<event>
 5   0  0.4534223E-02  0.5015820E+03  0.7818609E-02  0.1013367E+00
       -2   -1    0    0    0  501  0.00000000000E+00  0.00000000000E+00  0.21352990716E+03  0.21352990717E+03  0.25500000920E-02 0.  1.
        2   -1    0    0  501    0  0.00000000000E+00  0.00000000000E+00 -0.29455413586E+03  0.29455413587E+03  0.25500000920E-02 0. -1.
    10030    2    1    2    0    0  0.00000000000E+00  0.00000000000E+00 -0.81024228699E+02  0.50808404304E+03  0.50158196654E+03 0.  0.
        2    1    3    3  502    0  0.21559151047E+03 -0.12335611468E+03 -0.54266204958E+01  0.24844693323E+03  0.25500000920E-02 0.  1.
       -2    1    3    3    0  502 -0.21559151047E+03  0.12335611468E+03 -0.75597608204E+02  0.25963710981E+03  0.25500000920E-02 0. -1.
</event>
<event>
 5   0  0.2715483E-02  0.4993238E+03  0.7818609E-02  0.1013956E+00
       -1   -1    0    0    0  501  0.00000000000E+00  0.00000000000E+00  0.29792719686E+03  0.29792719690E+03  0.50400001928E-02 0. -1.
        1   -1    0    0  501    0  0.00000000000E+00  0.00000000000E+00 -0.20921576234E+03  0.20921576240E+03  0.50400001928E-02 0.  1.
    10030    2    1    2    0    0  0.00000000000E+00  0.00000000000E+00  0.88711434517E+02  0.50714295930E+03  0.49932380532E+03 0.  0.
        5    1    3    3  502    0  0.17019892521E+03 -0.54553152156E+02  0.22134077255E+03  0.28453039933E+03  0.46999998093E+01 0. -1.
       -5    1    3    3    0  502 -0.17019892521E+03  0.54553152156E+02 -0.13262933803E+03  0.22261255997E+03  0.46999998093E+01 0.  1.
</event>
<event>
 5   0  0.2723308E-02  0.5009828E+03  0.7818609E-02  0.1013523E+00
       -1   -1    0    0    0  501  0.00000000000E+00  0.00000000000E+00  0.13783713292E+03  0.13783713301E+03  0.50400001928E-02 0.  1.
        1   -1    0    0  501    0  0.00000000000E+00  0.00000000000E+00 -0.45521805834E+03  0.45521805837E+03  0.50400001928E-02 0. -1.
    10030    2    1    2    0    0  0.00000000000E+00  0.00000000000E+00 -0.31738092542E+03  0.59305519138E+03  0.50098284222E+03 0.  0.
        4    1    3    3  502    0  0.12840074134E+03 -0.19585118535E+03 -0.53474142058E+02  0.24021976178E+03  0.12699999809E+01 0.  1.
       -4    1    3    3    0  502 -0.12840074134E+03  0.19585118535E+03 -0.26390678336E+03  0.35283542960E+03  0.12699999809E+01 0. -1.
</event>
<event>
 5   0  0.2715483E-02  0.5002942E+03  0.7818609E-02  0.1013702E+00
       -1   -1    0    0    0  501  0.00000000000E+00  0.00000000000E+00  0.12506255384E+03  0.12506255394E+03  0.50400001928E-02 0.  1.
        1   -1    0    0  501    0  0.00000000000E+00  0.00000000000E+00 -0.50033823970E+03  0.50033823973E+03  0.50400001928E-02 0. -1.
    10030    2    1    2    0    0  0.00000000000E+00  0.00000000000E+00 -0.37527568586E+03  0.62540079367E+03  0.50029422576E+03 0.  0.
        5    1    3    3  502    0  0.10726221026E+02 -0.52069771302E+02  0.11786246602E+03  0.12938301200E+03  0.46999998093E+01 0.  1.
       -5    1    3    3    0  502 -0.10726221026E+02  0.52069771302E+02 -0.49313815188E+03  0.49601778167E+03  0.46999998093E+01 0. -1.
</event>
<event>
 5   0  0.4451135E-02  0.4974464E+03  0.7818609E-02  0.1014448E+00
        2   -1    0    0  501    0  0.00000000000E+00  0.00000000000E+00  0.87279767594E+03  0.87279767595E+03  0.25500000920E-02 0. -1.
       -2   -1    0    0    0  501  0.00000000000E+00  0.00000000000E+00 -0.70879240141E+02  0.70879240187E+02  0.25500000920E-02 0.  1.
    10030    2    1    2    0    0  0.00000000000E+00  0.00000000000E+00  0.80191843580E+03  0.94367691613E+03  0.49744642361E+03 0.  0.
        1    1    3    3  502    0  0.15793021947E+03 -0.19213311001E+03  0.39625475091E+03  0.46784069279E+03  0.50400001928E-02 0.  1.
       -1    1    3    3    0  502 -0.15793021947E+03  0.19213311001E+03  0.40566368489E+03  0.47583622335E+03  0.50400001928E-02 0. -1.
</event>
<event>
 5   0  0.4409622E-02  0.4971928E+03  0.7818609E-02  0.1014514E+00
        2   -1    0    0  501    0  0.00000000000E+00  0.00000000000E+00  0.16264794742E+03  0.16264794744E+03  0.25500000920E-02 0.  1.
       -2   -1    0    0    0  501  0.00000000000E+00  0.00000000000E+00 -0.37996278932E+03  0.37996278933E+03  0.25500000920E-02 0. -1.
    10030    2    1    2    0    0  0.00000000000E+00  0.00000000000E+00 -0.21731484191E+03  0.54261073677E+03  0.49719279072E+03 0.  0.
        3    1    3    3  502    0  0.12767433990E+03 -0.18029734219E+03 -0.23305341503E+03  0.32112579020E+03  0.10100000352E+00 0. -1.
       -3    1    3    3    0  502 -0.12767433990E+03  0.18029734219E+03  0.15738573124E+02  0.22148494657E+03  0.10100000352E+00 0.  1.
</event>
<event>
 5   0  0.4631619E-02  0.4988800E+03  0.7818609E-02  0.1014072E+00
        2   -1    0    0  501    0  0.00000000000E+00  0.00000000000E+00  0.15071983737E+04  0.15071983737E+04  0.25500000920E-02 0.  1.
       -2   -1    0    0    0  501  0.00000000000E+00  0.00000000000E+00 -0.41282100452E+02  0.41282100530E+02  0.25500000920E-02 0. -1.
    10030    2    1    2    0    0  0.00000000000E+00  0.00000000000E+00  0.14659162733E+04  0.15484804743E+04  0.49888000452E+03 0.  0.
        5    1    3    3  502    0 -0.29833713299E+01  0.23213386727E+03  0.45012377340E+03  0.50648646005E+03  0.46999998093E+01 0. -1.
       -5    1    3    3    0  502  0.29833713299E+01 -0.23213386727E+03  0.10157924999E+04  0.10419940142E+04  0.46999998093E+01 0.  1.
</event>
<event>
 5   0  0.2715483E-02  0.5003421E+03  0.7818609E-02  0.1013690E+00
       -1   -1    0    0    0  501  0.00000000000E+00  0.00000000000E+00  0.12324440777E+03  0.12324440788E+03  0.50400001928E-02 0. -1.
        1   -1    0    0  501    0  0.00000000000E+00  0.00000000000E+00 -0.50781654734E+03  0.50781654737E+03  0.50400001928E-02 0.  1.
    10030    2    1    2    0    0  0.00000000000E+00  0.00000000000E+00 -0.38457213957E+03  0.63106095524E+03  0.50034208168E+03 0.  0.
        5    1    3    3  502    0  0.25652150601E+02 -0.27678762789E+02  0.11957743579E+03  0.12547908148E+03  0.46999998093E+01 0. -1.
       -5    1    3    3    0  502 -0.25652150601E+02  0.27678762789E+02 -0.50414957536E+03  0.50558187376E+03  0.46999998093E+01 0.  1.
</event>
<event>
 5   0  0.4409622E-02  0.4968950E+03  0.7818609E-02  0.1014593E+00
       -2   -1    0    0    0  501  0.00000000000E+00  0.00000000000E+00  0.12495979351E+03  0.12495979354E+03  0.25500000920E-02 0. -1.
        2   -1    0    0  501    0  0.00000000000E+00  0.00000000000E+00 -0.49396811542E+03  0.49396811543E+03  0.25500000920E-02 0.  1.
    10030    2    1    2    0    0  0.00000000000E+00  0.00000000000E+00 -0.36900832191E+03  0.61892790897E+03  0.49689497367E+03 0.  0.
        3    1    3    3  502    0  0.25449799525E+02 -0.24669914506E+03 -0.16611394534E+03  0.29849960386E+03  0.10100000352E+00 0. -1.
       -3    1    3    3    0  502 -0.25449799525E+02  0.24669914506E+03 -0.20289437657E+03  0.32042830511E+03  0.10100000352E+00 0.  1.
</event>
<event>
 5   0  0.4519539E-02  0.4990083E+03  0.7818609E-02  0.1014038E+00
       -2   -1    0    0    0  501  0.00000000000E+00  0.00000000000E+00  0.43751727881E+03  0.43751727882E+03  0.25500000920E-02 0.  1.
        2   -1    0    0  501    0  0.00000000000E+00  0.00000000000E+00 -0.14228539297E+03  0.14228539299E+03  0.25500000920E-02 0. -1.
    10030    2    1    2    0    0  0.00000000000E+00  0.00000000000E+00  0.29523188584E+03  0.57980267181E+03  0.49900828833E+03 0.  0.
        4    1    3    3  502    0  0.75983560189E+02 -0.23716579559E+03  0.16522142929E+03  0.29886593920E+03  0.12699999809E+01 0.  1.
       -4    1    3    3    0  502 -0.75983560189E+02  0.23716579559E+03  0.13001045655E+03  0.28093673261E+03  0.12699999809E+01 0. -1.
</event>
<event>
 5   0  0.4631619E-02  0.4980485E+03  0.7818609E-02  0.1014290E+00
       -2   -1    0    0    0  501  0.00000000000E+00  0.00000000000E+00  0.47195227019E+02  0.47195227088E+02  0.25500000920E-02 0. -1.
        2   -1    0    0  501    0  0.00000000000E+00  0.00000000000E+00 -0.13139690380E+04  0.13139690380E+04  0.25500000920E-02 0.  1.
    10030    2    1    2    0    0  0.00000000000E+00  0.00000000000E+00 -0.12667738110E+04  0.13611642651E+04  0.49804845987E+03 0.  0.
        5    1    3    3  502    0 -0.16979583588E+03 -0.13118394100E+03 -0.28821567204E+03  0.35934692968E+03  0.46999998093E+01 0. -1.
       -5    1    3    3    0  502  0.16979583588E+03  0.13118394100E+03 -0.97855813897E+03  0.10018173354E+04  0.46999998093E+01 0.  1.
</event>
<event>
 5   0  0.2715483E-02  0.5008912E+03  0.7818609E-02  0.1013547E+00
        1   -1    0    0  501    0  0.00000000000E+00  0.00000000000E+00  0.52209158857E+03  0.52209158859E+03  0.50400001928E-02 0.  1.
       -1   -1    0    0    0  501  0.00000000000E+00  0.00000000000E+00 -0.12013790344E+03  0.12013790355E+03  0.50400001928E-02 0. -1.
    10030    2    1    2    0    0  0.00000000000E+00  0.00000000000E+00  0.40195368513E+03  0.64222949214E+03  0.50089116142E+03 0.  0.
        5    1    3    3  502    0 -0.12140160183E+03 -0.20691195011E+03  0.10896361282E+03  0.26352620922E+03  0.46999998093E+01 0.  1.
       -5    1    3    3    0  502  0.12140160183E+03  0.20691195011E+03  0.29299007231E+03  0.37870328292E+03  0.46999998093E+01 0. -1.
</event>
<event>
 5   0  0.4409622E-02  0.4998389E+03  0.7818609E-02  0.1013821E+00
        2   -1    0    0  501    0  0.00000000000E+00  0.00000000000E+00  0.67926443826E+03  0.67926443827E+03  0.25500000920E-02 0.  1.
       -2   -1    0    0    0  501  0.00000000000E+00  0.00000000000E+00 -0.91952012292E+02  0.91952012328E+02  0.25500000920E-02 0. -1.
    10030    2    1    2    0    0  0.00000000000E+00  0.00000000000E+00  0.58731242597E+03  0.77121645060E+03  0.49983890202E+03 0.  0.
        3    1    3    3  502    0  0.73384951553E+02  0.57241588382E+02 -0.64216324667E+02  0.11307385688E+03  0.10100000352E+00 0. -1.
       -3    1    3    3    0  502 -0.73384951553E+02 -0.57241588382E+02  0.65152875064E+03  0.65814259372E+03  0.10100000352E+00 0.  1.
</event>
<event>
 5   0  0.4451135E-02  0.4971785E+03  0.7818609E-02  0.1014518E+00
       -2   -1    0    0    0  501  0.00000000000E+00  0.00000000000E+00  0.11476984569E+03  0.11476984571E+03  0.25500000920E-02 0. -1.
        2   -1    0    0  501    0  0.00000000000E+00  0.00000000000E+00 -0.53843939558E+03  0.53843939559E+03  0.25500000920E-02 0.  1.
    10030    2    1    2    0    0  0.00000000000E+00  0.00000000000E+00 -0.42366954990E+03  0.65320924130E+03  0.49717846435E+03 0.  0.
        1    1    3    3  502    0  0.84396684520E+01  0.44409184544E+02 -0.53299415100E+03  0.53490762632E+03  0.50400001928E-02 0.  1.
       -1    1    3    3    0  502 -0.84396684520E+01 -0.44409184544E+02  0.10932460110E+03  0.11830161498E+03  0.50400001928E-02 0. -1.
</event>
<event>
 5   0  0.4519539E-02  0.5002764E+03  0.7818609E-02  0.1013707E+00
        2   -1    0    0  501    0  0.00000000000E+00  0.00000000000E+00  0.17710072508E+03  0.17710072510E+03  0.25500000920E-02 0. -1.
       -2   -1    0    0    0  501  0.00000000000E+00  0.00000000000E+00 -0.35329673903E+03  0.35329673903E+03  0.25500000920E-02 0.  1.
    10030    2    1    2    0    0  0.00000000000E+00  0.00000000000E+00 -0.17619601394E+03  0.53039746414E+03  0.50027635826E+03 0.  0.
        4    1    3    3  502    0  0.12661519860E+03  0.53778129229E+02  0.13339179411E+03  0.19162066521E+03  0.12699999809E+01 0. -1.
       -4    1    3    3    0  502 -0.12661519860E+03 -0.53778129229E+02 -0.30958780805E+03  0.33877679893E+03  0.12699999809E+01 0.  1.
</event>
<event>
 5   0  0.4451135E-02  0.4999478E+03  0.7818609E-02  0.1013793E+00
       -2   -1    0    0    0  501  0.00000000000E+00  0.00000000000E+00  0.45488433050E+02  0.45488433121E+02  0.25500000920E-02 0.  1.
        2   -1    0    0  501    0  0.00000000000E+00  0.00000000000E+00 -0.13736889152E+04  0.13736889152E+04  0.25500000920E-02 0. -1.
    10030    2    1    2    0    0  0.00000000000E+00  0.00000000000E+00 -0.13282004822E+04  0.14191773484E+04  0.49994782250E+03 0.  0.
        1    1    3    3  502    0  0.18556682510E+03 -0.15525575042E+03 -0.84245161158E+03  0.87650676694E+03  0.50400001928E-02 0. -1.
       -1    1    3    3    0  502 -0.18556682510E+03  0.15525575042E+03 -0.48574887061E+03  0.54267058142E+03  0.50400001928E-02 0.  1.
</event>
<event>
 5   0  0.4409622E-02  0.5038718E+03  0.7818609E-02  0.1012773E+00
       -2   -1    0    0    0  501  0.00000000000E+00  0.00000000000E+00  0.13150077689E+03  0.13150077692E+03  0.25500000920E-02 0.  1.
        2   -1    0    0  501    0  0.00000000000E+00  0.00000000000E+00 -0.48267159091E+03  0.48267159092E+03  0.25500000920E-02 0. -1.
    10030    2    1    2    0    0  0.00000000000E+00  0.00000000000E+00 -0.35117081402E+03  0.61417236784E+03  0.50387176622E+03 0.  0.
        3    1    3    3  502    0  0.51592343671E+02 -0.43613174856E+02  0.12025442782E+03  0.13793120226E+03  0.10100000352E+00 0.  1.
       -3    1    3    3    0  502 -0.51592343671E+02  0.43613174856E+02 -0.47142524184E+03  0.47624116558E+03  0.10100000352E+00 0. -1.
</event>
<event>
 5   0  0.4534223E-02  0.4991839E+03  0.7818609E-02  0.1013992E+00
        2   -1    0    0  501    0  0.00000000000E+00  0.00000000000E+00  0.17947671223E+03  0.17947671225E+03  0.25500000920E-02 0. -1.
       -2   -1    0    0    0  501  0.00000000000E+00  0.00000000000E+00 -0.34709878930E+03  0.34709878931E+03  0.25500000920E-02 0.  1.
    10030    2    1    2    0    0  0.00000000000E+00  0.00000000000E+00 -0.16762207706E+03  0.52657550156E+03  0.49918393215E+03 0.  0.
        2    1    3    3  502    0 -0.18540888325E+02  0.12052071869E+03  0.14591674722E+03  0.19015968369E+03  0.25500000920E-02 0. -1.
       -2    1    3    3    0  502  0.18540888325E+02 -0.12052071869E+03 -0.31353882428E+03  0.33641581787E+03  0.25500000920E-02 0.  1.
</event>
<event>
 5   0  0.4451135E-02  0.4978598E+03  0.7818609E-02  0.1014339E+00
       -2   -1    0    0    0  501  0.00000000000E+00  0.00000000000E+00  0.22344394552E+02  0.22344394697E+02  0.25500000920E-02 0. -1.
        2   -1    0    0  501    0  0.00000000000E+00  0.00000000000E+00 -0.27732279789E+04  0.27732279789E+04  0.25500000920E-02 0.  1.
    10030    2    1    2    0    0  0.00000000000E+00  0.00000000000E+00 -0.27508835843E+04  0.27955723736E+04  0.49785982102E+03 0.  0.
        1    1    3    3  502    0  0.21917015757E+03  0.20027656152E+02 -0.20285776041E+04  0.20404812572E+04  0.50400001928E-02 0.  1.
       -1    1    3    3    0  502 -0.21917015757E+03 -0.20027656152E+02 -0.72230598020E+03  0.75509111638E+03  0.50400001928E-02 0. -1.
</event>
<event>
 5   0  0.4534223E-02  0.4990536E+03  0.7818609E-02  0.1014026E+00
       -2   -1    0    0    0  501  0.00000000000E+00  0.00000000000E+00  0.44508488529E+02  0.44508488602E+02  0.25500000920E-02 0. -1.
        2   -1    0    0  501    0  0.00000000000E+00  0.00000000000E+00 -0.13989157307E+04  0.13989157307E+04  0.25500000920E-02 0.  1.
    10030    2    1    2    0    0  0.00000000000E+00  0.00000000000E+00 -0.13544072422E+04  0.14434242193E+04  0.49905360356E+03 0.  0.
        2    1    3    3  502    0 -0.14723695921E+03 -0.20093605978E+03 -0.63532956357E+03  0.68242045444E+03  0.25500000920E-02 0.  1.
       -2    1    3    3    0  502  0.14723695921E+03  0.20093605978E+03 -0.71907767860E+03  0.76100376487E+03  0.25500000920E-02 0. -1.
</event>
<event>
 5   0  0.2723308E-02  0.4994289E+03  0.7818609E-02  0.1013928E+00
       -1   -1    0    0    0  501  0.00000000000E+00  0.00000000000E+00  0.12054668640E+03  0.12054668650E+03  0.50400001928E-02 0.  1.
        1   -1    0    0  501    0  0.00000000000E+00  0.00000000000E+00 -0.51728763030E+03  0.51728763033E+03  0.50400001928E-02 0. -1.
    10030    2    1    2    0    0  0.00000000000E+00  0.00000000000E+00 -0.39674094391E+03  0.63783431683E+03  0.49942891301E+03 0.  0.
        4    1    3    3  502    0  0.46281614659E+02 -0.16197226702E+03  0.37046375759E+02  0.17248492686E+03  0.12699999809E+01 0.  1.
       -4    1    3    3    0  502 -0.46281614659E+02  0.16197226702E+03 -0.43378731967E+03  0.46534938997E+03  0.12699999809E+01 0. -1.
</event>
<event>
 5   0  0.2719671E-02  0.5005935E+03  0.7818609E-02  0.1013624E+00
        1   -1    0    0  501    0  0.00000000000E+00  0.00000000000E+00  0.19036095086E+03  0.19036095092E+03  0.50400001928E-02 0.  1.
       -1   -1    0    0    0  501  0.00000000000E+00  0.00000000000E+00 -0.32910353098E+03  0.32910353102E+03  0.50400001928E-02 0. -1.
    10030    2    1    2    0    0  0.00000000000E+00  0.00000000000E+00 -0.13874258012E+03  0.51946448194E+03  0.50059349222E+03 0.  0.
        2    1    3    3  502    0  0.17178853307E+03 -0.22206865124E+02  0.11811626726E+03  0.20965661819E+03  0.25500000920E-02 0.  1.
       -2    1    3    3    0  502 -0.17178853307E+03  0.22206865124E+02 -0.25685884739E+03  0.30980786375E+03  0.25500000920E-02 0. -1.
</event>
<event>
 5   0  0.2723308E-02  0.5013922E+03  0.7818609E-02  0.1013416E+00
        1   -1    0    0  501    0  0.00000000000E+00  0.00000000000E+00  0.31612614711E+03  0.31612614715E+03  0.50400001928E-02 0. -1.
       -1   -1    0    0    0  501  0.00000000000E+00  0.00000000000E+00 -0.19880843248E+03  0.19880843254E+03  0.50400001928E-02 0.  1.
    10030    2    1    2    0    0  0.00000000000E+00  0.00000000000E+00  0.11731771463E+03  0.51493457969E+03  0.50139223687E+03 0.  0.
        4    1    3    3  502    0  0.95443951325E+02 -0.10682050070E+03  0.26995033652E+03  0.30560589704E+03  0.12699999809E+01 0. -1.
       -4    1    3    3    0  502 -0.95443951325E+02  0.10682050070E+03 -0.15263262190E+03  0.20932868265E+03  0.12699999809E+01 0.  1.
</event>
<event>
 5   0  0.1805500E-02  0.5001347E+03  0.7818609E-02  0.1013744E+00
       -3   -1    0    0    0  501  0.00000000000E+00  0.00000000000E+00  0.39587926769E+03  0.39587928058E+03  0.10100000352E+00 0.  1.
        3   -1    0    0  501    0  0.00000000000E+00  0.00000000000E+00 -0.15796144237E+03  0.15796147465E+03  0.10100000352E+00 0. -1.
    10030    2    1    2    0    0  0.00000000000E+00  0.00000000000E+00  0.23791782533E+03  0.55384075523E+03  0.50013467241E+03 0.  0.
        3    1    3    3  502    0  0.80239293717E+02 -0.20174922057E+03 -0.18430579560E+02  0.21790086902E+03  0.10100000352E+00 0. -1.
       -3    1    3    3    0  502 -0.80239293717E+02  0.20174922057E+03  0.25634840489E+03  0.33593988621E+03  0.10100000352E+00 0.  1.
</event>
<event>
 5   0  0.2715483E-02  0.4994118E+03  0.7818609E-02  0.1013933E+00
        1   -1    0    0  501    0  0.00000000000E+00  0.00000000000E+00  0.11108382094E+04  0.11108382094E+04  0.50400001928E-02 0. -1.
       -1   -1    0    0    0  501  0.00000000000E+00  0.00000000000E+00 -0.56131517862E+02  0.56131518089E+02  0.50400001928E-02 0.  1.
    10030    2    1    2    0    0  0.00000000000E+00  0.00000000000E+00  0.10547066916E+04  0.11669697275E+04  0.49941179375E+03 0.  0.
        5    1    3    3  502    0  0.37256411966E+02 -0.12884761914E+03  0.10193979756E+04  0.10281945690E+04  0.46999998093E+01 0. -1.
       -5    1    3    3    0  502 -0.37256411966E+02  0.12884761914E+03  0.35308715990E+02  0.13877515849E+03  0.46999998093E+01 0.  1.
</event>
<event>
 5   0  0.4409622E-02  0.4991164E+03  0.7818609E-02  0.1014010E+00
        2   -1    0    0  501    0  0.00000000000E+00  0.00000000000E+00  0.98894926917E+03  0.98894926918E+03  0.25500000920E-02 0. -1.
       -2   -1    0    0    0  501  0.00000000000E+00  0.00000000000E+00 -0.62975213420E+02  0.62975213472E+02  0.25500000920E-02 0.  1.
    10030    2    1    2    0    0  0.00000000000E+00  0.00000000000E+00  0.92597405575E+03  0.10519244826E+04  0.49911638449E+03 0.  0.
        3    1    3    3  502    0 -0.14503380216E+02  0.23733177087E+03  0.62269832753E+03  0.66655077437E+03  0.10100000352E+00 0. -1.
       -3    1    3    3    0  502  0.14503380216E+02 -0.23733177087E+03  0.30327572823E+03  0.38537370828E+03  0.10100000352E+00 0.  1.
</event>
<event>
 5   0  0.2715483E-02  0.5048150E+03  0.7818609E-02  0.1012530E+00
        1   -1    0    0  501    0  0.00000000000E+00  0.00000000000E+00  0.14386069258E+03  0.14386069267E+03  0.50400001928E-02 0. -1.
       -1   -1    0    0    0  501  0.00000000000E+00  0.00000000000E+00 -0.44285589637E+03  0.44285589639E+03  0.50400001928E-02 0.  1.
    10030    2    1    2    0    0  0.00000000000E+00  0.00000000000E+00 -0.29899520378E+03  0.58671658907E+03  0.50481503940E+03 0.  0.
        5    1    3    3  502    0 -0.16066844650E+03  0.94992048827E+02  0.47911050532E+02  0.19275735473E+03  0.46999998093E+01 0. -1.
       -5    1    3    3    0  502  0.16066844650E+03 -0.94992048827E+02 -0.34690625431E+03  0.39395923434E+03  0.46999998093E+01 0.  1.
</event>
<event>
 5   0  0.4409622E-02  0.5149578E+03  0.7818609E-02  0.1009947E+00
        2   -1    0    0  501    0  0.00000000000E+00  0.00000000000E+00  0.18056492217E+04  0.18056492217E+04  0.25500000920E-02 0. -1.
       -2   -1    0    0    0  501  0.00000000000E+00  0.00000000000E+00 -0.36715535733E+02  0.36715535822E+02  0.25500000920E-02 0.  1.
    10030    2    1    2    0    0  0.00000000000E+00  0.00000000000E+00  0.17689336860E+04  0.18423647576E+04  0.51495777926E+03 0.  0.
        3    1    3    3  502    0 -0.18517899272E+02  0.17515252866E+03  0.21252506842E+03  0.27602216541E+03  0.10100000352E+00 0.  1.
       -3    1    3    3    0  502  0.18517899272E+02 -0.17515252866E+03  0.15564086176E+04  0.15663425922E+04  0.10100000352E+00 0. -1.
</event>
<event>
 5   0  0.2779445E-02  0.4998009E+03  0.7818609E-02  0.1013831E+00
        1   -1    0    0  501    0  0.00000000000E+00  0.00000000000E+00  0.55607547299E+03  0.55607547302E+03  0.50400001928E-02 0.  1.
       -1   -1    0    0    0  501  0.00000000000E+00  0.00000000000E+00 -0.11230532576E+03  0.11230532587E+03  0.50400001928E-02 0. -1.
    10030    2    1    2    0    0  0.00000000000E+00  0.00000000000E+00  0.44377014724E+03  0.66838079889E+03  0.49980090910E+03 0.  0.
        3    1    3    3  502    0  0.13870979167E+03  0.11627628968E+03  0.45230998371E+03  0.48718057577E+03  0.10100000352E+00 0.  1.
       -3    1    3    3    0  502 -0.13870979167E+03 -0.11627628968E+03 -0.85398364706E+01  0.18120022311E+03  0.10100000352E+00 0. -1.
</event>
<event>
 5   0  0.2719671E-02  0.5001504E+03  0.7818609E-02  0.1013740E+00
        1   -1    0    0  501    0  0.00000000000E+00  0.00000000000E+00  0.25079519108E+03  0.25079519113E+03  0.50400001928E-02 0. -1.
       -1   -1    0    0    0  501  0.00000000000E+00  0.00000000000E+00 -0.24935724269E+03  0.24935724274E+03  0.50400001928E-02 0.  1.
    10030    2    1    2    0    0  0.00000000000E+00  0.00000000000E+00  0.14379483865E+01  0.50015243387E+03  0.50015036680E+03 0.  0.
        2    1    3    3  502    0  0.70997596460E+02 -0.10737993911E+03  0.21511782510E+03  0.25069261798E+03  0.25500000920E-02 0. -1.
       -2    1    3    3    0  502 -0.70997596460E+02  0.10737993911E+03 -0.21367987671E+03  0.24945981589E+03  0.25500000920E-02 0.  1.
</event>
<event>
 5   0  0.2715483E-02  0.5001409E+03  0.7818609E-02  0.1013742E+00
       -1   -1    0    0    0  501  0.00000000000E+00  0.00000000000E+00  0.52031466941E+02  0.52031467185E+02  0.50400001928E-02 0.  1.
        1   -1    0    0  501    0  0.00000000000E+00  0.00000000000E+00 -0.12018732762E+04  0.12018732763E+04  0.50400001928E-02 0. -1.
    10030    2    1    2    0    0  0.00000000000E+00  0.00000000000E+00 -0.11498418093E+04  0.12539047434E+04  0.50014089935E+03 0.  0.
        5    1    3    3  502    0 -0.10453570092E+03 -0.75701939841E+02 -0.38057458912E+02  0.13464381397E+03  0.46999998093E+01 0. -1.
       -5    1    3    3    0  502  0.10453570092E+03  0.75701939841E+02 -0.11117843504E+04  0.11192609295E+04  0.46999998093E+01 0.  1.
</event>
<event>
 5   0  0.4519539E-02  0.4992062E+03  0.7818609E-02  0.1013986E+00
       -2   -1    0    0    0  501  0.00000000000E+00  0.00000000000E+00  0.23755494356E+03  0.23755494358E+03  0.25500000920E-02 0. -1.
        2   -1    0    0  501    0  0.00000000000E+00  0.00000000000E+00 -0.26226232976E+03  0.26226232977E+03  0.25500000920E-02 0.  1.
    10030    2    1    2    0    0  0.00000000000E+00  0.00000000000E+00 -0.24707386197E+02  0.49981727335E+03  0.49920622172E+03 0.  0.
        4    1    3    3  502    0  0.94570924262E+02  0.73626897945E+00  0.21891800510E+03  0.23847622033E+03  0.12699999809E+01 0. -1.
       -4    1    3    3    0  502 -0.94570924262E+02 -0.73626897945E+00 -0.24362539129E+03  0.26134105301E+03  0.12699999809E+01 0.  1.
</event>
<event>
 5   0  0.4519539E-02  0.4999712E+03  0.7818609E-02  0.1013786E+00
        2   -1    0    0  501    0  0.00000000000E+00  0.00000000000E+00  0.16781580072E+04  0.16781580072E+04  0.25500000920E-02 0. -1.
       -2   -1    0    0    0  501  0.00000000000E+00  0.00000000000E+00 -0.37238930804E+02  0.37238930891E+02  0.25500000920E-02 0.  1.
    10030    2    1    2    0    0  0.00000000000E+00  0.00000000000E+00  0.16409190764E+04  0.17153969381E+04  0.49997123910E+03 0.  0.
        4    1    3    3  502    0 -0.13154779213E+03  0.21201518571E+03  0.76775874272E+03  0.80728579854E+03  0.12699999809E+01 0. -1.
       -4    1    3    3    0  502  0.13154779213E+03 -0.21201518571E+03  0.87316033364E+03  0.90811113952E+03  0.12699999809E+01 0.  1.
</event>
<event>
 5   0  0.4409622E-02  0.5006332E+03  0.7818609E-02  0.1013614E+00
       -2   -1    0    0    0  501  0.00000000000E+00  0.00000000000E+00  0.21214947011E+03  0.21214947013E+03  0.25500000920E-02 0.  1.
        2   -1    0    0  501    0  0.00000000000E+00  0.00000000000E+00 -0.29535029299E+03  0.29535029301E+03  0.25500000920E-02 0. -1.
    10030    2    1    2    0    0  0.00000000000E+00  0.00000000000E+00 -0.83200822885E+02  0.50749976313E+03  0.50063323167E+03 0.  0.
        3    1    3    3  502    0 -0.11270009111E+03  0.14603475655E+03 -0.21312798831E+03  0.28187055586E+03  0.10100000352E+00 0. -1.
       -3    1    3    3    0  502  0.11270009111E+03 -0.14603475655E+03  0.12992716543E+03  0.22562920727E+03  0.10100000352E+00 0.  1.
</event>
<event>
 5   0  0.2723308E-02  0.4986090E+03  0.7818609E-02  0.1014143E+00
        1   -1    0    0  501    0  0.00000000000E+00  0.00000000000E+00  0.51536336695E+03  0.51536336697E+03  0.50400001928E-02 0.  1.
       -1   -1    0    0    0  501  0.00000000000E+00  0.00000000000E+00 -0.12059984484E+03  0.12059984495E+03  0.50400001928E-02 0. -1.
    10030    2    1    2    0    0  0.00000000000E+00  0.00000000000E+00  0.39476352211E+03  0.63596321192E+03  0.49860903375E+03 0.  0.
        4    1    3    3  502    0 -0.12894551503E+03  0.10852737703E+03 -0.36923990690E+02  0.17254023125E+03  0.12699999809E+01 0. -1.
       -4    1    3    3    0  502  0.12894551503E+03 -0.10852737703E+03  0.43168751280E+03  0.46342298067E+03  0.12699999809E+01 0.  1.
</event>
<event>
 5   0  0.4519539E-02  0.4995009E+03  0.7818609E-02  0.1013909E+00
        2   -1    0    0  501    0  0.00000000000E+00  0.00000000000E+00  0.22679806349E+03  0.22679806350E+03  0.25500000920E-02 0.  1.
       -2   -1    0    0    0  501  0.00000000000E+00  0.00000000000E+00 -0.27502566201E+03  0.27502566202E+03  0.25500000920E-02 0. -1.
    10030    2    1    2    0    0  0.00000000000E+00  0.00000000000E+00 -0.48227598516E+02  0.50182372552E+03  0.49950090114E+03 0.  0.
        4    1    3    3  502    0 -0.16848203790E+03 -0.55323857318E+02  0.15256402592E+03  0.23393230044E+03  0.12699999809E+01 0.  1.
       -4    1    3    3    0  502  0.16848203790E+03  0.55323857318E+02 -0.20079162444E+03  0.26789142508E+03  0.12699999809E+01 0. -1.
</event>
<event>
 5   0  0.2723308E-02  0.4992585E+03  0.7818609E-02  0.1013973E+00
       -1   -1    0    0    0  501  0.00000000000E+00  0.00000000000E+00  0.76556148908E+02  0.76556149074E+02  0.50400001928E-02 0. -1.
        1   -1    0    0  501    0  0.00000000000E+00  0.00000000000E+00 -0.81397478209E+03  0.81397478210E+03  0.50400001928E-02 0.  1.
    10030    2    1    2    0    0  0.00000000000E+00  0.00000000000E+00 -0.73741863318E+03  0.89053093117E+03  0.49925854907E+03 0.  0.
        4    1    3    3  502    0 -0.32848629183E+02  0.17637394990E+03 -0.67830637312E+03  0.70163234772E+03  0.12699999809E+01 0.  1.
       -4    1    3    3    0  502  0.32848629183E+02 -0.17637394990E+03 -0.59112260056E+02  0.18889858346E+03  0.12699999809E+01 0. -1.
</event>
<event>
 5   0  0.4451135E-02  0.4988685E+03  0.7818609E-02  0.1014075E+00
        2   -1    0    0  501    0  0.00000000000E+00  0.00000000000E+00  0.15361521074E+03  0.15361521076E+03  0.25500000920E-02 0. -1.
       -2   -1    0    0    0  501  0.00000000000E+00  0.00000000000E+00 -0.40502139251E+03  0.40502139251E+03  0.25500000920E-02 0.  1.
    10030    2    1    2    0    0  0.00000000000E+00  0.00000000000E+00 -0.25140618177E+03  0.55863660328E+03  0.49886850601E+03 0.  0.
        1    1    3    3  502    0 -0.17484330250E+03  0.60913383919E+02  0.61465008650E+02  0.19508605302E+03  0.50400001928E-02 0. -1.
       -1    1    3    3    0  502  0.17484330250E+03 -0.60913383919E+02 -0.31287119041E+03  0.36355055025E+03  0.50400001928E-02 0.  1.
</event>
<event>
 5   0  0.4631619E-02  0.4766200E+03  0.7818609E-02  0.1020068E+00
       -2   -1    0    0    0  501  0.00000000000E+00  0.00000000000E+00  0.26553628718E+03  0.26553628719E+03  0.25500000920E-02 0. -1.
        2   -1    0    0  501    0  0.00000000000E+00  0.00000000000E+00 -0.21387527808E+03  0.21387527809E+03  0.25500000920E-02 0.  1.
    10030    2    1    2    0    0  0.00000000000E+00  0.00000000000E+00  0.51661009098E+02  0.47941156528E+03  0.47661996293E+03 0.  0.
        5    1    3    3  502    0  0.20963875967E+03 -0.10450395488E+03  0.69675618926E+02  0.24443049731E+03  0.46999998093E+01 0. -1.
       -5    1    3    3    0  502 -0.20963875967E+03  0.10450395488E+03 -0.18014609828E+02  0.23498106798E+03  0.46999998093E+01 0.  1.
</event>
<event>
 5   0  0.2723308E-02  0.4989056E+03  0.7818609E-02  0.1014065E+00
        1   -1    0    0  501    0  0.00000000000E+00  0.00000000000E+00  0.46501504385E+03  0.46501504388E+03  0.50400001928E-02 0. -1.
       -1   -1    0    0    0  501  0.00000000000E+00  0.00000000000E+00 -0.13381652053E+03  0.13381652062E+03  0.50400001928E-02 0.  1.
    10030    2    1    2    0    0  0.00000000000E+00  0.00000000000E+00  0.33119852332E+03  0.59883156450E+03  0.49890558304E+03 0.  0.
        4    1    3    3  502    0  0.24502267614E+03 -0.29297081999E+02  0.20938356841E+03  0.32363176985E+03  0.12699999809E+01 0.  1.
       -4    1    3    3    0  502 -0.24502267614E+03  0.29297081999E+02  0.12181495492E+03  0.27519979465E+03  0.12699999809E+01 0. -1.
</event>
<event>
 5   0  0.2723308E-02  0.4985680E+03  0.7818609E-02  0.1014153E+00
       -1   -1    0    0    0  501  0.00000000000E+00  0.00000000000E+00  0.43169769995E+02  0.43169770290E+02  0.50400001928E-02 0.  1.
        1   -1    0    0  501    0  0.00000000000E+00  0.00000000000E+00 -0.14394914232E+04  0.14394914232E+04  0.50400001928E-02 0. -1.
    10030    2    1    2    0    0  0.00000000000E+00  0.00000000000E+00 -0.13963216532E+04  0.14826611934E+04  0.49856800488E+03 0.  0.
        4    1    3    3  502    0 -0.17980043902E+03  0.57064005018E+01 -0.18496763710E+03  0.25802209314E+03  0.12699999809E+01 0.  1.
       -4    1    3    3    0  502  0.17980043902E+03 -0.57064005018E+01 -0.12113540161E+04  0.12246391003E+04  0.12699999809E+01 0. -1.
</event>
<event>
 5   0  0.2723308E-02  0.5000427E+03  0.7818609E-02  0.1013768E+00
        1   -1    0    0  501    0  0.00000000000E+00  0.00000000000E+00  0.72875868369E+03  0.72875868371E+03  0.50400001928E-02 0.  1.
       -1   -1    0    0    0  501  0.00000000000E+00  0.00000000000E+00 -0.85776925176E+02  0.85776925324E+02  0.50400001928E-02 0. -1.
    10030    2    1    2    0    0  0.00000000000E+00  0.00000000000E+00  0.64298175851E+03  0.81453560903E+03  0.50004271477E+03 0.  0.
        4    1    3    3  502    0  0.56661121017E+02  0.33759349707E+02 -0.71344889904E+02  0.97169349812E+02  0.12699999809E+01 0. -1.
       -4    1    3    3    0  502 -0.56661121017E+02 -0.33759349707E+02  0.71432664842E+03  0.71736625922E+03  0.12699999809E+01 0.  1.
</event>
<event>
 5   0  0.4519539E-02  0.4977873E+03  0.7818609E-02  0.1014358E+00
        2   -1    0    0  501    0  0.00000000000E+00  0.00000000000E+00  0.10757956217E+04  0.10757956217E+04  0.25500000920E-02 0.  1.
       -2   -1    0    0    0  501  0.00000000000E+00  0.00000000000E+00 -0.57583467845E+02  0.57583467901E+02  0.25500000920E-02 0. -1.
    10030    2    1    2    0    0  0.00000000000E+00  0.00000000000E+00  0.10182121539E+04  0.11333790896E+04  0.49778727435E+03 0.  0.
        4    1    3    3  502    0  0.75165327621E+02 -0.17991582103E+03  0.15691801673E+03  0.25028864538E+03  0.12699999809E+01 0. -1.
       -4    1    3    3    0  502 -0.75165327621E+02  0.17991582103E+03  0.86129413717E+03  0.88309044427E+03  0.12699999809E+01 0.  1.
</event>
<event>
 5   0  0.2643185E-02  0.4998982E+03  0.7818609E-02  0.1013805E+00
        1   -1    0    0  501    0  0.00000000000E+00  0.00000000000E+00  0.53184594318E+03  0.53184594321E+03  0.50400001928E-02 0.  1.
       -1   -1    0    0    0  501  0.00000000000E+00  0.00000000000E+00 -0.11746740385E+03  0.11746740396E+03  0.50400001928E-02 0. -1.
    10030    2    1    2    0    0  0.00000000000E+00  0.00000000000E+00  0.41437853933E+03  0.64931334716E+03  0.49989823859E+03 0.  0.
        1    1    3    3  502    0  0.21473755023E+03 -0.12178062954E+03  0.15635257560E+03  0.29221373193E+03  0.50400001928E-02 0. -1.
       -1    1    3    3    0  502 -0.21473755023E+03  0.12178062954E+03  0.25802596373E+03  0.35709961523E+03  0.50400001928E-02 0.  1.
</event>
<event>
 5   0  0.4451135E-02  0.5005815E+03  0.7818609E-02  0.1013627E+00
        2   -1    0    0  501    0  0.00000000000E+00  0.00000000000E+00  0.12044680401E+04  0.12044680401E+04  0.25500000920E-02 0.  1.
       -2   -1    0    0    0  501  0.00000000000E+00  0.00000000000E+00 -0.52010887555E+02  0.52010887618E+02  0.25500000920E-02 0. -1.
    10030    2    1    2    0    0  0.00000000000E+00  0.00000000000E+00  0.11524571525E+04  0.12564789277E+04  0.50058146925E+03 0.  0.
        1    1    3    3  502    0  0.16845710781E+03 -0.18504121316E+03  0.58936835305E+03  0.64029142064E+03  0.50400001928E-02 0.  1.
       -1    1    3    3    0  502 -0.16845710781E+03  0.18504121316E+03  0.56308879949E+03  0.61618750708E+03  0.50400001928E-02 0. -1.
</event>
<event>
 5   0  0.2715483E-02  0.4989144E+03  0.7818609E-02  0.1014063E+00
       -1   -1    0    0    0  501  0.00000000000E+00  0.00000000000E+00  0.19177364329E+03  0.19177364335E+03  0.50400001928E-02 0.  1.
        1   -1    0    0  501    0  0.00000000000E+00  0.00000000000E+00 -0.32449132853E+03  0.32449132857E+03  0.50400001928E-02 0. -1.
    10030    2    1    2    0    0  0.00000000000E+00  0.00000000000E+00 -0.13271768524E+03  0.51626497192E+03  0.49891435864E+03 0.  0.
        5    1    3    3  502    0 -0.12819807300E+03  0.12480792063E+03 -0.24616907361E+03  0.30435680668E+03  0.46999998093E+01 0. -1.
       -5    1    3    3    0  502  0.12819807300E+03 -0.12480792063E+03  0.11345138837E+03  0.21190816524E+03  0.46999998093E+01 0.  1.
</event>
<event>
 5   0  0.2715483E-02  0.5007727E+03  0.7818609E-02  0.1013577E+00
       -1   -1    0    0    0  501  0.00000000000E+00  0.00000000000E+00  0.27820362722E+03  0.27820362726E+03  0.50400001928E-02 0.  1.
        1   -1    0    0  501    0  0.00000000000E+00  0.00000000000E+00 -0.22535049397E+03  0.22535049403E+03  0.50400001928E-02 0. -1.
    10030    2    1    2    0    0  0.00000000000E+00  0.00000000000E+00  0.52853133245E+02  0.50355412129E+03  0.50077270231E+03 0.  0.
        5    1    3    3  502    0  0.40631492328E+02  0.56888857200E+02  0.26814468968E+03  0.27714783933E+03  0.46999998093E+01 0.  1.
       -5    1    3    3    0  502 -0.40631492328E+02 -0.56888857200E+02 -0.21529155644E+03  0.22640628196E+03  0.46999998093E+01 0. -1.
</event>
<event>
 5   0  0.4409622E-02  0.5066025E+03  0.7818609E-02  0.1012070E+00
        2   -1    0    0  501    0  0.00000000000E+00  0.00000000000E+00  0.11219223211E+04  0.11219223211E+04  0.25500000920E-02 0.  1.
       -2   -1    0    0    0  501  0.00000000000E+00  0.00000000000E+00 -0.57188928865E+02  0.57188928922E+02  0.25500000920E-02 0. -1.
    10030    2    1    2    0    0  0.00000000000E+00  0.00000000000E+00  0.10647333922E+04  0.11791112500E+04  0.50660254973E+03 0.  0.
        3    1    3    3  502    0 -0.12507332010E+03 -0.55458564045E+02  0.36210178268E+02  0.14152800055E+03  0.10100000352E+00 0. -1.
       -3    1    3    3    0  502  0.12507332010E+03  0.55458564045E+02  0.10285232140E+04  0.10375832495E+04  0.10100000352E+00 0.  1.
</event>
<event>
 5   0  0.2643185E-02  0.4977203E+03  0.7818609E-02  0.1014376E+00
       -1   -1    0    0    0  501  0.00000000000E+00  0.00000000000E+00  0.18168956408E+03  0.18168956415E+03  0.50400001928E-02 0. -1.
        1   -1    0    0  501    0  0.00000000000E+00  0.00000000000E+00 -0.34086374515E+03  0.34086374518E+03  0.50400001928E-02 0.  1.
    10030    2    1    2    0    0  0.00000000000E+00  0.00000000000E+00 -0.15917418107E+03  0.52255330933E+03  0.49772034435E+03 0.  0.
        1    1    3    3  502    0  0.17535338617E+03 -0.59097056293E+02 -0.25429299177E+03  0.31449355763E+03  0.50400001928E-02 0. -1.
       -1    1    3    3    0  502 -0.17535338617E+03  0.59097056293E+02  0.95118810708E+02  0.20805975170E+03  0.50400001928E-02 0.  1.
</event>
<event>
 5   0  0.2715483E-02  0.4989535E+03  0.7818609E-02  0.1014052E+00
       -1   -1    0    0    0  501  0.00000000000E+00  0.00000000000E+00  0.48011783258E+02  0.48011783522E+02  0.50400001928E-02 0.  1.
        1   -1    0    0  501    0  0.00000000000E+00  0.00000000000E+00 -0.12963203875E+04  0.12963203875E+04  0.50400001928E-02 0. -1.
    10030    2    1    2    0    0  0.00000000000E+00  0.00000000000E+00 -0.12483086042E+04  0.13443321710E+04  0.49895351952E+03 0.  0.
        5    1    3    3  502    0 -0.17001649179E+03 -0.12788143263E+03 -0.97500697861E+03  0.99795789822E+03  0.46999998093E+01 0. -1.
       -5    1    3    3    0  502  0.17001649179E+03  0.12788143263E+03 -0.27330162563E+03  0.34637427281E+03  0.46999998093E+01 0.  1.
</event>
<event>
 5   0  0.1805500E-02  0.5030611E+03  0.7818609E-02  0.1012983E+00
        3   -1    0    0  501    0  0.00000000000E+00  0.00000000000E+00  0.53479272864E+03  0.53479273818E+03  0.10100000352E+00 0. -1.
       -3   -1    0    0    0  501  0.00000000000E+00  0.00000000000E+00 -0.11830304678E+03  0.11830308989E+03  0.10100000352E+00 0.  1.
    10030    2    1    2    0    0  0.00000000000E+00  0.00000000000E+00  0.41648968186E+03  0.65309582808E+03  0.50306113500E+03 0.  0.
        2    1    3    3  502    0 -0.51784509701E+02  0.19736919234E+03  0.39918548604E+03  0.44831382513E+03  0.25500000920E-02 0. -1.
       -2    1    3    3    0  502  0.51784509701E+02 -0.19736919234E+03  0.17304195821E+02  0.20478200294E+03  0.25500000920E-02 0.  1.
</event>
<event>
 5   0  0.1805500E-02  0.4991838E+03  0.7818609E-02  0.1013992E+00
       -3   -1    0    0    0  501  0.00000000000E+00  0.00000000000E+00  0.14258866326E+03  0.14258869904E+03  0.10100000352E+00 0. -1.
        3   -1    0    0  501    0  0.00000000000E+00  0.00000000000E+00 -0.43689380508E+03  0.43689381675E+03  0.10100000352E+00 0.  1.
    10030    2    1    2    0    0  0.00000000000E+00  0.00000000000E+00 -0.29430514181E+03  0.57948251579E+03  0.49918380343E+03 0.  0.
        3    1    3    3  502    0  0.70159347226E+02  0.24418056704E+02  0.12945757479E+03  0.14925766100E+03  0.10100000352E+00 0. -1.
       -3    1    3    3    0  502 -0.70159347226E+02 -0.24418056704E+02 -0.42376271660E+03  0.43022485479E+03  0.10100000352E+00 0.  1.
</event>
<event>
 5   0  0.4631619E-02  0.5007919E+03  0.7818609E-02  0.1013572E+00
        2   -1    0    0  501    0  0.00000000000E+00  0.00000000000E+00  0.12497001876E+04  0.12497001876E+04  0.25500000920E-02 0. -1.
       -2   -1    0    0    0  501  0.00000000000E+00  0.00000000000E+00 -0.50170548569E+02  0.50170548634E+02  0.25500000920E-02 0.  1.
    10030    2    1    2    0    0  0.00000000000E+00  0.00000000000E+00  0.11995296390E+04  0.12998707362E+04  0.50079194882E+03 0.  0.
        5    1    3    3  502    0  0.15322186090E+03  0.17182765257E+03  0.34446280246E+03  0.41434091413E+03  0.46999998093E+01 0.  1.
       -5    1    3    3    0  502 -0.15322186090E+03 -0.17182765257E+03  0.85506683652E+03  0.88552982206E+03  0.46999998093E+01 0. -1.
</event>
<event>
 5   0  0.2643185E-02  0.5008124E+03  0.7818609E-02  0.1013567E+00
       -1   -1    0    0    0  501  0.00000000000E+00  0.00000000000E+00  0.93818950701E+02  0.93818950836E+02  0.50400001928E-02 0. -1.
        1   -1    0    0  501    0  0.00000000000E+00  0.00000000000E+00 -0.66834338404E+03  0.66834338406E+03  0.50400001928E-02 0.  1.
    10030    2    1    2    0    0  0.00000000000E+00  0.00000000000E+00 -0.57452443334E+03  0.76216233489E+03  0.50081244017E+03 0.  0.
        1    1    3    3  502    0 -0.14412553616E+03 -0.82412203089E+02 -0.19836556186E+01  0.16603576816E+03  0.50400001928E-02 0. -1.
       -1    1    3    3    0  502  0.14412553616E+03  0.82412203089E+02 -0.57254077772E+03  0.59612656674E+03  0.50400001928E-02 0.  1.
</event>
<event>
 5   0  0.2715483E-02  0.5033058E+03  0.7818609E-02  0.1012920E+00
       -1   -1    0    0    0  501  0.00000000000E+00  0.00000000000E+00  0.11732546500E+03  0.11732546511E+03  0.50400001928E-02 0. -1.
        1   -1    0    0  501    0  0.00000000000E+00  0.00000000000E+00 -0.53977346369E+03  0.53977346371E+03  0.50400001928E-02 0.  1.
    10030    2    1    2    0    0  0.00000000000E+00  0.00000000000E+00 -0.42244799868E+03  0.65709892883E+03  0.50330576261E+03 0.  0.
        5    1    3    3  502    0 -0.16407268453E+03  0.18866804854E+03 -0.17449129236E+03  0.30493405755E+03  0.46999998093E+01 0.  1.
       -5    1    3    3    0  502  0.16407268453E+03 -0.18866804854E+03 -0.24795670633E+03  0.35216487127E+03  0.46999998093E+01 0. -1.
</event>
<event>
 5   0  0.2643185E-02  0.5002467E+03  0.7818609E-02  0.1013715E+00
        1   -1    0    0  501    0  0.00000000000E+00  0.00000000000E+00  0.26166547567E+03  0.26166547572E+03  0.50400001928E-02 0. -1.
       -1   -1    0    0    0  501  0.00000000000E+00  0.00000000000E+00 -0.23909032790E+03  0.23909032795E+03  0.50400001928E-02 0.  1.
    10030    2    1    2    0    0  0.00000000000E+00  0.00000000000E+00  0.22575147773E+02  0.50075580367E+03  0.50024667676E+03 0.  0.
        1    1    3    3  502    0 -0.62078735893E+02  0.23822294451E+03  0.55579002624E+02  0.25237465463E+03  0.50400001928E-02 0. -1.
       -1    1    3    3    0  502  0.62078735893E+02 -0.23822294451E+03 -0.33003854852E+02  0.24838114904E+03  0.50400001928E-02 0.  1.
</event>
<event>
 5   0  0.4519539E-02  0.5018250E+03  0.7818609E-02  0.1013304E+00
        2   -1    0    0  501    0  0.00000000000E+00  0.00000000000E+00  0.87362696671E+03  0.87362696671E+03  0.25500000920E-02 0.  1.
       -2   -1    0    0    0  501  0.00000000000E+00  0.00000000000E+00 -0.72064041003E+02  0.72064041049E+02  0.25500000920E-02 0. -1.
    10030    2    1    2    0    0  0.00000000000E+00  0.00000000000E+00  0.80156292571E+03  0.94569100776E+03  0.50182502757E+03 0.  0.
        4    1    3    3  502    0  0.10460875538E+03 -0.14838742730E+03  0.74410398113E+02  0.19621503645E+03  0.12699999809E+01 0. -1.
       -4    1    3    3    0  502 -0.10460875538E+03  0.14838742730E+03  0.72715252759E+03  0.74947597131E+03  0.12699999809E+01 0.  1.
</event>
<event>
 5   0  0.2719671E-02  0.5000934E+03  0.7818609E-02  0.1013755E+00
        1   -1    0    0  501    0  0.00000000000E+00  0.00000000000E+00  0.11546361859E+03  0.11546361870E+03  0.50400001928E-02 0. -1.
       -1   -1    0    0    0  501  0.00000000000E+00  0.00000000000E+00 -0.54149822567E+03  0.54149822569E+03  0.50400001928E-02 0.  1.
    10030    2    1    2    0    0  0.00000000000E+00  0.00000000000E+00 -0.42603460709E+03  0.65696184439E+03  0.50009336983E+03 0.  0.
        2    1    3    3  502    0  0.18823020926E+02 -0.22113721587E+03 -0.61702480219E+02  0.23035444521E+03  0.25500000920E-02 0. -1.
       -2    1    3    3    0  502 -0.18823020926E+02  0.22113721587E+03 -0.36433212687E+03  0.42660739918E+03  0.25500000920E-02 0.  1.
</event>
<event>
 5   0  0.2715483E-02  0.5007346E+03  0.7818609E-02  0.1013587E+00
        1   -1    0    0  501    0  0.00000000000E+00  0.00000000000E+00  0.66135198840E+03  0.66135198842E+03  0.50400001928E-02 0.  1.
       -1   -1    0    0    0  501  0.00000000000E+00  0.00000000000E+00 -0.94781273652E+02  0.94781273786E+02  0.50400001928E-02 0. -1.
    10030    2    1    2    0    0  0.00000000000E+00  0.00000000000E+00  0.56657071475E+03  0.75613326220E+03  0.50073459577E+03 0.  0.
        5    1    3    3  502    0  0.13255872207E+03  0.16080921258E+03  0.73882064724E+02  0.22116072692E+03  0.46999998093E+01 0. -1.
       -5    1    3    3    0  502 -0.13255872207E+03 -0.16080921258E+03  0.49268865002E+03  0.53497253528E+03  0.46999998093E+01 0.  1.
</event>
<event>
 5   0  0.4451135E-02  0.4992418E+03  0.7818609E-02  0.1013977E+00
       -2   -1    0    0    0  501  0.00000000000E+00  0.00000000000E+00  0.73706659061E+02  0.73706659105E+02  0.25500000920E-02 0. -1.
        2   -1    0    0  501    0  0.00000000000E+00  0.00000000000E+00 -0.84538632103E+03  0.84538632103E+03  0.25500000920E-02 0.  1.
    10030    2    1    2    0    0  0.00000000000E+00  0.00000000000E+00 -0.77167966197E+03  0.91909298014E+03  0.49924183062E+03 0.  0.
        1    1    3    3  502    0 -0.15898879171E+03  0.23602161040E+01 -0.31588709779E+02  0.16211370430E+03  0.50400001928E-02 0. -1.
       -1    1    3    3    0  502  0.15898879171E+03 -0.23602161040E+01 -0.74009095219E+03  0.75697927584E+03  0.50400001928E-02 0.  1.
</event>
<event>
 5   0  0.4519539E-02  0.5023127E+03  0.7818609E-02  0.1013177E+00
        2   -1    0    0  501    0  0.00000000000E+00  0.00000000000E+00  0.63447338795E+02  0.63447338846E+02  0.25500000920E-02 0. -1.
       -2   -1    0    0    0  501  0.00000000000E+00  0.00000000000E+00 -0.99420277713E+03  0.99420277714E+03  0.25500000920E-02 0.  1.
    10030    2    1    2    0    0  0.00000000000E+00  0.00000000000E+00 -0.93075543834E+03  0.10576501160E+04  0.50231273311E+03 0.  0.
        4    1    3    3  502    0  0.20659190025E+03 -0.36433714375E+02 -0.17460988942E+03  0.27294295223E+03  0.12699999809E+01 0. -1.
       -4    1    3    3    0  502 -0.20659190025E+03  0.36433714375E+02 -0.75614554892E+03  0.78470716375E+03  0.12699999809E+01 0.  1.
</event>
<event>
 5   0  0.4519539E-02  0.4959824E+03  0.7818609E-02  0.1014833E+00
        2   -1    0    0  501    0  0.00000000000E+00  0.00000000000E+00  0.35912523169E+03  0.35912523170E+03  0.25500000920E-02 0.  1.
       -2   -1    0    0    0  501  0.00000000000E+00  0.00000000000E+00 -0.17124846222E+03  0.17124846224E+03  0.25500000920E-02 0. -1.
    10030    2    1    2    0    0  0.00000000000E+00  0.00000000000E+00  0.18787676947E+03  0.53037369393E+03  0.49598243387E+03 0.  0.
        4    1    3    3  502    0  0.13478368300E+02  0.99550935908E+02  0.33638854886E+03  0.35107110954E+03  0.12699999809E+01 0.  1.
       -4    1    3    3    0  502 -0.13478368300E+02 -0.99550935908E+02 -0.14851177939E+03  0.17930258439E+03  0.12699999809E+01 0. -1.
</event>
<event>
 5   0  0.4519539E-02  0.4906271E+03  0.7818609E-02  0.1016255E+00
        2   -1    0    0  501    0  0.00000000000E+00  0.00000000000E+00  0.85893482952E+03  0.85893482953E+03  0.25500000920E-02 0.  1.
       -2   -1    0    0    0  501  0.00000000000E+00  0.00000000000E+00 -0.70062039730E+02  0.70062039776E+02  0.25500000920E-02 0. -1.
    10030    2    1    2    0    0  0.00000000000E+00  0.00000000000E+00  0.78887278979E+03  0.92899686930E+03  0.49062705255E+03 0.  0.
        4    1    3    3  502    0  0.19671181179E+03 -0.82812033489E+02  0.16545930068E+03  0.27005881372E+03  0.12699999809E+01 0. -1.
       -4    1    3    3    0  502 -0.19671181179E+03  0.82812033489E+02  0.62341348911E+03  0.65893805558E+03  0.12699999809E+01 0.  1.
</event>
<event>
 5   0  0.4409622E-02  0.4998448E+03  0.7818609E-02  0.1013819E+00
       -2   -1    0    0    0  501  0.00000000000E+00  0.00000000000E+00  0.32209335337E+03  0.32209335338E+03  0.25500000920E-02 0.  1.
        2   -1    0    0  501    0  0.00000000000E+00  0.00000000000E+00 -0.19392267942E+03  0.19392267943E+03  0.25500000920E-02 0. -1.
    10030    2    1    2    0    0  0.00000000000E+00  0.00000000000E+00  0.12817067395E+03  0.51601603281E+03  0.49984480037E+03 0.  0.
        3    1    3    3  502    0  0.12479936301E+03  0.78007180187E+02  0.27261337494E+03  0.30980326590E+03  0.10100000352E+00 0.  1.
       -3    1    3    3    0  502 -0.12479936301E+03 -0.78007180187E+02 -0.14444270099E+03  0.20621276691E+03  0.10100000352E+00 0. -1.
</event>
<event>
 5   0  0.2779445E-02  0.5007792E+03  0.7818609E-02  0.1013576E+00
        1   -1    0    0  501    0  0.00000000000E+00  0.00000000000E+00  0.11166668870E+04  0.11166668870E+04  0.50400001928E-02 0.  1.
       -1   -1    0    0    0  501  0.00000000000E+00  0.00000000000E+00 -0.56144731794E+02  0.56144732020E+02  0.50400001928E-02 0. -1.
    10030    2    1    2    0    0  0.00000000000E+00  0.00000000000E+00  0.10605221552E+04  0.11728116191E+04  0.50077924484E+03 0.  0.
        3    1    3    3  502    0  0.20604621760E+03  0.57504099799E+02  0.22550575597E+03  0.31082892635E+03  0.10100000352E+00 0. -1.
       -3    1    3    3    0  502 -0.20604621760E+03 -0.57504099799E+02  0.83501639927E+03  0.86198269271E+03  0.10100000352E+00 0.  1.
</event>
<event>
 5   0  0.2723308E-02  0.5023562E+03  0.7818609E-02  0.1013166E+00
        1   -1    0    0  501    0  0.00000000000E+00  0.00000000000E+00  0.12657289595E+03  0.12657289605E+03  0.50400001928E-02 0.  1.
       -1   -1    0    0    0  501  0.00000000000E+00  0.00000000000E+00 -0.49845142501E+03  0.49845142503E+03  0.50400001928E-02 0. -1.
    10030    2    1    2    0    0  0.00000000000E+00  0.00000000000E+00 -0.37187852906E+03  0.62502432108E+03  0.50235620984E+03 0.  0.
        4    1    3    3  502    0 -0.87657101438E+02  0.19478404767E+03 -0.35036126322E+03  0.41034037131E+03  0.12699999809E+01 0. -1.
       -4    1    3    3    0  502  0.87657101438E+02 -0.19478404767E+03 -0.21517265836E+02  0.21468394977E+03  0.12699999809E+01 0.  1.
</event>
<event>
 5   0  0.4409622E-02  0.4997404E+03  0.7818609E-02  0.1013847E+00
       -2   -1    0    0    0  501  0.00000000000E+00  0.00000000000E+00  0.32237422378E+03  0.32237422379E+03  0.25500000920E-02 0.  1.
        2   -1    0    0  501    0  0.00000000000E+00  0.00000000000E+00 -0.19367279733E+03  0.19367279734E+03  0.25500000920E-02 0. -1.
    10030    2    1    2    0    0  0.00000000000E+00  0.00000000000E+00  0.12870142645E+03  0.51604702113E+03  0.49974040346E+03 0.  0.
        3    1    3    3  502    0 -0.58604439848E+02  0.10788339652E+02 -0.18622809839E+03  0.19552949515E+03  0.10100000352E+00 0. -1.
       -3    1    3    3    0  502  0.58604439848E+02 -0.10788339652E+02  0.31492952484E+03  0.32051752598E+03  0.10100000352E+00 0.  1.
</event>
<event>
 5   0  0.4534223E-02  0.5006741E+03  0.7818609E-02  0.1013603E+00
       -2   -1    0    0    0  501  0.00000000000E+00  0.00000000000E+00  0.40449184968E+02  0.40449185048E+02  0.25500000920E-02 0. -1.
        2   -1    0    0  501    0  0.00000000000E+00  0.00000000000E+00 -0.15493176972E+04  0.15493176972E+04  0.25500000920E-02 0.  1.
    10030    2    1    2    0    0  0.00000000000E+00  0.00000000000E+00 -0.15088685122E+04  0.15897668822E+04  0.50067409828E+03 0.  0.
        2    1    3    3  502    0 -0.22067228547E+03  0.11796586900E+03 -0.77828764301E+03  0.81752300218E+03  0.25500000920E-02 0.  1.
       -2    1    3    3    0  502  0.22067228547E+03 -0.11796586900E+03 -0.73058086918E+03  0.77224388003E+03  0.25500000920E-02 0. -1.
</event>
<event>
 5   0  0.2643185E-02  0.4993637E+03  0.7818609E-02  0.1013945E+00
        1   -1    0    0  501    0  0.00000000000E+00  0.00000000000E+00  0.19681284184E+03  0.19681284190E+03  0.50400001928E-02 0.  1.
       -1   -1    0    0    0  501  0.00000000000E+00  0.00000000000E+00 -0.31675286714E+03  0.31675286718E+03  0.50400001928E-02 0. -1.
    10030    2    1    2    0    0  0.00000000000E+00  0.00000000000E+00 -0.11994002530E+03  0.51356570908E+03  0.49936372303E+03 0.  0.
        1    1    3    3  502    0 -0.13937357275E+02 -0.48000061775E+02 -0.31155510004E+03  0.31553896153E+03  0.50400001928E-02 0. -1.
       -1    1    3    3    0  502  0.13937357275E+02  0.48000061775E+02  0.19161507473E+03  0.19802674756E+03  0.50400001928E-02 0.  1.
</event>
<event>
 5   0  0.4451135E-02  0.5010451E+03  0.7818609E-02  0.1013506E+00
        2   -1    0    0  501    0  0.00000000000E+00  0.00000000000E+00  0.18057220139E+04  0.18057220139E+04  0.25500000920E-02 0. -1.
       -2   -1    0    0    0  501  0.00000000000E+00  0.00000000000E+00 -0.34757038638E+02  0.34757038732E+02  0.25500000920E-02 0.  1.
    10030    2    1    2    0    0  0.00000000000E+00  0.00000000000E+00  0.17709649752E+04  0.18404790526E+04  0.50104510733E+03 0.  0.
        1    1    3    3  502    0 -0.11916858778E+03 -0.14068129935E+03  0.26243992479E+03  0.32072900469E+03  0.50400001928E-02 0.  1.
       -1    1    3    3    0  502  0.11916858778E+03  0.14068129935E+03  0.15085250504E+04  0.15197500479E+04  0.50400001928E-02 0. -1.
</event>
<event>
 5   0  0.2719671E-02  0.4994974E+03  0.7818609E-02  0.1013910E+00
       -1   -1    0    0    0  501  0.00000000000E+00  0.00000000000E+00  0.31569154429E+02  0.31569154831E+02  0.50400001928E-02 0.  1.
        1   -1    0    0  501    0  0.00000000000E+00  0.00000000000E+00 -0.19758028372E+04  0.19758028372E+04  0.50400001928E-02 0. -1.
    10030    2    1    2    0    0  0.00000000000E+00  0.00000000000E+00 -0.19442336828E+04  0.20073719921E+04  0.49949744864E+03 0.  0.
        2    1    3    3  502    0  0.24086031607E+03 -0.63559642508E+02 -0.10441086387E+04  0.10734134196E+04  0.25500000920E-02 0. -1.
       -2    1    3    3    0  502 -0.24086031607E+03  0.63559642508E+02 -0.90012504410E+03  0.93395857244E+03  0.25500000920E-02 0.  1.
</event>
<event>
 5   0  0.4631619E-02  0.4984344E+03  0.7818609E-02  0.1014188E+00
        2   -1    0    0  501    0  0.00000000000E+00  0.00000000000E+00  0.54233328306E+03  0.54233328307E+03  0.25500000920E-02 0.  1.
       -2   -1    0    0    0  501  0.00000000000E+00  0.00000000000E+00 -0.11452222410E+03  0.11452222413E+03  0.25500000920E-02 0. -1.
    10030    2    1    2    0    0  0.00000000000E+00  0.00000000000E+00  0.42781105896E+03  0.65685550720E+03  0.49843440407E+03 0.  0.
        5    1    3    3  502    0  0.60768634257E+02 -0.15932896881E+03  0.45333369185E+03  0.48436770473E+03  0.46999998093E+01 0.  1.
       -5    1    3    3    0  502 -0.60768634257E+02  0.15932896881E+03 -0.25522632895E+02  0.17248780247E+03  0.46999998093E+01 0. -1.
</event>
<event>
 5   0  0.1805500E-02  0.5001235E+03  0.7818609E-02  0.1013747E+00
       -4   -1    0    0    0  501  0.00000000000E+00  0.00000000000E+00  0.50710751750E+03  0.50710910779E+03  0.12699999809E+01 0. -1.
        4   -1    0    0  501    0  0.00000000000E+00  0.00000000000E+00 -0.12330387715E+03  0.12331041733E+03  0.12699999809E+01 0.  1.
    10030    2    1    2    0    0  0.00000000000E+00  0.00000000000E+00  0.38380364035E+03  0.63041952512E+03  0.50012352805E+03 0.  0.
        5    1    3    3  502    0 -0.14376255333E+03  0.97224328792E+02 -0.34953071696E+02  0.17709898099E+03  0.46999998093E+01 0.  1.
       -5    1    3    3    0  502  0.14376255333E+03 -0.97224328792E+02  0.41875671204E+03  0.45332054413E+03  0.46999998093E+01 0. -1.
</event>
<event>
 5   0  0.2643185E-02  0.4986412E+03  0.7818609E-02  0.1014134E+00
       -1   -1    0    0    0  501  0.00000000000E+00  0.00000000000E+00  0.44956495403E+03  0.44956495405E+03  0.50400001928E-02 0.  1.
        1   -1    0    0  501    0  0.00000000000E+00  0.00000000000E+00 -0.13826872002E+03  0.13826872011E+03  0.50400001928E-02 0. -1.
    10030    2    1    2    0    0  0.00000000000E+00  0.00000000000E+00  0.31129623400E+03  0.58783367417E+03  0.49864123694E+03 0.  0.
        1    1    3    3  502    0 -0.17805172624E+03  0.15656748594E+03  0.24654339434E+03  0.34205180922E+03  0.50400001928E-02 0.  1.
       -1    1    3    3    0  502  0.17805172624E+03 -0.15656748594E+03  0.64752839662E+02  0.24578186495E+03  0.50400001928E-02 0. -1.
</event>
<event>
 5   0  0.2715483E-02  0.4994785E+03  0.7818609E-02  0.1013915E+00
       -1   -1    0    0    0  501  0.00000000000E+00  0.00000000000E+00  0.37738995369E+03  0.37738995373E+03  0.50400001928E-02 0. -1.
        1   -1    0    0  501    0  0.00000000000E+00  0.00000000000E+00 -0.16526593780E+03  0.16526593787E+03  0.50400001928E-02 0.  1.
    10030    2    1    2    0    0  0.00000000000E+00  0.00000000000E+00  0.21212401590E+03  0.54265589160E+03  0.49947854665E+03 0.  0.
        5    1    3    3  502    0 -0.16415891941E+03  0.14024296609E+03  0.24232910847E+03  0.32459471217E+03  0.46999998093E+01 0.  1.
       -5    1    3    3    0  502  0.16415891941E+03 -0.14024296609E+03 -0.30205092567E+02  0.21806117943E+03  0.46999998093E+01 0. -1.
</event>
<event>
 5   0  0.4451135E-02  0.4940041E+03  0.7818609E-02  0.1015356E+00
       -2   -1    0    0    0  501  0.00000000000E+00  0.00000000000E+00  0.11631577132E+03  0.11631577135E+03  0.25500000920E-02 0.  1.
        2   -1    0    0  501    0  0.00000000000E+00  0.00000000000E+00 -0.52452048216E+03  0.52452048216E+03  0.25500000920E-02 0. -1.
    10030    2    1    2    0    0  0.00000000000E+00  0.00000000000E+00 -0.40820471084E+03  0.64083625351E+03  0.49400406665E+03 0.  0.
        1    1    3    3  502    0  0.13764411002E+03  0.17580987243E+03 -0.34111201385E+03  0.40769157250E+03  0.50400001928E-02 0. -1.
       -1    1    3    3    0  502 -0.13764411002E+03 -0.17580987243E+03 -0.67092696985E+02  0.23314468101E+03  0.50400001928E-02 0.  1.
</event>
<event>
 5   0  0.2779445E-02  0.4968392E+03  0.7818609E-02  0.1014607E+00
       -1   -1    0    0    0  501  0.00000000000E+00  0.00000000000E+00  0.27612388208E+03  0.27612388213E+03  0.50400001928E-02 0. -1.
        1   -1    0    0  501    0  0.00000000000E+00  0.00000000000E+00 -0.22349499276E+03  0.22349499282E+03  0.50400001928E-02 0.  1.
    10030    2    1    2    0    0  0.00000000000E+00  0.00000000000E+00  0.52628889324E+02  0.49961887495E+03  0.49683922974E+03 0.  0.
        3    1    3    3  502    0  0.10545011994E+03  0.11649229863E+03 -0.16717333858E+03  0.22942780731E+03  0.10100000352E+00 0.  1.
       -3    1    3    3    0  502 -0.10545011994E+03 -0.11649229863E+03  0.21980222791E+03  0.27019106763E+03  0.10100000352E+00 0. -1.
</event>
<event>
 5   0  0.4534223E-02  0.5183986E+03  0.7818609E-02  0.1009085E+00
       -2   -1    0    0    0  501  0.00000000000E+00  0.00000000000E+00  0.48707028856E+02  0.48707028922E+02  0.25500000920E-02 0. -1.
        2   -1    0    0  501    0  0.00000000000E+00  0.00000000000E+00 -0.13793548616E+04  0.13793548616E+04  0.25500000920E-02 0.  1.
    10030    2    1    2    0    0  0.00000000000E+00  0.00000000000E+00 -0.13306478327E+04  0.14280618905E+04  0.51839859990E+03 0.  0.
        2    1    3    3  502    0 -0.86349581841E+02  0.21146230415E+03 -0.10028430891E+04  0.10285265275E+04  0.25500000920E-02 0. -1.
       -2    1    3    3    0  502  0.86349581841E+02 -0.21146230415E+03 -0.32780474360E+03  0.39953536301E+03  0.25500000920E-02 0.  1.
</event>
<event>
 5   0  0.2723308E-02  0.5024173E+03  0.7818609E-02  0.1013150E+00
       -1   -1    0    0    0  501  0.00000000000E+00  0.00000000000E+00  0.70481097528E+02  0.70481097708E+02  0.50400001928E-02 0.  1.
        1   -1    0    0  501    0  0.00000000000E+00  0.00000000000E+00 -0.89535741350E+03  0.89535741352E+03  0.50400001928E-02 0. -1.
    10030    2    1    2    0    0  0.00000000000E+00  0.00000000000E+00 -0.82487631597E+03  0.96583851123E+03  0.50241725001E+03 0.  0.
        4    1    3    3  502    0  0.23505802671E+03  0.70852061237E+02 -0.51473839097E+03  0.57028897460E+03  0.12699999809E+01 0.  1.
       -4    1    3    3    0  502 -0.23505802671E+03 -0.70852061237E+02 -0.31013792500E+03  0.39554953663E+03  0.12699999809E+01 0. -1.
</event>
<event>
 5   0  0.2715483E-02  0.4959693E+03  0.7818609E-02  0.1014836E+00
        1   -1    0    0  501    0  0.00000000000E+00  0.00000000000E+00  0.83294327310E+03  0.83294327311E+03  0.50400001928E-02 0. -1.
       -1   -1    0    0    0  501  0.00000000000E+00  0.00000000000E+00 -0.73830223445E+02  0.73830223618E+02  0.50400001928E-02 0.  1.
    10030    2    1    2    0    0  0.00000000000E+00  0.00000000000E+00  0.75911304965E+03  0.90677349673E+03  0.49596930572E+03 0.  0.
        5    1    3    3  502    0 -0.12899787514E+03 -0.16408004429E+03  0.62424360090E+03  0.65822858946E+03  0.46999998093E+01 0.  1.
       -5    1    3    3    0  502  0.12899787514E+03  0.16408004429E+03  0.13486944875E+03  0.24854490727E+03  0.46999998093E+01 0. -1.
</event>
<event>
 5   0  0.4631619E-02  0.5008049E+03  0.7818609E-02  0.1013569E+00
       -2   -1    0    0    0  501  0.00000000000E+00  0.00000000000E+00  0.59569411688E+02  0.59569411743E+02  0.25500000920E-02 0.  1.
        2   -1    0    0  501    0  0.00000000000E+00  0.00000000000E+00 -0.10525770270E+04  0.10525770270E+04  0.25500000920E-02 0. -1.
    10030    2    1    2    0    0  0.00000000000E+00  0.00000000000E+00 -0.99300761530E+03  0.11121464387E+04  0.50080492923E+03 0.  0.
        5    1    3    3  502    0 -0.22444706717E+01  0.38285006903E+02 -0.10459173212E+04  0.10466307430E+04  0.46999998093E+01 0. -1.
       -5    1    3    3    0  502  0.22444706717E+01 -0.38285006903E+02  0.52909705938E+02  0.65515695698E+02  0.46999998093E+01 0.  1.
</event>
<event>
 5   0  0.2715483E-02  0.5017735E+03  0.7818609E-02  0.1013317E+00
       -1   -1    0    0    0  501  0.00000000000E+00  0.00000000000E+00  0.23282110596E+03  0.23282110602E+03  0.50400001928E-02 0. -1.
        1   -1    0    0  501    0  0.00000000000E+00  0.00000000000E+00 -0.27035418493E+03  0.27035418498E+03  0.50400001928E-02 0.  1.
    10030    2    1    2    0    0  0.00000000000E+00  0.00000000000E+00 -0.37533078970E+02  0.50317529100E+03  0.50177349616E+03 0.  0.
        5    1    3    3  502    0  0.10748364132E+03  0.15024695904E+03 -0.18893205409E+03  0.26428070856E+03  0.46999998093E+01 0.  1.
       -5    1    3    3    0  502 -0.10748364132E+03 -0.15024695904E+03  0.15139897512E+03  0.23889458244E+03  0.46999998093E+01 0. -1.
</event>
<event>
 5   0  0.1805500E-02  0.4991670E+03  0.7818609E-02  0.1013997E+00
       -4   -1    0    0    0  501  0.00000000000E+00  0.00000000000E+00  0.42550779738E+03  0.42550969264E+03  0.12699999809E+01 0. -1.
        4   -1    0    0  501    0  0.00000000000E+00  0.00000000000E+00 -0.14638934656E+03  0.14639485539E+03  0.12699999809E+01 0.  1.
    10030    2    1    2    0    0  0.00000000000E+00  0.00000000000E+00  0.27911845082E+03  0.57190454803E+03  0.49916700860E+03 0.  0.
        3    1    3    3  502    0 -0.56708498536E+02  0.15254452467E+03  0.35635807459E+03  0.39176111769E+03  0.10100000352E+00 0. -1.
       -3    1    3    3    0  502  0.56708498536E+02 -0.15254452467E+03 -0.77239623769E+02  0.18014343034E+03  0.10100000352E+00 0.  1.
</event>
<event>
 5   0  0.4451135E-02  0.5012206E+03  0.7818609E-02  0.1013461E+00
        2   -1    0    0  501    0  0.00000000000E+00  0.00000000000E+00  0.11812035879E+04  0.11812035879E+04  0.25500000920E-02 0. -1.
       -2   -1    0    0    0  501  0.00000000000E+00  0.00000000000E+00 -0.53170777552E+02  0.53170777613E+02  0.25500000920E-02 0.  1.
    10030    2    1    2    0    0  0.00000000000E+00  0.00000000000E+00  0.11280328103E+04  0.12343743655E+04  0.50122056324E+03 0.  0.
        1    1    3    3  502    0 -0.21976238563E+03  0.77707300141E+02  0.33734314622E+03  0.41004186245E+03  0.50400001928E-02 0.  1.
       -1    1    3    3    0  502  0.21976238563E+03 -0.77707300141E+02  0.79068966411E+03  0.82433250305E+03  0.50400001928E-02 0. -1.
</event>
<event>
 5   0  0.2723308E-02  0.5000996E+03  0.7818609E-02  0.1013753E+00
        1   -1    0    0  501    0  0.00000000000E+00  0.00000000000E+00  0.77320619147E+03  0.77320619148E+03  0.50400001928E-02 0. -1.
       -1   -1    0    0    0  501  0.00000000000E+00  0.00000000000E+00 -0.80864450535E+02  0.80864450692E+02  0.50400001928E-02 0.  1.
    10030    2    1    2    0    0  0.00000000000E+00  0.00000000000E+00  0.69234174093E+03  0.85407064217E+03  0.50009956567E+03 0.  0.
        4    1    3    3  502    0  0.14721341059E+03 -0.35882684536E+02  0.64775517046E+01  0.15166715822E+03  0.12699999809E+01 0.  1.
       -4    1    3    3    0  502 -0.14721341059E+03  0.35882684536E+02  0.68586418923E+03  0.70240348395E+03  0.12699999809E+01 0. -1.
</event>
<event>
 5   0  0.4451135E-02  0.5015774E+03  0.7818609E-02  0.1013368E+00
       -2   -1    0    0    0  501  0.00000000000E+00  0.00000000000E+00  0.11716706779E+03  0.11716706782E+03  0.25500000920E-02 0.  1.
        2   -1    0    0  501    0  0.00000000000E+00  0.00000000000E+00 -0.53679730852E+03  0.53679730853E+03  0.25500000920E-02 0. -1.
    10030    2    1    2    0    0  0.00000000000E+00  0.00000000000E+00 -0.41963024073E+03  0.65396437634E+03  0.50157737846E+03 0.  0.
        1    1    3    3  502    0 -0.22163300436E+03 -0.11721649453E+03 -0.20220465520E+03  0.32209877029E+03  0.50400001928E-02 0.  1.
       -1    1    3    3    0  502  0.22163300436E+03  0.11721649453E+03 -0.21742558553E+03  0.33186560605E+03  0.50400001928E-02 0. -1.
</event>
<event>
 5   0  0.4451135E-02  0.4997246E+03  0.7818609E-02  0.1013851E+00
       -2   -1    0    0    0  501  0.00000000000E+00  0.00000000000E+00  0.14644115875E+03  0.14644115877E+03  0.25500000920E-02 0.  1.
        2   -1    0    0  501    0  0.00000000000E+00  0.00000000000E+00 -0.42632263674E+03  0.42632263675E+03  0.25500000920E-02 0. -1.
    10030    2    1    2    0    0  0.00000000000E+00  0.00000000000E+00 -0.27988147799E+03  0.57276379551E+03  0.49972464791E+03 0.  0.
        1    1    3    3  502    0 -0.46434831917E+01 -0.24971715409E+03 -0.13175858401E+03  0.28238368130E+03  0.50400001928E-02 0.  1.
       -1    1    3    3    0  502  0.46434831917E+01  0.24971715409E+03 -0.14812289398E+03  0.29038011421E+03  0.50400001928E-02 0. -1.
</event>
<event>
 5   0  0.2723308E-02  0.5102196E+03  0.7818609E-02  0.1011145E+00
        1   -1    0    0  501    0  0.00000000000E+00  0.00000000000E+00  0.15693380420E+03  0.15693380428E+03  0.50400001928E-02 0.  1.
       -1   -1    0    0    0  501  0.00000000000E+00  0.00000000000E+00 -0.41470362209E+03  0.41470362212E+03  0.50400001928E-02 0. -1.
    10030    2    1    2    0    0  0.00000000000E+00  0.00000000000E+00 -0.25776981789E+03  0.57163742640E+03  0.51021962746E+03 0.  0.
        4    1    3    3  502    0  0.32834038547E+02  0.10681479633E+03 -0.38581977716E+03  0.40167896155E+03  0.12699999809E+01 0. -1.
       -4    1    3    3    0  502 -0.32834038547E+02 -0.10681479633E+03  0.12804995928E+03  0.16995846485E+03  0.12699999809E+01 0.  1.
</event>
<event>
 5   0  0.2779445E-02  0.5000417E+03  0.7818609E-02  0.1013768E+00
       -1   -1    0    0    0  501  0.00000000000E+00  0.00000000000E+00  0.72022123361E+02  0.72022123538E+02  0.50400001928E-02 0. -1.
        1   -1    0    0  501    0  0.00000000000E+00  0.00000000000E+00 -0.86793359535E+03  0.86793359536E+03  0.50400001928E-02 0.  1.
    10030    2    1    2    0    0  0.00000000000E+00  0.00000000000E+00 -0.79591147199E+03  0.93995571890E+03  0.50004168052E+03 0.  0.
        3    1    3    3  502    0 -0.82505158545E+02  0.82548022505E+02  0.17674713581E+02  0.11804102214E+03  0.10100000352E+00 0. -1.
       -3    1    3    3    0  502  0.82505158545E+02 -0.82548022505E+02 -0.81358618557E+03  0.82191469676E+03  0.10100000352E+00 0.  1.
</event>
<event>
 5   0  0.1805500E-02  0.4985588E+03  0.7818609E-02  0.1014156E+00
        3   -1    0    0  501    0  0.00000000000E+00  0.00000000000E+00  0.86517361044E+03  0.86517361633E+03  0.10100000352E+00 0. -1.
       -3   -1    0    0    0  501  0.00000000000E+00  0.00000000000E+00 -0.71823939918E+02  0.71824010932E+02  0.10100000352E+00 0.  1.
    10030    2    1    2    0    0  0.00000000000E+00  0.00000000000E+00  0.79334967052E+03  0.93699762726E+03  0.49855877666E+03 0.  0.
        4    1    3    3  502    0  0.23548371305E+03 -0.43405079892E+02  0.26643791170E+03  0.35822807506E+03  0.12699999809E+01 0.  1.
       -4    1    3    3    0  502 -0.23548371305E+03  0.43405079892E+02  0.52691175882E+03  0.57876955220E+03  0.12699999809E+01 0. -1.
</event>
<event>
 5   0  0.4519539E-02  0.5002954E+03  0.7818609E-02  0.1013702E+00
       -2   -1    0    0    0  501  0.00000000000E+00  0.00000000000E+00  0.49704105254E+02  0.49704105319E+02  0.25500000920E-02 0. -1.
        2   -1    0    0  501    0  0.00000000000E+00  0.00000000000E+00 -0.12589276388E+04  0.12589276388E+04  0.25500000920E-02 0.  1.
    10030    2    1    2    0    0  0.00000000000E+00  0.00000000000E+00 -0.12092235335E+04  0.13086317441E+04  0.50029540037E+03 0.  0.
        4    1    3    3  502    0  0.19960966512E+03  0.36620560556E+02 -0.98714366349E+03  0.10077893178E+04  0.12699999809E+01 0.  1.
       -4    1    3    3    0  502 -0.19960966512E+03 -0.36620560556E+02 -0.22207987002E+03  0.30084242626E+03  0.12699999809E+01 0. -1.
</event>
<event>
 5   0  0.2723308E-02  0.5018002E+03  0.7818609E-02  0.1013310E+00
        1   -1    0    0  501    0  0.00000000000E+00  0.00000000000E+00  0.45876684623E+03  0.45876684626E+03  0.50400001928E-02 0.  1.
       -1   -1    0    0    0  501  0.00000000000E+00  0.00000000000E+00 -0.13721754299E+03  0.13721754308E+03  0.50400001928E-02 0. -1.
    10030    2    1    2    0    0  0.00000000000E+00  0.00000000000E+00  0.32154930325E+03  0.59598438934E+03  0.50180019721E+03 0.  0.
        4    1    3    3  502    0 -0.54637606179E+01  0.10688809317E+03 -0.10874085676E+03  0.15258146667E+03  0.12699999809E+01 0. -1.
       -4    1    3    3    0  502  0.54637606179E+01 -0.10688809317E+03  0.43029016000E+03  0.44340292268E+03  0.12699999809E+01 0.  1.
</event>
<event>
 5   0  0.2643185E-02  0.4998172E+03  0.7818609E-02  0.1013827E+00
       -1   -1    0    0    0  501  0.00000000000E+00  0.00000000000E+00  0.56476965182E+03  0.56476965184E+03  0.50400001928E-02 0.  1.
        1   -1    0    0  501    0  0.00000000000E+00  0.00000000000E+00 -0.11058369175E+03  0.11058369187E+03  0.50400001928E-02 0. -1.
    10030    2    1    2    0    0  0.00000000000E+00  0.00000000000E+00  0.45418596006E+03  0.67535334371E+03  0.49981721913E+03 0.  0.
        1    1    3    3  502    0 -0.70978528111E+02  0.19690341808E+03  0.42588991841E+02  0.21359477932E+03  0.50400001928E-02 0. -1.
       -1    1    3    3    0  502  0.70978528111E+02 -0.19690341808E+03  0.41159696822E+03  0.46175856438E+03  0.50400001928E-02 0.  1.
</event>
<event>
 5   0  0.2715483E-02  0.4980982E+03  0.7818609E-02  0.1014277E+00
       -1   -1    0    0    0  501  0.00000000000E+00  0.00000000000E+00  0.47674717168E+02  0.47674717434E+02  0.50400001928E-02 0. -1.
        1   -1    0    0  501    0  0.00000000000E+00  0.00000000000E+00 -0.13010136413E+04  0.13010136413E+04  0.50400001928E-02 0.  1.
    10030    2    1    2    0    0  0.00000000000E+00  0.00000000000E+00 -0.12533389241E+04  0.13486883587E+04  0.49809821348E+03 0.  0.
        5    1    3    3  502    0 -0.15512895688E+03 -0.26661601391E+02 -0.11491002409E+04  0.11598401993E+04  0.46999998093E+01 0.  1.
       -5    1    3    3    0  502  0.15512895688E+03  0.26661601391E+02 -0.10423868324E+03  0.18884815946E+03  0.46999998093E+01 0. -1.
</event>
<event>
 5   0  0.4519539E-02  0.4999326E+03  0.7818609E-02  0.1013796E+00
        2   -1    0    0  501    0  0.00000000000E+00  0.00000000000E+00  0.61532977963E+03  0.61532977963E+03  0.25500000920E-02 0.  1.
       -2   -1    0    0    0  501  0.00000000000E+00  0.00000000000E+00 -0.10154418696E+03  0.10154418700E+03  0.25500000920E-02 0. -1.
    10030    2    1    2    0    0  0.00000000000E+00  0.00000000000E+00  0.51378559266E+03  0.71687396663E+03  0.49993264426E+03 0.  0.
        4    1    3    3  502    0  0.70500838649E+02 -0.23825392704E+03  0.29606452153E+03  0.38651146918E+03  0.12699999809E+01 0.  1.
       -4    1    3    3    0  502 -0.70500838649E+02  0.23825392704E+03  0.21772107114E+03  0.33036249745E+03  0.12699999809E+01 0. -1.
</event>
<event>
 5   0  0.4534223E-02  0.4992368E+03  0.7818609E-02  0.1013978E+00
       -2   -1    0    0    0  501  0.00000000000E+00  0.00000000000E+00  0.10795242736E+03  0.10795242739E+03  0.25500000920E-02 0. -1.
        2   -1    0    0  501    0  0.00000000000E+00  0.00000000000E+00 -0.57719271980E+03  0.57719271981E+03  0.25500000920E-02 0.  1.
    10030    2    1    2    0    0  0.00000000000E+00  0.00000000000E+00 -0.46924029244E+03  0.68514514720E+03  0.49923683826E+03 0.  0.
        2    1    3    3  502    0  0.87844150313E+02 -0.50742247149E+02  0.78385897698E+02  0.12820186954E+03  0.25500000920E-02 0. -1.
       -2    1    3    3    0  502 -0.87844150313E+02  0.50742247149E+02 -0.54762619014E+03  0.55694327765E+03  0.25500000920E-02 0.  1.
</event>
<event>
 5   0  0.2715483E-02  0.4978611E+03  0.7818609E-02  0.1014339E+00
       -1   -1    0    0    0  501  0.00000000000E+00  0.00000000000E+00  0.80656730136E+02  0.80656730293E+02  0.50400001928E-02 0. -1.
        1   -1    0    0  501    0  0.00000000000E+00  0.00000000000E+00 -0.76827330532E+03  0.76827330534E+03  0.50400001928E-02 0.  1.
    10030    2    1    2    0    0  0.00000000000E+00  0.00000000000E+00 -0.68761657519E+03  0.84893003563E+03  0.49786107593E+03 0.  0.
        5    1    3    3  502    0 -0.47199289830E+02  0.21526251208E+03 -0.14658006020E+03  0.26471404593E+03  0.46999998093E+01 0. -1.
       -5    1    3    3    0  502  0.47199289830E+02 -0.21526251208E+03 -0.54103651499E+03  0.58421598970E+03  0.46999998093E+01 0.  1.
</event>
<event>
 5   0  0.2643185E-02  0.4978283E+03  0.7818609E-02  0.1014347E+00
        1   -1    0    0  501    0  0.00000000000E+00  0.00000000000E+00  0.32371070631E+03  0.32371070635E+03  0.50400001928E-02 0.  1.
       -1   -1    0    0    0  501  0.00000000000E+00  0.00000000000E+00 -0.19140007990E+03  0.19140007997E+03  0.50400001928E-02 0. -1.
    10030    2    1    2    0    0  0.00000000000E+00  0.00000000000E+00  0.13231062641E+03  0.51511078632E+03  0.49782830406E+03 0.  0.
        1    1    3    3  502    0  0.11319194652E+03 -0.59632777375E+02 -0.15477472139E+03  0.20080761764E+03  0.50400001928E-02 0. -1.
       -1    1    3    3    0  502 -0.11319194652E+03  0.59632777375E+02  0.28708534780E+03  0.31430316868E+03  0.50400001928E-02 0.  1.
</event>
<event>
 5   0  0.4409622E-02  0.4996415E+03  0.7818609E-02  0.1013873E+00
        2   -1    0    0  501    0  0.00000000000E+00  0.00000000000E+00  0.61004581650E+02  0.61004581704E+02  0.25500000920E-02 0.  1.
       -2   -1    0    0    0  501  0.00000000000E+00  0.00000000000E+00 -0.10230447419E+04  0.10230447419E+04  0.25500000920E-02 0. -1.
    10030    2    1    2    0    0  0.00000000000E+00  0.00000000000E+00 -0.96204016028E+03  0.10840493236E+04  0.49964153759E+03 0.  0.
        3    1    3    3  502    0 -0.90846685137E+02 -0.12112163076E+03 -0.91215845304E+03  0.92463864471E+03  0.10100000352E+00 0. -1.
       -3    1    3    3    0  502  0.90846685137E+02  0.12112163076E+03 -0.49881707238E+02  0.15941067893E+03  0.10100000352E+00 0.  1.
</event>
<event>
 5   0  0.4519539E-02  0.4975673E+03  0.7818609E-02  0.1014416E+00
        2   -1    0    0  501    0  0.00000000000E+00  0.00000000000E+00  0.98586854959E+03  0.98586854960E+03  0.25500000920E-02 0.  1.
       -2   -1    0    0    0  501  0.00000000000E+00  0.00000000000E+00 -0.62780488068E+02  0.62780488120E+02  0.25500000920E-02 0. -1.
    10030    2    1    2    0    0  0.00000000000E+00  0.00000000000E+00  0.92308806153E+03  0.10486490377E+04  0.49756731703E+03 0.  0.
        4    1    3    3  502    0  0.13847875651E+03 -0.19144451495E+03  0.62566710439E+03  0.66879616232E+03  0.12699999809E+01 0.  1.
       -4    1    3    3    0  502 -0.13847875651E+03  0.19144451495E+03  0.29742095713E+03  0.37985287540E+03  0.12699999809E+01 0. -1.
</event>
<event>
 5   0  0.4519539E-02  0.4987313E+03  0.7818609E-02  0.1014111E+00
        2   -1    0    0  501    0  0.00000000000E+00  0.00000000000E+00  0.64107407261E+03  0.64107407261E+03  0.25500000920E-02 0.  1.
       -2   -1    0    0    0  501  0.00000000000E+00  0.00000000000E+00 -0.96998521409E+02  0.96998521442E+02  0.25500000920E-02 0. -1.
    10030    2    1    2    0    0  0.00000000000E+00  0.00000000000E+00  0.54407555120E+03  0.73807259406E+03  0.49873133918E+03 0.  0.
        4    1    3    3  502    0 -0.19550646260E+02  0.78269289899E+02 -0.77147530587E+02  0.11163182291E+03  0.12699999809E+01 0. -1.
       -4    1    3    3    0  502  0.19550646260E+02 -0.78269289899E+02  0.62122308179E+03  0.62644077115E+03  0.12699999809E+01 0.  1.
</event>
<event>
 5   0  0.2779445E-02  0.4999550E+03  0.7818609E-02  0.1013791E+00
       -1   -1    0    0    0  501  0.00000000000E+00  0.00000000000E+00  0.63505345249E+02  0.63505345449E+02  0.50400001928E-02 0. -1.
        1   -1    0    0  501    0  0.00000000000E+00  0.00000000000E+00 -0.98399182352E+03  0.98399182353E+03  0.50400001928E-02 0.  1.
    10030    2    1    2    0    0  0.00000000000E+00  0.00000000000E+00 -0.92048647827E+03  0.10474971690E+04  0.49995496032E+03 0.  0.
        3    1    3    3  502    0 -0.17785059170E+03 -0.11940823823E+03 -0.73018519865E+03  0.76095965389E+03  0.10100000352E+00 0.  1.
       -3    1    3    3    0  502  0.17785059170E+03  0.11940823823E+03 -0.19030127962E+03  0.28653751509E+03  0.10100000352E+00 0. -1.
</event>
<event>
 5   0  0.2779445E-02  0.5016789E+03  0.7818609E-02  0.1013342E+00
        1   -1    0    0  501    0  0.00000000000E+00  0.00000000000E+00  0.45155921240E+03  0.45155921243E+03  0.50400001928E-02 0. -1.
       -1   -1    0    0    0  501  0.00000000000E+00  0.00000000000E+00 -0.13934039814E+03  0.13934039823E+03  0.50400001928E-02 0.  1.
    10030    2    1    2    0    0  0.00000000000E+00  0.00000000000E+00  0.31221881426E+03  0.59089961065E+03  0.50167894304E+03 0.  0.
        3    1    3    3  502    0 -0.93909373893E+02 -0.23232901554E+03  0.14295713794E+03  0.28850042540E+03  0.10100000352E+00 0.  1.
       -3    1    3    3    0  502  0.93909373893E+02  0.23232901554E+03  0.16926167632E+03  0.30239918525E+03  0.10100000352E+00 0. -1.
</event>
<event>
 5   0  0.2643185E-02  0.5003666E+03  0.7818609E-02  0.1013683E+00
        1   -1    0    0  501    0  0.00000000000E+00  0.00000000000E+00  0.18867215865E+03  0.18867215871E+03  0.50400001928E-02 0. -1.
       -1   -1    0    0    0  501  0.00000000000E+00  0.00000000000E+00 -0.33174835368E+03  0.33174835372E+03  0.50400001928E-02 0.  1.
    10030    2    1    2    0    0  0.00000000000E+00  0.00000000000E+00 -0.14307619503E+03  0.52042051243E+03  0.50036657780E+03 0.  0.
        1    1    3    3  502    0  0.29297856291E+02  0.20363603966E+03 -0.21960114058E+03  0.30091637045E+03  0.50400001928E-02 0.  1.
       -1    1    3    3    0  502 -0.29297856291E+02 -0.20363603966E+03  0.76524945547E+02  0.21950414199E+03  0.50400001928E-02 0. -1.
</event>
<event>
 5   0  0.1805500E-02  0.4977365E+03  0.7818609E-02  0.1014371E+00
       -4   -1    0    0    0  501  0.00000000000E+00  0.00000000000E+00  0.16257329063E+03  0.16257825109E+03  0.12699999809E+01 0. -1.
        4   -1    0    0  501    0  0.00000000000E+00  0.00000000000E+00 -0.38095723153E+03  0.38095934842E+03  0.12699999809E+01 0.  1.
    10030    2    1    2    0    0  0.00000000000E+00  0.00000000000E+00 -0.21838394089E+03  0.54353759951E+03  0.49773645280E+03 0.  0.
        3    1    3    3  502    0  0.55335052051E+02  0.15751627191E+03 -0.31073392729E+03  0.35274484784E+03  0.10100000352E+00 0.  1.
       -3    1    3    3    0  502 -0.55335052051E+02 -0.15751627191E+03  0.92349986399E+02  0.19079275168E+03  0.10100000352E+00 0. -1.
</event>
<event>
 5   0  0.4409622E-02  0.5009355E+03  0.7818609E-02  0.1013535E+00
       -2   -1    0    0    0  501  0.00000000000E+00  0.00000000000E+00  0.90616698532E+02  0.90616698568E+02  0.25500000920E-02 0. -1.
        2   -1    0    0  501    0  0.00000000000E+00  0.00000000000E+00 -0.69230178605E+03  0.69230178605E+03  0.25500000920E-02 0.  1.
    10030    2    1    2    0    0  0.00000000000E+00  0.00000000000E+00 -0.60168508751E+03  0.78291848462E+03  0.50093553380E+03 0.  0.
        3    1    3    3  502    0  0.63325512469E+02  0.86046897974E+02  0.53218071996E+02  0.11935812737E+03  0.10100000352E+00 0. -1.
       -3    1    3    3    0  502 -0.63325512469E+02 -0.86046897974E+02 -0.65490315951E+03  0.66356035725E+03  0.10100000352E+00 0.  1.
</event>
<event>
 5   0  0.4409622E-02  0.4989416E+03  0.7818609E-02  0.1014056E+00
        2   -1    0    0  501    0  0.00000000000E+00  0.00000000000E+00  0.84428437194E+03  0.84428437194E+03  0.25500000920E-02 0.  1.
       -2   -1    0    0    0  501  0.00000000000E+00  0.00000000000E+00 -0.73714113392E+02  0.73714113437E+02  0.25500000920E-02 0. -1.
    10030    2    1    2    0    0  0.00000000000E+00  0.00000000000E+00  0.77057025855E+03  0.91799848538E+03  0.49894157554E+03 0.  0.
        3    1    3    3  502    0  0.88529387834E+02  0.46722605998E+02 -0.35142048290E+02  0.10609160278E+03  0.10100000352E+00 0. -1.
       -3    1    3    3    0  502 -0.88529387834E+02 -0.46722605998E+02  0.80571230684E+03  0.81190688260E+03  0.10100000352E+00 0.  1.
</event>
<event>
 5   0  0.1805500E-02  0.4995532E+03  0.7818609E-02  0.1013896E+00
        3   -1    0    0  501    0  0.00000000000E+00  0.00000000000E+00  0.23537801420E+03  0.23537803587E+03  0.10100000352E+00 0.  1.
       -3   -1    0    0    0  501  0.00000000000E+00  0.00000000000E+00 -0.26505590193E+03  0.26505592117E+03  0.10100000352E+00 0. -1.
    10030    2    1    2    0    0  0.00000000000E+00  0.00000000000E+00 -0.29677887727E+02  0.50043395704E+03  0.49955316868E+03 0.  0.
        4    1    3    3  502    0  0.10268479582E+03  0.22696657744E+03 -0.33001951838E+02  0.25129412307E+03  0.12699999809E+01 0. -1.
       -4    1    3    3    0  502 -0.10268479582E+03 -0.22696657744E+03  0.33240641116E+01  0.24913983397E+03  0.12699999809E+01 0.  1.
</event>
<event>
 5   0  0.2779445E-02  0.5009394E+03  0.7818609E-02  0.1013534E+00
        1   -1    0    0  501    0  0.00000000000E+00  0.00000000000E+00  0.28981774914E+03  0.28981774918E+03  0.50400001928E-02 0.  1.
       -1   -1    0    0    0  501  0.00000000000E+00  0.00000000000E+00 -0.21646387718E+03  0.21646387724E+03  0.50400001928E-02 0. -1.
    10030    2    1    2    0    0  0.00000000000E+00  0.00000000000E+00  0.73353871961E+02  0.50628162642E+03  0.50093941222E+03 0.  0.
        3    1    3    3  502    0 -0.16756226232E+03  0.30282452784E+02  0.22232287587E+03  0.28003858669E+03  0.10100000352E+00 0.  1.
       -3    1    3    3    0  502  0.16756226232E+03 -0.30282452784E+02 -0.14896900391E+03  0.22624303973E+03  0.10100000352E+00 0. -1.
</event>
<event>
 5   0  0.4534223E-02  0.5008502E+03  0.7818609E-02  0.1013557E+00
       -2   -1    0    0    0  501  0.00000000000E+00  0.00000000000E+00  0.39003488526E+02  0.39003488609E+02  0.25500000920E-02 0. -1.
        2   -1    0    0  501    0  0.00000000000E+00  0.00000000000E+00 -0.16078750184E+04  0.16078750184E+04  0.25500000920E-02 0.  1.
    10030    2    1    2    0    0  0.00000000000E+00  0.00000000000E+00 -0.15688715299E+04  0.16468785070E+04  0.50085021674E+03 0.  0.
        2    1    3    3  502    0 -0.17562864813E+02  0.18785558947E+03 -0.13258815307E+04  0.13392385934E+04  0.25500000920E-02 0.  1.
       -2    1    3    3    0  502  0.17562864813E+02 -0.18785558947E+03 -0.24298999920E+03  0.30763991359E+03  0.25500000920E-02 0. -1.
</event>
<event>
 5   0  0.4451135E-02  0.5048754E+03  0.7818609E-02  0.1012514E+00
        2   -1    0    0  501    0  0.00000000000E+00  0.00000000000E+00  0.80174962590E+03  0.80174962591E+03  0.25500000920E-02 0.  1.
       -2   -1    0    0    0  501  0.00000000000E+00  0.00000000000E+00 -0.79482165716E+02  0.79482165757E+02  0.25500000920E-02 0. -1.
    10030    2    1    2    0    0  0.00000000000E+00  0.00000000000E+00  0.72226746019E+03  0.88123179166E+03  0.50487541691E+03 0.  0.
        1    1    3    3  502    0 -0.16818089520E+03  0.15742189147E+03  0.54133196702E+03  0.58830839189E+03  0.50400001928E-02 0.  1.
       -1    1    3    3    0  502  0.16818089520E+03 -0.15742189147E+03  0.18093549317E+03  0.29292339978E+03  0.50400001928E-02 0. -1.
</event>
<event>
 5   0  0.4519539E-02  0.5012637E+03  0.7818609E-02  0.1013450E+00
       -2   -1    0    0    0  501  0.00000000000E+00  0.00000000000E+00  0.29764839804E+02  0.29764839914E+02  0.25500000920E-02 0.  1.
        2   -1    0    0  501    0  0.00000000000E+00  0.00000000000E+00 -0.21104204224E+04  0.21104204224E+04  0.25500000920E-02 0. -1.
    10030    2    1    2    0    0  0.00000000000E+00  0.00000000000E+00 -0.20806555826E+04  0.21401852623E+04  0.50126370669E+03 0.  0.
        4    1    3    3  502    0  0.63616023728E+02  0.75606389160E+02 -0.56920361356E+02  0.11403887492E+03  0.12699999809E+01 0.  1.
       -4    1    3    3    0  502 -0.63616023728E+02 -0.75606389160E+02 -0.20237352213E+04  0.20261463874E+04  0.12699999809E+01 0. -1.
</event>
<event>
 5   0  0.1805500E-02  0.4995515E+03  0.7818609E-02  0.1013896E+00
        3   -1    0    0  501    0  0.00000000000E+00  0.00000000000E+00  0.22154117787E+03  0.22154120089E+03  0.10100000352E+00 0. -1.
       -3   -1    0    0    0  501  0.00000000000E+00  0.00000000000E+00 -0.28160870617E+03  0.28160872428E+03  0.10100000352E+00 0.  1.
    10030    2    1    2    0    0  0.00000000000E+00  0.00000000000E+00 -0.60067528302E+02  0.50314992517E+03  0.49955153812E+03 0.  0.
        1    1    3    3  502    0  0.20910306358E+03  0.13162130592E+03 -0.66898990559E+02  0.25597604250E+03  0.50400001928E-02 0. -1.
       -1    1    3    3    0  502 -0.20910306358E+03 -0.13162130592E+03  0.68314622571E+01  0.24717388267E+03  0.50400001928E-02 0.  1.
</event>
<event>
 5   0  0.2715483E-02  0.5104633E+03  0.7818609E-02  0.1011083E+00
        1   -1    0    0  501    0  0.00000000000E+00  0.00000000000E+00  0.19052505810E+04  0.19052505810E+04  0.50400001928E-02 0.  1.
       -1   -1    0    0    0  501  0.00000000000E+00  0.00000000000E+00 -0.34191411162E+02  0.34191411534E+02  0.50400001928E-02 0. -1.
    10030    2    1    2    0    0  0.00000000000E+00  0.00000000000E+00  0.18710591698E+04  0.19394419926E+04  0.51046334383E+03 0.  0.
        5    1    3    3  502    0  0.20507237017E+03  0.26430750964E+02  0.36729926862E+03  0.42152592367E+03  0.46999998093E+01 0. -1.
       -5    1    3    3    0  502 -0.20507237017E+03 -0.26430750964E+02  0.15037599012E+04  0.15179160689E+04  0.46999998093E+01 0.  1.
</event>
<event>
 5   0  0.4451135E-02  0.5027567E+03  0.7818609E-02  0.1013062E+00
       -2   -1    0    0    0  501  0.00000000000E+00  0.00000000000E+00  0.18121770506E+03  0.18121770508E+03  0.25500000920E-02 0. -1.
        2   -1    0    0  501    0  0.00000000000E+00  0.00000000000E+00 -0.34870254873E+03  0.34870254874E+03  0.25500000920E-02 0.  1.
    10030    2    1    2    0    0  0.00000000000E+00  0.00000000000E+00 -0.16748484367E+03  0.52992025382E+03  0.50275670314E+03 0.  0.
        1    1    3    3  502    0 -0.72953340601E+02  0.13013387410E+03 -0.29699537928E+03  0.33236015169E+03  0.50400001928E-02 0.  1.
       -1    1    3    3    0  502  0.72953340601E+02 -0.13013387410E+03  0.12951053562E+03  0.19756010213E+03  0.50400001928E-02 0. -1.
</event>
<event>
 5   0  0.4409622E-02  0.4972750E+03  0.7818609E-02  0.1014493E+00
       -2   -1    0    0    0  501  0.00000000000E+00  0.00000000000E+00  0.12274219752E+03  0.12274219755E+03  0.25500000920E-02 0.  1.
        2   -1    0    0  501    0  0.00000000000E+00  0.00000000000E+00 -0.50366223337E+03  0.50366223338E+03  0.25500000920E-02 0. -1.
    10030    2    1    2    0    0  0.00000000000E+00  0.00000000000E+00 -0.38092003585E+03  0.62640443092E+03  0.49727501181E+03 0.  0.
        3    1    3    3  502    0  0.16940299239E+03 -0.95872069918E+02 -0.38533029770E+03  0.43170392186E+03  0.10100000352E+00 0. -1.
       -3    1    3    3    0  502 -0.16940299239E+03  0.95872069918E+02  0.44102618503E+01  0.19470050907E+03  0.10100000352E+00 0.  1.
</event>
<event>
 5   0  0.2723308E-02  0.4987769E+03  0.7818609E-02  0.1014099E+00
        1   -1    0    0  501    0  0.00000000000E+00  0.00000000000E+00  0.11392276198E+03  0.11392276209E+03  0.50400001928E-02 0.  1.
       -1   -1    0    0    0  501  0.00000000000E+00  0.00000000000E+00 -0.54593661763E+03  0.54593661765E+03  0.50400001928E-02 0. -1.
    10030    2    1    2    0    0  0.00000000000E+00  0.00000000000E+00 -0.43201385565E+03  0.65985937974E+03  0.49877693367E+03 0.  0.
        4    1    3    3  502    0  0.21937927207E+03  0.11856024991E+03 -0.21199494490E+03  0.32730302082E+03  0.12699999809E+01 0.  1.
       -4    1    3    3    0  502 -0.21937927207E+03 -0.11856024991E+03 -0.22001891075E+03  0.33255635892E+03  0.12699999809E+01 0. -1.
</event>
<event>
 5   0  0.1805500E-02  0.5009749E+03  0.7818609E-02  0.1013525E+00
        3   -1    0    0  501    0  0.00000000000E+00  0.00000000000E+00  0.55177317367E+02  0.55177409806E+02  0.10100000352E+00 0.  1.
       -3   -1    0    0    0  501  0.00000000000E+00  0.00000000000E+00 -0.11371323001E+04  0.11371323046E+04  0.10100000352E+00 0. -1.
    10030    2    1    2    0    0  0.00000000000E+00  0.00000000000E+00 -0.10819549827E+04  0.11923097144E+04  0.50097491990E+03 0.  0.
        3    1    3    3  502    0 -0.68132610153E+02  0.21847807795E+03 -0.78332939836E+03  0.81607578058E+03  0.10100000352E+00 0. -1.
       -3    1    3    3    0  502  0.68132610153E+02 -0.21847807795E+03 -0.29862558438E+03  0.37623393382E+03  0.10100000352E+00 0.  1.
</event>
<event>
 5   0  0.4631619E-02  0.4986385E+03  0.7818609E-02  0.1014135E+00
        2   -1    0    0  501    0  0.00000000000E+00  0.00000000000E+00  0.10103632429E+04  0.10103632429E+04  0.25500000920E-02 0. -1.
       -2   -1    0    0    0  501  0.00000000000E+00  0.00000000000E+00 -0.61522526916E+02  0.61522526969E+02  0.25500000920E-02 0.  1.
    10030    2    1    2    0    0  0.00000000000E+00  0.00000000000E+00  0.94884071602E+03  0.10718857699E+04  0.49863854580E+03 0.  0.
        5    1    3    3  502    0  0.14698762558E+03  0.11334057390E+03  0.83210243091E+03  0.85256553606E+03  0.46999998093E+01 0. -1.
       -5    1    3    3    0  502 -0.14698762558E+03 -0.11334057390E+03  0.11673828511E+03  0.21932023384E+03  0.46999998093E+01 0.  1.
</event>
<event>
 5   0  0.4534223E-02  0.5000093E+03  0.7818609E-02  0.1013776E+00
       -2   -1    0    0    0  501  0.00000000000E+00  0.00000000000E+00  0.11271286960E+03  0.11271286963E+03  0.25500000920E-02 0. -1.
        2   -1    0    0  501    0  0.00000000000E+00  0.00000000000E+00 -0.55452707058E+03  0.55452707059E+03  0.25500000920E-02 0.  1.
    10030    2    1    2    0    0  0.00000000000E+00  0.00000000000E+00 -0.44181420098E+03  0.66723994022E+03  0.50000934955E+03 0.  0.
        2    1    3    3  502    0  0.12994461550E+03  0.11700987886E+03 -0.45934332513E+03  0.49150097172E+03  0.25500000920E-02 0.  1.
       -2    1    3    3    0  502 -0.12994461550E+03 -0.11700987886E+03  0.17529124158E+02  0.17573896850E+03  0.25500000920E-02 0. -1.
</event>
<event>
 5   0  0.4534223E-02  0.5021223E+03  0.7818609E-02  0.1013226E+00
        2   -1    0    0  501    0  0.00000000000E+00  0.00000000000E+00  0.71686338903E+03  0.71686338903E+03  0.25500000920E-02 0. -1.
       -2   -1    0    0    0  501  0.00000000000E+00  0.00000000000E+00 -0.87927085750E+02  0.87927085787E+02  0.25500000920E-02 0.  1.
    10030    2    1    2    0    0  0.00000000000E+00  0.00000000000E+00  0.62893630328E+03  0.80479047482E+03  0.50212233049E+03 0.  0.
        2    1    3    3  502    0 -0.20944387835E+03  0.93728074884E+02  0.15117335159E+03  0.27478186337E+03  0.25500000920E-02 0. -1.
       -2    1    3    3    0  502  0.20944387835E+03 -0.93728074884E+02  0.47776295169E+03  0.53000861145E+03  0.25500000920E-02 0.  1.
</event>
<event>
 5   0  0.2779445E-02  0.4992219E+03  0.7818609E-02  0.1013982E+00
       -1   -1    0    0    0  501  0.00000000000E+00  0.00000000000E+00  0.99476212180E+02  0.99476212308E+02  0.50400001928E-02 0. -1.
        1   -1    0    0  501    0  0.00000000000E+00  0.00000000000E+00 -0.62633696921E+03  0.62633696923E+03  0.50400001928E-02 0.  1.
    10030    2    1    2    0    0  0.00000000000E+00  0.00000000000E+00 -0.52686075703E+03  0.72581318154E+03  0.49922191178E+03 0.  0.
        3    1    3    3  502    0 -0.71216526176E+02  0.21554849989E+02 -0.60983817062E+03  0.61436065117E+03  0.10100000352E+00 0.  1.
       -3    1    3    3    0  502  0.71216526176E+02 -0.21554849989E+02  0.82977413590E+02  0.11145253037E+03  0.10100000352E+00 0. -1.
</event>
<event>
 5   0  0.2719671E-02  0.4967925E+03  0.7818609E-02  0.1014620E+00
        1   -1    0    0  501    0  0.00000000000E+00  0.00000000000E+00  0.19073901288E+03  0.19073901295E+03  0.50400001928E-02 0.  1.
       -1   -1    0    0    0  501  0.00000000000E+00  0.00000000000E+00 -0.32348227347E+03  0.32348227351E+03  0.50400001928E-02 0. -1.
    10030    2    1    2    0    0  0.00000000000E+00  0.00000000000E+00 -0.13274326059E+03  0.51422128646E+03  0.49679246997E+03 0.  0.
        2    1    3    3  502    0  0.15337154087E+03  0.18070884331E+03 -0.14329000296E+03  0.27696667769E+03  0.25500000920E-02 0. -1.
       -2    1    3    3    0  502 -0.15337154087E+03 -0.18070884331E+03  0.10546742367E+02  0.23725460877E+03  0.25500000920E-02 0.  1.
</event>
<event>
 5   0  0.4451135E-02  0.5114651E+03  0.7818609E-02  0.1010829E+00
       -2   -1    0    0    0  501  0.00000000000E+00  0.00000000000E+00  0.55945241478E+02  0.55945241536E+02  0.25500000920E-02 0.  1.
        2   -1    0    0  501    0  0.00000000000E+00  0.00000000000E+00 -0.11689846467E+04  0.11689846467E+04  0.25500000920E-02 0. -1.
    10030    2    1    2    0    0  0.00000000000E+00  0.00000000000E+00 -0.11130394052E+04  0.12249298882E+04  0.51146506578E+03 0.  0.
        1    1    3    3  502    0  0.16804047035E+02 -0.17391379989E+02  0.53200587112E+02  0.58439187102E+02  0.50400001928E-02 0.  1.
       -1    1    3    3    0  502 -0.16804047035E+02  0.17391379989E+02 -0.11662399923E+04  0.11664907011E+04  0.50400001928E-02 0. -1.
</event>
<event>
 5   0  0.1805500E-02  0.4999562E+03  0.7818609E-02  0.1013790E+00
        4   -1    0    0  501    0  0.00000000000E+00  0.00000000000E+00  0.90156775993E+02  0.90165720523E+02  0.12699999809E+01 0.  1.
       -4   -1    0    0    0  501  0.00000000000E+00  0.00000000000E+00 -0.69307149144E+03  0.69307265503E+03  0.12699999809E+01 0. -1.
    10030    2    1    2    0    0  0.00000000000E+00  0.00000000000E+00 -0.60291471545E+03  0.78323837556E+03  0.49995619692E+03 0.  0.
        1    1    3    3  502    0  0.28285221858E+02  0.11998925586E+03  0.39228329416E+02  0.12936899610E+03  0.50400001928E-02 0.  1.
       -1    1    3    3    0  502 -0.28285221858E+02 -0.11998925586E+03 -0.64214304487E+03  0.65386937946E+03  0.50400001928E-02 0. -1.
</event>
<event>
 5   0  0.2715483E-02  0.4998518E+03  0.7818609E-02  0.1013818E+00
       -1   -1    0    0    0  501  0.00000000000E+00  0.00000000000E+00  0.10082493038E+03  0.10082493050E+03  0.50400001928E-02 0. -1.
        1   -1    0    0  501    0  0.00000000000E+00  0.00000000000E+00 -0.61951901125E+03  0.61951901127E+03  0.50400001928E-02 0.  1.
    10030    2    1    2    0    0  0.00000000000E+00  0.00000000000E+00 -0.51869408087E+03  0.72034394177E+03  0.49985182296E+03 0.  0.
        5    1    3    3  502    0  0.92613586569E+02 -0.98137993322E+02  0.43741498079E+02  0.14192868210E+03  0.46999998093E+01 0. -1.
       -5    1    3    3    0  502 -0.92613586569E+02  0.98137993322E+02 -0.56243557895E+03  0.57841525967E+03  0.46999998093E+01 0.  1.
</event>
<event>
 5   0  0.4631619E-02  0.4961936E+03  0.7818609E-02  0.1014777E+00
       -2   -1    0    0    0  501  0.00000000000E+00  0.00000000000E+00  0.13544572458E+03  0.13544572460E+03  0.25500000920E-02 0. -1.
        2   -1    0    0  501    0  0.00000000000E+00  0.00000000000E+00 -0.45444042306E+03  0.45444042307E+03  0.25500000920E-02 0.  1.
    10030    2    1    2    0    0  0.00000000000E+00  0.00000000000E+00 -0.31899469849E+03  0.58988614767E+03  0.49619356057E+03 0.  0.
        5    1    3    3  502    0 -0.47861891516E+01 -0.23869796776E+03 -0.23951398983E+03  0.33821393930E+03  0.46999998093E+01 0. -1.
       -5    1    3    3    0  502  0.47861891516E+01  0.23869796776E+03 -0.79480708656E+02  0.25167220837E+03  0.46999998093E+01 0.  1.
</event>
<event>
 5   0  0.1805500E-02  0.5028875E+03  0.7818609E-02  0.1013028E+00
       -4   -1    0    0    0  501  0.00000000000E+00  0.00000000000E+00  0.72774931692E+03  0.72775042506E+03  0.12699999809E+01 0. -1.
        4   -1    0    0  501    0  0.00000000000E+00  0.00000000000E+00 -0.86870204175E+02  0.86879487069E+02  0.12699999809E+01 0.  1.
    10030    2    1    2    0    0  0.00000000000E+00  0.00000000000E+00  0.64087911275E+03  0.81462991213E+03  0.50288751882E+03 0.  0.
        3    1    3    3  502    0  0.24128983984E+02 -0.17734755043E+03  0.60652406768E+03  0.63238106897E+03  0.10100000352E+00 0. -1.
       -3    1    3    3    0  502 -0.24128983984E+02  0.17734755043E+03  0.34355045068E+02  0.18224884317E+03  0.10100000352E+00 0.  1.
</event>
<event>
 5   0  0.2779445E-02  0.4995229E+03  0.7818609E-02  0.1013904E+00
       -1   -1    0    0    0  501  0.00000000000E+00  0.00000000000E+00  0.24537456801E+02  0.24537457318E+02  0.50400001928E-02 0.  1.
        1   -1    0    0  501    0  0.00000000000E+00  0.00000000000E+00 -0.25422678988E+04  0.25422678988E+04  0.50400001928E-02 0. -1.
    10030    2    1    2    0    0  0.00000000000E+00  0.00000000000E+00 -0.25177304420E+04  0.25668053561E+04  0.49952293005E+03 0.  0.
        3    1    3    3  502    0 -0.15966127949E+03  0.13523728807E+03 -0.55806670399E+03  0.59600277227E+03  0.10100000352E+00 0.  1.
       -3    1    3    3    0  502  0.15966127949E+03 -0.13523728807E+03 -0.19596637380E+04  0.19708025838E+04  0.10100000352E+00 0. -1.
</event>
<event>
 5   0  0.2779445E-02  0.4991706E+03  0.7818609E-02  0.1013996E+00
        1   -1    0    0  501    0  0.00000000000E+00  0.00000000000E+00  0.53952527794E+03  0.53952527796E+03  0.50400001928E-02 0.  1.
       -1   -1    0    0    0  501  0.00000000000E+00  0.00000000000E+00 -0.11545857180E+03  0.11545857191E+03  0.50400001928E-02 0. -1.
    10030    2    1    2    0    0  0.00000000000E+00  0.00000000000E+00  0.42406670614E+03  0.65498384987E+03  0.49917058440E+03 0.  0.
        3    1    3    3  502    0 -0.17301394094E+03  0.76409836117E+02  0.42571766220E+03  0.46584098674E+03  0.10100000352E+00 0.  1.
       -3    1    3    3    0  502  0.17301394094E+03 -0.76409836117E+02 -0.16509560637E+01  0.18914286312E+03  0.10100000352E+00 0. -1.
</event>
<event>
 5   0  0.4534223E-02  0.4980876E+03  0.7818609E-02  0.1014279E+00
        2   -1    0    0  501    0  0.00000000000E+00  0.00000000000E+00  0.48744264901E+03  0.48744264902E+03  0.25500000920E-02 0.  1.
       -2   -1    0    0    0  501  0.00000000000E+00  0.00000000000E+00 -0.12724124704E+03  0.12724124706E+03  0.25500000920E-02 0. -1.
    10030    2    1    2    0    0  0.00000000000E+00  0.00000000000E+00  0.36020140197E+03  0.61468389608E+03  0.49808758479E+03 0.  0.
        2    1    3    3  502    0 -0.23519281717E+03 -0.57950439673E+02  0.25151693371E+03  0.34919146991E+03  0.25500000920E-02 0. -1.
       -2    1    3    3    0  502  0.23519281717E+03  0.57950439673E+02  0.10868446827E+03  0.26549242617E+03  0.25500000920E-02 0.  1.
</event>
<event>
 5   0  0.4409622E-02  0.5237962E+03  0.7818609E-02  0.1007748E+00
       -2   -1    0    0    0  501  0.00000000000E+00  0.00000000000E+00  0.50306467891E+02  0.50306467955E+02  0.25500000920E-02 0.  1.
        2   -1    0    0  501    0  0.00000000000E+00  0.00000000000E+00 -0.13634550784E+04  0.13634550784E+04  0.25500000920E-02 0. -1.
    10030    2    1    2    0    0  0.00000000000E+00  0.00000000000E+00 -0.13131486105E+04  0.14137615463E+04  0.52379617856E+03 0.  0.
        3    1    3    3  502    0 -0.12212985796E+03  0.15074376087E+03 -0.11314202053E+04  0.11479333930E+04  0.10100000352E+00 0. -1.
       -3    1    3    3    0  502  0.12212985796E+03 -0.15074376087E+03 -0.18172840520E+03  0.26582815333E+03  0.10100000352E+00 0.  1.
</event>
<event>
 5   0  0.2643185E-02  0.4951514E+03  0.7818609E-02  0.1015052E+00
       -1   -1    0    0    0  501  0.00000000000E+00  0.00000000000E+00  0.15891046547E+03  0.15891046555E+03  0.50400001928E-02 0.  1.
        1   -1    0    0  501    0  0.00000000000E+00  0.00000000000E+00 -0.38571238813E+03  0.38571238816E+03  0.50400001928E-02 0. -1.
    10030    2    1    2    0    0  0.00000000000E+00  0.00000000000E+00 -0.22680192266E+03  0.54462285371E+03  0.49515143206E+03 0.  0.
        1    1    3    3  502    0 -0.22988271120E+03 -0.76644915153E+02 -0.16919621130E+03  0.29554671690E+03  0.50400001928E-02 0.  1.
       -1    1    3    3    0  502  0.22988271120E+03  0.76644915153E+02 -0.57605711359E+02  0.24907613682E+03  0.50400001928E-02 0. -1.
</event>
<event>
 5   0  0.4451135E-02  0.4939436E+03  0.7818609E-02  0.1015372E+00
        2   -1    0    0  501    0  0.00000000000E+00  0.00000000000E+00  0.99847277291E+03  0.99847277292E+03  0.25500000920E-02 0.  1.
       -2   -1    0    0    0  501  0.00000000000E+00  0.00000000000E+00 -0.61088362835E+02  0.61088362888E+02  0.25500000920E-02 0. -1.
    10030    2    1    2    0    0  0.00000000000E+00  0.00000000000E+00  0.93738441008E+03  0.10595611358E+04  0.49394358812E+03 0.  0.
        1    1    3    3  502    0  0.23426132321E+03 -0.42756811804E+02  0.32821555687E+03  0.40550211381E+03  0.50400001928E-02 0. -1.
       -1    1    3    3    0  502 -0.23426132321E+03  0.42756811804E+02  0.60916885321E+03  0.65405902199E+03  0.50400001928E-02 0.  1.
</event>
<event>
 5   0  0.4451135E-02  0.5011566E+03  0.7818609E-02  0.1013477E+00
       -2   -1    0    0    0  501  0.00000000000E+00  0.00000000000E+00  0.54458779183E+02  0.54458779243E+02  0.25500000920E-02 0. -1.
        2   -1    0    0  501    0  0.00000000000E+00  0.00000000000E+00 -0.11529726341E+04  0.11529726341E+04  0.25500000920E-02 0.  1.
    10030    2    1    2    0    0  0.00000000000E+00  0.00000000000E+00 -0.10985138549E+04  0.12074314134E+04  0.50115659079E+03 0.  0.
        1    1    3    3  502    0 -0.19909607682E+02 -0.19928663487E+03 -0.18643736207E+03  0.27362464311E+03  0.50400001928E-02 0. -1.
       -1    1    3    3    0  502  0.19909607682E+02  0.19928663487E+03 -0.91207649287E+03  0.93380677026E+03  0.50400001928E-02 0.  1.
</event>
<event>
 5   0  0.4631619E-02  0.4971498E+03  0.7818609E-02  0.1014526E+00
       -2   -1    0    0    0  501  0.00000000000E+00  0.00000000000E+00  0.26950533003E+03  0.26950533004E+03  0.25500000920E-02 0.  1.
        2   -1    0    0  501    0  0.00000000000E+00  0.00000000000E+00 -0.22926999471E+03  0.22926999472E+03  0.25500000920E-02 0. -1.
    10030    2    1    2    0    0  0.00000000000E+00  0.00000000000E+00  0.40235335317E+02  0.49877532476E+03  0.49714981885E+03 0.  0.
        5    1    3    3  502    0  0.13537937888E+03 -0.38330045304E+02 -0.18541951684E+03  0.23280733627E+03  0.46999998093E+01 0. -1.
       -5    1    3    3    0  502 -0.13537937888E+03  0.38330045304E+02  0.22565485216E+03  0.26596798849E+03  0.46999998093E+01 0.  1.
</event>
<event>
 5   0  0.4409622E-02  0.4991932E+03  0.7818609E-02  0.1013990E+00
       -2   -1    0    0    0  501  0.00000000000E+00  0.00000000000E+00  0.15341513910E+03  0.15341513913E+03  0.25500000920E-02 0.  1.
        2   -1    0    0  501    0  0.00000000000E+00  0.00000000000E+00 -0.40607768626E+03  0.40607768627E+03  0.25500000920E-02 0. -1.
    10030    2    1    2    0    0  0.00000000000E+00  0.00000000000E+00 -0.25266254716E+03  0.55949282540E+03  0.49919320802E+03 0.  0.
        3    1    3    3  502    0 -0.20407433837E+03  0.33987145153E+02 -0.28282959041E+03  0.35041981826E+03  0.10100000352E+00 0.  1.
       -3    1    3    3    0  502  0.20407433837E+03 -0.33987145153E+02  0.30167043249E+02  0.20907300714E+03  0.10100000352E+00 0. -1.
</event>
<event>
 5   0  0.2723308E-02  0.5046458E+03  0.7818609E-02  0.1012573E+00
       -1   -1    0    0    0  501  0.00000000000E+00  0.00000000000E+00  0.45002670981E+02  0.45002671263E+02  0.50400001928E-02 0.  1.
        1   -1    0    0  501    0  0.00000000000E+00  0.00000000000E+00 -0.14147350070E+04  0.14147350070E+04  0.50400001928E-02 0. -1.
    10030    2    1    2    0    0  0.00000000000E+00  0.00000000000E+00 -0.13697323360E+04  0.14597376783E+04  0.50464583326E+03 0.  0.
        4    1    3    3  502    0  0.32727280672E+02  0.15850392411E+03 -0.12493599616E+03  0.20446316269E+03  0.12699999809E+01 0.  1.
       -4    1    3    3    0  502 -0.32727280672E+02 -0.15850392411E+03 -0.12447963399E+04  0.12552745156E+04  0.12699999809E+01 0. -1.
</event>
<event>
 5   0  0.2643185E-02  0.4744872E+03  0.7818609E-02  0.1020661E+00
        1   -1    0    0  501    0  0.00000000000E+00  0.00000000000E+00  0.21085319255E+03  0.21085319261E+03  0.50400001928E-02 0. -1.
       -1   -1    0    0    0  501  0.00000000000E+00  0.00000000000E+00 -0.26693704559E+03  0.26693704563E+03  0.50400001928E-02 0.  1.
    10030    2    1    2    0    0  0.00000000000E+00  0.00000000000E+00 -0.56083853034E+02  0.47779023825E+03  0.47448721078E+03 0.  0.
        1    1    3    3  502    0 -0.32236111490E+02  0.14342657506E+03 -0.21554822237E+03  0.26090493577E+03  0.50400001928E-02 0.  1.
       -1    1    3    3    0  502  0.32236111490E+02 -0.14342657506E+03  0.15946436934E+03  0.21688530248E+03  0.50400001928E-02 0. -1.
</event>
<event>
 5   0  0.2643185E-02  0.4987807E+03  0.7818609E-02  0.1014098E+00
       -1   -1    0    0    0  501  0.00000000000E+00  0.00000000000E+00  0.25930167765E+03  0.25930167769E+03  0.50400001928E-02 0.  1.
        1   -1    0    0  501    0  0.00000000000E+00  0.00000000000E+00 -0.23985784224E+03  0.23985784229E+03  0.50400001928E-02 0. -1.
    10030    2    1    2    0    0  0.00000000000E+00  0.00000000000E+00  0.19443835405E+02  0.49915951999E+03  0.49878067691E+03 0.  0.
        1    1    3    3  502    0 -0.38783724273E+02 -0.11400694586E+03 -0.20883301349E+03  0.24106635709E+03  0.50400001928E-02 0. -1.
       -1    1    3    3    0  502  0.38783724273E+02  0.11400694586E+03  0.22827684889E+03  0.25809316290E+03  0.50400001928E-02 0.  1.
</event>
<event>
 5   0  0.4631619E-02  0.4995303E+03  0.7818609E-02  0.1013902E+00
        2   -1    0    0  501    0  0.00000000000E+00  0.00000000000E+00  0.45845392071E+03  0.45845392071E+03  0.25500000920E-02 0.  1.
       -2   -1    0    0    0  501  0.00000000000E+00  0.00000000000E+00 -0.13607178056E+03  0.13607178059E+03  0.25500000920E-02 0. -1.
    10030    2    1    2    0    0  0.00000000000E+00  0.00000000000E+00  0.32238214014E+03  0.59452570130E+03  0.49953034465E+03 0.  0.
        5    1    3    3  502    0  0.66670483530E+02  0.20851059363E+03  0.18177822652E+02  0.21971377805E+03  0.46999998093E+01 0. -1.
       -5    1    3    3    0  502 -0.66670483530E+02 -0.20851059363E+03  0.30420431749E+03  0.37481192325E+03  0.46999998093E+01 0.  1.
</event>
<event>
 5   0  0.4451135E-02  0.5004608E+03  0.7818609E-02  0.1013659E+00
       -2   -1    0    0    0  501  0.00000000000E+00  0.00000000000E+00  0.24725363815E+03  0.24725363816E+03  0.25500000920E-02 0.  1.
        2   -1    0    0  501    0  0.00000000000E+00  0.00000000000E+00 -0.25324301031E+03  0.25324301033E+03  0.25500000920E-02 0. -1.
    10030    2    1    2    0    0  0.00000000000E+00  0.00000000000E+00 -0.59893721665E+01  0.50049664849E+03  0.50046081022E+03 0.  0.
        1    1    3    3  502    0 -0.17984072618E+03 -0.88535580092E+02 -0.15278531670E+03  0.25204084740E+03  0.50400001928E-02 0. -1.
       -1    1    3    3    0  502  0.17984072618E+03  0.88535580092E+02  0.14679594453E+03  0.24845580108E+03  0.50400001928E-02 0.  1.
</event>
<event>
 5   0  0.2779445E-02  0.4993209E+03  0.7818609E-02  0.1013956E+00
       -1   -1    0    0    0  501  0.00000000000E+00  0.00000000000E+00  0.50607182369E+02  0.50607182620E+02  0.50400001928E-02 0.  1.
        1   -1    0    0  501    0  0.00000000000E+00  0.00000000000E+00 -0.12316501859E+04  0.12316501860E+04  0.50400001928E-02 0. -1.
    10030    2    1    2    0    0  0.00000000000E+00  0.00000000000E+00 -0.11810430036E+04  0.12822573686E+04  0.49932092182E+03 0.  0.
        3    1    3    3  502    0  0.16477027181E+03 -0.15211573834E+03 -0.30872028645E+03  0.38157131154E+03  0.10100000352E+00 0.  1.
       -3    1    3    3    0  502 -0.16477027181E+03  0.15211573834E+03 -0.87232271713E+03  0.90068605704E+03  0.10100000352E+00 0. -1.
</event>
<event>
 5   0  0.2779445E-02  0.4973150E+03  0.7818609E-02  0.1014482E+00
        1   -1    0    0  501    0  0.00000000000E+00  0.00000000000E+00  0.31691945968E+03  0.31691945972E+03  0.50400001928E-02 0.  1.
       -1   -1    0    0    0  501  0.00000000000E+00  0.00000000000E+00 -0.19509863864E+03  0.19509863870E+03  0.50400001928E-02 0. -1.
    10030    2    1    2    0    0  0.00000000000E+00  0.00000000000E+00  0.12182082104E+03  0.51201809842E+03  0.49731501151E+03 0.  0.
        3    1    3    3  502    0  0.20717891421E+03  0.23516792795E+02 -0.78573422861E+02  0.22282265373E+03  0.10100000352E+00 0. -1.
       -3    1    3    3    0  502 -0.20717891421E+03 -0.23516792795E+02  0.20039424390E+03  0.28919544469E+03  0.10100000352E+00 0.  1.
</event>
<event>
 5   0  0.4451135E-02  0.4983484E+03  0.7818609E-02  0.1014211E+00
       -2   -1    0    0    0  501  0.00000000000E+00  0.00000000000E+00  0.10983840061E+03  0.10983840064E+03  0.25500000920E-02 0.  1.
        2   -1    0    0  501    0  0.00000000000E+00  0.00000000000E+00 -0.56526476156E+03  0.56526476156E+03  0.25500000920E-02 0. -1.
    10030    2    1    2    0    0  0.00000000000E+00  0.00000000000E+00 -0.45542636094E+03  0.67510316221E+03  0.49834838154E+03 0.  0.
        1    1    3    3  502    0  0.15044726220E+02 -0.73197793626E+02  0.94300875204E+02  0.12032005597E+03  0.50400001928E-02 0.  1.
       -1    1    3    3    0  502 -0.15044726220E+02  0.73197793626E+02 -0.54972723615E+03  0.55478310624E+03  0.50400001928E-02 0. -1.
</event>
<event>
 5   0  0.1805500E-02  0.4999671E+03  0.7818609E-02  0.1013788E+00
        3   -1    0    0  501    0  0.00000000000E+00  0.00000000000E+00  0.84228495808E+02  0.84228556363E+02  0.10100000352E+00 0.  1.
       -3   -1    0    0    0  501  0.00000000000E+00  0.00000000000E+00 -0.74193116742E+03  0.74193117429E+03  0.10100000352E+00 0. -1.
    10030    2    1    2    0    0  0.00000000000E+00  0.00000000000E+00 -0.65770267161E+03  0.82615973066E+03  0.49996709523E+03 0.  0.
        5    1    3    3  502    0 -0.43285785294E+02 -0.84353750634E+02 -0.71098931783E+03  0.71729848357E+03  0.46999998093E+01 0. -1.
       -5    1    3    3    0  502  0.43285785294E+02  0.84353750634E+02  0.53286646221E+02  0.10886124709E+03  0.46999998093E+01 0.  1.
</event>
<event>
 5   0  0.2643185E-02  0.4983498E+03  0.7818609E-02  0.1014211E+00
        1   -1    0    0  501    0  0.00000000000E+00  0.00000000000E+00  0.26812829273E+03  0.26812829278E+03  0.50400001928E-02 0.  1.
       -1   -1    0    0    0  501  0.00000000000E+00  0.00000000000E+00 -0.23156124929E+03  0.23156124934E+03  0.50400001928E-02 0. -1.
    10030    2    1    2    0    0  0.00000000000E+00  0.00000000000E+00  0.36567043444E+02  0.49968954212E+03  0.49834976657E+03 0.  0.
        1    1    3    3  502    0  0.14354884460E+03 -0.25229475855E+02  0.22092912254E+03  0.26467427992E+03  0.50400001928E-02 0.  1.
       -1    1    3    3    0  502 -0.14354884460E+03  0.25229475855E+02 -0.18436207910E+03  0.23501526221E+03  0.50400001928E-02 0. -1.
</event>
<event>
 5   0  0.2719671E-02  0.5000085E+03  0.7818609E-02  0.1013777E+00
        1   -1    0    0  501    0  0.00000000000E+00  0.00000000000E+00  0.10814613795E+04  0.10814613795E+04  0.50400001928E-02 0.  1.
       -1   -1    0    0    0  501  0.00000000000E+00  0.00000000000E+00 -0.57794141865E+02  0.57794142084E+02  0.50400001928E-02 0. -1.
    10030    2    1    2    0    0  0.00000000000E+00  0.00000000000E+00  0.10236672376E+04  0.11392555216E+04  0.50000853000E+03 0.  0.
        2    1    3    3  502    0 -0.17551783240E+02  0.24708576303E+03  0.58885450939E+03  0.63883415111E+03  0.25500000920E-02 0. -1.
       -2    1    3    3    0  502  0.17551783240E+02 -0.24708576303E+03  0.43481272822E+03  0.50042137046E+03  0.25500000920E-02 0.  1.
</event>
<event>
 5   0  0.2723308E-02  0.5004865E+03  0.7818609E-02  0.1013652E+00
       -1   -1    0    0    0  501  0.00000000000E+00  0.00000000000E+00  0.75119110500E+02  0.75119110669E+02  0.50400001928E-02 0. -1.
        1   -1    0    0  501    0  0.00000000000E+00  0.00000000000E+00 -0.83363174859E+03  0.83363174860E+03  0.50400001928E-02 0.  1.
    10030    2    1    2    0    0  0.00000000000E+00  0.00000000000E+00 -0.75851263809E+03  0.90875085927E+03  0.50048646544E+03 0.  0.
        4    1    3    3  502    0  0.23440010891E+02  0.70783777994E+02  0.54473685139E+02  0.92351354133E+02  0.12699999809E+01 0. -1.
       -4    1    3    3    0  502 -0.23440010891E+02 -0.70783777994E+02 -0.81298632323E+03  0.81639950514E+03  0.12699999809E+01 0.  1.
</event>
<event>
 5   0  0.2719671E-02  0.4998832E+03  0.7818609E-02  0.1013809E+00
        1   -1    0    0  501    0  0.00000000000E+00  0.00000000000E+00  0.11263358712E+04  0.11263358712E+04  0.50400001928E-02 0. -1.
       -1   -1    0    0    0  501  0.00000000000E+00  0.00000000000E+00 -0.55463746137E+02  0.55463746366E+02  0.50400001928E-02 0.  1.
    10030    2    1    2    0    0  0.00000000000E+00  0.00000000000E+00  0.10708721251E+04  0.11817996176E+04  0.49988321423E+03 0.  0.
        2    1    3    3  502    0 -0.21045725516E+03 -0.12066789723E+03  0.39323654391E+03  0.46204759186E+03  0.25500000920E-02 0.  1.
       -2    1    3    3    0  502  0.21045725516E+03  0.12066789723E+03  0.67763558115E+03  0.71975202571E+03  0.25500000920E-02 0. -1.
</event>
<event>
 5   0  0.2643185E-02  0.5000135E+03  0.7818609E-02  0.1013775E+00
       -1   -1    0    0    0  501  0.00000000000E+00  0.00000000000E+00  0.15179145758E+03  0.15179145766E+03  0.50400001928E-02 0. -1.
        1   -1    0    0  501    0  0.00000000000E+00  0.00000000000E+00 -0.41177138028E+03  0.41177138031E+03  0.50400001928E-02 0.  1.
    10030    2    1    2    0    0  0.00000000000E+00  0.00000000000E+00 -0.25997992270E+03  0.56356283798E+03  0.50001351196E+03 0.  0.
        1    1    3    3  502    0 -0.95300533576E+02  0.52183160038E+02  0.12378949719E+03  0.16470917865E+03  0.50400001928E-02 0. -1.
       -1    1    3    3    0  502  0.95300533576E+02 -0.52183160038E+02 -0.38376941989E+03  0.39885365933E+03  0.50400001928E-02 0.  1.
</event>
<event>
 5   0  0.2779445E-02  0.4999351E+03  0.7818609E-02  0.1013796E+00
       -1   -1    0    0    0  501  0.00000000000E+00  0.00000000000E+00  0.17238051409E+03  0.17238051417E+03  0.50400001928E-02 0. -1.
        1   -1    0    0  501    0  0.00000000000E+00  0.00000000000E+00 -0.36247592419E+03  0.36247592422E+03  0.50400001928E-02 0.  1.
    10030    2    1    2    0    0  0.00000000000E+00  0.00000000000E+00 -0.19009541010E+03  0.53485643839E+03  0.49993514054E+03 0.  0.
        3    1    3    3  502    0 -0.74696526693E+02  0.14014816090E+03 -0.30156703687E+03  0.34082805933E+03  0.10100000352E+00 0.  1.
       -3    1    3    3    0  502  0.74696526693E+02 -0.14014816090E+03  0.11147162677E+03  0.19402837906E+03  0.10100000352E+00 0. -1.
</event>
<event>
 5   0  0.2723308E-02  0.4980022E+03  0.7818609E-02  0.1014302E+00
       -1   -1    0    0    0  501  0.00000000000E+00  0.00000000000E+00  0.95434907126E+02  0.95434907259E+02  0.50400001928E-02 0.  1.
        1   -1    0    0  501    0  0.00000000000E+00  0.00000000000E+00 -0.64967362918E+03  0.64967362920E+03  0.50400001928E-02 0. -1.
    10030    2    1    2    0    0  0.00000000000E+00  0.00000000000E+00 -0.55423872205E+03  0.74510853646E+03  0.49800217879E+03 0.  0.
        4    1    3    3  502    0 -0.53452992370E+01 -0.85375919041E+02 -0.62699340265E+03  0.63280325508E+03  0.12699999809E+01 0. -1.
       -4    1    3    3    0  502  0.53452992370E+01  0.85375919041E+02  0.72754680597E+02  0.11230528138E+03  0.12699999809E+01 0.  1.
</event>
<event>
 5   0  0.4631619E-02  0.4936993E+03  0.7818609E-02  0.1015437E+00
        2   -1    0    0  501    0  0.00000000000E+00  0.00000000000E+00  0.16544376165E+03  0.16544376167E+03  0.25500000920E-02 0.  1.
       -2   -1    0    0    0  501  0.00000000000E+00  0.00000000000E+00 -0.36831102838E+03  0.36831102839E+03  0.25500000920E-02 0. -1.
    10030    2    1    2    0    0  0.00000000000E+00  0.00000000000E+00 -0.20286726673E+03  0.53375479006E+03  0.49369934981E+03 0.  0.
        5    1    3    3  502    0  0.12776039969E+03  0.16191730633E+03 -0.24797700294E+03  0.32257498013E+03  0.46999998093E+01 0.  1.
       -5    1    3    3    0  502 -0.12776039969E+03 -0.16191730633E+03  0.45109736215E+02  0.21117980992E+03  0.46999998093E+01 0. -1.
</event>
<event>
 5   0  0.2719671E-02  0.4978184E+03  0.7818609E-02  0.1014350E+00
       -1   -1    0    0    0  501  0.00000000000E+00  0.00000000000E+00  0.41979405954E+03  0.41979405957E+03  0.50400001928E-02 0. -1.
        1   -1    0    0  501    0  0.00000000000E+00  0.00000000000E+00 -0.14758617367E+03  0.14758617375E+03  0.50400001928E-02 0.  1.
    10030    2    1    2    0    0  0.00000000000E+00  0.00000000000E+00  0.27220788587E+03  0.56738023332E+03  0.49781843681E+03 0.  0.
        2    1    3    3  502    0 -0.42423479511E+02 -0.18419428340E+03  0.32068624682E+03  0.37224582544E+03  0.25500000920E-02 0. -1.
       -2    1    3    3    0  502  0.42423479511E+02  0.18419428340E+03 -0.48478360950E+02  0.19513440788E+03  0.25500000920E-02 0.  1.
</event>
<event>
 5   0  0.2779445E-02  0.4994846E+03  0.7818609E-02  0.1013914E+00
        1   -1    0    0  501    0  0.00000000000E+00  0.00000000000E+00  0.59646330886E+03  0.59646330888E+03  0.50400001928E-02 0.  1.
       -1   -1    0    0    0  501  0.00000000000E+00  0.00000000000E+00 -0.10456839109E+03  0.10456839122E+03  0.50400001928E-02 0. -1.
    10030    2    1    2    0    0  0.00000000000E+00  0.00000000000E+00  0.49189491777E+03  0.70103170010E+03  0.49948456875E+03 0.  0.
        3    1    3    3  502    0  0.61841151321E+02 -0.17593363599E+02 -0.92753449387E+02  0.11285861515E+03  0.10100000352E+00 0. -1.
       -3    1    3    3    0  502 -0.61841151321E+02  0.17593363599E+02  0.58464836716E+03  0.58817308495E+03  0.10100000352E+00 0.  1.
</event>
<event>
 5   0  0.1805500E-02  0.4991831E+03  0.7818609E-02  0.1013992E+00
       -4   -1    0    0    0  501  0.00000000000E+00  0.00000000000E+00  0.18409091397E+03  0.18409529464E+03  0.12699999809E+01 0. -1.
        4   -1    0    0  501    0  0.00000000000E+00  0.00000000000E+00 -0.33838803752E+03  0.33839042072E+03  0.12699999809E+01 0.  1.
    10030    2    1    2    0    0  0.00000000000E+00  0.00000000000E+00 -0.15429712355E+03  0.52248571536E+03  0.49918305302E+03 0.  0.
        3    1    3    3  502    0  0.11698539795E+03  0.16278276298E+03 -0.23279158871E+03  0.30720635611E+03  0.10100000352E+00 0.  1.
       -3    1    3    3    0  502 -0.11698539795E+03 -0.16278276298E+03  0.78494465168E+02  0.21527935925E+03  0.10100000352E+00 0. -1.
</event>
<event>
 5   0  0.4451135E-02  0.4995666E+03  0.7818609E-02  0.1013892E+00
        2   -1    0    0  501    0  0.00000000000E+00  0.00000000000E+00  0.16132041074E+03  0.16132041076E+03  0.25500000920E-02 0. -1.
       -2   -1    0    0    0  501  0.00000000000E+00  0.00000000000E+00 -0.38675636764E+03  0.38675636765E+03  0.25500000920E-02 0.  1.
    10030    2    1    2    0    0  0.00000000000E+00  0.00000000000E+00 -0.22543595690E+03  0.54807677841E+03  0.49956659653E+03 0.  0.
        1    1    3    3  502    0  0.90476113666E+02  0.22720989814E+03 -0.16845943079E+03  0.29696606675E+03  0.50400001928E-02 0. -1.
       -1    1    3    3    0  502 -0.90476113666E+02 -0.22720989814E+03 -0.56976526112E+02  0.25111071166E+03  0.50400001928E-02 0.  1.
</event>
<event>
 5   0  0.1805500E-02  0.5006137E+03  0.7818609E-02  0.1013619E+00
        3   -1    0    0  501    0  0.00000000000E+00  0.00000000000E+00  0.67154316799E+03  0.67154317559E+03  0.10100000352E+00 0. -1.
       -3   -1    0    0    0  501  0.00000000000E+00  0.00000000000E+00 -0.93297802503E+02  0.93297857172E+02  0.10100000352E+00 0.  1.
    10030    2    1    2    0    0  0.00000000000E+00  0.00000000000E+00  0.57824536549E+03  0.76484103276E+03  0.50061372602E+03 0.  0.
        4    1    3    3  502    0  0.25093785564E+02 -0.24564750489E+02  0.66775619169E+03  0.66868009502E+03  0.12699999809E+01 0. -1.
       -4    1    3    3    0  502 -0.25093785564E+02  0.24564750489E+02 -0.89510826197E+02  0.96160937740E+02  0.12699999809E+01 0.  1.
</event>
<event>
 5   0  0.2643185E-02  0.4987137E+03  0.7818609E-02  0.1014115E+00
       -1   -1    0    0    0  501  0.00000000000E+00  0.00000000000E+00  0.72752402152E+03  0.72752402153E+03  0.50400001928E-02 0. -1.
        1   -1    0    0  501    0  0.00000000000E+00  0.00000000000E+00 -0.85466375422E+02  0.85466375570E+02  0.50400001928E-02 0.  1.
    10030    2    1    2    0    0  0.00000000000E+00  0.00000000000E+00  0.64205764609E+03  0.81299039710E+03  0.49871371033E+03 0.  0.
        1    1    3    3  502    0  0.10669264486E+03  0.94862091044E+02 -0.12248011711E+02  0.14329044142E+03  0.50400001928E-02 0.  1.
       -1    1    3    3    0  502 -0.10669264486E+03 -0.94862091044E+02  0.65430565780E+03  0.66969995569E+03  0.50400001928E-02 0. -1.
</event>
<event>
 5   0  0.4534223E-02  0.5004005E+03  0.7818609E-02  0.1013674E+00
       -2   -1    0    0    0  501  0.00000000000E+00  0.00000000000E+00  0.51471282706E+02  0.51471282770E+02  0.25500000920E-02 0. -1.
        2   -1    0    0  501    0  0.00000000000E+00  0.00000000000E+00 -0.12162155738E+04  0.12162155738E+04  0.25500000920E-02 0.  1.
    10030    2    1    2    0    0  0.00000000000E+00  0.00000000000E+00 -0.11647442911E+04  0.12676868566E+04  0.50040054225E+03 0.  0.
        2    1    3    3  502    0  0.23350416214E+03  0.65296767296E+02 -0.42595348807E+03  0.49012675459E+03  0.25500000920E-02 0. -1.
       -2    1    3    3    0  502 -0.23350416214E+03 -0.65296767296E+02 -0.73879080301E+03  0.77756010197E+03  0.25500000920E-02 0.  1.
</event>
<event>
 5   0  0.2715483E-02  0.5005911E+03  0.7818609E-02  0.1013625E+00
       -1   -1    0    0    0  501  0.00000000000E+00  0.00000000000E+00  0.19491779221E+03  0.19491779227E+03  0.50400001928E-02 0. -1.
        1   -1    0    0  501    0  0.00000000000E+00  0.00000000000E+00 -0.32140656966E+03  0.32140656970E+03  0.50400001928E-02 0.  1.
    10030    2    1    2    0    0  0.00000000000E+00  0.00000000000E+00 -0.12648877745E+03  0.51632436197E+03  0.50059108656E+03 0.  0.
        5    1    3    3  502    0  0.10829545557E+03 -0.21619020161E+02 -0.29486972402E+03  0.31490559200E+03  0.46999998093E+01 0.  1.
       -5    1    3    3    0  502 -0.10829545557E+03  0.21619020161E+02  0.16838094657E+03  0.20141876997E+03  0.46999998093E+01 0. -1.
</event>
<event>
 5   0  0.2723308E-02  0.4995094E+03  0.7818609E-02  0.1013907E+00
        1   -1    0    0  501    0  0.00000000000E+00  0.00000000000E+00  0.53618194379E+03  0.53618194381E+03  0.50400001928E-02 0.  1.
       -1   -1    0    0    0  501  0.00000000000E+00  0.00000000000E+00 -0.11633625442E+03  0.11633625453E+03  0.50400001928E-02 0. -1.
    10030    2    1    2    0    0  0.00000000000E+00  0.00000000000E+00  0.41984568937E+03  0.65251819835E+03  0.49950935556E+03 0.  0.
        4    1    3    3  502    0  0.65792490033E+02  0.10341368880E+03 -0.74340966343E+02  0.14335701919E+03  0.12699999809E+01 0. -1.
       -4    1    3    3    0  502 -0.65792490033E+02 -0.10341368880E+03  0.49418665571E+03  0.50916117915E+03  0.12699999809E+01 0.  1.
</event>
<event>
 5   0  0.2643185E-02  0.5011826E+03  0.7818609E-02  0.1013471E+00
        1   -1    0    0  501    0  0.00000000000E+00  0.00000000000E+00  0.12513772117E+03  0.12513772127E+03  0.50400001928E-02 0.  1.
       -1   -1    0    0    0  501  0.00000000000E+00  0.00000000000E+00 -0.50181502122E+03  0.50181502124E+03  0.50400001928E-02 0. -1.
    10030    2    1    2    0    0  0.00000000000E+00  0.00000000000E+00 -0.37667730004E+03  0.62695274252E+03  0.50118255455E+03 0.  0.
        1    1    3    3  502    0 -0.60266389934E+02 -0.21473736501E+03 -0.45424803635E+02  0.22761279950E+03  0.50400001928E-02 0.  1.
       -1    1    3    3    0  502  0.60266389934E+02  0.21473736501E+03 -0.33125249641E+03  0.39933994302E+03  0.50400001928E-02 0. -1.
</event>
<event>
 5   0  0.1805500E-02  0.5006098E+03  0.7818609E-02  0.1013620E+00
        3   -1    0    0  501    0  0.00000000000E+00  0.00000000000E+00  0.17733989786E+03  0.17733992662E+03  0.10100000352E+00 0. -1.
       -3   -1    0    0    0  501  0.00000000000E+00  0.00000000000E+00 -0.35329063149E+03  0.35329064592E+03  0.10100000352E+00 0.  1.
    10030    2    1    2    0    0  0.00000000000E+00  0.00000000000E+00 -0.17595073363E+03  0.53063057254E+03  0.50060977203E+03 0.  0.
        2    1    3    3  502    0 -0.28156629486E+02  0.72717902078E+02 -0.34008713841E+03  0.34891252598E+03  0.25500000920E-02 0.  1.
       -2    1    3    3    0  502  0.28156629486E+02 -0.72717902078E+02  0.16413640478E+03  0.18171804657E+03  0.25500000920E-02 0. -1.
</event>
<event>
 5   0  0.4409622E-02  0.4956152E+03  0.7818609E-02  0.1014930E+00
        2   -1    0    0  501    0  0.00000000000E+00  0.00000000000E+00  0.50176805419E+03  0.50176805420E+03  0.25500000920E-02 0. -1.
       -2   -1    0    0    0  501  0.00000000000E+00  0.00000000000E+00 -0.12238445621E+03  0.12238445624E+03  0.25500000920E-02 0.  1.
    10030    2    1    2    0    0  0.00000000000E+00  0.00000000000E+00  0.37938359797E+03  0.62415251044E+03  0.49561521554E+03 0.  0.
        3    1    3    3  502    0  0.18931836164E+03  0.57212600150E+02  0.16567155293E+01  0.19778139088E+03  0.10100000352E+00 0.  1.
       -3    1    3    3    0  502 -0.18931836164E+03 -0.57212600150E+02  0.37772688245E+03  0.42637111956E+03  0.10100000352E+00 0. -1.
</event>
<event>
 5   0  0.4519539E-02  0.5001732E+03  0.7818609E-02  0.1013734E+00
       -2   -1    0    0    0  501  0.00000000000E+00  0.00000000000E+00  0.56567818110E+02  0.56567818167E+02  0.25500000920E-02 0. -1.
        2   -1    0    0  501    0  0.00000000000E+00  0.00000000000E+00 -0.11056339645E+04  0.11056339645E+04  0.25500000920E-02 0.  1.
    10030    2    1    2    0    0  0.00000000000E+00  0.00000000000E+00 -0.10490661464E+04  0.11622017827E+04  0.50017317416E+03 0.  0.
        4    1    3    3  502    0 -0.11666336491E+03  0.16809553475E+03 -0.19042543288E+03  0.27951727657E+03  0.12699999809E+01 0. -1.
       -4    1    3    3    0  502  0.11666336491E+03 -0.16809553475E+03 -0.85864071354E+03  0.88268450613E+03  0.12699999809E+01 0.  1.
</event>
<event>
 5   0  0.2723308E-02  0.4975259E+03  0.7818609E-02  0.1014427E+00
        1   -1    0    0  501    0  0.00000000000E+00  0.00000000000E+00  0.54110164348E+03  0.54110164350E+03  0.50400001928E-02 0.  1.
       -1   -1    0    0    0  501  0.00000000000E+00  0.00000000000E+00 -0.11436483869E+03  0.11436483880E+03  0.50400001928E-02 0. -1.
    10030    2    1    2    0    0  0.00000000000E+00  0.00000000000E+00  0.42673680478E+03  0.65546648230E+03  0.49752588764E+03 0.  0.
        4    1    3    3  502    0 -0.10380872150E+01 -0.55428372260E+02  0.53285528893E+03  0.53573291285E+03  0.12699999809E+01 0.  1.
       -4    1    3    3    0  502  0.10380872150E+01  0.55428372260E+02 -0.10611848414E+03  0.11973356945E+03  0.12699999809E+01 0. -1.
</event>
<event>
 5   0  0.2715483E-02  0.4988734E+03  0.7818609E-02  0.1014073E+00
        1   -1    0    0  501    0  0.00000000000E+00  0.00000000000E+00  0.10293109800E+04  0.10293109800E+04  0.50400001928E-02 0. -1.
       -1   -1    0    0    0  501  0.00000000000E+00  0.00000000000E+00 -0.60446919860E+02  0.60446920070E+02  0.50400001928E-02 0.  1.
    10030    2    1    2    0    0  0.00000000000E+00  0.00000000000E+00  0.96886406016E+03  0.10897579001E+04  0.49887344464E+03 0.  0.
        5    1    3    3  502    0 -0.18244323644E+03  0.16970232223E+03  0.46129598470E+03  0.52430953471E+03  0.46999998093E+01 0.  1.
       -5    1    3    3    0  502  0.18244323644E+03 -0.16970232223E+03  0.50756807546E+03  0.56544836539E+03  0.46999998093E+01 0. -1.
</event>
<event>
 5   0  0.4409622E-02  0.4994358E+03  0.7818609E-02  0.1013926E+00
       -2   -1    0    0    0  501  0.00000000000E+00  0.00000000000E+00  0.10742754603E+03  0.10742754606E+03  0.25500000920E-02 0. -1.
        2   -1    0    0  501    0  0.00000000000E+00  0.00000000000E+00 -0.58047524001E+03  0.58047524002E+03  0.25500000920E-02 0.  1.
    10030    2    1    2    0    0  0.00000000000E+00  0.00000000000E+00 -0.47304769398E+03  0.68790278608E+03  0.49943580400E+03 0.  0.
        3    1    3    3  502    0 -0.23636883743E+03  0.69287099904E+02 -0.29311457798E+03  0.38286694235E+03  0.10100000352E+00 0.  1.
       -3    1    3    3    0  502  0.23636883743E+03 -0.69287099904E+02 -0.17993311600E+03  0.30503584373E+03  0.10100000352E+00 0. -1.
</event>
<event>
 5   0  0.2719671E-02  0.4951900E+03  0.7818609E-02  0.1015042E+00
        1   -1    0    0  501    0  0.00000000000E+00  0.00000000000E+00  0.16055218947E+04  0.16055218947E+04  0.50400001928E-02 0. -1.
       -1   -1    0    0    0  501  0.00000000000E+00  0.00000000000E+00 -0.38182779339E+02  0.38182779672E+02  0.50400001928E-02 0.  1.
    10030    2    1    2    0    0  0.00000000000E+00  0.00000000000E+00  0.15673391153E+04  0.16437046743E+04  0.49519001811E+03 0.  0.
        2    1    3    3  502    0 -0.26251663995E+02  0.76392198556E+02  0.67850453972E+01  0.81061425538E+02  0.25500000920E-02 0.  1.
       -2    1    3    3    0  502  0.26251663995E+02 -0.76392198556E+02  0.15605540699E+04  0.15626432488E+04  0.25500000920E-02 0. -1.
</event>
<event>
 5   0  0.4409622E-02  0.5003317E+03  0.7818609E-02  0.1013692E+00
        2   -1    0    0  501    0  0.00000000000E+00  0.00000000000E+00  0.66138803482E+03  0.66138803482E+03  0.25500000920E-02 0.  1.
       -2   -1    0    0    0  501  0.00000000000E+00  0.00000000000E+00 -0.94623641237E+02  0.94623641271E+02  0.25500000920E-02 0. -1.
    10030    2    1    2    0    0  0.00000000000E+00  0.00000000000E+00  0.56676439358E+03  0.75601167609E+03  0.50033166656E+03 0.  0.
        3    1    3    3  502    0 -0.11584218925E+03  0.13311748820E+02  0.61781426375E+03  0.62872179075E+03  0.10100000352E+00 0.  1.
       -3    1    3    3    0  502  0.11584218925E+03 -0.13311748820E+02 -0.51049870169E+02  0.12728988535E+03  0.10100000352E+00 0. -1.
</event>
<event>
 5   0  0.2715483E-02  0.4866952E+03  0.7818609E-02  0.1017311E+00
        1   -1    0    0  501    0  0.00000000000E+00  0.00000000000E+00  0.27040905912E+03  0.27040905917E+03  0.50400001928E-02 0.  1.
       -1   -1    0    0    0  501  0.00000000000E+00  0.00000000000E+00 -0.21899432855E+03  0.21899432861E+03  0.50400001928E-02 0. -1.
    10030    2    1    2    0    0  0.00000000000E+00  0.00000000000E+00  0.51414730572E+02  0.48940338778E+03  0.48669518330E+03 0.  0.
        5    1    3    3  502    0 -0.57724051597E+02 -0.96080802700E+02  0.24285429039E+03  0.26751426717E+03  0.46999998093E+01 0.  1.
       -5    1    3    3    0  502  0.57724051597E+02  0.96080802700E+02 -0.19143955982E+03  0.22188912061E+03  0.46999998093E+01 0. -1.
</event>
<event>
 5   0  0.2719671E-02  0.5021742E+03  0.7818609E-02  0.1013213E+00
        1   -1    0    0  501    0  0.00000000000E+00  0.00000000000E+00  0.22990859798E+03  0.22990859803E+03  0.50400001928E-02 0. -1.
       -1   -1    0    0    0  501  0.00000000000E+00  0.00000000000E+00 -0.27421651366E+03  0.27421651371E+03  0.50400001928E-02 0.  1.
    10030    2    1    2    0    0  0.00000000000E+00  0.00000000000E+00 -0.44307915680E+02  0.50412511174E+03  0.50217420971E+03 0.  0.
        2    1    3    3  502    0 -0.14806724735E+03  0.19039421693E+02  0.18051726598E+03  0.23424963744E+03  0.25500000920E-02 0. -1.
       -2    1    3    3    0  502  0.14806724735E+03 -0.19039421693E+02 -0.22482518166E+03  0.26987547430E+03  0.25500000920E-02 0.  1.
</event>
<event>
 5   0  0.4631619E-02  0.5021117E+03  0.7818609E-02  0.1013229E+00
        2   -1    0    0  501    0  0.00000000000E+00  0.00000000000E+00  0.23513861246E+03  0.23513861247E+03  0.25500000920E-02 0. -1.
       -2   -1    0    0    0  501  0.00000000000E+00  0.00000000000E+00 -0.26805053976E+03  0.26805053977E+03  0.25500000920E-02 0.  1.
    10030    2    1    2    0    0  0.00000000000E+00  0.00000000000E+00 -0.32911927295E+02  0.50318915224E+03  0.50211166883E+03 0.  0.
        5    1    3    3  502    0 -0.81043873721E+02  0.88409566379E+02  0.20452250540E+03  0.23714111011E+03  0.46999998093E+01 0. -1.
       -5    1    3    3    0  502  0.81043873721E+02 -0.88409566379E+02 -0.23743443269E+03  0.26604804213E+03  0.46999998093E+01 0.  1.
</event>
<event>
 5   0  0.2643185E-02  0.5017000E+03  0.7818609E-02  0.1013336E+00
        1   -1    0    0  501    0  0.00000000000E+00  0.00000000000E+00  0.13868117808E+04  0.13868117808E+04  0.50400001928E-02 0.  1.
       -1   -1    0    0    0  501  0.00000000000E+00  0.00000000000E+00 -0.45374369575E+02  0.45374369855E+02  0.50400001928E-02 0. -1.
    10030    2    1    2    0    0  0.00000000000E+00  0.00000000000E+00  0.13414374112E+04  0.14321861506E+04  0.50169995208E+03 0.  0.
        1    1    3    3  502    0 -0.47009426597E+02 -0.54988525912E+02  0.13563861544E+04  0.13583140374E+04  0.50400001928E-02 0.  1.
       -1    1    3    3    0  502  0.47009426597E+02  0.54988525912E+02 -0.14948743217E+02  0.73872113278E+02  0.50400001928E-02 0. -1.
</event>
<event>
 5   0  0.2643185E-02  0.4996041E+03  0.7818609E-02  0.1013882E+00
        1   -1    0    0  501    0  0.00000000000E+00  0.00000000000E+00  0.52808868791E+03  0.52808868794E+03  0.50400001928E-02 0.  1.
       -1   -1    0    0    0  501  0.00000000000E+00  0.00000000000E+00 -0.11816400602E+03  0.11816400613E+03  0.50400001928E-02 0. -1.
    10030    2    1    2    0    0  0.00000000000E+00  0.00000000000E+00  0.40992468189E+03  0.64625269407E+03  0.49960414307E+03 0.  0.
        1    1    3    3  502    0 -0.18848828786E+03 -0.13610245269E+03  0.32315840024E+03  0.39809931419E+03  0.50400001928E-02 0.  1.
       -1    1    3    3    0  502  0.18848828786E+03  0.13610245269E+03  0.86766281652E+02  0.24815337988E+03  0.50400001928E-02 0. -1.
</event>
<event>
 5   0  0.4409622E-02  0.5005309E+03  0.7818609E-02  0.1013640E+00
       -2   -1    0    0    0  501  0.00000000000E+00  0.00000000000E+00  0.37497152669E+02  0.37497152755E+02  0.25500000920E-02 0.  1.
        2   -1    0    0  501    0  0.00000000000E+00  0.00000000000E+00 -0.16703349333E+04  0.16703349333E+04  0.25500000920E-02 0. -1.
    10030    2    1    2    0    0  0.00000000000E+00  0.00000000000E+00 -0.16328377807E+04  0.17078320861E+04  0.50053093443E+03 0.  0.
        3    1    3    3  502    0 -0.96667060924E+02 -0.22126911806E+03 -0.59194261673E+03  0.63929696932E+03  0.10100000352E+00 0.  1.
       -3    1    3    3    0  502  0.96667060924E+02  0.22126911806E+03 -0.10408951639E+04  0.10685351168E+04  0.10100000352E+00 0. -1.
</event>
<event>
 5   0  0.2719671E-02  0.4993933E+03  0.7818609E-02  0.1013937E+00
       -1   -1    0    0    0  501  0.00000000000E+00  0.00000000000E+00  0.51641792672E+02  0.51641792918E+02  0.50400001928E-02 0. -1.
        1   -1    0    0  501    0  0.00000000000E+00  0.00000000000E+00 -0.12073250000E+04  0.12073250000E+04  0.50400001928E-02 0.  1.
    10030    2    1    2    0    0  0.00000000000E+00  0.00000000000E+00 -0.11556832073E+04  0.12589667929E+04  0.49939334195E+03 0.  0.
        2    1    3    3  502    0  0.98926629624E+02 -0.28431297955E+02 -0.11513527391E+04  0.11559446122E+04  0.25500000920E-02 0.  1.
       -2    1    3    3    0  502 -0.98926629624E+02  0.28431297955E+02 -0.43304682395E+01  0.10302218069E+03  0.25500000920E-02 0. -1.
</event>
<event>
 5   0  0.2643185E-02  0.5016559E+03  0.7818609E-02  0.1013348E+00
        1   -1    0    0  501    0  0.00000000000E+00  0.00000000000E+00  0.17311376979E+03  0.17311376986E+03  0.50400001928E-02 0.  1.
       -1   -1    0    0    0  501  0.00000000000E+00  0.00000000000E+00 -0.36342956884E+03  0.36342956887E+03  0.50400001928E-02 0. -1.
    10030    2    1    2    0    0  0.00000000000E+00  0.00000000000E+00 -0.19031579905E+03  0.53654333873E+03  0.50165590893E+03 0.  0.
        1    1    3    3  502    0  0.24696140044E+03  0.87228785524E+01 -0.49171951731E+02  0.25196012141E+03  0.50400001928E-02 0.  1.
       -1    1    3    3    0  502 -0.24696140044E+03 -0.87228785524E+01 -0.14114384732E+03  0.28458321732E+03  0.50400001928E-02 0. -1.
</event>
<event>
 5   0  0.4631619E-02  0.4996911E+03  0.7818609E-02  0.1013860E+00
       -2   -1    0    0    0  501  0.00000000000E+00  0.00000000000E+00  0.20368906597E+03  0.20368906599E+03  0.25500000920E-02 0.  1.
        2   -1    0    0  501    0  0.00000000000E+00  0.00000000000E+00 -0.30646127274E+03  0.30646127275E+03  0.25500000920E-02 0. -1.
    10030    2    1    2    0    0  0.00000000000E+00  0.00000000000E+00 -0.10277220677E+03  0.51015033874E+03  0.49969114624E+03 0.  0.
        5    1    3    3  502    0 -0.14744501598E+03  0.14758912466E+03 -0.19165975496E+03  0.28333396218E+03  0.46999998093E+01 0. -1.
       -5    1    3    3    0  502  0.14744501598E+03 -0.14758912466E+03  0.88887548195E+02  0.22681637656E+03  0.46999998093E+01 0.  1.
</event>
<event>
 5   0  0.2715483E-02  0.4957090E+03  0.7818609E-02  0.1014905E+00
       -1   -1    0    0    0  501  0.00000000000E+00  0.00000000000E+00  0.21633295976E+03  0.21633295982E+03  0.50400001928E-02 0.  1.
        1   -1    0    0  501    0  0.00000000000E+00  0.00000000000E+00 -0.28396895471E+03  0.28396895476E+03  0.50400001928E-02 0. -1.
    10030    2    1    2    0    0  0.00000000000E+00  0.00000000000E+00 -0.67635994951E+02  0.50030191458E+03  0.49570896493E+03 0.  0.
        5    1    3    3  502    0  0.10479354600E+03 -0.20809853642E+03  0.51362247777E+02  0.23863540944E+03  0.46999998093E+01 0.  1.
       -5    1    3    3    0  502 -0.10479354600E+03  0.20809853642E+03 -0.11899824273E+03  0.26166650514E+03  0.46999998093E+01 0. -1.
</event>
<event>
 5   0  0.4409622E-02  0.4998149E+03  0.7818609E-02  0.1013827E+00
       -2   -1    0    0    0  501  0.00000000000E+00  0.00000000000E+00  0.41331459367E+03  0.41331459368E+03  0.25500000920E-02 0.  1.
        2   -1    0    0  501    0  0.00000000000E+00  0.00000000000E+00 -0.15110459979E+03  0.15110459981E+03  0.25500000920E-02 0. -1.
    10030    2    1    2    0    0  0.00000000000E+00  0.00000000000E+00  0.26220999388E+03  0.56441919348E+03  0.49981491083E+03 0.  0.
        3    1    3    3  502    0  0.16578447303E+02  0.13036538831E+03  0.37114503436E+03  0.39372404818E+03  0.10100000352E+00 0.  1.
       -3    1    3    3    0  502 -0.16578447303E+02 -0.13036538831E+03 -0.10893504048E+03  0.17069514530E+03  0.10100000352E+00 0. -1.
</event>
<event>
 5   0  0.2719671E-02  0.5021572E+03  0.7818609E-02  0.1013217E+00
       -1   -1    0    0    0  501  0.00000000000E+00  0.00000000000E+00  0.57881662825E+02  0.57881663045E+02  0.50400001928E-02 0.  1.
        1   -1    0    0  501    0  0.00000000000E+00  0.00000000000E+00 -0.10891268450E+04  0.10891268450E+04  0.50400001928E-02 0. -1.
    10030    2    1    2    0    0  0.00000000000E+00  0.00000000000E+00 -0.10312451821E+04  0.11470085080E+04  0.50215723811E+03 0.  0.
        2    1    3    3  502    0 -0.12862626673E+03  0.11565954544E+03 -0.93130636060E+03  0.94723459831E+03  0.25500000920E-02 0. -1.
       -2    1    3    3    0  502  0.12862626673E+03 -0.11565954544E+03 -0.99938821550E+02  0.19977390972E+03  0.25500000920E-02 0.  1.
</event>
<event>
 5   0  0.2719671E-02  0.4996488E+03  0.7818609E-02  0.1013871E+00
        1   -1    0    0  501    0  0.00000000000E+00  0.00000000000E+00  0.28164552052E+03  0.28164552056E+03  0.50400001928E-02 0. -1.
       -1   -1    0    0    0  501  0.00000000000E+00  0.00000000000E+00 -0.22159849471E+03  0.22159849477E+03  0.50400001928E-02 0.  1.
    10030    2    1    2    0    0  0.00000000000E+00  0.00000000000E+00  0.60047025806E+02  0.50324401533E+03  0.49964877030E+03 0.  0.
        2    1    3    3  502    0  0.16820336920E+02 -0.17619556007E+03 -0.14755287188E+03  0.23043361111E+03  0.25500000920E-02 0.  1.
       -2    1    3    3    0  502 -0.16820336920E+02  0.17619556007E+03  0.20759989769E+03  0.27281040422E+03  0.25500000920E-02 0. -1.
</event>
<event>
 5   0  0.2723308E-02  0.4996318E+03  0.7818609E-02  0.1013875E+00
       -1   -1    0    0    0  501  0.00000000000E+00  0.00000000000E+00  0.47080037596E+02  0.47080037866E+02  0.50400001928E-02 0.  1.
        1   -1    0    0  501    0  0.00000000000E+00  0.00000000000E+00 -0.13255723422E+04  0.13255723422E+04  0.50400001928E-02 0. -1.
    10030    2    1    2    0    0  0.00000000000E+00  0.00000000000E+00 -0.12784923046E+04  0.13726523801E+04  0.49963184806E+03 0.  0.
        4    1    3    3  502    0  0.44322968217E+02 -0.18572137525E+03 -0.10818083860E+04  0.10985299048E+04  0.12699999809E+01 0. -1.
       -4    1    3    3    0  502 -0.44322968217E+02  0.18572137525E+03 -0.19668391863E+03  0.27412247534E+03  0.12699999809E+01 0.  1.
</event>
<event>
 5   0  0.2723308E-02  0.5037894E+03  0.7818609E-02  0.1012795E+00
       -1   -1    0    0    0  501  0.00000000000E+00  0.00000000000E+00  0.76862082771E+02  0.76862082936E+02  0.50400001928E-02 0. -1.
        1   -1    0    0  501    0  0.00000000000E+00  0.00000000000E+00 -0.82551677133E+03  0.82551677135E+03  0.50400001928E-02 0.  1.
    10030    2    1    2    0    0  0.00000000000E+00  0.00000000000E+00 -0.74865468856E+03  0.90237885428E+03  0.50378939444E+03 0.  0.
        4    1    3    3  502    0  0.60622447060E+02  0.17465198443E+03 -0.67878391886E+02  0.19694538770E+03  0.12699999809E+01 0. -1.
       -4    1    3    3    0  502 -0.60622447060E+02 -0.17465198443E+03 -0.68077629667E+03  0.70543346658E+03  0.12699999809E+01 0.  1.
</event>
<event>
 5   0  0.4534223E-02  0.4997499E+03  0.7818609E-02  0.1013844E+00
       -2   -1    0    0    0  501  0.00000000000E+00  0.00000000000E+00  0.43179753319E+02  0.43179753394E+02  0.25500000920E-02 0. -1.
        2   -1    0    0  501    0  0.00000000000E+00  0.00000000000E+00 -0.14459900652E+04  0.14459900652E+04  0.25500000920E-02 0.  1.
    10030    2    1    2    0    0  0.00000000000E+00  0.00000000000E+00 -0.14028103118E+04  0.14891698186E+04  0.49974991495E+03 0.  0.
        2    1    3    3  502    0  0.75626941018E+02 -0.16958833975E+03 -0.20315961316E+03  0.27523347837E+03  0.25500000920E-02 0. -1.
       -2    1    3    3    0  502 -0.75626941018E+02  0.16958833975E+03 -0.11996506987E+04  0.12139363402E+04  0.25500000920E-02 0.  1.
</event>
<event>
 5   0  0.4451135E-02  0.4995917E+03  0.7818609E-02  0.1013886E+00
       -2   -1    0    0    0  501  0.00000000000E+00  0.00000000000E+00  0.59970732950E+02  0.59970733005E+02  0.25500000920E-02 0. -1.
        2   -1    0    0  501    0  0.00000000000E+00  0.00000000000E+00 -0.10404736689E+04  0.10404736689E+04  0.25500000920E-02 0.  1.
    10030    2    1    2    0    0  0.00000000000E+00  0.00000000000E+00 -0.98050293597E+03  0.11004444019E+04  0.49959170759E+03 0.  0.
        1    1    3    3  502    0  0.24044744683E+03  0.67188226171E+02 -0.50851334463E+03  0.56649364878E+03  0.50400001928E-02 0. -1.
       -1    1    3    3    0  502 -0.24044744683E+03 -0.67188226171E+02 -0.47198959135E+03  0.53395075315E+03  0.50400001928E-02 0.  1.
</event>
<event>
 5   0  0.4409622E-02  0.5008011E+03  0.7818609E-02  0.1013570E+00
        2   -1    0    0  501    0  0.00000000000E+00  0.00000000000E+00  0.10316703806E+04  0.10316703806E+04  0.25500000920E-02 0.  1.
       -2   -1    0    0    0  501  0.00000000000E+00  0.00000000000E+00 -0.60775652641E+02  0.60775652695E+02  0.25500000920E-02 0. -1.
    10030    2    1    2    0    0  0.00000000000E+00  0.00000000000E+00  0.97089472791E+03  0.10924460333E+04  0.50080112108E+03 0.  0.
        3    1    3    3  502    0 -0.38476092206E+02  0.55735548821E+02  0.10113114061E+04  0.10135766529E+04  0.10100000352E+00 0.  1.
       -3    1    3    3    0  502  0.38476092206E+02 -0.55735548821E+02 -0.40416678189E+02  0.78869380311E+02  0.10100000352E+00 0. -1.
</event>
<event>
 5   0  0.4451135E-02  0.4956447E+03  0.7818609E-02  0.1014922E+00
        2   -1    0    0  501    0  0.00000000000E+00  0.00000000000E+00  0.66912446333E+03  0.66912446334E+03  0.25500000920E-02 0.  1.
       -2   -1    0    0    0  501  0.00000000000E+00  0.00000000000E+00 -0.91785478114E+02  0.91785478150E+02  0.25500000920E-02 0. -1.
    10030    2    1    2    0    0  0.00000000000E+00  0.00000000000E+00  0.57733898522E+03  0.76090994148E+03  0.49564466627E+03 0.  0.
        1    1    3    3  502    0 -0.23826726235E+03 -0.33828382334E+02  0.37949608833E+03  0.44936947921E+03  0.50400001928E-02 0. -1.
       -1    1    3    3    0  502  0.23826726235E+03  0.33828382334E+02  0.19784289689E+03  0.31154046228E+03  0.50400001928E-02 0.  1.
</event>
<event>
 5   0  0.4519539E-02  0.5004468E+03  0.7818609E-02  0.1013662E+00
       -2   -1    0    0    0  501  0.00000000000E+00  0.00000000000E+00  0.53402213739E+03  0.53402213740E+03  0.25500000920E-02 0. -1.
        2   -1    0    0  501    0  0.00000000000E+00  0.00000000000E+00 -0.11724562013E+03  0.11724562016E+03  0.25500000920E-02 0.  1.
    10030    2    1    2    0    0  0.00000000000E+00  0.00000000000E+00  0.41677651726E+03  0.65126775756E+03  0.50044682704E+03 0.  0.
        4    1    3    3  502    0 -0.44376873166E+02  0.52015600369E+02 -0.10484866248E+03  0.12517900973E+03  0.12699999809E+01 0.  1.
       -4    1    3    3    0  502  0.44376873166E+02 -0.52015600369E+02  0.52162517974E+03  0.52608874783E+03  0.12699999809E+01 0. -1.
</event>
<event>
 5   0  0.2643185E-02  0.4996163E+03  0.7818609E-02  0.1013879E+00
       -1   -1    0    0    0  501  0.00000000000E+00  0.00000000000E+00  0.53895136282E+03  0.53895136284E+03  0.50400001928E-02 0.  1.
        1   -1    0    0  501    0  0.00000000000E+00  0.00000000000E+00 -0.11578803967E+03  0.11578803978E+03  0.50400001928E-02 0. -1.
    10030    2    1    2    0    0  0.00000000000E+00  0.00000000000E+00  0.42316332315E+03  0.65473940262E+03  0.49961634010E+03 0.  0.
        1    1    3    3  502    0  0.82562890693E+02  0.24037865624E+02  0.51894450942E+03  0.52602077315E+03  0.50400001928E-02 0.  1.
       -1    1    3    3    0  502 -0.82562890693E+02 -0.24037865624E+02 -0.95781186275E+02  0.12871862947E+03  0.50400001928E-02 0. -1.
</event>
<event>
 5   0  0.2643185E-02  0.5029654E+03  0.7818609E-02  0.1013008E+00
       -1   -1    0    0    0  501  0.00000000000E+00  0.00000000000E+00  0.56476923885E+02  0.56476924110E+02  0.50400001928E-02 0.  1.
        1   -1    0    0  501    0  0.00000000000E+00  0.00000000000E+00 -0.11198122598E+04  0.11198122598E+04  0.50400001928E-02 0. -1.
    10030    2    1    2    0    0  0.00000000000E+00  0.00000000000E+00 -0.10633353359E+04  0.11762891839E+04  0.50296541392E+03 0.  0.
        1    1    3    3  502    0 -0.10921055725E+03  0.98683044116E+02 -0.10085477152E+04  0.10192319573E+04  0.50400001928E-02 0. -1.
       -1    1    3    3    0  502  0.10921055725E+03 -0.98683044116E+02 -0.54787620720E+02  0.15705722658E+03  0.50400001928E-02 0.  1.
</event>
<event>
 5   0  0.2715483E-02  0.4997292E+03  0.7818609E-02  0.1013850E+00
        1   -1    0    0  501    0  0.00000000000E+00  0.00000000000E+00  0.13588922823E+04  0.13588922823E+04  0.50400001928E-02 0.  1.
       -1   -1    0    0    0  501  0.00000000000E+00  0.00000000000E+00 -0.45943540223E+02  0.45943540500E+02  0.50400001928E-02 0. -1.
    10030    2    1    2    0    0  0.00000000000E+00  0.00000000000E+00  0.13129487420E+04  0.14048358228E+04  0.49972921640E+03 0.  0.
        5    1    3    3  502    0 -0.17088483405E+03 -0.89028614081E+02  0.20948114530E+03  0.28466148470E+03  0.46999998093E+01 0. -1.
       -5    1    3    3    0  502  0.17088483405E+03  0.89028614081E+02  0.11034675967E+04  0.11201743381E+04  0.46999998093E+01 0.  1.
</event>
<event>
 5   0  0.2723308E-02  0.4980447E+03  0.7818609E-02  0.1014291E+00
        1   -1    0    0  501    0  0.00000000000E+00  0.00000000000E+00  0.14435800503E+03  0.14435800512E+03  0.50400001928E-02 0. -1.
       -1   -1    0    0    0  501  0.00000000000E+00  0.00000000000E+00 -0.42957177046E+03  0.42957177049E+03  0.50400001928E-02 0.  1.
    10030    2    1    2    0    0  0.00000000000E+00  0.00000000000E+00 -0.28521376542E+03  0.57392977561E+03  0.49804467204E+03 0.  0.
        4    1    3    3  502    0  0.15272678304E+03 -0.10859378892E+03 -0.33158237224E+03  0.38087604773E+03  0.12699999809E+01 0.  1.
       -4    1    3    3    0  502 -0.15272678304E+03  0.10859378892E+03  0.46368606819E+02  0.19305372788E+03  0.12699999809E+01 0. -1.
</event>
<event>
 5   0  0.2723308E-02  0.4981171E+03  0.7818609E-02  0.1014272E+00
        1   -1    0    0  501    0  0.00000000000E+00  0.00000000000E+00  0.57806048275E+03  0.57806048277E+03  0.50400001928E-02 0.  1.
       -1   -1    0    0    0  501  0.00000000000E+00  0.00000000000E+00 -0.10730737885E+03  0.10730737897E+03  0.50400001928E-02 0. -1.
    10030    2    1    2    0    0  0.00000000000E+00  0.00000000000E+00  0.47075310390E+03  0.68536786175E+03  0.49811707568E+03 0.  0.
        4    1    3    3  502    0  0.60226732051E+02  0.16490552711E+03  0.47844100451E+03  0.50963565400E+03  0.12699999809E+01 0.  1.
       -4    1    3    3    0  502 -0.60226732051E+02 -0.16490552711E+03 -0.76879006122E+01  0.17573220775E+03  0.12699999809E+01 0. -1.
</event>
<event>
 5   0  0.2779445E-02  0.5018865E+03  0.7818609E-02  0.1013288E+00
       -1   -1    0    0    0  501  0.00000000000E+00  0.00000000000E+00  0.33243375965E+03  0.33243375969E+03  0.50400001928E-02 0.  1.
        1   -1    0    0  501    0  0.00000000000E+00  0.00000000000E+00 -0.18942875328E+03  0.18942875335E+03  0.50400001928E-02 0. -1.
    10030    2    1    2    0    0  0.00000000000E+00  0.00000000000E+00  0.14300500637E+03  0.52186251304E+03  0.50188649181E+03 0.  0.
        3    1    3    3  502    0  0.18047277057E+03  0.12322101145E+03  0.19977656802E+03  0.29608195809E+03  0.10100000352E+00 0.  1.
       -3    1    3    3    0  502 -0.18047277057E+03 -0.12322101145E+03 -0.56771561651E+02  0.22578055494E+03  0.10100000352E+00 0. -1.
</event>
<event>
 5   0  0.4519539E-02  0.4993333E+03  0.7818609E-02  0.1013953E+00
        2   -1    0    0  501    0  0.00000000000E+00  0.00000000000E+00  0.12967093790E+04  0.12967093790E+04  0.25500000920E-02 0.  1.
       -2   -1    0    0    0  501  0.00000000000E+00  0.00000000000E+00 -0.48070484052E+02  0.48070484119E+02  0.25500000920E-02 0. -1.
    10030    2    1    2    0    0  0.00000000000E+00  0.00000000000E+00  0.12486388950E+04  0.13447798632E+04  0.49933334586E+03 0.  0.
        4    1    3    3  502    0 -0.22705847017E+03  0.72982636976E+02  0.82313562821E+03  0.85699235090E+03  0.12699999809E+01 0.  1.
       -4    1    3    3    0  502  0.22705847017E+03 -0.72982636976E+02  0.42550326679E+03  0.48778751227E+03  0.12699999809E+01 0. -1.
</event>
<event>
 5   0  0.2719671E-02  0.4962584E+03  0.7818609E-02  0.1014760E+00
       -1   -1    0    0    0  501  0.00000000000E+00  0.00000000000E+00  0.53524885606E+02  0.53524885843E+02  0.50400001928E-02 0. -1.
        1   -1    0    0  501    0  0.00000000000E+00  0.00000000000E+00 -0.11502704960E+04  0.11502704960E+04  0.50400001928E-02 0.  1.
    10030    2    1    2    0    0  0.00000000000E+00  0.00000000000E+00 -0.10967456104E+04  0.12037953818E+04  0.49625838779E+03 0.  0.
        2    1    3    3  502    0 -0.10693270366E+03  0.20815677703E+03 -0.34827840205E+03  0.41959705942E+03  0.25500000920E-02 0.  1.
       -2    1    3    3    0  502  0.10693270366E+03 -0.20815677703E+03 -0.74846720834E+03  0.78419832243E+03  0.25500000920E-02 0. -1.
</event>
<event>
 5   0  0.2779445E-02  0.4999501E+03  0.7818609E-02  0.1013792E+00
       -1   -1    0    0    0  501  0.00000000000E+00  0.00000000000E+00  0.33592218169E+03  0.33592218173E+03  0.50400001928E-02 0.  1.
        1   -1    0    0  501    0  0.00000000000E+00  0.00000000000E+00 -0.18601787457E+03  0.18601787463E+03  0.50400001928E-02 0. -1.
    10030    2    1    2    0    0  0.00000000000E+00  0.00000000000E+00  0.14990430712E+03  0.52194005636E+03  0.49995011865E+03 0.  0.
        3    1    3    3  502    0  0.14404805669E+03 -0.75677716203E+02 -0.12315898515E+03  0.20407132378E+03  0.10100000352E+00 0. -1.
       -3    1    3    3    0  502 -0.14404805669E+03  0.75677716203E+02  0.27306329227E+03  0.31786873258E+03  0.10100000352E+00 0.  1.
</event>
<event>
 5   0  0.4631619E-02  0.4988422E+03  0.7818609E-02  0.1014082E+00
       -2   -1    0    0    0  501  0.00000000000E+00  0.00000000000E+00  0.57276956230E+03  0.57276956231E+03  0.25500000920E-02 0.  1.
        2   -1    0    0  501    0  0.00000000000E+00  0.00000000000E+00 -0.10861417552E+03  0.10861417555E+03  0.25500000920E-02 0. -1.
    10030    2    1    2    0    0  0.00000000000E+00  0.00000000000E+00  0.46415538678E+03  0.68138373786E+03  0.49884223472E+03 0.  0.
        5    1    3    3  502    0  0.14346137109E+03 -0.98176942200E+02 -0.12148689220E+02  0.17432600960E+03  0.46999998093E+01 0. -1.
       -5    1    3    3    0  502 -0.14346137109E+03  0.98176942200E+02  0.47630407600E+03  0.50705772826E+03  0.46999998093E+01 0.  1.
</event>
<event>
 5   0  0.2719671E-02  0.5027145E+03  0.7818609E-02  0.1013073E+00
        1   -1    0    0  501    0  0.00000000000E+00  0.00000000000E+00  0.96268172936E+03  0.96268172937E+03  0.50400001928E-02 0. -1.
       -1   -1    0    0    0  501  0.00000000000E+00  0.00000000000E+00 -0.65629649025E+02  0.65629649218E+02  0.50400001928E-02 0.  1.
    10030    2    1    2    0    0  0.00000000000E+00  0.00000000000E+00  0.89705208033E+03  0.10283113786E+04  0.50271448806E+03 0.  0.
        2    1    3    3  502    0 -0.79765417474E+02 -0.23479360342E+03  0.53261413739E+03  0.58751032108E+03  0.25500000920E-02 0. -1.
       -2    1    3    3    0  502  0.79765417474E+02  0.23479360342E+03  0.36443794295E+03  0.44080105751E+03  0.25500000920E-02 0.  1.
</event>
<event>
 5   0  0.2779445E-02  0.5018452E+03  0.7818609E-02  0.1013298E+00
       -1   -1    0    0    0  501  0.00000000000E+00  0.00000000000E+00  0.10962919107E+03  0.10962919118E+03  0.50400001928E-02 0. -1.
        1   -1    0    0  501    0  0.00000000000E+00  0.00000000000E+00 -0.57431923746E+03  0.57431923748E+03  0.50400001928E-02 0.  1.
    10030    2    1    2    0    0  0.00000000000E+00  0.00000000000E+00 -0.46469004639E+03  0.68394842867E+03  0.50184520906E+03 0.  0.
        3    1    3    3  502    0  0.11091519692E+03  0.11966377948E+02 -0.53866220160E+03  0.55009304008E+03  0.10100000352E+00 0.  1.
       -3    1    3    3    0  502 -0.11091519692E+03 -0.11966377948E+02  0.73972155204E+02  0.13385538859E+03  0.10100000352E+00 0. -1.
</event>
<event>
 5   0  0.2715483E-02  0.4992861E+03  0.7818609E-02  0.1013965E+00
        1   -1    0    0  501    0  0.00000000000E+00  0.00000000000E+00  0.36053778375E+03  0.36053778379E+03  0.50400001928E-02 0. -1.
       -1   -1    0    0    0  501  0.00000000000E+00  0.00000000000E+00 -0.17285747860E+03  0.17285747867E+03  0.50400001928E-02 0.  1.
    10030    2    1    2    0    0  0.00000000000E+00  0.00000000000E+00  0.18768030516E+03  0.53339526246E+03  0.49928609941E+03 0.  0.
        5    1    3    3  502    0 -0.79381104272E+02  0.19559774612E+03  0.23612973720E+03  0.31676360395E+03  0.46999998093E+01 0. -1.
       -5    1    3    3    0  502  0.79381104272E+02 -0.19559774612E+03 -0.48449432040E+02  0.21663165850E+03  0.46999998093E+01 0.  1.
</event>
<event>
 5   0  0.1805500E-02  0.4981572E+03  0.7818609E-02  0.1014261E+00
       -3   -1    0    0    0  501  0.00000000000E+00  0.00000000000E+00  0.49713555193E+03  0.49713556219E+03  0.10100000352E+00 0.  1.
        3   -1    0    0  501    0  0.00000000000E+00  0.00000000000E+00 -0.12479521041E+03  0.12479525128E+03  0.10100000352E+00 0. -1.
    10030    2    1    2    0    0  0.00000000000E+00  0.00000000000E+00  0.37234034152E+03  0.62193081347E+03  0.49815721095E+03 0.  0.
        3    1    3    3  502    0 -0.13480796495E+03 -0.13973396084E+03  0.38095189246E+03  0.42757820547E+03  0.10100000352E+00 0.  1.
       -3    1    3    3    0  502  0.13480796495E+03  0.13973396084E+03 -0.86115509387E+01  0.19435260800E+03  0.10100000352E+00 0. -1.
</event>
<event>
 5   0  0.4534223E-02  0.5002619E+03  0.7818609E-02  0.1013711E+00
       -2   -1    0    0    0  501  0.00000000000E+00  0.00000000000E+00  0.26743345342E+02  0.26743345464E+02  0.25500000920E-02 0.  1.
        2   -1    0    0  501    0  0.00000000000E+00  0.00000000000E+00 -0.23394790276E+04  0.23394790276E+04  0.25500000920E-02 0. -1.
    10030    2    1    2    0    0  0.00000000000E+00  0.00000000000E+00 -0.23127356822E+04  0.23662223730E+04  0.50026191420E+03 0.  0.
        2    1    3    3  502    0  0.89438961110E+02  0.12819968764E+03 -0.20799962000E+04  0.20858616157E+04  0.25500000920E-02 0. -1.
       -2    1    3    3    0  502 -0.89438961110E+02 -0.12819968764E+03 -0.23273948219E+03  0.28036075733E+03  0.25500000920E-02 0.  1.
</event>
<event>
 5   0  0.4534223E-02  0.5000954E+03  0.7818609E-02  0.1013754E+00
       -2   -1    0    0    0  501  0.00000000000E+00  0.00000000000E+00  0.24225061458E+03  0.24225061459E+03  0.25500000920E-02 0.  1.
        2   -1    0    0  501    0  0.00000000000E+00  0.00000000000E+00 -0.25809570017E+03  0.25809570019E+03  0.25500000920E-02 0. -1.
    10030    2    1    2    0    0  0.00000000000E+00  0.00000000000E+00 -0.15845085594E+02  0.50034631478E+03  0.50009535888E+03 0.  0.
        2    1    3    3  502    0 -0.17328453913E+03  0.85852792004E+02 -0.16651268054E+03  0.25519542743E+03  0.25500000920E-02 0. -1.
       -2    1    3    3    0  502  0.17328453913E+03 -0.85852792004E+02  0.15066759494E+03  0.24515088735E+03  0.25500000920E-02 0.  1.
</event>
<event>
 5   0  0.4631619E-02  0.5006485E+03  0.7818609E-02  0.1013610E+00
       -2   -1    0    0    0  501  0.00000000000E+00  0.00000000000E+00  0.34070921897E+02  0.34070921993E+02  0.25500000920E-02 0.  1.
        2   -1    0    0  501    0  0.00000000000E+00  0.00000000000E+00 -0.18391703693E+04  0.18391703693E+04  0.25500000920E-02 0. -1.
    10030    2    1    2    0    0  0.00000000000E+00  0.00000000000E+00 -0.18050994474E+04  0.18732412913E+04  0.50064849985E+03 0.  0.
        5    1    3    3  502    0 -0.16016693425E+03  0.17647346468E+02 -0.16191012576E+04  0.16271065878E+04  0.46999998093E+01 0. -1.
       -5    1    3    3    0  502  0.16016693425E+03 -0.17647346468E+02 -0.18599818983E+03  0.24613470354E+03  0.46999998093E+01 0.  1.
</event>
<event>
 5   0  0.4519539E-02  0.5052020E+03  0.7818609E-02  0.1012430E+00
       -2   -1    0    0    0  501  0.00000000000E+00  0.00000000000E+00  0.12153042955E+03  0.12153042958E+03  0.25500000920E-02 0.  1.
        2   -1    0    0  501    0  0.00000000000E+00  0.00000000000E+00 -0.52503112594E+03  0.52503112595E+03  0.25500000920E-02 0. -1.
    10030    2    1    2    0    0  0.00000000000E+00  0.00000000000E+00 -0.40350069639E+03  0.64656155552E+03  0.50520197257E+03 0.  0.
        4    1    3    3  502    0  0.14141974770E+03  0.19499806589E+03 -0.10443565348E+03  0.26254944174E+03  0.12699999809E+01 0.  1.
       -4    1    3    3    0  502 -0.14141974770E+03 -0.19499806589E+03 -0.29906504291E+03  0.38401211378E+03  0.12699999809E+01 0. -1.
</event>
<event>
 5   0  0.2643185E-02  0.5009635E+03  0.7818609E-02  0.1013528E+00
        1   -1    0    0  501    0  0.00000000000E+00  0.00000000000E+00  0.21250313132E+03  0.21250313138E+03  0.50400001928E-02 0. -1.
       -1   -1    0    0    0  501  0.00000000000E+00  0.00000000000E+00 -0.29524787456E+03  0.29524787460E+03  0.50400001928E-02 0.  1.
    10030    2    1    2    0    0  0.00000000000E+00  0.00000000000E+00 -0.82744743239E+02  0.50775100599E+03  0.50096346329E+03 0.  0.
        1    1    3    3  502    0 -0.13977121952E+03  0.23881511291E+02 -0.25065189625E+03  0.28798037000E+03  0.50400001928E-02 0.  1.
       -1    1    3    3    0  502  0.13977121952E+03 -0.23881511291E+02  0.16790715301E+03  0.21977063599E+03  0.50400001928E-02 0. -1.
</event>
<event>
 5   0  0.4519539E-02  0.4980027E+03  0.7818609E-02  0.1014302E+00
        2   -1    0    0  501    0  0.00000000000E+00  0.00000000000E+00  0.14443987095E+04  0.14443987095E+04  0.25500000920E-02 0.  1.
       -2   -1    0    0    0  501  0.00000000000E+00  0.00000000000E+00 -0.42925593566E+02  0.42925593642E+02  0.25500000920E-02 0. -1.
    10030    2    1    2    0    0  0.00000000000E+00  0.00000000000E+00  0.14014731159E+04  0.14873243031E+04  0.49800269882E+03 0.  0.
        4    1    3    3  502    0 -0.11179496207E+03  0.19072304271E+03  0.35855925046E+03  0.42123596897E+03  0.12699999809E+01 0. -1.
       -4    1    3    3    0  502  0.11179496207E+03 -0.19072304271E+03  0.10429138654E+04  0.10660883341E+04  0.12699999809E+01 0.  1.
</event>
<event>
 5   0  0.2723308E-02  0.4995119E+03  0.7818609E-02  0.1013906E+00
        1   -1    0    0  501    0  0.00000000000E+00  0.00000000000E+00  0.37545849796E+03  0.37545849799E+03  0.50400001928E-02 0.  1.
       -1   -1    0    0    0  501  0.00000000000E+00  0.00000000000E+00 -0.16613829713E+03  0.16613829720E+03  0.50400001928E-02 0. -1.
    10030    2    1    2    0    0  0.00000000000E+00  0.00000000000E+00  0.20932020083E+03  0.54159679520E+03  0.49951190385E+03 0.  0.
        4    1    3    3  502    0 -0.14029991099E+03  0.18708679509E+03  0.95736781658E+01  0.23404871743E+03  0.12699999809E+01 0.  1.
       -4    1    3    3    0  502  0.14029991099E+03 -0.18708679509E+03  0.19974652267E+03  0.30754807776E+03  0.12699999809E+01 0. -1.
</event>
<event>
 5   0  0.4451135E-02  0.4952529E+03  0.7818609E-02  0.1015025E+00
       -2   -1    0    0    0  501  0.00000000000E+00  0.00000000000E+00  0.21996356925E+03  0.21996356926E+03  0.25500000920E-02 0. -1.
        2   -1    0    0  501    0  0.00000000000E+00  0.00000000000E+00 -0.27876824105E+03  0.27876824106E+03  0.25500000920E-02 0.  1.
    10030    2    1    2    0    0  0.00000000000E+00  0.00000000000E+00 -0.58804671800E+02  0.49873181033E+03  0.49525289419E+03 0.  0.
        1    1    3    3  502    0 -0.11987928565E+03 -0.10986224823E+03 -0.21747100882E+03  0.27154078224E+03  0.50400001928E-02 0.  1.
       -1    1    3    3    0  502  0.11987928565E+03  0.10986224823E+03  0.15866633702E+03  0.22719102809E+03  0.50400001928E-02 0. -1.
</event>
<event>
 5   0  0.2779445E-02  0.4937807E+03  0.7818609E-02  0.1015415E+00
        1   -1    0    0  501    0  0.00000000000E+00  0.00000000000E+00  0.71024741129E+02  0.71024741308E+02  0.50400001928E-02 0. -1.
       -1   -1    0    0    0  501  0.00000000000E+00  0.00000000000E+00 -0.85822001964E+03  0.85822001965E+03  0.50400001928E-02 0.  1.
    10030    2    1    2    0    0  0.00000000000E+00  0.00000000000E+00 -0.78719527851E+03  0.92924476096E+03  0.49378074007E+03 0.  0.
        3    1    3    3  502    0 -0.43362293377E+02 -0.43730264004E+02  0.56338128665E+02  0.83466277138E+02  0.10100000352E+00 0. -1.
       -3    1    3    3    0  502  0.43362293377E+02  0.43730264004E+02 -0.84353340717E+03  0.84577848382E+03  0.10100000352E+00 0.  1.
</event>
<event>
 5   0  0.4409622E-02  0.5005314E+03  0.7818609E-02  0.1013640E+00
       -2   -1    0    0    0  501  0.00000000000E+00  0.00000000000E+00  0.26278127901E+03  0.26278127902E+03  0.25500000920E-02 0. -1.
        2   -1    0    0  501    0  0.00000000000E+00  0.00000000000E+00 -0.23834623390E+03  0.23834623392E+03  0.25500000920E-02 0.  1.
    10030    2    1    2    0    0  0.00000000000E+00  0.00000000000E+00  0.24435045105E+02  0.50112751293E+03  0.50053143037E+03 0.  0.
        3    1    3    3  502    0  0.42942283647E+00  0.22552634387E+03 -0.96404085388E+02  0.24526735222E+03  0.10100000352E+00 0.  1.
       -3    1    3    3    0  502 -0.42942283647E+00 -0.22552634387E+03  0.12083913049E+03  0.25586016072E+03  0.10100000352E+00 0. -1.
</event>
<event>
 5   0  0.2715483E-02  0.4996144E+03  0.7818609E-02  0.1013880E+00
        1   -1    0    0  501    0  0.00000000000E+00  0.00000000000E+00  0.22928176768E+03  0.22928176773E+03  0.50400001928E-02 0. -1.
       -1   -1    0    0    0  501  0.00000000000E+00  0.00000000000E+00 -0.27217006458E+03  0.27217006462E+03  0.50400001928E-02 0.  1.
    10030    2    1    2    0    0  0.00000000000E+00  0.00000000000E+00 -0.42888296902E+02  0.50145183235E+03  0.49961438546E+03 0.  0.
        5    1    3    3  502    0 -0.29251972175E+01 -0.24972291502E+03 -0.18047551519E+02  0.25043541119E+03  0.46999998093E+01 0.  1.
       -5    1    3    3    0  502  0.29251972175E+01  0.24972291502E+03 -0.24840745383E+02  0.25101642116E+03  0.46999998093E+01 0. -1.
</event>
<event>
 5   0  0.4451135E-02  0.5004469E+03  0.7818609E-02  0.1013662E+00
        2   -1    0    0  501    0  0.00000000000E+00  0.00000000000E+00  0.48369554174E+03  0.48369554174E+03  0.25500000920E-02 0.  1.
       -2   -1    0    0    0  501  0.00000000000E+00  0.00000000000E+00 -0.12944458290E+03  0.12944458293E+03  0.25500000920E-02 0. -1.
    10030    2    1    2    0    0  0.00000000000E+00  0.00000000000E+00  0.35425095883E+03  0.61314012467E+03  0.50044687095E+03 0.  0.
        1    1    3    3  502    0  0.11410567828E+03 -0.16410051237E+03  0.36156646234E+03  0.41313362329E+03  0.50400001928E-02 0.  1.
       -1    1    3    3    0  502 -0.11410567828E+03  0.16410051237E+03 -0.73155035048E+01  0.20000650138E+03  0.50400001928E-02 0. -1.
</event>
<event>
 5   0  0.4409622E-02  0.5009391E+03  0.7818609E-02  0.1013534E+00
        2   -1    0    0  501    0  0.00000000000E+00  0.00000000000E+00  0.92681897958E+03  0.92681897959E+03  0.25500000920E-02 0. -1.
       -2   -1    0    0    0  501  0.00000000000E+00  0.00000000000E+00 -0.67688517318E+02  0.67688517367E+02  0.25500000920E-02 0.  1.
    10030    2    1    2    0    0  0.00000000000E+00  0.00000000000E+00  0.85913046227E+03  0.99450749695E+03  0.50093912834E+03 0.  0.
        3    1    3    3  502    0  0.58964744775E+02 -0.21700973121E+03  0.21059863178E+03  0.30809391178E+03  0.10100000352E+00 0.  1.
       -3    1    3    3    0  502 -0.58964744775E+02  0.21700973121E+03  0.64853183048E+03  0.68641358518E+03  0.10100000352E+00 0. -1.
</event>
<event>
 5   0  0.2715483E-02  0.5007596E+03  0.7818609E-02  0.1013581E+00
        1   -1    0    0  501    0  0.00000000000E+00  0.00000000000E+00  0.72143287957E+03  0.72143287959E+03  0.50400001928E-02 0. -1.
       -1   -1    0    0    0  501  0.00000000000E+00  0.00000000000E+00 -0.86896573917E+02  0.86896574063E+02  0.50400001928E-02 0.  1.
    10030    2    1    2    0    0  0.00000000000E+00  0.00000000000E+00  0.63453630565E+03  0.80832945365E+03  0.50075960545E+03 0.  0.
        5    1    3    3  502    0  0.12354460877E+03  0.20940278852E+03  0.22102085779E+03  0.32861087592E+03  0.46999998093E+01 0.  1.
       -5    1    3    3    0  502 -0.12354460877E+03 -0.20940278852E+03  0.41351544786E+03  0.47971857773E+03  0.46999998093E+01 0. -1.
</event>
<event>
 5   0  0.2723308E-02  0.5023179E+03  0.7818609E-02  0.1013176E+00
       -1   -1    0    0    0  501  0.00000000000E+00  0.00000000000E+00  0.18326049350E+03  0.18326049357E+03  0.50400001928E-02 0. -1.
        1   -1    0    0  501    0  0.00000000000E+00  0.00000000000E+00 -0.34421392076E+03  0.34421392080E+03  0.50400001928E-02 0.  1.
    10030    2    1    2    0    0  0.00000000000E+00  0.00000000000E+00 -0.16095342726E+03  0.52747441436E+03  0.50231787949E+03 0.  0.
        4    1    3    3  502    0 -0.92267387113E+02 -0.13175824875E+03 -0.28302448203E+03  0.32554258887E+03  0.12699999809E+01 0.  1.
       -4    1    3    3    0  502  0.92267387113E+02  0.13175824875E+03  0.12207105477E+03  0.20193182550E+03  0.12699999809E+01 0. -1.
</event>
<event>
 5   0  0.2719671E-02  0.4987033E+03  0.7818609E-02  0.1014118E+00
        1   -1    0    0  501    0  0.00000000000E+00  0.00000000000E+00  0.35668821641E+03  0.35668821645E+03  0.50400001928E-02 0. -1.
       -1   -1    0    0    0  501  0.00000000000E+00  0.00000000000E+00 -0.17431536070E+03  0.17431536077E+03  0.50400001928E-02 0.  1.
    10030    2    1    2    0    0  0.00000000000E+00  0.00000000000E+00  0.18237285571E+03  0.53100357722E+03  0.49870325898E+03 0.  0.
        2    1    3    3  502    0  0.10350584010E+03 -0.21214023183E+02  0.33167507099E+03  0.34809746686E+03  0.25500000920E-02 0. -1.
       -2    1    3    3    0  502 -0.10350584010E+03  0.21214023183E+02 -0.14930221527E+03  0.18290611036E+03  0.25500000920E-02 0.  1.
</event>
<event>
 5   0  0.4519539E-02  0.4994604E+03  0.7818609E-02  0.1013920E+00
        2   -1    0    0  501    0  0.00000000000E+00  0.00000000000E+00  0.18307810408E+03  0.18307810410E+03  0.25500000920E-02 0. -1.
       -2   -1    0    0    0  501  0.00000000000E+00  0.00000000000E+00 -0.34064787507E+03  0.34064787508E+03  0.25500000920E-02 0.  1.
    10030    2    1    2    0    0  0.00000000000E+00  0.00000000000E+00 -0.15756977099E+03  0.52372597917E+03  0.49946037734E+03 0.  0.
        4    1    3    3  502    0  0.18766686968E+02 -0.56780561974E+02 -0.33302551620E+03  0.33835458930E+03  0.12699999809E+01 0.  1.
       -4    1    3    3    0  502 -0.18766686968E+02  0.56780561974E+02  0.17545574521E+03  0.18537138988E+03  0.12699999809E+01 0. -1.
</event>
<event>
 5   0  0.4451135E-02  0.5026718E+03  0.7818609E-02  0.1013084E+00
        2   -1    0    0  501    0  0.00000000000E+00  0.00000000000E+00  0.47865550508E+02  0.47865550576E+02  0.25500000920E-02 0. -1.
       -2   -1    0    0    0  501  0.00000000000E+00  0.00000000000E+00 -0.13197329249E+04  0.13197329249E+04  0.25500000920E-02 0.  1.
    10030    2    1    2    0    0  0.00000000000E+00  0.00000000000E+00 -0.12718673744E+04  0.13675984755E+04  0.50267183340E+03 0.  0.
        1    1    3    3  502    0 -0.96577263760E+02  0.53546529197E+02 -0.21670991556E+02  0.11253457498E+03  0.50400001928E-02 0. -1.
       -1    1    3    3    0  502  0.96577263760E+02 -0.53546529197E+02 -0.12501963828E+04  0.12550639005E+04  0.50400001928E-02 0.  1.
</event>
<event>
 5   0  0.2643185E-02  0.5079140E+03  0.7818609E-02  0.1011734E+00
        1   -1    0    0  501    0  0.00000000000E+00  0.00000000000E+00  0.26948546910E+03  0.26948546915E+03  0.50400001928E-02 0. -1.
       -1   -1    0    0    0  501  0.00000000000E+00  0.00000000000E+00 -0.23932333335E+03  0.23932333340E+03  0.50400001928E-02 0.  1.
    10030    2    1    2    0    0  0.00000000000E+00  0.00000000000E+00  0.30162135752E+02  0.50880880255E+03  0.50791401154E+03 0.  0.
        1    1    3    3  502    0 -0.18154088467E+03 -0.17275136825E+03 -0.26150069840E+02  0.25196022349E+03  0.50400001928E-02 0.  1.
       -1    1    3    3    0  502  0.18154088467E+03  0.17275136825E+03  0.56312205591E+02  0.25684857906E+03  0.50400001928E-02 0. -1.
</event>
<event>
 5   0  0.4631619E-02  0.5015123E+03  0.7818609E-02  0.1013385E+00
        2   -1    0    0  501    0  0.00000000000E+00  0.00000000000E+00  0.19056900106E+04  0.19056900106E+04  0.25500000920E-02 0.  1.
       -2   -1    0    0    0  501  0.00000000000E+00  0.00000000000E+00 -0.32995218844E+02  0.32995218943E+02  0.25500000920E-02 0. -1.
    10030    2    1    2    0    0  0.00000000000E+00  0.00000000000E+00  0.18726947918E+04  0.19386852296E+04  0.50151234899E+03 0.  0.
        5    1    3    3  502    0 -0.70209548181E+02 -0.43332715974E+02  0.18515376835E+04  0.18533809614E+04  0.46999998093E+01 0.  1.
       -5    1    3    3    0  502  0.70209548181E+02  0.43332715974E+02  0.21157108303E+02  0.85304268119E+02  0.46999998093E+01 0. -1.
</event>
<event>
 5   0  0.2723308E-02  0.4995558E+03  0.7818609E-02  0.1013895E+00
       -1   -1    0    0    0  501  0.00000000000E+00  0.00000000000E+00  0.23248801691E+03  0.23248801696E+03  0.50400001928E-02 0. -1.
        1   -1    0    0  501    0  0.00000000000E+00  0.00000000000E+00 -0.26835365336E+03  0.26835365341E+03  0.50400001928E-02 0.  1.
    10030    2    1    2    0    0  0.00000000000E+00  0.00000000000E+00 -0.35865636458E+02  0.50084167037E+03  0.49955583762E+03 0.  0.
        4    1    3    3  502    0 -0.20308105354E+03 -0.14499614004E+03 -0.68771550395E+01  0.24962913110E+03  0.12699999809E+01 0.  1.
       -4    1    3    3    0  502  0.20308105354E+03  0.14499614004E+03 -0.28988481419E+02  0.25121253927E+03  0.12699999809E+01 0. -1.
</event>
<event>
 5   0  0.2779445E-02  0.5015469E+03  0.7818609E-02  0.1013376E+00
        1   -1    0    0  501    0  0.00000000000E+00  0.00000000000E+00  0.14744020791E+04  0.14744020791E+04  0.50400001928E-02 0.  1.
       -1   -1    0    0    0  501  0.00000000000E+00  0.00000000000E+00 -0.42652770967E+02  0.42652771265E+02  0.50400001928E-02 0. -1.
    10030    2    1    2    0    0  0.00000000000E+00  0.00000000000E+00  0.14317493082E+04  0.15170548504E+04  0.50154694467E+03 0.  0.
        3    1    3    3  502    0  0.10720733219E+03 -0.12213361783E+02  0.31152520802E+02  0.11230791617E+03  0.10100000352E+00 0. -1.
       -3    1    3    3    0  502 -0.10720733219E+03  0.12213361783E+02  0.14005967874E+04  0.14047469342E+04  0.10100000352E+00 0.  1.
</event>
<event>
 5   0  0.1805500E-02  0.5004492E+03  0.7818609E-02  0.1013662E+00
       -3   -1    0    0    0  501  0.00000000000E+00  0.00000000000E+00  0.29701040267E+03  0.29701041985E+03  0.10100000352E+00 0.  1.
        3   -1    0    0  501    0  0.00000000000E+00  0.00000000000E+00 -0.21080860036E+03  0.21080862456E+03  0.10100000352E+00 0. -1.
    10030    2    1    2    0    0  0.00000000000E+00  0.00000000000E+00  0.86201802314E+02  0.50781904440E+03  0.50044922933E+03 0.  0.
        2    1    3    3  502    0  0.16558109998E+03 -0.15698169618E+03 -0.61134786586E+02  0.23621561283E+03  0.25500000920E-02 0. -1.
       -2    1    3    3    0  502 -0.16558109998E+03  0.15698169618E+03  0.14733658890E+03  0.27160343157E+03  0.25500000920E-02 0.  1.
</event>
<event>
 5   0  0.2719671E-02  0.4987490E+03  0.7818609E-02  0.1014106E+00
        1   -1    0    0  501    0  0.00000000000E+00  0.00000000000E+00  0.45679111546E+03  0.45679111548E+03  0.50400001928E-02 0. -1.
       -1   -1    0    0    0  501  0.00000000000E+00  0.00000000000E+00 -0.13614020235E+03  0.13614020244E+03  0.50400001928E-02 0.  1.
    10030    2    1    2    0    0  0.00000000000E+00  0.00000000000E+00  0.32065091311E+03  0.59293131793E+03  0.49874897464E+03 0.  0.
        2    1    3    3  502    0 -0.98836000308E+02 -0.68586589079E+02 -0.99361212005E+02  0.15602988693E+03  0.25500000920E-02 0.  1.
       -2    1    3    3    0  502  0.98836000308E+02  0.68586589079E+02  0.42001212511E+03  0.43690143099E+03  0.25500000920E-02 0. -1.
</event>
<event>
 5   0  0.1805500E-02  0.5009952E+03  0.7818609E-02  0.1013519E+00
        3   -1    0    0  501    0  0.00000000000E+00  0.00000000000E+00  0.19312272665E+03  0.19312275306E+03  0.10100000352E+00 0. -1.
       -3   -1    0    0    0  501  0.00000000000E+00  0.00000000000E+00 -0.32491792451E+03  0.32491794021E+03  0.10100000352E+00 0.  1.
    10030    2    1    2    0    0  0.00000000000E+00  0.00000000000E+00 -0.13179519786E+03  0.51804069327E+03  0.50099519530E+03 0.  0.
        4    1    3    3  502    0  0.40622263868E+02  0.15660123680E+02  0.18917736573E+03  0.19412649588E+03  0.12699999809E+01 0. -1.
       -4    1    3    3    0  502 -0.40622263868E+02 -0.15660123680E+02 -0.32097256359E+03  0.32391419740E+03  0.12699999809E+01 0.  1.
</event>
<event>
 5   0  0.4519539E-02  0.4971835E+03  0.7818609E-02  0.1014517E+00
        2   -1    0    0  501    0  0.00000000000E+00  0.00000000000E+00  0.19733988251E+04  0.19733988251E+04  0.25500000920E-02 0.  1.
       -2   -1    0    0    0  501  0.00000000000E+00  0.00000000000E+00 -0.31315441060E+02  0.31315441164E+02  0.25500000920E-02 0. -1.
    10030    2    1    2    0    0  0.00000000000E+00  0.00000000000E+00  0.19420833841E+04  0.20047142663E+04  0.49718348606E+03 0.  0.
        4    1    3    3  502    0 -0.99419546879E+02 -0.18113017425E+03  0.41373238237E+03  0.46245916949E+03  0.12699999809E+01 0. -1.
       -4    1    3    3    0  502  0.99419546879E+02  0.18113017425E+03  0.15283510017E+04  0.15422550968E+04  0.12699999809E+01 0.  1.
</event>
<event>
 5   0  0.2643185E-02  0.5007774E+03  0.7818609E-02  0.1013576E+00
       -1   -1    0    0    0  501  0.00000000000E+00  0.00000000000E+00  0.11113075082E+03  0.11113075093E+03  0.50400001928E-02 0.  1.
        1   -1    0    0  501    0  0.00000000000E+00  0.00000000000E+00 -0.56415088626E+03  0.56415088628E+03  0.50400001928E-02 0. -1.
    10030    2    1    2    0    0  0.00000000000E+00  0.00000000000E+00 -0.45302013544E+03  0.67528163721E+03  0.50077744202E+03 0.  0.
        1    1    3    3  502    0  0.22207576376E+03  0.10043519086E+03 -0.30385187477E+03  0.38952642303E+03  0.50400001928E-02 0. -1.
       -1    1    3    3    0  502 -0.22207576376E+03 -0.10043519086E+03 -0.14916826067E+03  0.28575521418E+03  0.50400001928E-02 0.  1.
</event>
<event>
 5   0  0.2779445E-02  0.4976245E+03  0.7818609E-02  0.1014401E+00
       -1   -1    0    0    0  501  0.00000000000E+00  0.00000000000E+00  0.12468146585E+03  0.12468146596E+03  0.50400001928E-02 0.  1.
        1   -1    0    0  501    0  0.00000000000E+00  0.00000000000E+00 -0.49652551142E+03  0.49652551144E+03  0.50400001928E-02 0. -1.
    10030    2    1    2    0    0  0.00000000000E+00  0.00000000000E+00 -0.37184404556E+03  0.62120697740E+03  0.49762447141E+03 0.  0.
        3    1    3    3  502    0 -0.14149564105E+03  0.18985553180E+03 -0.90512375586E+02  0.25349287905E+03  0.10100000352E+00 0.  1.
       -3    1    3    3    0  502  0.14149564105E+03 -0.18985553180E+03 -0.28133166998E+03  0.36771409835E+03  0.10100000352E+00 0. -1.
</event>
<event>
 5   0  0.4534223E-02  0.5000437E+03  0.7818609E-02  0.1013768E+00
       -2   -1    0    0    0  501  0.00000000000E+00  0.00000000000E+00  0.50109328514E+02  0.50109328579E+02  0.25500000920E-02 0. -1.
        2   -1    0    0  501    0  0.00000000000E+00  0.00000000000E+00 -0.12474905558E+04  0.12474905558E+04  0.25500000920E-02 0.  1.
    10030    2    1    2    0    0  0.00000000000E+00  0.00000000000E+00 -0.11973812272E+04  0.12975998843E+04  0.50004365457E+03 0.  0.
        2    1    3    3  502    0 -0.20754031494E+03 -0.13934888026E+03 -0.61024374129E+03  0.65946077711E+03  0.25500000920E-02 0. -1.
       -2    1    3    3    0  502  0.20754031494E+03  0.13934888026E+03 -0.58713748595E+03  0.63813910722E+03  0.25500000920E-02 0.  1.
</event>
<event>
 5   0  0.4519539E-02  0.5015496E+03  0.7818609E-02  0.1013375E+00
        2   -1    0    0  501    0  0.00000000000E+00  0.00000000000E+00  0.69200789765E+02  0.69200789812E+02  0.25500000920E-02 0. -1.
       -2   -1    0    0    0  501  0.00000000000E+00  0.00000000000E+00 -0.90877586281E+03  0.90877586281E+03  0.25500000920E-02 0.  1.
    10030    2    1    2    0    0  0.00000000000E+00  0.00000000000E+00 -0.83957507304E+03  0.97797665262E+03  0.50154962845E+03 0.  0.
        4    1    3    3  502    0 -0.12310872279E+02  0.68087805723E+02 -0.88978821278E+03  0.89247531247E+03  0.12699999809E+01 0.  1.
       -4    1    3    3    0  502  0.12310872279E+02 -0.68087805723E+02  0.50213139743E+02  0.85501340149E+02  0.12699999809E+01 0. -1.
</event>
<event>
 5   0  0.2715483E-02  0.4991642E+03  0.7818609E-02  0.1013997E+00
       -1   -1    0    0    0  501  0.00000000000E+00  0.00000000000E+00  0.13146182841E+03  0.13146182851E+03  0.50400001928E-02 0.  1.
        1   -1    0    0  501    0  0.00000000000E+00  0.00000000000E+00 -0.47383500480E+03  0.47383500483E+03  0.50400001928E-02 0. -1.
    10030    2    1    2    0    0  0.00000000000E+00  0.00000000000E+00 -0.34237317639E+03  0.60529683334E+03  0.49916416592E+03 0.  0.
        5    1    3    3  502    0 -0.58820225815E+02  0.20119823366E+03 -0.70182558145E+01  0.20979011918E+03  0.46999998093E+01 0.  1.
       -5    1    3    3    0  502  0.58820225815E+02 -0.20119823366E+03 -0.33535492058E+03  0.39550671416E+03  0.46999998093E+01 0. -1.
</event>
<event>
 5   0  0.4519539E-02  0.4987126E+03  0.7818609E-02  0.1014116E+00
       -2   -1    0    0    0  501  0.00000000000E+00  0.00000000000E+00  0.14366703016E+03  0.14366703019E+03  0.25500000920E-02 0.  1.
        2   -1    0    0  501    0  0.00000000000E+00  0.00000000000E+00 -0.43279627621E+03  0.43279627622E+03  0.25500000920E-02 0. -1.
    10030    2    1    2    0    0  0.00000000000E+00  0.00000000000E+00 -0.28912924605E+03  0.57646330640E+03  0.49871256522E+03 0.  0.
        4    1    3    3  502    0  0.67490462195E+02  0.23935019571E+03 -0.12345668045E+03  0.27764481540E+03  0.12699999809E+01 0.  1.
       -4    1    3    3    0  502 -0.67490462195E+02 -0.23935019571E+03 -0.16567256560E+03  0.29881849100E+03  0.12699999809E+01 0. -1.
</event>
<event>
 5   0  0.2719671E-02  0.4994075E+03  0.7818609E-02  0.1013934E+00
       -1   -1    0    0    0  501  0.00000000000E+00  0.00000000000E+00  0.76033697359E+02  0.76033697526E+02  0.50400001928E-02 0.  1.
        1   -1    0    0  501    0  0.00000000000E+00  0.00000000000E+00 -0.82005680944E+03  0.82005680945E+03  0.50400001928E-02 0. -1.
    10030    2    1    2    0    0  0.00000000000E+00  0.00000000000E+00 -0.74402311208E+03  0.89609050698E+03  0.49940745428E+03 0.  0.
        2    1    3    3  502    0  0.18739528269E+03  0.31442985475E+02 -0.66270208626E+03  0.68940532958E+03  0.25500000920E-02 0. -1.
       -2    1    3    3    0  502 -0.18739528269E+03 -0.31442985475E+02 -0.81321025817E+02  0.20668517740E+03  0.25500000920E-02 0.  1.
</event>
<event>
 5   0  0.4631619E-02  0.4997349E+03  0.7818609E-02  0.1013848E+00
       -2   -1    0    0    0  501  0.00000000000E+00  0.00000000000E+00  0.54342324869E+03  0.54342324870E+03  0.25500000920E-02 0.  1.
        2   -1    0    0  501    0  0.00000000000E+00  0.00000000000E+00 -0.11488969992E+03  0.11488969995E+03  0.25500000920E-02 0. -1.
    10030    2    1    2    0    0  0.00000000000E+00  0.00000000000E+00  0.42853354877E+03  0.65831294865E+03  0.49973486564E+03 0.  0.
        5    1    3    3  502    0  0.22024946909E+02  0.94247451868E+02  0.51766338926E+03  0.52665468292E+03  0.46999998093E+01 0.  1.
       -5    1    3    3    0  502 -0.22024946909E+02 -0.94247451868E+02 -0.89129840488E+02  0.13165826572E+03  0.46999998093E+01 0. -1.
</event>
<event>
 5   0  0.2719671E-02  0.4977487E+03  0.7818609E-02  0.1014368E+00
       -1   -1    0    0    0  501  0.00000000000E+00  0.00000000000E+00  0.27670386433E+03  0.27670386437E+03  0.50400001928E-02 0.  1.
        1   -1    0    0  501    0  0.00000000000E+00  0.00000000000E+00 -0.22384381330E+03  0.22384381336E+03  0.50400001928E-02 0. -1.
    10030    2    1    2    0    0  0.00000000000E+00  0.00000000000E+00  0.52860051024E+02  0.50054767773E+03  0.49774872445E+03 0.  0.
        2    1    3    3  502    0  0.15574189492E+03  0.14410095156E+03 -0.10436992306E+03  0.23646078516E+03  0.25500000920E-02 0. -1.
       -2    1    3    3    0  502 -0.15574189492E+03 -0.14410095156E+03  0.15722997408E+03  0.26408689257E+03  0.25500000920E-02 0.  1.
</event>
<event>
 5   0  0.4409622E-02  0.5009838E+03  0.7818609E-02  0.1013522E+00
        2   -1    0    0  501    0  0.00000000000E+00  0.00000000000E+00  0.12587588960E+04  0.12587588960E+04  0.25500000920E-02 0. -1.
       -2   -1    0    0    0  501  0.00000000000E+00  0.00000000000E+00 -0.49847657987E+02  0.49847658053E+02  0.25500000920E-02 0.  1.
    10030    2    1    2    0    0  0.00000000000E+00  0.00000000000E+00  0.12089112380E+04  0.13086065541E+04  0.50098376413E+03 0.  0.
        3    1    3    3  502    0  0.20617279725E+03  0.37398125086E+02  0.24592215233E+03  0.32308444297E+03  0.10100000352E+00 0. -1.
       -3    1    3    3    0  502 -0.20617279725E+03 -0.37398125086E+02  0.96298908569E+03  0.98552211109E+03  0.10100000352E+00 0.  1.
</event>
<event>
 5   0  0.1805500E-02  0.5059930E+03  0.7818609E-02  0.1012226E+00
        4   -1    0    0  501    0  0.00000000000E+00  0.00000000000E+00  0.25043628236E+03  0.25043950252E+03  0.12699999809E+01 0.  1.
       -4   -1    0    0    0  501  0.00000000000E+00  0.00000000000E+00 -0.25557640568E+03  0.25557956108E+03  0.12699999809E+01 0. -1.
    10030    2    1    2    0    0  0.00000000000E+00  0.00000000000E+00 -0.51401233185E+01  0.50601906360E+03  0.50599295633E+03 0.  0.
        4    1    3    3  502    0 -0.15759692272E+03 -0.70335385184E+02  0.18243069540E+03  0.25113030081E+03  0.12699999809E+01 0.  1.
       -4    1    3    3    0  502  0.15759692272E+03  0.70335385184E+02 -0.18757081872E+03  0.25488876279E+03  0.12699999809E+01 0. -1.
</event>
<event>
 5   0  0.4534223E-02  0.5007428E+03  0.7818609E-02  0.1013585E+00
        2   -1    0    0  501    0  0.00000000000E+00  0.00000000000E+00  0.38180992497E+03  0.38180992498E+03  0.25500000920E-02 0. -1.
       -2   -1    0    0    0  501  0.00000000000E+00  0.00000000000E+00 -0.16418071825E+03  0.16418071827E+03  0.25500000920E-02 0.  1.
    10030    2    1    2    0    0  0.00000000000E+00  0.00000000000E+00  0.21762920672E+03  0.54599064325E+03  0.50074275921E+03 0.  0.
        2    1    3    3  502    0 -0.16072037269E+03 -0.12037094756E+03  0.27187970921E+03  0.33799227729E+03  0.25500000920E-02 0. -1.
       -2    1    3    3    0  502  0.16072037269E+03  0.12037094756E+03 -0.54250502493E+02  0.20799836596E+03  0.25500000920E-02 0.  1.
</event>
<event>
 5   0  0.2715483E-02  0.5000147E+03  0.7818609E-02  0.1013775E+00
        1   -1    0    0  501    0  0.00000000000E+00  0.00000000000E+00  0.35816257667E+03  0.35816257670E+03  0.50400001928E-02 0.  1.
       -1   -1    0    0    0  501  0.00000000000E+00  0.00000000000E+00 -0.17451200066E+03  0.17451200073E+03  0.50400001928E-02 0. -1.
    10030    2    1    2    0    0  0.00000000000E+00  0.00000000000E+00  0.18365057601E+03  0.53267457744E+03  0.50001467117E+03 0.  0.
        5    1    3    3  502    0  0.12761228238E+03  0.15053302782E+03  0.25526217371E+03  0.32268553486E+03  0.46999998093E+01 0.  1.
       -5    1    3    3    0  502 -0.12761228238E+03 -0.15053302782E+03 -0.71611597704E+02  0.20998904258E+03  0.46999998093E+01 0. -1.
</event>
<event>
 5   0  0.4519539E-02  0.5002380E+03  0.7818609E-02  0.1013717E+00
       -2   -1    0    0    0  501  0.00000000000E+00  0.00000000000E+00  0.32066767209E+02  0.32066767310E+02  0.25500000920E-02 0.  1.
        2   -1    0    0  501    0  0.00000000000E+00  0.00000000000E+00 -0.19509139946E+04  0.19509139946E+04  0.25500000920E-02 0. -1.
    10030    2    1    2    0    0  0.00000000000E+00  0.00000000000E+00 -0.19188472274E+04  0.19829807619E+04  0.50023796342E+03 0.  0.
        4    1    3    3  502    0  0.44325632372E+02 -0.97643044112E+02 -0.18551551456E+04  0.18582521768E+04  0.12699999809E+01 0. -1.
       -4    1    3    3    0  502 -0.44325632372E+02  0.97643044112E+02 -0.63692081860E+02  0.12472858510E+03  0.12699999809E+01 0.  1.
</event>
<event>
 5   0  0.4631619E-02  0.4992682E+03  0.7818609E-02  0.1013970E+00
       -2   -1    0    0    0  501  0.00000000000E+00  0.00000000000E+00  0.22745752610E+02  0.22745752753E+02  0.25500000920E-02 0. -1.
        2   -1    0    0  501    0  0.00000000000E+00  0.00000000000E+00 -0.27397286195E+04  0.27397286195E+04  0.25500000920E-02 0.  1.
    10030    2    1    2    0    0  0.00000000000E+00  0.00000000000E+00 -0.27169828669E+04  0.27624743722E+04  0.49926822289E+03 0.  0.
        5    1    3    3  502    0 -0.62557262643E+02  0.14675678888E+03 -0.29643277087E+03  0.33666815091E+03  0.46999998093E+01 0. -1.
       -5    1    3    3    0  502  0.62557262643E+02 -0.14675678888E+03 -0.24205500960E+04  0.24258062213E+04  0.46999998093E+01 0.  1.
</event>
<event>
 5   0  0.2723308E-02  0.5067716E+03  0.7818609E-02  0.1012026E+00
        1   -1    0    0  501    0  0.00000000000E+00  0.00000000000E+00  0.99461009810E+02  0.99461009938E+02  0.50400001928E-02 0.  1.
       -1   -1    0    0    0  501  0.00000000000E+00  0.00000000000E+00 -0.64552287152E+03  0.64552287154E+03  0.50400001928E-02 0. -1.
    10030    2    1    2    0    0  0.00000000000E+00  0.00000000000E+00 -0.54606186171E+03  0.74498388148E+03  0.50677157265E+03 0.  0.
        4    1    3    3  502    0 -0.12188002212E+03  0.19797325989E+03 -0.42116872685E+03  0.48107469358E+03  0.12699999809E+01 0. -1.
       -4    1    3    3    0  502  0.12188002212E+03 -0.19797325989E+03 -0.12489313486E+03  0.26390918790E+03  0.12699999809E+01 0.  1.
</event>
<event>
 5   0  0.1805500E-02  0.4998605E+03  0.7818609E-02  0.1013815E+00
       -4   -1    0    0    0  501  0.00000000000E+00  0.00000000000E+00  0.25017983396E+03  0.25018305742E+03  0.12699999809E+01 0.  1.
        4   -1    0    0  501    0  0.00000000000E+00  0.00000000000E+00 -0.24967449299E+03  0.24967772297E+03  0.12699999809E+01 0. -1.
    10030    2    1    2    0    0  0.00000000000E+00  0.00000000000E+00  0.50534096849E+00  0.49986078039E+03  0.49986052495E+03 0.  0.
        1    1    3    3  502    0  0.20623514970E+03 -0.84145308121E+02  0.11361835911E+03  0.25004499876E+03  0.50400001928E-02 0. -1.
       -1    1    3    3    0  502 -0.20623514970E+03  0.84145308121E+02 -0.11311301814E+03  0.24981578163E+03  0.50400001928E-02 0.  1.
</event>
<event>
 5   0  0.4631619E-02  0.4995699E+03  0.7818609E-02  0.1013891E+00
       -2   -1    0    0    0  501  0.00000000000E+00  0.00000000000E+00  0.83273838200E+02  0.83273838239E+02  0.25500000920E-02 0. -1.
        2   -1    0    0  501    0  0.00000000000E+00  0.00000000000E+00 -0.74924504527E+03  0.74924504528E+03  0.25500000920E-02 0.  1.
    10030    2    1    2    0    0  0.00000000000E+00  0.00000000000E+00 -0.66597120707E+03  0.83251888352E+03  0.49956985774E+03 0.  0.
        5    1    3    3  502    0  0.77343757701E+02  0.13559549479E+03 -0.81210087991E+01  0.15638489648E+03  0.46999998093E+01 0. -1.
       -5    1    3    3    0  502 -0.77343757701E+02 -0.13559549479E+03 -0.65785019827E+03  0.67613398704E+03  0.46999998093E+01 0.  1.
</event>
<event>
 5   0  0.2779445E-02  0.5060651E+03  0.7818609E-02  0.1012208E+00
        1   -1    0    0  501    0  0.00000000000E+00  0.00000000000E+00  0.14338225814E+04  0.14338225814E+04  0.50400001928E-02 0. -1.
       -1   -1    0    0    0  501  0.00000000000E+00  0.00000000000E+00 -0.44653697889E+02  0.44653698174E+02  0.50400001928E-02 0.  1.
    10030    2    1    2    0    0  0.00000000000E+00  0.00000000000E+00  0.13891688835E+04  0.14784762796E+04  0.50606513649E+03 0.  0.
        3    1    3    3  502    0  0.22178682761E+03  0.19604961410E+02  0.10457951072E+04  0.10692339163E+04  0.10100000352E+00 0. -1.
       -3    1    3    3    0  502 -0.22178682761E+03 -0.19604961410E+02  0.34337377631E+03  0.40924236324E+03  0.10100000352E+00 0.  1.
</event>
<event>
 5   0  0.4451135E-02  0.4998980E+03  0.7818609E-02  0.1013806E+00
        2   -1    0    0  501    0  0.00000000000E+00  0.00000000000E+00  0.35309993786E+03  0.35309993786E+03  0.25500000920E-02 0.  1.
       -2   -1    0    0    0  501  0.00000000000E+00  0.00000000000E+00 -0.17693146831E+03  0.17693146833E+03  0.25500000920E-02 0. -1.
    10030    2    1    2    0    0  0.00000000000E+00  0.00000000000E+00  0.17616846954E+03  0.53003140619E+03  0.49989795148E+03 0.  0.
        1    1    3    3  502    0 -0.17537796551E+03  0.96383560522E+02  0.24686885771E+03  0.31779152672E+03  0.50400001928E-02 0.  1.
       -1    1    3    3    0  502  0.17537796551E+03 -0.96383560522E+02 -0.70700388168E+02  0.21223987947E+03  0.50400001928E-02 0. -1.
</event>
<event>
 5   0  0.2643185E-02  0.5013761E+03  0.7818609E-02  0.1013420E+00
        1   -1    0    0  501    0  0.00000000000E+00  0.00000000000E+00  0.12728656048E+03  0.12728656058E+03  0.50400001928E-02 0.  1.
       -1   -1    0    0    0  501  0.00000000000E+00  0.00000000000E+00 -0.49372444445E+03  0.49372444447E+03  0.50400001928E-02 0. -1.
    10030    2    1    2    0    0  0.00000000000E+00  0.00000000000E+00 -0.36643788397E+03  0.62101100505E+03  0.50137605207E+03 0.  0.
        1    1    3    3  502    0  0.23519312401E+03 -0.55767518874E+02 -0.10088455993E+03  0.26192272945E+03  0.50400001928E-02 0.  1.
       -1    1    3    3    0  502 -0.23519312401E+03  0.55767518874E+02 -0.26555332404E+03  0.35908827561E+03  0.50400001928E-02 0. -1.
</event>
<event>
 5   0  0.4451135E-02  0.5024761E+03  0.7818609E-02  0.1013135E+00
        2   -1    0    0  501    0  0.00000000000E+00  0.00000000000E+00  0.78879287519E+03  0.78879287519E+03  0.25500000920E-02 0.  1.
       -2   -1    0    0    0  501  0.00000000000E+00  0.00000000000E+00 -0.80021712381E+02  0.80021712421E+02  0.25500000920E-02 0. -1.
    10030    2    1    2    0    0  0.00000000000E+00  0.00000000000E+00  0.70877116281E+03  0.86881458761E+03  0.50247609537E+03 0.  0.
        1    1    3    3  502    0 -0.23250502645E+03  0.69683338248E+02  0.46652459770E+03  0.52588929942E+03  0.50400001928E-02 0.  1.
       -1    1    3    3    0  502  0.23250502645E+03 -0.69683338248E+02  0.24224656511E+03  0.34292528820E+03  0.50400001928E-02 0. -1.
</event>
<event>
 5   0  0.4451135E-02  0.5023990E+03  0.7818609E-02  0.1013155E+00
        2   -1    0    0  501    0  0.00000000000E+00  0.00000000000E+00  0.14712079119E+04  0.14712079119E+04  0.25500000920E-02 0.  1.
       -2   -1    0    0    0  501  0.00000000000E+00  0.00000000000E+00 -0.42890728374E+02  0.42890728450E+02  0.25500000920E-02 0. -1.
    10030    2    1    2    0    0  0.00000000000E+00  0.00000000000E+00  0.14283171835E+04  0.15140986403E+04  0.50239896094E+03 0.  0.
        1    1    3    3  502    0  0.15954188737E+03 -0.63382600712E+02  0.12668341180E+04  0.12784129420E+04  0.50400001928E-02 0.  1.
       -1    1    3    3    0  502 -0.15954188737E+03  0.63382600712E+02  0.16148306553E+03  0.23568569828E+03  0.50400001928E-02 0. -1.
</event>
<event>
 5   0  0.4631619E-02  0.5104234E+03  0.7818609E-02  0.1011093E+00
       -2   -1    0    0    0  501  0.00000000000E+00  0.00000000000E+00  0.79893014745E+03  0.79893014746E+03  0.25500000920E-02 0. -1.
        2   -1    0    0  501    0  0.00000000000E+00  0.00000000000E+00 -0.81525296580E+02  0.81525296620E+02  0.25500000920E-02 0.  1.
    10030    2    1    2    0    0  0.00000000000E+00  0.00000000000E+00  0.71740485087E+03  0.88045544408E+03  0.51042342124E+03 0.  0.
        5    1    3    3  502    0 -0.60389217018E+02 -0.14809224865E+03  0.15733057754E+02  0.16077248131E+03  0.46999998093E+01 0.  1.
       -5    1    3    3    0  502  0.60389217018E+02  0.14809224865E+03  0.70167179312E+03  0.71968296277E+03  0.46999998093E+01 0. -1.
</event>
<event>
 5   0  0.4409622E-02  0.4995368E+03  0.7818609E-02  0.1013900E+00
        2   -1    0    0  501    0  0.00000000000E+00  0.00000000000E+00  0.58264916461E+03  0.58264916461E+03  0.25500000920E-02 0. -1.
       -2   -1    0    0    0  501  0.00000000000E+00  0.00000000000E+00 -0.10707002640E+03  0.10707002643E+03  0.25500000920E-02 0.  1.
    10030    2    1    2    0    0  0.00000000000E+00  0.00000000000E+00  0.47557913821E+03  0.68971919105E+03  0.49953683128E+03 0.  0.
        3    1    3    3  502    0 -0.24208589175E+02 -0.24797641740E+03  0.26193799164E+03  0.36151055453E+03  0.10100000352E+00 0.  1.
       -3    1    3    3    0  502  0.24208589175E+02  0.24797641740E+03  0.21364114657E+03  0.32820863651E+03  0.10100000352E+00 0. -1.
</event>
<event>
 5   0  0.2719671E-02  0.5007014E+03  0.7818609E-02  0.1013596E+00
       -1   -1    0    0    0  501  0.00000000000E+00  0.00000000000E+00  0.13858427124E+03  0.13858427133E+03  0.50400001928E-02 0. -1.
        1   -1    0    0  501    0  0.00000000000E+00  0.00000000000E+00 -0.45225533950E+03  0.45225533952E+03  0.50400001928E-02 0.  1.
    10030    2    1    2    0    0  0.00000000000E+00  0.00000000000E+00 -0.31367106826E+03  0.59083961085E+03  0.50070141471E+03 0.  0.
        2    1    3    3  502    0  0.49635724051E+02  0.84890293368E+02 -0.42851128910E+03  0.43964985148E+03  0.25500000920E-02 0.  1.
       -2    1    3    3    0  502 -0.49635724051E+02 -0.84890293368E+02  0.11484022084E+03  0.15118975938E+03  0.25500000920E-02 0. -1.
</event>
<event>
 5   0  0.2779445E-02  0.5010236E+03  0.7818609E-02  0.1013512E+00
       -1   -1    0    0    0  501  0.00000000000E+00  0.00000000000E+00  0.93375406357E+02  0.93375406493E+02  0.50400001928E-02 0. -1.
        1   -1    0    0  501    0  0.00000000000E+00  0.00000000000E+00 -0.67208444472E+03  0.67208444474E+03  0.50400001928E-02 0.  1.
    10030    2    1    2    0    0  0.00000000000E+00  0.00000000000E+00 -0.57870903836E+03  0.76545985123E+03  0.50102358504E+03 0.  0.
        3    1    3    3  502    0  0.11610799741E+03 -0.14204556251E+03 -0.54996798646E+03  0.57976098974E+03  0.10100000352E+00 0.  1.
       -3    1    3    3    0  502 -0.11610799741E+03  0.14204556251E+03 -0.28741051896E+02  0.18569886149E+03  0.10100000352E+00 0. -1.
</event>
<event>
 5   0  0.2715483E-02  0.4998159E+03  0.7818609E-02  0.1013827E+00
        1   -1    0    0  501    0  0.00000000000E+00  0.00000000000E+00  0.11275048328E+03  0.11275048339E+03  0.50400001928E-02 0.  1.
       -1   -1    0    0    0  501  0.00000000000E+00  0.00000000000E+00 -0.55391317072E+03  0.55391317075E+03  0.50400001928E-02 0. -1.
    10030    2    1    2    0    0  0.00000000000E+00  0.00000000000E+00 -0.44116268744E+03  0.66666365414E+03  0.49981587706E+03 0.  0.
        5    1    3    3  502    0  0.31091455152E+02 -0.18507172757E+03 -0.44061557299E+03  0.47893882291E+03  0.46999998093E+01 0.  1.
       -5    1    3    3    0  502 -0.31091455152E+02  0.18507172757E+03 -0.54711445097E+00  0.18772483123E+03  0.46999998093E+01 0. -1.
</event>
<event>
 5   0  0.1805500E-02  0.4998666E+03  0.7818609E-02  0.1013814E+00
        3   -1    0    0  501    0  0.00000000000E+00  0.00000000000E+00  0.59319942135E+02  0.59320028118E+02  0.10100000352E+00 0. -1.
       -3   -1    0    0    0  501  0.00000000000E+00  0.00000000000E+00 -0.10530456752E+04  0.10530456801E+04  0.10100000352E+00 0.  1.
    10030    2    1    2    0    0  0.00000000000E+00  0.00000000000E+00 -0.99372573310E+03  0.11123657082E+04  0.49986661836E+03 0.  0.
        4    1    3    3  502    0  0.10628787497E+03  0.14868857149E+03 -0.87621155811E+03  0.89507190276E+03  0.12699999809E+01 0.  1.
       -4    1    3    3    0  502 -0.10628787497E+03 -0.14868857149E+03 -0.11751417500E+03  0.21729380544E+03  0.12699999809E+01 0. -1.
</event>
<event>
 5   0  0.2719671E-02  0.4968424E+03  0.7818609E-02  0.1014606E+00
       -1   -1    0    0    0  501  0.00000000000E+00  0.00000000000E+00  0.17143736003E+03  0.17143736010E+03  0.50400001928E-02 0.  1.
        1   -1    0    0  501    0  0.00000000000E+00  0.00000000000E+00 -0.35997456675E+03  0.35997456679E+03  0.50400001928E-02 0. -1.
    10030    2    1    2    0    0  0.00000000000E+00  0.00000000000E+00 -0.18853720672E+03  0.53141192689E+03  0.49684238720E+03 0.  0.
        2    1    3    3  502    0  0.15500807775E+03  0.10276316688E+03 -0.27042566887E+03  0.32820392293E+03  0.25500000920E-02 0. -1.
       -2    1    3    3    0  502 -0.15500807775E+03 -0.10276316688E+03  0.81888462146E+02  0.20320800396E+03  0.25500000920E-02 0.  1.
</event>
<event>
 5   0  0.1805500E-02  0.5339944E+03  0.7818609E-02  0.1005268E+00
       -3   -1    0    0    0  501  0.00000000000E+00  0.00000000000E+00  0.14183220868E+03  0.14183224464E+03  0.10100000352E+00 0. -1.
        3   -1    0    0  501    0  0.00000000000E+00  0.00000000000E+00 -0.50261841300E+03  0.50261842315E+03  0.10100000352E+00 0.  1.
    10030    2    1    2    0    0  0.00000000000E+00  0.00000000000E+00 -0.36078620433E+03  0.64445066779E+03  0.53399436138E+03 0.  0.
        5    1    3    3  502    0  0.24022993399E+03  0.49018915347E+01 -0.40009226520E+02  0.24363349099E+03  0.46999998093E+01 0. -1.
       -5    1    3    3    0  502 -0.24022993399E+03 -0.49018915347E+01 -0.32077697781E+03  0.40081717680E+03  0.46999998093E+01 0.  1.
</event>
<event>
 5   0  0.2643185E-02  0.4992389E+03  0.7818609E-02  0.1013978E+00
        1   -1    0    0  501    0  0.00000000000E+00  0.00000000000E+00  0.15364450873E+03  0.15364450882E+03  0.50400001928E-02 0. -1.
       -1   -1    0    0    0  501  0.00000000000E+00  0.00000000000E+00 -0.40554570178E+03  0.40554570182E+03  0.50400001928E-02 0.  1.
    10030    2    1    2    0    0  0.00000000000E+00  0.00000000000E+00 -0.25190119305E+03  0.55919021063E+03  0.49923890134E+03 0.  0.
        1    1    3    3  502    0 -0.12297140968E+03  0.15829995932E+03  0.40671381122E+02  0.20453607503E+03  0.50400001928E-02 0. -1.
       -1    1    3    3    0  502  0.12297140968E+03 -0.15829995932E+03 -0.29257257417E+03  0.35465413561E+03  0.50400001928E-02 0.  1.
</event>
<event>
 5   0  0.4451135E-02  0.4988579E+03  0.7818609E-02  0.1014077E+00
       -2   -1    0    0    0  501  0.00000000000E+00  0.00000000000E+00  0.11372963054E+03  0.11372963057E+03  0.25500000920E-02 0. -1.
        2   -1    0    0  501    0  0.00000000000E+00  0.00000000000E+00 -0.54704135067E+03  0.54704135068E+03  0.25500000920E-02 0.  1.
    10030    2    1    2    0    0  0.00000000000E+00  0.00000000000E+00 -0.43331172013E+03  0.66077098124E+03  0.49885793854E+03 0.  0.
        1    1    3    3  502    0  0.16440639199E+03  0.33207818473E+02 -0.46119048837E+03  0.49074319916E+03  0.50400001928E-02 0.  1.
       -1    1    3    3    0  502 -0.16440639199E+03 -0.33207818473E+02  0.27878768234E+02  0.17002778208E+03  0.50400001928E-02 0. -1.
</event>
<event>
 5   0  0.2779445E-02  0.4944316E+03  0.7818609E-02  0.1015243E+00
        1   -1    0    0  501    0  0.00000000000E+00  0.00000000000E+00  0.39823078801E+03  0.39823078805E+03  0.50400001928E-02 0.  1.
       -1   -1    0    0    0  501  0.00000000000E+00  0.00000000000E+00 -0.15346790326E+03  0.15346790335E+03  0.50400001928E-02 0. -1.
    10030    2    1    2    0    0  0.00000000000E+00  0.00000000000E+00  0.24476288475E+03  0.55169869139E+03  0.49443156891E+03 0.  0.
        3    1    3    3  502    0 -0.11834712522E+03 -0.32297862635E+01 -0.11977852193E+03  0.16841430487E+03  0.10100000352E+00 0. -1.
       -3    1    3    3    0  502  0.11834712522E+03  0.32297862635E+01  0.36454140668E+03  0.38328438652E+03  0.10100000352E+00 0.  1.
</event>
<event>
 5   0  0.4534223E-02  0.4998261E+03  0.7818609E-02  0.1013824E+00
        2   -1    0    0  501    0  0.00000000000E+00  0.00000000000E+00  0.36403595483E+03  0.36403595484E+03  0.25500000920E-02 0.  1.
       -2   -1    0    0    0  501  0.00000000000E+00  0.00000000000E+00 -0.17156695649E+03  0.17156695651E+03  0.25500000920E-02 0. -1.
    10030    2    1    2    0    0  0.00000000000E+00  0.00000000000E+00  0.19246899834E+03  0.53560291135E+03  0.49982613310E+03 0.  0.
        2    1    3    3  502    0  0.18882508418E+03  0.77970095747E+02  0.25049078507E+03  0.32323347855E+03  0.25500000920E-02 0. -1.
       -2    1    3    3    0  502 -0.18882508418E+03 -0.77970095747E+02 -0.58021786733E+02  0.21236943280E+03  0.25500000920E-02 0.  1.
</event>
<event>
 5   0  0.2715483E-02  0.4998225E+03  0.7818609E-02  0.1013825E+00
       -1   -1    0    0    0  501  0.00000000000E+00  0.00000000000E+00  0.16562827243E+04  0.16562827243E+04  0.50400001928E-02 0.  1.
        1   -1    0    0  501    0  0.00000000000E+00  0.00000000000E+00 -0.37708315579E+02  0.37708315916E+02  0.50400001928E-02 0. -1.
    10030    2    1    2    0    0  0.00000000000E+00  0.00000000000E+00  0.16185744088E+04  0.16939910403E+04  0.49982249629E+03 0.  0.
        5    1    3    3  502    0  0.18529334363E+03 -0.55101993830E+02  0.27272780578E+03  0.33432379359E+03  0.46999998093E+01 0. -1.
       -5    1    3    3    0  502 -0.18529334363E+03  0.55101993830E+02  0.13458466030E+04  0.13596672467E+04  0.46999998093E+01 0.  1.
</event>
<event>
 5   0  0.4519539E-02  0.5015018E+03  0.7818609E-02  0.1013388E+00
       -2   -1    0    0    0  501  0.00000000000E+00  0.00000000000E+00  0.20917655151E+03  0.20917655153E+03  0.25500000920E-02 0. -1.
        2   -1    0    0  501    0  0.00000000000E+00  0.00000000000E+00 -0.30058828166E+03  0.30058828167E+03  0.25500000920E-02 0.  1.
    10030    2    1    2    0    0  0.00000000000E+00  0.00000000000E+00 -0.91411730149E+02  0.50976483319E+03  0.50150182527E+03 0.  0.
        4    1    3    3  502    0  0.97480176703E+01  0.91184086221E+02 -0.28292815463E+03  0.29742144343E+03  0.12699999809E+01 0.  1.
       -4    1    3    3    0  502 -0.97480176703E+01 -0.91184086221E+02  0.19151642449E+03  0.21234338976E+03  0.12699999809E+01 0. -1.
</event>
<event>
 5   0  0.4451135E-02  0.4974508E+03  0.7818609E-02  0.1014446E+00
        2   -1    0    0  501    0  0.00000000000E+00  0.00000000000E+00  0.98644865780E+03  0.98644865781E+03  0.25500000920E-02 0.  1.
       -2   -1    0    0    0  501  0.00000000000E+00  0.00000000000E+00 -0.62714197547E+02  0.62714197599E+02  0.25500000920E-02 0. -1.
    10030    2    1    2    0    0  0.00000000000E+00  0.00000000000E+00  0.92373446026E+03  0.10491628554E+04  0.49745084591E+03 0.  0.
        1    1    3    3  502    0  0.10006133886E+03 -0.78215898059E+02  0.91290605818E+03  0.92169814437E+03  0.50400001928E-02 0.  1.
       -1    1    3    3    0  502 -0.10006133886E+03  0.78215898059E+02  0.10828402079E+02  0.12746471104E+03  0.50400001928E-02 0. -1.
</event>
<event>
 5   0  0.4451135E-02  0.4996789E+03  0.7818609E-02  0.1013863E+00
       -2   -1    0    0    0  501  0.00000000000E+00  0.00000000000E+00  0.37078515814E+02  0.37078515902E+02  0.25500000920E-02 0. -1.
        2   -1    0    0  501    0  0.00000000000E+00  0.00000000000E+00 -0.16834478118E+04  0.16834478118E+04  0.25500000920E-02 0.  1.
    10030    2    1    2    0    0  0.00000000000E+00  0.00000000000E+00 -0.16463692960E+04  0.17205263277E+04  0.49967888244E+03 0.  0.
        1    1    3    3  502    0 -0.67174478387E+02  0.18627219847E+03 -0.13477600640E+04  0.13622286638E+04  0.50400001928E-02 0.  1.
       -1    1    3    3    0  502  0.67174478387E+02 -0.18627219847E+03 -0.29860923198E+03  0.35829766385E+03  0.50400001928E-02 0. -1.
</event>
<event>
 5   0  0.2719671E-02  0.5020802E+03  0.7818609E-02  0.1013237E+00
        1   -1    0    0  501    0  0.00000000000E+00  0.00000000000E+00  0.25634399662E+03  0.25634399667E+03  0.50400001928E-02 0.  1.
       -1   -1    0    0    0  501  0.00000000000E+00  0.00000000000E+00 -0.24584595428E+03  0.24584595433E+03  0.50400001928E-02 0. -1.
    10030    2    1    2    0    0  0.00000000000E+00  0.00000000000E+00  0.10498042337E+02  0.50218995100E+03  0.50208021072E+03 0.  0.
        2    1    3    3  502    0 -0.47937395234E+02 -0.24612895204E+03 -0.67402412791E+01  0.25084434567E+03  0.25500000920E-02 0. -1.
       -2    1    3    3    0  502  0.47937395234E+02  0.24612895204E+03  0.17238283616E+02  0.25134560534E+03  0.25500000920E-02 0.  1.
</event>
<event>
 5   0  0.4519539E-02  0.5008482E+03  0.7818609E-02  0.1013558E+00
        2   -1    0    0  501    0  0.00000000000E+00  0.00000000000E+00  0.10306650169E+04  0.10306650169E+04  0.25500000920E-02 0.  1.
       -2   -1    0    0    0  501  0.00000000000E+00  0.00000000000E+00 -0.60846382224E+02  0.60846382278E+02  0.25500000920E-02 0. -1.
    10030    2    1    2    0    0  0.00000000000E+00  0.00000000000E+00  0.96981863471E+03  0.10915113992E+04  0.50084823089E+03 0.  0.
        4    1    3    3  502    0 -0.59265286318E+02 -0.37114659650E+02 -0.39130156025E+02  0.80141463262E+02  0.12699999809E+01 0. -1.
       -4    1    3    3    0  502  0.59265286318E+02  0.37114659650E+02  0.10089487907E+04  0.10113699360E+04  0.12699999809E+01 0.  1.
</event>
<event>
 5   0  0.4519539E-02  0.4911064E+03  0.7818609E-02  0.1016127E+00
        2   -1    0    0  501    0  0.00000000000E+00  0.00000000000E+00  0.13116550752E+04  0.13116550752E+04  0.25500000920E-02 0.  1.
       -2   -1    0    0    0  501  0.00000000000E+00  0.00000000000E+00 -0.45969691277E+02  0.45969691348E+02  0.25500000920E-02 0. -1.
    10030    2    1    2    0    0  0.00000000000E+00  0.00000000000E+00  0.12656853839E+04  0.13576247665E+04  0.49110641990E+03 0.  0.
        4    1    3    3  502    0 -0.93705714112E+02  0.21431500818E+03  0.83940028323E+03  0.87138173723E+03  0.12699999809E+01 0.  1.
       -4    1    3    3    0  502  0.93705714112E+02 -0.21431500818E+03  0.42628510065E+03  0.48624302928E+03  0.12699999809E+01 0. -1.
</event>
<event>
 5   0  0.1805500E-02  0.5003876E+03  0.7818609E-02  0.1013678E+00
        4   -1    0    0  501    0  0.00000000000E+00  0.00000000000E+00  0.68074306142E+03  0.68074424608E+03  0.12699999809E+01 0.  1.
       -4   -1    0    0    0  501  0.00000000000E+00  0.00000000000E+00 -0.91948188908E+02  0.91956959189E+02  0.12699999809E+01 0. -1.
    10030    2    1    2    0    0  0.00000000000E+00  0.00000000000E+00  0.58879487251E+03  0.77270120527E+03  0.50038760049E+03 0.  0.
        1    1    3    3  502    0  0.15887425423E+03 -0.19144932077E+03  0.25345220989E+03  0.35515052274E+03  0.50400001928E-02 0. -1.
       -1    1    3    3    0  502 -0.15887425423E+03  0.19144932077E+03  0.33534266262E+03  0.41755068252E+03  0.50400001928E-02 0.  1.
</event>
<event>
 5   0  0.4451135E-02  0.4993779E+03  0.7818609E-02  0.1013941E+00
       -2   -1    0    0    0  501  0.00000000000E+00  0.00000000000E+00  0.17614020101E+03  0.17614020103E+03  0.25500000920E-02 0. -1.
        2   -1    0    0  501    0  0.00000000000E+00  0.00000000000E+00 -0.35394859370E+03  0.35394859371E+03  0.25500000920E-02 0.  1.
    10030    2    1    2    0    0  0.00000000000E+00  0.00000000000E+00 -0.17780839268E+03  0.53008879474E+03  0.49937791881E+03 0.  0.
        1    1    3    3  502    0 -0.16683987741E+03 -0.16462005012E+03 -0.18027491143E+03  0.29569299841E+03  0.50400001928E-02 0.  1.
       -1    1    3    3    0  502  0.16683987741E+03  0.16462005012E+03  0.24665187427E+01  0.23439579633E+03  0.50400001928E-02 0. -1.
</event>
<event>
 5   0  0.2779445E-02  0.4968203E+03  0.7818609E-02  0.1014612E+00
       -1   -1    0    0    0  501  0.00000000000E+00  0.00000000000E+00  0.15278689111E+03  0.15278689119E+03  0.50400001928E-02 0. -1.
        1   -1    0    0  501    0  0.00000000000E+00  0.00000000000E+00 -0.40388016106E+03  0.40388016109E+03  0.50400001928E-02 0.  1.
    10030    2    1    2    0    0  0.00000000000E+00  0.00000000000E+00 -0.25109326995E+03  0.55666705228E+03  0.49682026618E+03 0.  0.
        3    1    3    3  502    0 -0.18334399022E+03 -0.14357737386E+03 -0.28653739344E+02  0.23462848935E+03  0.10100000352E+00 0. -1.
       -3    1    3    3    0  502  0.18334399022E+03  0.14357737386E+03 -0.22243953061E+03  0.32203856293E+03  0.10100000352E+00 0.  1.
</event>
<event>
 5   0  0.2715483E-02  0.4997536E+03  0.7818609E-02  0.1013843E+00
        1   -1    0    0  501    0  0.00000000000E+00  0.00000000000E+00  0.16147015501E+03  0.16147015509E+03  0.50400001928E-02 0.  1.
       -1   -1    0    0    0  501  0.00000000000E+00  0.00000000000E+00 -0.38668696906E+03  0.38668696909E+03  0.50400001928E-02 0. -1.
    10030    2    1    2    0    0  0.00000000000E+00  0.00000000000E+00 -0.22521681405E+03  0.54815712418E+03  0.49975355872E+03 0.  0.
        5    1    3    3  502    0 -0.43876799395E+02 -0.23076098394E+03 -0.20594108674E+03  0.31242539340E+03  0.46999998093E+01 0.  1.
       -5    1    3    3    0  502  0.43876799395E+02  0.23076098394E+03 -0.19275727306E+02  0.23573173078E+03  0.46999998093E+01 0. -1.
</event>
<event>
 5   0  0.2779445E-02  0.5027887E+03  0.7818609E-02  0.1013054E+00
        1   -1    0    0  501    0  0.00000000000E+00  0.00000000000E+00  0.62729394071E+03  0.62729394073E+03  0.50400001928E-02 0.  1.
       -1   -1    0    0    0  501  0.00000000000E+00  0.00000000000E+00 -0.10074882921E+03  0.10074882934E+03  0.50400001928E-02 0. -1.
    10030    2    1    2    0    0  0.00000000000E+00  0.00000000000E+00  0.52654511150E+03  0.72804277007E+03  0.50278874352E+03 0.  0.
        3    1    3    3  502    0 -0.17944705589E+03  0.11312897650E+03  0.67926985941E+02  0.22274087369E+03  0.10100000352E+00 0. -1.
       -3    1    3    3    0  502  0.17944705589E+03 -0.11312897650E+03  0.45861812556E+03  0.50530189638E+03  0.10100000352E+00 0.  1.
</event>
<event>
 5   0  0.1805500E-02  0.5085119E+03  0.7818609E-02  0.1011581E+00
       -4   -1    0    0    0  501  0.00000000000E+00  0.00000000000E+00  0.12816782581E+03  0.12817411780E+03  0.12699999809E+01 0.  1.
        4   -1    0    0  501    0  0.00000000000E+00  0.00000000000E+00 -0.50436678917E+03  0.50436838811E+03  0.12699999809E+01 0. -1.
    10030    2    1    2    0    0  0.00000000000E+00  0.00000000000E+00 -0.37619896336E+03  0.63254250590E+03  0.50851190914E+03 0.  0.
        5    1    3    3  502    0 -0.18134118378E+03  0.47948009783E+02  0.25332832334E+02  0.18933430479E+03  0.46999998093E+01 0.  1.
       -5    1    3    3    0  502  0.18134118378E+03 -0.47948009783E+02 -0.40153179570E+03  0.44320820111E+03  0.46999998093E+01 0. -1.
</event>
<event>
 5   0  0.4409622E-02  0.5017095E+03  0.7818609E-02  0.1013334E+00
       -2   -1    0    0    0  501  0.00000000000E+00  0.00000000000E+00  0.42234827190E+02  0.42234827267E+02  0.25500000920E-02 0. -1.
        2   -1    0    0  501    0  0.00000000000E+00  0.00000000000E+00 -0.14899576027E+04  0.14899576027E+04  0.25500000920E-02 0.  1.
    10030    2    1    2    0    0  0.00000000000E+00  0.00000000000E+00 -0.14477227756E+04  0.15321924300E+04  0.50170948539E+03 0.  0.
        3    1    3    3  502    0 -0.19931045898E+03  0.15149072537E+03 -0.67519022722E+03  0.72010829190E+03  0.10100000352E+00 0. -1.
       -3    1    3    3    0  502  0.19931045898E+03 -0.15149072537E+03 -0.77253254834E+03  0.81208413811E+03  0.10100000352E+00 0.  1.
</event>
<event>
 5   0  0.4631619E-02  0.4987448E+03  0.7818609E-02  0.1014107E+00
        2   -1    0    0  501    0  0.00000000000E+00  0.00000000000E+00  0.80247319196E+03  0.80247319197E+03  0.25500000920E-02 0. -1.
       -2   -1    0    0    0  501  0.00000000000E+00  0.00000000000E+00 -0.77493682039E+02  0.77493682081E+02  0.25500000920E-02 0.  1.
    10030    2    1    2    0    0  0.00000000000E+00  0.00000000000E+00  0.72497950992E+03  0.87996687405E+03  0.49874483417E+03 0.  0.
        5    1    3    3  502    0 -0.52512139732E+02  0.19895111885E+03  0.11406244919E+03  0.23531129345E+03  0.46999998093E+01 0.  1.
       -5    1    3    3    0  502  0.52512139732E+02 -0.19895111885E+03  0.61091706073E+03  0.64465558060E+03  0.46999998093E+01 0. -1.
</event>
<event>
 5   0  0.4534223E-02  0.4983980E+03  0.7818609E-02  0.1014198E+00
       -2   -1    0    0    0  501  0.00000000000E+00  0.00000000000E+00  0.32932554132E+03  0.32932554133E+03  0.25500000920E-02 0. -1.
        2   -1    0    0  501    0  0.00000000000E+00  0.00000000000E+00 -0.18856760757E+03  0.18856760759E+03  0.25500000920E-02 0.  1.
    10030    2    1    2    0    0  0.00000000000E+00  0.00000000000E+00  0.14075793375E+03  0.51789314891E+03  0.49839795122E+03 0.  0.
        2    1    3    3  502    0  0.13164450270E+03  0.18963022136E+02  0.28935952900E+03  0.31846319776E+03  0.25500000920E-02 0. -1.
       -2    1    3    3    0  502 -0.13164450270E+03 -0.18963022136E+02 -0.14860159525E+03  0.19942995115E+03  0.25500000920E-02 0.  1.
</event>
<event>
 5   0  0.2719671E-02  0.5003313E+03  0.7818609E-02  0.1013692E+00
        1   -1    0    0  501    0  0.00000000000E+00  0.00000000000E+00  0.45428398456E+03  0.45428398459E+03  0.50400001928E-02 0. -1.
       -1   -1    0    0    0  501  0.00000000000E+00  0.00000000000E+00 -0.13776149658E+03  0.13776149667E+03  0.50400001928E-02 0.  1.
    10030    2    1    2    0    0  0.00000000000E+00  0.00000000000E+00  0.31652248798E+03  0.59204548126E+03  0.50033125675E+03 0.  0.
        2    1    3    3  502    0  0.19962943042E+03  0.14460017492E+03  0.10775577226E+03  0.26902123809E+03  0.25500000920E-02 0. -1.
       -2    1    3    3    0  502 -0.19962943042E+03 -0.14460017492E+03  0.20876671572E+03  0.32302424317E+03  0.25500000920E-02 0.  1.
</event>
<event>
 5   0  0.4451135E-02  0.4989371E+03  0.7818609E-02  0.1014057E+00
        2   -1    0    0  501    0  0.00000000000E+00  0.00000000000E+00  0.39712168011E+03  0.39712168012E+03  0.25500000920E-02 0.  1.
       -2   -1    0    0    0  501  0.00000000000E+00  0.00000000000E+00 -0.15671405350E+03  0.15671405352E+03  0.25500000920E-02 0. -1.
    10030    2    1    2    0    0  0.00000000000E+00  0.00000000000E+00  0.24040762662E+03  0.55383573364E+03  0.49893706309E+03 0.  0.
        1    1    3    3  502    0  0.99471306478E+02  0.18468097406E+03  0.27009069357E+03  0.34198038799E+03  0.50400001928E-02 0.  1.
       -1    1    3    3    0  502 -0.99471306478E+02 -0.18468097406E+03 -0.29683066957E+02  0.21185534565E+03  0.50400001928E-02 0. -1.
</event>
<event>
 5   0  0.2715483E-02  0.4991405E+03  0.7818609E-02  0.1014004E+00
        1   -1    0    0  501    0  0.00000000000E+00  0.00000000000E+00  0.22150092412E+03  0.22150092417E+03  0.50400001928E-02 0. -1.
       -1   -1    0    0    0  501  0.00000000000E+00  0.00000000000E+00 -0.28119657688E+03  0.28119657692E+03  0.50400001928E-02 0.  1.
    10030    2    1    2    0    0  0.00000000000E+00  0.00000000000E+00 -0.59695652762E+02  0.50269750110E+03  0.49914046786E+03 0.  0.
        5    1    3    3  502    0 -0.20393759779E+03 -0.36388677770E+01  0.11491034071E+03  0.23415862476E+03  0.46999998093E+01 0. -1.
       -5    1    3    3    0  502  0.20393759779E+03  0.36388677770E+01 -0.17460599347E+03  0.26853887634E+03  0.46999998093E+01 0.  1.
</event>
<event>
 5   0  0.1805500E-02  0.5014628E+03  0.7818609E-02  0.1013398E+00
       -4   -1    0    0    0  501  0.00000000000E+00  0.00000000000E+00  0.20597055677E+03  0.20597447210E+03  0.12699999809E+01 0.  1.
        4   -1    0    0  501    0  0.00000000000E+00  0.00000000000E+00 -0.30521142716E+03  0.30521406941E+03  0.12699999809E+01 0. -1.
    10030    2    1    2    0    0  0.00000000000E+00  0.00000000000E+00 -0.99240870385E+02  0.51118854151E+03  0.50146283473E+03 0.  0.
        1    1    3    3  502    0  0.18560570461E+03  0.16348268188E+03 -0.77113017982E+01  0.24745813597E+03  0.50400001928E-02 0.  1.
       -1    1    3    3    0  502 -0.18560570461E+03 -0.16348268188E+03 -0.91529568587E+02  0.26373040554E+03  0.50400001928E-02 0. -1.
</event>
<event>
 5   0  0.2643185E-02  0.5023887E+03  0.7818609E-02  0.1013157E+00
        1   -1    0    0  501    0  0.00000000000E+00  0.00000000000E+00  0.91750256464E+03  0.91750256465E+03  0.50400001928E-02 0.  1.
       -1   -1    0    0    0  501  0.00000000000E+00  0.00000000000E+00 -0.68772130000E+02  0.68772130184E+02  0.50400001928E-02 0. -1.
    10030    2    1    2    0    0  0.00000000000E+00  0.00000000000E+00  0.84873043464E+03  0.98627469484E+03  0.50238871702E+03 0.  0.
        1    1    3    3  502    0  0.14991702699E+02  0.17433179453E+03  0.70546123372E+02  0.18866128719E+03  0.50400001928E-02 0. -1.
       -1    1    3    3    0  502 -0.14991702699E+02 -0.17433179453E+03  0.77818431127E+03  0.79761340765E+03  0.50400001928E-02 0.  1.
</event>
<event>
 5   0  0.1805500E-02  0.4999224E+03  0.7818609E-02  0.1013799E+00
        3   -1    0    0  501    0  0.00000000000E+00  0.00000000000E+00  0.50067383068E+02  0.50067484941E+02  0.10100000352E+00 0. -1.
       -3   -1    0    0    0  501  0.00000000000E+00  0.00000000000E+00 -0.12479290714E+04  0.12479290755E+04  0.10100000352E+00 0.  1.
    10030    2    1    2    0    0  0.00000000000E+00  0.00000000000E+00 -0.11978616883E+04  0.12979965604E+04  0.49992244050E+03 0.  0.
        4    1    3    3  502    0  0.82072179667E+02 -0.16524406233E+03 -0.16108922234E+03  0.24493426315E+03  0.12699999809E+01 0. -1.
       -4    1    3    3    0  502 -0.82072179667E+02  0.16524406233E+03 -0.10367724660E+04  0.10530622973E+04  0.12699999809E+01 0.  1.
</event>
<event>
 5   0  0.2779445E-02  0.4925031E+03  0.7818609E-02  0.1015754E+00
       -1   -1    0    0    0  501  0.00000000000E+00  0.00000000000E+00  0.40752031427E+02  0.40752031739E+02  0.50400001928E-02 0. -1.
        1   -1    0    0  501    0  0.00000000000E+00  0.00000000000E+00 -0.14880199888E+04  0.14880199888E+04  0.50400001928E-02 0.  1.
    10030    2    1    2    0    0  0.00000000000E+00  0.00000000000E+00 -0.14472679574E+04  0.15287720205E+04  0.49250314757E+03 0.  0.
        3    1    3    3  502    0  0.19934789701E+03 -0.13587816394E+03 -0.87688178279E+03  0.90946364999E+03  0.10100000352E+00 0.  1.
       -3    1    3    3    0  502 -0.19934789701E+03  0.13587816394E+03 -0.57038617458E+03  0.61930837054E+03  0.10100000352E+00 0. -1.
</event>
<event>
 5   0  0.2719671E-02  0.5015656E+03  0.7818609E-02  0.1013371E+00
       -1   -1    0    0    0  501  0.00000000000E+00  0.00000000000E+00  0.31071849362E+03  0.31071849367E+03  0.50400001928E-02 0. -1.
        1   -1    0    0  501    0  0.00000000000E+00  0.00000000000E+00 -0.20240836501E+03  0.20240836507E+03  0.50400001928E-02 0.  1.
    10030    2    1    2    0    0  0.00000000000E+00  0.00000000000E+00  0.10831012861E+03  0.51312685874E+03  0.50156563798E+03 0.  0.
        2    1    3    3  502    0 -0.18496034244E+03  0.77975029111E+02  0.20795864888E+03  0.28902808356E+03  0.25500000920E-02 0. -1.
       -2    1    3    3    0  502  0.18496034244E+03 -0.77975029111E+02 -0.99648520262E+02  0.22409877518E+03  0.25500000920E-02 0.  1.
</event>
<event>
 5   0  0.2779445E-02  0.5059342E+03  0.7818609E-02  0.1012242E+00
       -1   -1    0    0    0  501  0.00000000000E+00  0.00000000000E+00  0.14409878625E+03  0.14409878634E+03  0.50400001928E-02 0.  1.
        1   -1    0    0  501    0  0.00000000000E+00  0.00000000000E+00 -0.44408672445E+03  0.44408672448E+03  0.50400001928E-02 0. -1.
    10030    2    1    2    0    0  0.00000000000E+00  0.00000000000E+00 -0.29998793820E+03  0.58818551082E+03  0.50593421714E+03 0.  0.
        3    1    3    3  502    0  0.81310668605E+00  0.89027528436E+02  0.12528258714E+03  0.15369547424E+03  0.10100000352E+00 0.  1.
       -3    1    3    3    0  502 -0.81310668605E+00 -0.89027528436E+02 -0.42527052534E+03  0.43449003658E+03  0.10100000352E+00 0. -1.
</event>
<event>
 5   0  0.2723308E-02  0.5005132E+03  0.7818609E-02  0.1013645E+00
        1   -1    0    0  501    0  0.00000000000E+00  0.00000000000E+00  0.19202049737E+03  0.19202049743E+03  0.50400001928E-02 0. -1.
       -1   -1    0    0    0  501  0.00000000000E+00  0.00000000000E+00 -0.32615454679E+03  0.32615454683E+03  0.50400001928E-02 0.  1.
    10030    2    1    2    0    0  0.00000000000E+00  0.00000000000E+00 -0.13413404943E+03  0.51817504427E+03  0.50051316994E+03 0.  0.
        4    1    3    3  502    0  0.23960209555E+03  0.52197661923E+02 -0.15375321256E+02  0.24570668185E+03  0.12699999809E+01 0.  1.
       -4    1    3    3    0  502 -0.23960209555E+03 -0.52197661923E+02 -0.11875872817E+03  0.27246836242E+03  0.12699999809E+01 0. -1.
</event>
<event>
 5   0  0.1805500E-02  0.4998762E+03  0.7818609E-02  0.1013811E+00
       -4   -1    0    0    0  501  0.00000000000E+00  0.00000000000E+00  0.12095132611E+04  0.12095139278E+04  0.12699999809E+01 0.  1.
        4   -1    0    0  501    0  0.00000000000E+00  0.00000000000E+00 -0.51639600183E+02  0.51655214713E+02  0.12699999809E+01 0. -1.
    10030    2    1    2    0    0  0.00000000000E+00  0.00000000000E+00  0.11578736609E+04  0.12611691425E+04  0.49987617618E+03 0.  0.
        5    1    3    3  502    0  0.20528938166E+03 -0.82683340257E+02  0.28615685136E+03  0.36178460243E+03  0.46999998093E+01 0. -1.
       -5    1    3    3    0  502 -0.20528938166E+03  0.82683340257E+02  0.87171680953E+03  0.89938454011E+03  0.46999998093E+01 0.  1.
</event>
<event>
 5   0  0.4534223E-02  0.4971853E+03  0.7818609E-02  0.1014516E+00
       -2   -1    0    0    0  501  0.00000000000E+00  0.00000000000E+00  0.54969309849E+02  0.54969309908E+02  0.25500000920E-02 0.  1.
        2   -1    0    0  501    0  0.00000000000E+00  0.00000000000E+00 -0.11242331016E+04  0.11242331016E+04  0.25500000920E-02 0. -1.
    10030    2    1    2    0    0  0.00000000000E+00  0.00000000000E+00 -0.10692637918E+04  0.11792024115E+04  0.49718534870E+03 0.  0.
        2    1    3    3  502    0 -0.24561290039E+03  0.34861174270E+02 -0.57267766113E+03  0.62409991337E+03  0.25500000920E-02 0. -1.
       -2    1    3    3    0  502  0.24561290039E+03 -0.34861174270E+02 -0.49658613064E+03  0.55510249815E+03  0.25500000920E-02 0.  1.
</event>
<event>
 5   0  0.2719671E-02  0.5053472E+03  0.7818609E-02  0.1012393E+00
        1   -1    0    0  501    0  0.00000000000E+00  0.00000000000E+00  0.89185527026E+03  0.89185527028E+03  0.50400001928E-02 0.  1.
       -1   -1    0    0    0  501  0.00000000000E+00  0.00000000000E+00 -0.71585542247E+02  0.71585542425E+02  0.50400001928E-02 0. -1.
    10030    2    1    2    0    0  0.00000000000E+00  0.00000000000E+00  0.82026972802E+03  0.96344081270E+03  0.50534718054E+03 0.  0.
        2    1    3    3  502    0 -0.23666110841E+03  0.87323173458E+02  0.43777088135E+03  0.50524960309E+03  0.25500000920E-02 0.  1.
       -2    1    3    3    0  502  0.23666110841E+03 -0.87323173458E+02  0.38249884667E+03  0.45819120961E+03  0.25500000920E-02 0. -1.
</event>
<event>
 5   0  0.2715483E-02  0.5018472E+03  0.7818609E-02  0.1013298E+00
        1   -1    0    0  501    0  0.00000000000E+00  0.00000000000E+00  0.89083481576E+03  0.89083481578E+03  0.50400001928E-02 0. -1.
       -1   -1    0    0    0  501  0.00000000000E+00  0.00000000000E+00 -0.70678251591E+02  0.70678251771E+02  0.50400001928E-02 0.  1.
    10030    2    1    2    0    0  0.00000000000E+00  0.00000000000E+00  0.82015656417E+03  0.96151306755E+03  0.50184717725E+03 0.  0.
        5    1    3    3  502    0  0.12756271146E+03  0.10903841573E+03  0.76738554994E+03  0.78553440009E+03  0.46999998093E+01 0. -1.
       -5    1    3    3    0  502 -0.12756271146E+03 -0.10903841573E+03  0.52771014233E+02  0.17597866746E+03  0.46999998093E+01 0.  1.
</event>
<event>
 5   0  0.2715483E-02  0.4907529E+03  0.7818609E-02  0.1016221E+00
        1   -1    0    0  501    0  0.00000000000E+00  0.00000000000E+00  0.81050889183E+03  0.81050889184E+03  0.50400001928E-02 0.  1.
       -1   -1    0    0    0  501  0.00000000000E+00  0.00000000000E+00 -0.74286156329E+02  0.74286156500E+02  0.50400001928E-02 0. -1.
    10030    2    1    2    0    0  0.00000000000E+00  0.00000000000E+00  0.73622273550E+03  0.88479504834E+03  0.49075285155E+03 0.  0.
        5    1    3    3  502    0  0.28666347588E+02  0.10777046451E+03  0.76208967068E+03  0.77022009106E+03  0.46999998093E+01 0.  1.
       -5    1    3    3    0  502 -0.28666347588E+02 -0.10777046451E+03 -0.25866935185E+02  0.11457495729E+03  0.46999998093E+01 0. -1.
</event>
<event>
 5   0  0.4409622E-02  0.5012497E+03  0.7818609E-02  0.1013453E+00
        2   -1    0    0  501    0  0.00000000000E+00  0.00000000000E+00  0.15638499791E+03  0.15638499793E+03  0.25500000920E-02 0. -1.
       -2   -1    0    0    0  501  0.00000000000E+00  0.00000000000E+00 -0.40165507019E+03  0.40165507020E+03  0.25500000920E-02 0.  1.
    10030    2    1    2    0    0  0.00000000000E+00  0.00000000000E+00 -0.24527007228E+03  0.55804006813E+03  0.50124974741E+03 0.  0.
        3    1    3    3  502    0 -0.68461919683E+01 -0.12400818172E+03  0.11971608256E+03  0.17250173942E+03  0.10100000352E+00 0. -1.
       -3    1    3    3    0  502  0.68461919683E+01  0.12400818172E+03 -0.36498615485E+03  0.38553832871E+03  0.10100000352E+00 0.  1.
</event>
<event>
 5   0  0.4409622E-02  0.5020950E+03  0.7818609E-02  0.1013234E+00
       -2   -1    0    0    0  501  0.00000000000E+00  0.00000000000E+00  0.13491172535E+03  0.13491172538E+03  0.25500000920E-02 0.  1.
        2   -1    0    0  501    0  0.00000000000E+00  0.00000000000E+00 -0.46715613019E+03  0.46715613020E+03  0.25500000920E-02 0. -1.
    10030    2    1    2    0    0  0.00000000000E+00  0.00000000000E+00 -0.33224440484E+03  0.60206785558E+03  0.50209496928E+03 0.  0.
        3    1    3    3  502    0  0.26198356516E+02  0.15296639348E+03 -0.40274478740E+03  0.43161145188E+03  0.10100000352E+00 0. -1.
       -3    1    3    3    0  502 -0.26198356516E+02 -0.15296639348E+03  0.70500382557E+02  0.17045640370E+03  0.10100000352E+00 0.  1.
</event>
<event>
 5   0  0.4519539E-02  0.4986642E+03  0.7818609E-02  0.1014128E+00
       -2   -1    0    0    0  501  0.00000000000E+00  0.00000000000E+00  0.17827153754E+03  0.17827153756E+03  0.25500000920E-02 0.  1.
        2   -1    0    0  501    0  0.00000000000E+00  0.00000000000E+00 -0.34871804778E+03  0.34871804779E+03  0.25500000920E-02 0. -1.
    10030    2    1    2    0    0  0.00000000000E+00  0.00000000000E+00 -0.17044651024E+03  0.52698958536E+03  0.49866422593E+03 0.  0.
        4    1    3    3  502    0  0.23244857930E+03 -0.45177909798E+02 -0.16770466766E+03  0.29017211101E+03  0.12699999809E+01 0. -1.
       -4    1    3    3    0  502 -0.23244857930E+03  0.45177909798E+02 -0.27418425829E+01  0.23681747434E+03  0.12699999809E+01 0.  1.
</event>
<event>
 5   0  0.4409622E-02  0.5002711E+03  0.7818609E-02  0.1013708E+00
        2   -1    0    0  501    0  0.00000000000E+00  0.00000000000E+00  0.81721016513E+03  0.81721016514E+03  0.25500000920E-02 0. -1.
       -2   -1    0    0    0  501  0.00000000000E+00  0.00000000000E+00 -0.76562685676E+02  0.76562685719E+02  0.25500000920E-02 0.  1.
    10030    2    1    2    0    0  0.00000000000E+00  0.00000000000E+00  0.74064747946E+03  0.89377285086E+03  0.50027114658E+03 0.  0.
        3    1    3    3  502    0 -0.12784861055E+02 -0.15671020066E+03  0.22761041955E+02  0.15886980486E+03  0.10100000352E+00 0.  1.
       -3    1    3    3    0  502  0.12784861055E+02  0.15671020066E+03  0.71788643750E+03  0.73490304600E+03  0.10100000352E+00 0. -1.
</event>
<event>
 5   0  0.4451135E-02  0.4986256E+03  0.7818609E-02  0.1014138E+00
        2   -1    0    0  501    0  0.00000000000E+00  0.00000000000E+00  0.12589524776E+04  0.12589524776E+04  0.25500000920E-02 0.  1.
       -2   -1    0    0    0  501  0.00000000000E+00  0.00000000000E+00 -0.49371888647E+02  0.49371888713E+02  0.25500000920E-02 0. -1.
    10030    2    1    2    0    0  0.00000000000E+00  0.00000000000E+00  0.12095805890E+04  0.13083243664E+04  0.49862555724E+03 0.  0.
        1    1    3    3  502    0 -0.12351741256E+03  0.17665591269E+03  0.27609471246E+03  0.35027439668E+03  0.50400001928E-02 0. -1.
       -1    1    3    3    0  502  0.12351741256E+03 -0.17665591269E+03  0.93348587654E+03  0.95804996968E+03  0.50400001928E-02 0.  1.
</event>
<event>
 5   0  0.4631619E-02  0.5245879E+03  0.7818609E-02  0.1007553E+00
       -2   -1    0    0    0  501  0.00000000000E+00  0.00000000000E+00  0.57713983361E+02  0.57713983417E+02  0.25500000920E-02 0.  1.
        2   -1    0    0  501    0  0.00000000000E+00  0.00000000000E+00 -0.11920528830E+04  0.11920528830E+04  0.25500000920E-02 0. -1.
    10030    2    1    2    0    0  0.00000000000E+00  0.00000000000E+00 -0.11343388996E+04  0.12497668664E+04  0.52458791557E+03 0.  0.
        5    1    3    3  502    0 -0.21533851717E+03  0.13581735363E+03 -0.41726881818E+03  0.48882756381E+03  0.46999998093E+01 0. -1.
       -5    1    3    3    0  502  0.21533851717E+03 -0.13581735363E+03 -0.71707008144E+03  0.76093930259E+03  0.46999998093E+01 0.  1.
</event>
<event>
 5   0  0.4631619E-02  0.4996483E+03  0.7818609E-02  0.1013871E+00
       -2   -1    0    0    0  501  0.00000000000E+00  0.00000000000E+00  0.49961589589E+03  0.49961589590E+03  0.25500000920E-02 0. -1.
        2   -1    0    0  501    0  0.00000000000E+00  0.00000000000E+00 -0.12492015544E+03  0.12492015547E+03  0.25500000920E-02 0.  1.
    10030    2    1    2    0    0  0.00000000000E+00  0.00000000000E+00  0.37469574045E+03  0.62453605137E+03  0.49964825782E+03 0.  0.
        5    1    3    3  502    0 -0.17260357125E+03 -0.17899028845E+03  0.21694003709E+03  0.33002209905E+03  0.46999998093E+01 0. -1.
       -5    1    3    3    0  502  0.17260357125E+03  0.17899028845E+03  0.15775570336E+03  0.29451395232E+03  0.46999998093E+01 0.  1.
</event>
<event>
 5   0  0.2779445E-02  0.5039532E+03  0.7818609E-02  0.1012752E+00
        1   -1    0    0  501    0  0.00000000000E+00  0.00000000000E+00  0.23088352980E+03  0.23088352985E+03  0.50400001928E-02 0.  1.
       -1   -1    0    0    0  501  0.00000000000E+00  0.00000000000E+00 -0.27499668471E+03  0.27499668476E+03  0.50400001928E-02 0. -1.
    10030    2    1    2    0    0  0.00000000000E+00  0.00000000000E+00 -0.44113154915E+02  0.50588021461E+03  0.50395319336E+03 0.  0.
        3    1    3    3  502    0  0.14790781629E+03 -0.12055014597E+03 -0.18725540549E+03  0.26734557580E+03  0.10100000352E+00 0.  1.
       -3    1    3    3    0  502 -0.14790781629E+03  0.12055014597E+03  0.14314225058E+03  0.23853463881E+03  0.10100000352E+00 0. -1.
</event>
<event>
 5   0  0.1805500E-02  0.4987805E+03  0.7818609E-02  0.1014098E+00
        3   -1    0    0  501    0  0.00000000000E+00  0.00000000000E+00  0.10396798212E+03  0.10396803118E+03  0.10100000352E+00 0.  1.
       -3   -1    0    0    0  501  0.00000000000E+00  0.00000000000E+00 -0.59821764172E+03  0.59821765024E+03  0.10100000352E+00 0. -1.
    10030    2    1    2    0    0  0.00000000000E+00  0.00000000000E+00 -0.49424965959E+03  0.70218568142E+03  0.49878051805E+03 0.  0.
        4    1    3    3  502    0  0.65169437094E+02  0.19666480433E+03 -0.44255020357E+03  0.48864751752E+03  0.12699999809E+01 0. -1.
       -4    1    3    3    0  502 -0.65169437094E+02 -0.19666480433E+03 -0.51699456019E+02  0.21353816391E+03  0.12699999809E+01 0.  1.
</event>
<event>
 5   0  0.2643185E-02  0.5045674E+03  0.7818609E-02  0.1012594E+00
       -1   -1    0    0    0  501  0.00000000000E+00  0.00000000000E+00  0.12250038596E+04  0.12250038596E+04  0.50400001928E-02 0. -1.
        1   -1    0    0  501    0  0.00000000000E+00  0.00000000000E+00 -0.51956619530E+02  0.51956619774E+02  0.50400001928E-02 0.  1.
    10030    2    1    2    0    0  0.00000000000E+00  0.00000000000E+00  0.11730472401E+04  0.12769604794E+04  0.50456737754E+03 0.  0.
        1    1    3    3  502    0 -0.24927785460E+03  0.34983560341E+02  0.62915553830E+03  0.67764296624E+03  0.50400001928E-02 0. -1.
       -1    1    3    3    0  502  0.24927785460E+03 -0.34983560341E+02  0.54389170180E+03  0.59931751318E+03  0.50400001928E-02 0.  1.
</event>
<event>
 5   0  0.2779445E-02  0.4999277E+03  0.7818609E-02  0.1013798E+00
        1   -1    0    0  501    0  0.00000000000E+00  0.00000000000E+00  0.48285674371E+03  0.48285674374E+03  0.50400001928E-02 0. -1.
       -1   -1    0    0    0  501  0.00000000000E+00  0.00000000000E+00 -0.12940056281E+03  0.12940056291E+03  0.50400001928E-02 0.  1.
    10030    2    1    2    0    0  0.00000000000E+00  0.00000000000E+00  0.35345618090E+03  0.61225730665E+03  0.49992773251E+03 0.  0.
        3    1    3    3  502    0  0.78184560278E+02 -0.11549204074E+03 -0.77319973159E+02  0.15946669053E+03  0.10100000352E+00 0.  1.
       -3    1    3    3    0  502 -0.78184560278E+02  0.11549204074E+03  0.43077615406E+03  0.45279061612E+03  0.10100000352E+00 0. -1.
</event>
<event>
 5   0  0.2723308E-02  0.5033151E+03  0.7818609E-02  0.1012917E+00
        1   -1    0    0  501    0  0.00000000000E+00  0.00000000000E+00  0.14022798329E+04  0.14022798330E+04  0.50400001928E-02 0.  1.
       -1   -1    0    0    0  501  0.00000000000E+00  0.00000000000E+00 -0.45163257691E+02  0.45163257972E+02  0.50400001928E-02 0. -1.
    10030    2    1    2    0    0  0.00000000000E+00  0.00000000000E+00  0.13571165753E+04  0.14474430909E+04  0.50331511267E+03 0.  0.
        4    1    3    3  502    0  0.17921331983E+03 -0.32674101627E+02  0.11778662179E+04  0.11918705680E+04  0.12699999809E+01 0.  1.
       -4    1    3    3    0  502 -0.17921331983E+03  0.32674101627E+02  0.17925035740E+03  0.25557252287E+03  0.12699999809E+01 0. -1.
</event>
<event>
 5   0  0.2723308E-02  0.5077819E+03  0.7818609E-02  0.1011767E+00
       -1   -1    0    0    0  501  0.00000000000E+00  0.00000000000E+00  0.54604409965E+02  0.54604410198E+02  0.50400001928E-02 0.  1.
        1   -1    0    0  501    0  0.00000000000E+00  0.00000000000E+00 -0.11805022089E+04  0.11805022089E+04  0.50400001928E-02 0. -1.
    10030    2    1    2    0    0  0.00000000000E+00  0.00000000000E+00 -0.11258977990E+04  0.12351066191E+04  0.50778194821E+03 0.  0.
        4    1    3    3  502    0 -0.16668018984E+03 -0.38825923224E+02 -0.10679761242E+03  0.20173517521E+03  0.12699999809E+01 0.  1.
       -4    1    3    3    0  502  0.16668018984E+03  0.38825923224E+02 -0.10191001866E+04  0.10333714439E+04  0.12699999809E+01 0. -1.
</event>
<event>
 5   0  0.4519539E-02  0.4993962E+03  0.7818609E-02  0.1013937E+00
        2   -1    0    0  501    0  0.00000000000E+00  0.00000000000E+00  0.15197078716E+03  0.15197078718E+03  0.25500000920E-02 0.  1.
       -2   -1    0    0    0  501  0.00000000000E+00  0.00000000000E+00 -0.41027053388E+03  0.41027053388E+03  0.25500000920E-02 0. -1.
    10030    2    1    2    0    0  0.00000000000E+00  0.00000000000E+00 -0.25829974672E+03  0.56224132106E+03  0.49939617936E+03 0.  0.
        4    1    3    3  502    0 -0.19962811762E+02  0.99681405167E+02 -0.38591257589E+03  0.39908022442E+03  0.12699999809E+01 0. -1.
       -4    1    3    3    0  502  0.19962811762E+02 -0.99681405167E+02  0.12761282917E+03  0.16316109665E+03  0.12699999809E+01 0.  1.
</event>
<event>
 5   0  0.4631619E-02  0.5002600E+03  0.7818609E-02  0.1013711E+00
        2   -1    0    0  501    0  0.00000000000E+00  0.00000000000E+00  0.20987375934E+04  0.20987375934E+04  0.25500000920E-02 0.  1.
       -2   -1    0    0    0  501  0.00000000000E+00  0.00000000000E+00 -0.29810784921E+02  0.29810785030E+02  0.25500000920E-02 0. -1.
    10030    2    1    2    0    0  0.00000000000E+00  0.00000000000E+00  0.20689268085E+04  0.21285483784E+04  0.50025999288E+03 0.  0.
        5    1    3    3  502    0  0.18554475645E+03 -0.49666876706E+02  0.35302711770E+03  0.40192523076E+03  0.46999998093E+01 0.  1.
       -5    1    3    3    0  502 -0.18554475645E+03  0.49666876706E+02  0.17158996908E+04  0.17266231477E+04  0.46999998093E+01 0. -1.
</event>
<event>
 5   0  0.2723308E-02  0.4977526E+03  0.7818609E-02  0.1014367E+00
        1   -1    0    0  501    0  0.00000000000E+00  0.00000000000E+00  0.98979345960E+03  0.98979345961E+03  0.50400001928E-02 0. -1.
       -1   -1    0    0    0  501  0.00000000000E+00  0.00000000000E+00 -0.62578112304E+02  0.62578112507E+02  0.50400001928E-02 0.  1.
    10030    2    1    2    0    0  0.00000000000E+00  0.00000000000E+00  0.92721534730E+03  0.10523715721E+04  0.49775257463E+03 0.  0.
        4    1    3    3  502    0  0.23250793909E+03 -0.12420542218E+01  0.27597132763E+03  0.36086461591E+03  0.12699999809E+01 0. -1.
       -4    1    3    3    0  502 -0.23250793909E+03  0.12420542218E+01  0.65124401967E+03  0.69150695621E+03  0.12699999809E+01 0.  1.
</event>
<event>
 5   0  0.4409622E-02  0.4996434E+03  0.7818609E-02  0.1013872E+00
        2   -1    0    0  501    0  0.00000000000E+00  0.00000000000E+00  0.84078483596E+03  0.84078483596E+03  0.25500000920E-02 0.  1.
       -2   -1    0    0    0  501  0.00000000000E+00  0.00000000000E+00 -0.74229325913E+02  0.74229325957E+02  0.25500000920E-02 0. -1.
    10030    2    1    2    0    0  0.00000000000E+00  0.00000000000E+00  0.76655551004E+03  0.91501416192E+03  0.49964343940E+03 0.  0.
        3    1    3    3  502    0  0.12106781599E+03  0.71637375813E+02  0.76135649351E+03  0.77424353410E+03  0.10100000352E+00 0.  1.
       -3    1    3    3    0  502 -0.12106781599E+03 -0.71637375813E+02  0.51990165324E+01  0.14077062782E+03  0.10100000352E+00 0. -1.
</event>
<event>
 5   0  0.4451135E-02  0.5018458E+03  0.7818609E-02  0.1013298E+00
       -2   -1    0    0    0  501  0.00000000000E+00  0.00000000000E+00  0.10037403357E+03  0.10037403360E+03  0.25500000920E-02 0.  1.
        2   -1    0    0  501    0  0.00000000000E+00  0.00000000000E+00 -0.62727673265E+03  0.62727673265E+03  0.25500000920E-02 0. -1.
    10030    2    1    2    0    0  0.00000000000E+00  0.00000000000E+00 -0.52690269908E+03  0.72765076625E+03  0.50184577644E+03 0.  0.
        1    1    3    3  502    0  0.22303424022E+03 -0.11446989049E+03 -0.27897783675E+03  0.37506834252E+03  0.50400001928E-02 0.  1.
       -1    1    3    3    0  502 -0.22303424022E+03  0.11446989049E+03 -0.24792486233E+03  0.35258242373E+03  0.50400001928E-02 0. -1.
</event>
<event>
 5   0  0.1805500E-02  0.4969472E+03  0.7818609E-02  0.1014579E+00
       -3   -1    0    0    0  501  0.00000000000E+00  0.00000000000E+00  0.12291497302E+04  0.12291497343E+04  0.10100000352E+00 0. -1.
        3   -1    0    0  501    0  0.00000000000E+00  0.00000000000E+00 -0.50229079492E+02  0.50229181037E+02  0.10100000352E+00 0.  1.
    10030    2    1    2    0    0  0.00000000000E+00  0.00000000000E+00  0.11789206507E+04  0.12793789153E+04  0.49694718881E+03 0.  0.
        1    1    3    3  502    0  0.27702752947E+02 -0.17463862876E+03  0.14004611719E+03  0.22556375626E+03  0.50400001928E-02 0.  1.
       -1    1    3    3    0  502 -0.27702752947E+02  0.17463862876E+03  0.10388745335E+04  0.10538151591E+04  0.50400001928E-02 0. -1.
</event>
<event>
 5   0  0.4534223E-02  0.4994980E+03  0.7818609E-02  0.1013910E+00
        2   -1    0    0  501    0  0.00000000000E+00  0.00000000000E+00  0.59058792718E+03  0.59058792719E+03  0.25500000920E-02 0.  1.
       -2   -1    0    0    0  501  0.00000000000E+00  0.00000000000E+00 -0.10561437231E+03  0.10561437235E+03  0.25500000920E-02 0. -1.
    10030    2    1    2    0    0  0.00000000000E+00  0.00000000000E+00  0.48497355487E+03  0.69620229953E+03  0.49949804099E+03 0.  0.
        2    1    3    3  502    0 -0.21924641157E+03 -0.11249243290E+03  0.18585241193E+03  0.30864972942E+03  0.25500000920E-02 0.  1.
       -2    1    3    3    0  502  0.21924641157E+03  0.11249243290E+03  0.29912114294E+03  0.38755257011E+03  0.25500000920E-02 0. -1.
</event>
<event>
 5   0  0.1805500E-02  0.4983359E+03  0.7818609E-02  0.1014214E+00
       -4   -1    0    0    0  501  0.00000000000E+00  0.00000000000E+00  0.53853163657E+02  0.53868136554E+02  0.12699999809E+01 0. -1.
        4   -1    0    0  501    0  0.00000000000E+00  0.00000000000E+00 -0.11526751279E+04  0.11526758275E+04  0.12699999809E+01 0.  1.
    10030    2    1    2    0    0  0.00000000000E+00  0.00000000000E+00 -0.10988219642E+04  0.12065439641E+04  0.49833585880E+03 0.  0.
        1    1    3    3  502    0  0.20025057515E+03  0.14601848331E+03 -0.48707097186E+03  0.54649777857E+03  0.50400001928E-02 0. -1.
       -1    1    3    3    0  502 -0.20025057515E+03 -0.14601848331E+03 -0.61175099237E+03  0.66004618552E+03  0.50400001928E-02 0.  1.
</event>
<event>
 5   0  0.2723308E-02  0.5005643E+03  0.7818609E-02  0.1013632E+00
       -1   -1    0    0    0  501  0.00000000000E+00  0.00000000000E+00  0.77976518002E+02  0.77976518165E+02  0.50400001928E-02 0.  1.
        1   -1    0    0  501    0  0.00000000000E+00  0.00000000000E+00 -0.80333343486E+03  0.80333343488E+03  0.50400001928E-02 0. -1.
    10030    2    1    2    0    0  0.00000000000E+00  0.00000000000E+00 -0.72535691686E+03  0.88130995304E+03  0.50056425811E+03 0.  0.
        4    1    3    3  502    0 -0.18063743650E+03  0.86655858467E+02 -0.62677581483E+03  0.65801873546E+03  0.12699999809E+01 0. -1.
       -4    1    3    3    0  502  0.18063743650E+03 -0.86655858467E+02 -0.98581102035E+02  0.22329121758E+03  0.12699999809E+01 0.  1.
</event>
<event>
 5   0  0.4631619E-02  0.4990373E+03  0.7818609E-02  0.1014031E+00
        2   -1    0    0  501    0  0.00000000000E+00  0.00000000000E+00  0.47224991343E+03  0.47224991344E+03  0.25500000920E-02 0.  1.
       -2   -1    0    0    0  501  0.00000000000E+00  0.00000000000E+00 -0.13183603017E+03  0.13183603019E+03  0.25500000920E-02 0. -1.
    10030    2    1    2    0    0  0.00000000000E+00  0.00000000000E+00  0.34041388326E+03  0.60408594363E+03  0.49903728856E+03 0.  0.
        5    1    3    3  502    0  0.15064871581E+03  0.19781134110E+03  0.19481028748E+03  0.31590742370E+03  0.46999998093E+01 0. -1.
       -5    1    3    3    0  502 -0.15064871581E+03 -0.19781134110E+03  0.14560359578E+03  0.28817851993E+03  0.46999998093E+01 0.  1.
</event>
<event>
 5   0  0.1805500E-02  0.4996931E+03  0.7818609E-02  0.1013859E+00
       -4   -1    0    0    0  501  0.00000000000E+00  0.00000000000E+00  0.16339573842E+03  0.16340067391E+03  0.12699999809E+01 0. -1.
        4   -1    0    0  501    0  0.00000000000E+00  0.00000000000E+00 -0.38202580071E+03  0.38202791169E+03  0.12699999809E+01 0.  1.
    10030    2    1    2    0    0  0.00000000000E+00  0.00000000000E+00 -0.21863006229E+03  0.54542858560E+03  0.49969314369E+03 0.  0.
        4    1    3    3  502    0 -0.13506372163E+03 -0.11608455271E+03  0.81947995364E+02  0.19604825713E+03  0.12699999809E+01 0. -1.
       -4    1    3    3    0  502  0.13506372163E+03  0.11608455271E+03 -0.30057805765E+03  0.34938032847E+03  0.12699999809E+01 0.  1.
</event>
<event>
 5   0  0.2715483E-02  0.4992861E+03  0.7818609E-02  0.1013965E+00
        1   -1    0    0  501    0  0.00000000000E+00  0.00000000000E+00  0.34120713618E+03  0.34120713622E+03  0.50400001928E-02 0. -1.
       -1   -1    0    0    0  501  0.00000000000E+00  0.00000000000E+00 -0.18265051432E+03  0.18265051439E+03  0.50400001928E-02 0.  1.
    10030    2    1    2    0    0  0.00000000000E+00  0.00000000000E+00  0.15855662186E+03  0.52385765061E+03  0.49928612615E+03 0.  0.
        5    1    3    3  502    0 -0.92924532523E+02 -0.10300771045E+03  0.29698441462E+03  0.32782219218E+03  0.46999998093E+01 0. -1.
       -5    1    3    3    0  502  0.92924532523E+02  0.10300771045E+03 -0.13842779276E+03  0.19603545843E+03  0.46999998093E+01 0.  1.
</event>
<event>
 5   0  0.2723308E-02  0.5026080E+03  0.7818609E-02  0.1013100E+00
       -1   -1    0    0    0  501  0.00000000000E+00  0.00000000000E+00  0.77112420700E+02  0.77112420864E+02  0.50400001928E-02 0.  1.
        1   -1    0    0  501    0  0.00000000000E+00  0.00000000000E+00 -0.81898224572E+03  0.81898224574E+03  0.50400001928E-02 0. -1.
    10030    2    1    2    0    0  0.00000000000E+00  0.00000000000E+00 -0.74186982502E+03  0.89609466660E+03  0.50260801250E+03 0.  0.
        4    1    3    3  502    0 -0.17628019636E+03 -0.94796609764E+02 -0.64185781635E+03  0.67234230431E+03  0.12699999809E+01 0. -1.
       -4    1    3    3    0  502  0.17628019636E+03  0.94796609764E+02 -0.10001200867E+03  0.22375236229E+03  0.12699999809E+01 0.  1.
</event>
<event>
 5   0  0.2779445E-02  0.4937921E+03  0.7818609E-02  0.1015412E+00
       -1   -1    0    0    0  501  0.00000000000E+00  0.00000000000E+00  0.23481233451E+03  0.23481233457E+03  0.50400001928E-02 0.  1.
        1   -1    0    0  501    0  0.00000000000E+00  0.00000000000E+00 -0.25960165065E+03  0.25960165070E+03  0.50400001928E-02 0. -1.
    10030    2    1    2    0    0  0.00000000000E+00  0.00000000000E+00 -0.24789316134E+02  0.49441398526E+03  0.49379214112E+03 0.  0.
        3    1    3    3  502    0 -0.17458749707E+03  0.92079233944E+02 -0.16089961017E+03  0.25465285038E+03  0.10100000352E+00 0. -1.
       -3    1    3    3    0  502  0.17458749707E+03 -0.92079233944E+02  0.13611029403E+03  0.23976113488E+03  0.10100000352E+00 0.  1.
</event>
<event>
 5   0  0.1805500E-02  0.4984214E+03  0.7818609E-02  0.1014192E+00
       -3   -1    0    0    0  501  0.00000000000E+00  0.00000000000E+00  0.46198529999E+03  0.46198531103E+03  0.10100000352E+00 0. -1.
        3   -1    0    0  501    0  0.00000000000E+00  0.00000000000E+00 -0.13443273207E+03  0.13443277001E+03  0.10100000352E+00 0.  1.
    10030    2    1    2    0    0  0.00000000000E+00  0.00000000000E+00  0.32755256792E+03  0.59641808104E+03  0.49842135050E+03 0.  0.
        1    1    3    3  502    0 -0.16238379793E+03 -0.51775807856E+02  0.38133881324E+03  0.41769429325E+03  0.50400001928E-02 0. -1.
       -1    1    3    3    0  502  0.16238379793E+03  0.51775807856E+02 -0.53786245320E+02  0.17872378778E+03  0.50400001928E-02 0.  1.
</event>
<event>
 5   0  0.1805500E-02  0.5048383E+03  0.7818609E-02  0.1012524E+00
       -3   -1    0    0    0  501  0.00000000000E+00  0.00000000000E+00  0.88673300914E+02  0.88673358435E+02  0.10100000352E+00 0.  1.
        3   -1    0    0  501    0  0.00000000000E+00  0.00000000000E+00 -0.71854093785E+03  0.71854094495E+03  0.10100000352E+00 0. -1.
    10030    2    1    2    0    0  0.00000000000E+00  0.00000000000E+00 -0.62986763693E+03  0.80721430338E+03  0.50483828255E+03 0.  0.
        2    1    3    3  502    0 -0.99937325236E+02  0.22612166025E+03 -0.39641705117E+03  0.46718834818E+03  0.25500000920E-02 0. -1.
       -2    1    3    3    0  502  0.99937325236E+02 -0.22612166025E+03 -0.23345058576E+03  0.34002595520E+03  0.25500000920E-02 0.  1.
</event>
<event>
 5   0  0.2715483E-02  0.5021902E+03  0.7818609E-02  0.1013209E+00
       -1   -1    0    0    0  501  0.00000000000E+00  0.00000000000E+00  0.12078754836E+03  0.12078754847E+03  0.50400001928E-02 0.  1.
        1   -1    0    0  501    0  0.00000000000E+00  0.00000000000E+00 -0.52198043356E+03  0.52198043359E+03  0.50400001928E-02 0. -1.
    10030    2    1    2    0    0  0.00000000000E+00  0.00000000000E+00 -0.40119288520E+03  0.64276798205E+03  0.50219015086E+03 0.  0.
        5    1    3    3  502    0 -0.37445291733E+02 -0.17848897425E+03 -0.42142112722E+03  0.45921489552E+03  0.46999998093E+01 0. -1.
       -5    1    3    3    0  502  0.37445291733E+02  0.17848897425E+03  0.20228242022E+02  0.18355308653E+03  0.46999998093E+01 0.  1.
</event>
<event>
 5   0  0.2723308E-02  0.4997930E+03  0.7818609E-02  0.1013833E+00
       -1   -1    0    0    0  501  0.00000000000E+00  0.00000000000E+00  0.74274034716E+02  0.74274034887E+02  0.50400001928E-02 0. -1.
        1   -1    0    0  501    0  0.00000000000E+00  0.00000000000E+00 -0.84078190193E+03  0.84078190195E+03  0.50400001928E-02 0.  1.
    10030    2    1    2    0    0  0.00000000000E+00  0.00000000000E+00 -0.76650786722E+03  0.91505593684E+03  0.49979301419E+03 0.  0.
        4    1    3    3  502    0 -0.15859202227E+03 -0.13097708178E+02 -0.30491017363E+02  0.16203177012E+03  0.12699999809E+01 0. -1.
       -4    1    3    3    0  502  0.15859202227E+03  0.13097708178E+02 -0.73601684986E+03  0.75302416672E+03  0.12699999809E+01 0.  1.
</event>
<event>
 5   0  0.2715483E-02  0.5009955E+03  0.7818609E-02  0.1013519E+00
       -1   -1    0    0    0  501  0.00000000000E+00  0.00000000000E+00  0.35667738306E+02  0.35667738662E+02  0.50400001928E-02 0. -1.
        1   -1    0    0  501    0  0.00000000000E+00  0.00000000000E+00 -0.17592680264E+04  0.17592680264E+04  0.50400001928E-02 0.  1.
    10030    2    1    2    0    0  0.00000000000E+00  0.00000000000E+00 -0.17236002881E+04  0.17949357651E+04  0.50099545668E+03 0.  0.
        5    1    3    3  502    0 -0.19925568520E+03  0.11460147652E+03 -0.12181105758E+04  0.12396175989E+04  0.46999998093E+01 0. -1.
       -5    1    3    3    0  502  0.19925568520E+03 -0.11460147652E+03 -0.50548971232E+03  0.55531816625E+03  0.46999998093E+01 0.  1.
</event>
<event>
 5   0  0.4451135E-02  0.5101867E+03  0.7818609E-02  0.1011154E+00
        2   -1    0    0  501    0  0.00000000000E+00  0.00000000000E+00  0.10366959672E+04  0.10366959672E+04  0.25500000920E-02 0. -1.
       -2   -1    0    0    0  501  0.00000000000E+00  0.00000000000E+00 -0.62769248681E+02  0.62769248733E+02  0.25500000920E-02 0.  1.
    10030    2    1    2    0    0  0.00000000000E+00  0.00000000000E+00  0.97392671849E+03  0.10994652159E+04  0.51018673836E+03 0.  0.
        1    1    3    3  502    0  0.44840987352E+01 -0.18919519386E+03  0.11834886483E+03  0.22320703921E+03  0.50400001928E-02 0.  1.
       -1    1    3    3    0  502 -0.44840987352E+01  0.18919519386E+03  0.85557785366E+03  0.87625817669E+03  0.50400001928E-02 0. -1.
</event>
<event>
 5   0  0.2643185E-02  0.4993895E+03  0.7818609E-02  0.1013938E+00
        1   -1    0    0  501    0  0.00000000000E+00  0.00000000000E+00  0.45918861735E+02  0.45918862011E+02  0.50400001928E-02 0.  1.
       -1   -1    0    0    0  501  0.00000000000E+00  0.00000000000E+00 -0.13577745952E+04  0.13577745952E+04  0.50400001928E-02 0. -1.
    10030    2    1    2    0    0  0.00000000000E+00  0.00000000000E+00 -0.13118557334E+04  0.14036934572E+04  0.49938948368E+03 0.  0.
        1    1    3    3  502    0 -0.95069803455E+02 -0.29297146779E+02 -0.12189718163E+02  0.10022564339E+03  0.50400001928E-02 0.  1.
       -1    1    3    3    0  502  0.95069803455E+02  0.29297146779E+02 -0.12996660153E+04  0.13034678138E+04  0.50400001928E-02 0. -1.
</event>
<event>
 5   0  0.4519539E-02  0.5017837E+03  0.7818609E-02  0.1013314E+00
        2   -1    0    0  501    0  0.00000000000E+00  0.00000000000E+00  0.25779368478E+03  0.25779368479E+03  0.25500000920E-02 0. -1.
       -2   -1    0    0    0  501  0.00000000000E+00  0.00000000000E+00 -0.24417484339E+03  0.24417484340E+03  0.25500000920E-02 0.  1.
    10030    2    1    2    0    0  0.00000000000E+00  0.00000000000E+00  0.13618841394E+02  0.50196852820E+03  0.50178374870E+03 0.  0.
        4    1    3    3  502    0  0.95038228294E+02 -0.67660584643E+02  0.22900582378E+03  0.25701264517E+03  0.12699999809E+01 0. -1.
       -4    1    3    3    0  502 -0.95038228294E+02  0.67660584643E+02 -0.21538698238E+03  0.24495588303E+03  0.12699999809E+01 0.  1.
</event>
<event>
 5   0  0.4631619E-02  0.5140616E+03  0.7818609E-02  0.1010172E+00
        2   -1    0    0  501    0  0.00000000000E+00  0.00000000000E+00  0.18119332606E+04  0.18119332606E+04  0.25500000920E-02 0.  1.
       -2   -1    0    0    0  501  0.00000000000E+00  0.00000000000E+00 -0.36460962753E+02  0.36460962842E+02  0.25500000920E-02 0. -1.
    10030    2    1    2    0    0  0.00000000000E+00  0.00000000000E+00  0.17754722979E+04  0.18483942234E+04  0.51406159634E+03 0.  0.
        5    1    3    3  502    0 -0.20967442170E+03  0.14858133982E+03  0.89392607997E+03  0.93014284070E+03  0.46999998093E+01 0. -1.
       -5    1    3    3    0  502  0.20967442170E+03 -0.14858133982E+03  0.88154621788E+03  0.91825138275E+03  0.46999998093E+01 0.  1.
</event>
<event>
 5   0  0.1805500E-02  0.5009050E+03  0.7818609E-02  0.1013543E+00
        4   -1    0    0  501    0  0.00000000000E+00  0.00000000000E+00  0.99473987425E+03  0.99474068497E+03  0.12699999809E+01 0.  1.
       -4   -1    0    0    0  501  0.00000000000E+00  0.00000000000E+00 -0.63050912455E+02  0.63063701614E+02  0.12699999809E+01 0. -1.
    10030    2    1    2    0    0  0.00000000000E+00  0.00000000000E+00  0.93168896180E+03  0.10578043866E+04  0.50090497975E+03 0.  0.
        3    1    3    3  502    0 -0.40261874732E+02  0.86167221442E+02  0.95512600888E+03  0.95984973389E+03  0.10100000352E+00 0.  1.
       -3    1    3    3    0  502  0.40261874732E+02 -0.86167221442E+02 -0.23437047078E+02  0.97954652696E+02  0.10100000352E+00 0. -1.
</event>
<event>
 5   0  0.2643185E-02  0.4853424E+03  0.7818609E-02  0.1017677E+00
       -1   -1    0    0    0  501  0.00000000000E+00  0.00000000000E+00  0.84094050127E+02  0.84094050278E+02  0.50400001928E-02 0.  1.
        1   -1    0    0  501    0  0.00000000000E+00  0.00000000000E+00 -0.70027923960E+03  0.70027923962E+03  0.50400001928E-02 0. -1.
    10030    2    1    2    0    0  0.00000000000E+00  0.00000000000E+00 -0.61618518948E+03  0.78437328990E+03  0.48534242569E+03 0.  0.
        1    1    3    3  502    0 -0.24228786160E+02  0.10013175635E+02 -0.69798391579E+03  0.69847608728E+03  0.50400001928E-02 0. -1.
       -1    1    3    3    0  502  0.24228786160E+02 -0.10013175635E+02  0.81798726320E+02  0.85897202621E+02  0.50400001928E-02 0.  1.
</event>
<event>
 5   0  0.4534223E-02  0.4997501E+03  0.7818609E-02  0.1013844E+00
        2   -1    0    0  501    0  0.00000000000E+00  0.00000000000E+00  0.13383040744E+04  0.13383040744E+04  0.25500000920E-02 0.  1.
       -2   -1    0    0    0  501  0.00000000000E+00  0.00000000000E+00 -0.46654219045E+02  0.46654219114E+02  0.25500000920E-02 0. -1.
    10030    2    1    2    0    0  0.00000000000E+00  0.00000000000E+00  0.12916498553E+04  0.13849582935E+04  0.49975006347E+03 0.  0.
        2    1    3    3  502    0 -0.60902447034E+02 -0.63676668715E+02  0.12938220706E+04  0.12968189452E+04  0.25500000920E-02 0.  1.
       -2    1    3    3    0  502  0.60902447034E+02  0.63676668715E+02 -0.21722152822E+01  0.88139348302E+02  0.25500000920E-02 0. -1.
</event>
<event>
 5   0  0.2779445E-02  0.5226747E+03  0.7818609E-02  0.1008024E+00
        1   -1    0    0  501    0  0.00000000000E+00  0.00000000000E+00  0.46093292087E+03  0.46093292089E+03  0.50400001928E-02 0.  1.
       -1   -1    0    0    0  501  0.00000000000E+00  0.00000000000E+00 -0.14817171507E+03  0.14817171515E+03  0.50400001928E-02 0. -1.
    10030    2    1    2    0    0  0.00000000000E+00  0.00000000000E+00  0.31276120580E+03  0.60910463605E+03  0.52267474188E+03 0.  0.
        3    1    3    3  502    0  0.99794223644E+02  0.12164610174E+03 -0.86787914833E+02  0.17969088320E+03  0.10100000352E+00 0. -1.
       -3    1    3    3    0  502 -0.99794223644E+02 -0.12164610174E+03  0.39954912063E+03  0.42941375285E+03  0.10100000352E+00 0.  1.
</event>
<event>
 5   0  0.2779445E-02  0.5005090E+03  0.7818609E-02  0.1013646E+00
       -1   -1    0    0    0  501  0.00000000000E+00  0.00000000000E+00  0.92022562398E+02  0.92022562536E+02  0.50400001928E-02 0. -1.
        1   -1    0    0  501    0  0.00000000000E+00  0.00000000000E+00 -0.68056478725E+03  0.68056478727E+03  0.50400001928E-02 0.  1.
    10030    2    1    2    0    0  0.00000000000E+00  0.00000000000E+00 -0.58854222485E+03  0.77258734980E+03  0.50050900356E+03 0.  0.
        3    1    3    3  502    0 -0.13226728901E+03  0.19277376533E+03 -0.15645797878E+03  0.28131027295E+03  0.10100000352E+00 0. -1.
       -3    1    3    3    0  502  0.13226728901E+03 -0.19277376533E+03 -0.43208424607E+03  0.49127707686E+03  0.10100000352E+00 0.  1.
</event>
<event>
 5   0  0.4534223E-02  0.4991337E+03  0.7818609E-02  0.1014005E+00
        2   -1    0    0  501    0  0.00000000000E+00  0.00000000000E+00  0.46573186635E+03  0.46573186636E+03  0.25500000920E-02 0.  1.
       -2   -1    0    0    0  501  0.00000000000E+00  0.00000000000E+00 -0.13373274535E+03  0.13373274537E+03  0.25500000920E-02 0. -1.
    10030    2    1    2    0    0  0.00000000000E+00  0.00000000000E+00  0.33199912100E+03  0.59946461173E+03  0.49913365381E+03 0.  0.
        2    1    3    3  502    0 -0.85079391378E+02 -0.33078783696E+02 -0.11296305968E+03  0.14523553845E+03  0.25500000920E-02 0. -1.
       -2    1    3    3    0  502  0.85079391378E+02  0.33078783696E+02  0.44496218069E+03  0.45422907328E+03  0.25500000920E-02 0.  1.
</event>
<event>
 5   0  0.2779445E-02  0.4997650E+03  0.7818609E-02  0.1013840E+00
       -1   -1    0    0    0  501  0.00000000000E+00  0.00000000000E+00  0.33574776294E+03  0.33574776297E+03  0.50400001928E-02 0. -1.
        1   -1    0    0  501    0  0.00000000000E+00  0.00000000000E+00 -0.18597670761E+03  0.18597670768E+03  0.50400001928E-02 0.  1.
    10030    2    1    2    0    0  0.00000000000E+00  0.00000000000E+00  0.14977105533E+03  0.52172447065E+03  0.49976499904E+03 0.  0.
        3    1    3    3  502    0  0.70679926095E+02  0.22878598767E+03  0.14945653234E+03  0.28226927812E+03  0.10100000352E+00 0. -1.
       -3    1    3    3    0  502 -0.70679926095E+02 -0.22878598767E+03  0.31452298504E+00  0.23945519254E+03  0.10100000352E+00 0.  1.
</event>
<event>
 5   0  0.4409622E-02  0.4990937E+03  0.7818609E-02  0.1014016E+00
       -2   -1    0    0    0  501  0.00000000000E+00  0.00000000000E+00  0.23615594198E+03  0.23615594199E+03  0.25500000920E-02 0.  1.
        2   -1    0    0  501    0  0.00000000000E+00  0.00000000000E+00 -0.26369706131E+03  0.26369706132E+03  0.25500000920E-02 0. -1.
    10030    2    1    2    0    0  0.00000000000E+00  0.00000000000E+00 -0.27541119334E+02  0.49985300332E+03  0.49909369027E+03 0.  0.
        3    1    3    3  502    0 -0.15326358167E+03  0.68481325377E+02  0.17115650694E+03  0.23973730928E+03  0.10100000352E+00 0.  1.
       -3    1    3    3    0  502  0.15326358167E+03 -0.68481325377E+02 -0.19869762628E+03  0.26011569403E+03  0.10100000352E+00 0. -1.
</event>
<event>
 5   0  0.4409622E-02  0.5014570E+03  0.7818609E-02  0.1013399E+00
       -2   -1    0    0    0  501  0.00000000000E+00  0.00000000000E+00  0.10354178422E+03  0.10354178425E+03  0.25500000920E-02 0. -1.
        2   -1    0    0  501    0  0.00000000000E+00  0.00000000000E+00 -0.60714412169E+03  0.60714412169E+03  0.25500000920E-02 0.  1.
    10030    2    1    2    0    0  0.00000000000E+00  0.00000000000E+00 -0.50360233747E+03  0.71068590595E+03  0.50145701970E+03 0.  0.
        3    1    3    3  502    0 -0.14107176004E+03 -0.17541218285E+03 -0.40830279870E+03  0.46624227715E+03  0.10100000352E+00 0.  1.
       -3    1    3    3    0  502  0.14107176004E+03  0.17541218285E+03 -0.95299538761E+02  0.24444362880E+03  0.10100000352E+00 0. -1.
</event>
<event>
 5   0  0.4534223E-02  0.4970101E+03  0.7818609E-02  0.1014562E+00
       -2   -1    0    0    0  501  0.00000000000E+00  0.00000000000E+00  0.11570495714E+03  0.11570495716E+03  0.25500000920E-02 0.  1.
        2   -1    0    0  501    0  0.00000000000E+00  0.00000000000E+00 -0.53372624465E+03  0.53372624466E+03  0.25500000920E-02 0. -1.
    10030    2    1    2    0    0  0.00000000000E+00  0.00000000000E+00 -0.41802128752E+03  0.64943120182E+03  0.49701014988E+03 0.  0.
        2    1    3    3  502    0 -0.11405577732E+03 -0.70918019119E+02 -0.48221744784E+03  0.50057142626E+03  0.25500000920E-02 0. -1.
       -2    1    3    3    0  502  0.11405577732E+03  0.70918019119E+02  0.64196160323E+02  0.14885977557E+03  0.25500000920E-02 0.  1.
</event>
<event>
 5   0  0.2723308E-02  0.5004302E+03  0.7818609E-02  0.1013667E+00
       -1   -1    0    0    0  501  0.00000000000E+00  0.00000000000E+00  0.96402316622E+02  0.96402316754E+02  0.50400001928E-02 0. -1.
        1   -1    0    0  501    0  0.00000000000E+00  0.00000000000E+00 -0.64944071891E+03  0.64944071893E+03  0.50400001928E-02 0.  1.
    10030    2    1    2    0    0  0.00000000000E+00  0.00000000000E+00 -0.55303840229E+03  0.74584303568E+03  0.50043017442E+03 0.  0.
        4    1    3    3  502    0  0.21443993797E+03  0.12569185641E+03 -0.31927709665E+03  0.40462625609E+03  0.12699999809E+01 0.  1.
       -4    1    3    3    0  502 -0.21443993797E+03 -0.12569185641E+03 -0.23376130563E+03  0.34121677960E+03  0.12699999809E+01 0. -1.
</event>
<event>
 5   0  0.4451135E-02  0.4992372E+03  0.7818609E-02  0.1013978E+00
       -2   -1    0    0    0  501  0.00000000000E+00  0.00000000000E+00  0.11644026844E+03  0.11644026847E+03  0.25500000920E-02 0. -1.
        2   -1    0    0  501    0  0.00000000000E+00  0.00000000000E+00 -0.53511936714E+03  0.53511936715E+03  0.25500000920E-02 0.  1.
    10030    2    1    2    0    0  0.00000000000E+00  0.00000000000E+00 -0.41867909870E+03  0.65155963562E+03  0.49923718920E+03 0.  0.
        1    1    3    3  502    0 -0.12740954551E+03  0.18794790056E+03 -0.34466783524E+03  0.41273904866E+03  0.50400001928E-02 0.  1.
       -1    1    3    3    0  502  0.12740954551E+03 -0.18794790056E+03 -0.74011263459E+02  0.23882058696E+03  0.50400001928E-02 0. -1.
</event>
<event>
 5   0  0.4534223E-02  0.5000710E+03  0.7818609E-02  0.1013760E+00
       -2   -1    0    0    0  501  0.00000000000E+00  0.00000000000E+00  0.78405350438E+02  0.78405350480E+02  0.25500000920E-02 0. -1.
        2   -1    0    0  501    0  0.00000000000E+00  0.00000000000E+00 -0.79736600008E+03  0.79736600008E+03  0.25500000920E-02 0.  1.
    10030    2    1    2    0    0  0.00000000000E+00  0.00000000000E+00 -0.71896064964E+03  0.87577135056E+03  0.50007103769E+03 0.  0.
        2    1    3    3  502    0 -0.19330569551E+03 -0.58264021757E+02 -0.61779452568E+03  0.64994758567E+03  0.25500000920E-02 0.  1.
       -2    1    3    3    0  502  0.19330569551E+03  0.58264021757E+02 -0.10116612396E+03  0.22582376489E+03  0.25500000920E-02 0. -1.
</event>
<event>
 5   0  0.4451135E-02  0.4997137E+03  0.7818609E-02  0.1013854E+00
       -2   -1    0    0    0  501  0.00000000000E+00  0.00000000000E+00  0.46556489541E+02  0.46556489611E+02  0.25500000920E-02 0.  1.
        2   -1    0    0  501    0  0.00000000000E+00  0.00000000000E+00 -0.13409180836E+04  0.13409180836E+04  0.25500000920E-02 0. -1.
    10030    2    1    2    0    0  0.00000000000E+00  0.00000000000E+00 -0.12943615941E+04  0.13874745732E+04  0.49971367316E+03 0.  0.
        1    1    3    3  502    0 -0.62225097813E+02 -0.19593337631E+03 -0.25288693792E+03  0.32590436350E+03  0.50400001928E-02 0. -1.
       -1    1    3    3    0  502  0.62225097813E+02  0.19593337631E+03 -0.10414746562E+04  0.10615702097E+04  0.50400001928E-02 0.  1.
</event>
<event>
 5   0  0.4409622E-02  0.4994706E+03  0.7818609E-02  0.1013917E+00
       -2   -1    0    0    0  501  0.00000000000E+00  0.00000000000E+00  0.17289316127E+03  0.17289316129E+03  0.25500000920E-02 0. -1.
        2   -1    0    0  501    0  0.00000000000E+00  0.00000000000E+00 -0.36072979338E+03  0.36072979339E+03  0.25500000920E-02 0.  1.
    10030    2    1    2    0    0  0.00000000000E+00  0.00000000000E+00 -0.18783663210E+03  0.53362295468E+03  0.49947057711E+03 0.  0.
        3    1    3    3  502    0  0.99118823304E+02  0.19602488229E+03 -0.22085936562E+03  0.31149504842E+03  0.10100000352E+00 0.  1.
       -3    1    3    3    0  502 -0.99118823304E+02 -0.19602488229E+03  0.33022733514E+02  0.22212790626E+03  0.10100000352E+00 0. -1.
</event>
<event>
 5   0  0.1805500E-02  0.5063045E+03  0.7818609E-02  0.1012146E+00
        4   -1    0    0  501    0  0.00000000000E+00  0.00000000000E+00  0.17316556886E+03  0.17317022590E+03  0.12699999809E+01 0.  1.
       -4   -1    0    0    0  501  0.00000000000E+00  0.00000000000E+00 -0.37007468728E+03  0.37007686643E+03  0.12699999809E+01 0. -1.
    10030    2    1    2    0    0  0.00000000000E+00  0.00000000000E+00 -0.19690911842E+03  0.54324709233E+03  0.50630445624E+03 0.  0.
        3    1    3    3  502    0  0.10368287881E+03  0.10897276892E+01 -0.34624847804E+03  0.36144065296E+03  0.10100000352E+00 0. -1.
       -3    1    3    3    0  502 -0.10368287881E+03 -0.10897276892E+01  0.14933935962E+03  0.18180643938E+03  0.10100000352E+00 0.  1.
</event>
<event>
 5   0  0.4409622E-02  0.4999988E+03  0.7818609E-02  0.1013779E+00
        2   -1    0    0  501    0  0.00000000000E+00  0.00000000000E+00  0.75586278686E+02  0.75586278729E+02  0.25500000920E-02 0. -1.
       -2   -1    0    0    0  501  0.00000000000E+00  0.00000000000E+00 -0.82686573767E+03  0.82686573767E+03  0.25500000920E-02 0.  1.
    10030    2    1    2    0    0  0.00000000000E+00  0.00000000000E+00 -0.75127945898E+03  0.90245201640E+03  0.49999881642E+03 0.  0.
        3    1    3    3  502    0  0.16587494878E+03 -0.13992959407E+03 -0.59965861956E+03  0.63771879394E+03  0.10100000352E+00 0.  1.
       -3    1    3    3    0  502 -0.16587494878E+03  0.13992959407E+03 -0.15162083943E+03  0.26473322247E+03  0.10100000352E+00 0. -1.
</event>
<event>
 5   0  0.4519539E-02  0.4991742E+03  0.7818609E-02  0.1013995E+00
       -2   -1    0    0    0  501  0.00000000000E+00  0.00000000000E+00  0.65401362561E+02  0.65401362611E+02  0.25500000920E-02 0. -1.
        2   -1    0    0  501    0  0.00000000000E+00  0.00000000000E+00 -0.95248353683E+03  0.95248353683E+03  0.25500000920E-02 0.  1.
    10030    2    1    2    0    0  0.00000000000E+00  0.00000000000E+00 -0.88708217426E+03  0.10178848994E+04  0.49917420267E+03 0.  0.
        4    1    3    3  502    0  0.10067469029E+03 -0.19082890680E+03 -0.18770412137E+03  0.28598166902E+03  0.12699999809E+01 0. -1.
       -4    1    3    3    0  502 -0.10067469029E+03  0.19082890680E+03 -0.69937805290E+03  0.73190323042E+03  0.12699999809E+01 0.  1.
</event>
<event>
 5   0  0.2643185E-02  0.4969946E+03  0.7818609E-02  0.1014566E+00
        1   -1    0    0  501    0  0.00000000000E+00  0.00000000000E+00  0.61883702667E+03  0.61883702669E+03  0.50400001928E-02 0. -1.
       -1   -1    0    0    0  501  0.00000000000E+00  0.00000000000E+00 -0.99785426495E+02  0.99785426622E+02  0.50400001928E-02 0.  1.
    10030    2    1    2    0    0  0.00000000000E+00  0.00000000000E+00  0.51905160018E+03  0.71862245331E+03  0.49699463454E+03 0.  0.
        1    1    3    3  502    0 -0.12904906718E+03 -0.21090517374E+03  0.29542063775E+03  0.38523759848E+03  0.50400001928E-02 0. -1.
       -1    1    3    3    0  502  0.12904906718E+03  0.21090517374E+03  0.22363096242E+03  0.33338485483E+03  0.50400001928E-02 0.  1.
</event>
<event>
 5   0  0.2719671E-02  0.5003621E+03  0.7818609E-02  0.1013684E+00
       -1   -1    0    0    0  501  0.00000000000E+00  0.00000000000E+00  0.18801261958E+03  0.18801261964E+03  0.50400001928E-02 0.  1.
        1   -1    0    0  501    0  0.00000000000E+00  0.00000000000E+00 -0.33290615384E+03  0.33290615388E+03  0.50400001928E-02 0. -1.
    10030    2    1    2    0    0  0.00000000000E+00  0.00000000000E+00 -0.14489353427E+03  0.52091877353E+03  0.50036210122E+03 0.  0.
        2    1    3    3  502    0 -0.81439603793E+02 -0.15892063321E+03  0.10997288895E+03  0.20971936734E+03  0.25500000920E-02 0.  1.
       -2    1    3    3    0  502  0.81439603793E+02  0.15892063321E+03 -0.25486642321E+03  0.31119940619E+03  0.25500000920E-02 0. -1.
</event>
<event>
 5   0  0.2715483E-02  0.4996167E+03  0.7818609E-02  0.1013879E+00
        1   -1    0    0  501    0  0.00000000000E+00  0.00000000000E+00  0.39054909201E+03  0.39054909204E+03  0.50400001928E-02 0. -1.
       -1   -1    0    0    0  501  0.00000000000E+00  0.00000000000E+00 -0.15978581522E+03  0.15978581530E+03  0.50400001928E-02 0.  1.
    10030    2    1    2    0    0  0.00000000000E+00  0.00000000000E+00  0.23076327679E+03  0.55033490735E+03  0.49961667339E+03 0.  0.
        5    1    3    3  502    0  0.82967702183E+01  0.18397452352E+03  0.30122983189E+03  0.35309625220E+03  0.46999998093E+01 0. -1.
       -5    1    3    3    0  502 -0.82967702183E+01 -0.18397452352E+03 -0.70466555102E+02  0.19723865515E+03  0.46999998093E+01 0.  1.
</event>
<event>
 5   0  0.2715483E-02  0.5009829E+03  0.7818609E-02  0.1013523E+00
       -1   -1    0    0    0  501  0.00000000000E+00  0.00000000000E+00  0.11970247870E+03  0.11970247881E+03  0.50400001928E-02 0. -1.
        1   -1    0    0  501    0  0.00000000000E+00  0.00000000000E+00 -0.52418258814E+03  0.52418258816E+03  0.50400001928E-02 0.  1.
    10030    2    1    2    0    0  0.00000000000E+00  0.00000000000E+00 -0.40448010943E+03  0.64388506697E+03  0.50098285454E+03 0.  0.
        5    1    3    3  502    0 -0.18525324915E+03 -0.22139380775E+02  0.12495466665E+02  0.18704851025E+03  0.46999998093E+01 0. -1.
       -5    1    3    3    0  502  0.18525324915E+03  0.22139380775E+02 -0.41697557610E+03  0.45683655673E+03  0.46999998093E+01 0.  1.
</event>
<event>
 5   0  0.2643185E-02  0.5009966E+03  0.7818609E-02  0.1013519E+00
        1   -1    0    0  501    0  0.00000000000E+00  0.00000000000E+00  0.21907034330E+03  0.21907034336E+03  0.50400001928E-02 0. -1.
       -1   -1    0    0    0  501  0.00000000000E+00  0.00000000000E+00 -0.28643489173E+03  0.28643489177E+03  0.50400001928E-02 0.  1.
    10030    2    1    2    0    0  0.00000000000E+00  0.00000000000E+00 -0.67364548432E+02  0.50550523513E+03  0.50099656721E+03 0.  0.
        1    1    3    3  502    0  0.13648562921E+03 -0.13104610672E+03 -0.19931800330E+03  0.27482553653E+03  0.50400001928E-02 0.  1.
       -1    1    3    3    0  502 -0.13648562921E+03  0.13104610672E+03  0.13195345486E+03  0.23067969860E+03  0.50400001928E-02 0. -1.
</event>
<event>
 5   0  0.4519539E-02  0.4998109E+03  0.7818609E-02  0.1013828E+00
       -2   -1    0    0    0  501  0.00000000000E+00  0.00000000000E+00  0.13815679402E+03  0.13815679404E+03  0.25500000920E-02 0.  1.
        2   -1    0    0  501    0  0.00000000000E+00  0.00000000000E+00 -0.45204236418E+03  0.45204236419E+03  0.25500000920E-02 0. -1.
    10030    2    1    2    0    0  0.00000000000E+00  0.00000000000E+00 -0.31388557016E+03  0.59019915822E+03  0.49981085944E+03 0.  0.
        4    1    3    3  502    0  0.12616352852E+03  0.20508429124E+02  0.96631904096E+02  0.16024097286E+03  0.12699999809E+01 0.  1.
       -4    1    3    3    0  502 -0.12616352852E+03 -0.20508429124E+02 -0.41051747426E+03  0.42995818537E+03  0.12699999809E+01 0. -1.
</event>
<event>
 5   0  0.2643185E-02  0.4992730E+03  0.7818609E-02  0.1013969E+00
       -1   -1    0    0    0  501  0.00000000000E+00  0.00000000000E+00  0.40357124339E+02  0.40357124654E+02  0.50400001928E-02 0. -1.
        1   -1    0    0  501    0  0.00000000000E+00  0.00000000000E+00 -0.15441727022E+04  0.15441727022E+04  0.50400001928E-02 0.  1.
    10030    2    1    2    0    0  0.00000000000E+00  0.00000000000E+00 -0.15038155779E+04  0.15845298269E+04  0.49927295140E+03 0.  0.
        1    1    3    3  502    0  0.18523008516E+03  0.13526879429E+03 -0.43916734759E+03  0.49545513457E+03  0.50400001928E-02 0. -1.
       -1    1    3    3    0  502 -0.18523008516E+03 -0.13526879429E+03 -0.10646482303E+04  0.10890746923E+04  0.50400001928E-02 0.  1.
</event>
<event>
 5   0  0.4631619E-02  0.4996076E+03  0.7818609E-02  0.1013881E+00
       -2   -1    0    0    0  501  0.00000000000E+00  0.00000000000E+00  0.20577286449E+03  0.20577286451E+03  0.25500000920E-02 0.  1.
        2   -1    0    0  501    0  0.00000000000E+00  0.00000000000E+00 -0.30325638252E+03  0.30325638253E+03  0.25500000920E-02 0. -1.
    10030    2    1    2    0    0  0.00000000000E+00  0.00000000000E+00 -0.97483518033E+02  0.50902924704E+03  0.49960758406E+03 0.  0.
        5    1    3    3  502    0  0.12826342246E+03 -0.13386263582E+03 -0.21925713701E+03  0.28716979809E+03  0.46999998093E+01 0. -1.
       -5    1    3    3    0  502 -0.12826342246E+03  0.13386263582E+03  0.12177361897E+03  0.22185944895E+03  0.46999998093E+01 0.  1.
</event>
<event>
 5   0  0.4631619E-02  0.5019550E+03  0.7818609E-02  0.1013270E+00
       -2   -1    0    0    0  501  0.00000000000E+00  0.00000000000E+00  0.78538114873E+02  0.78538114915E+02  0.25500000920E-02 0. -1.
        2   -1    0    0  501    0  0.00000000000E+00  0.00000000000E+00 -0.80202712326E+03  0.80202712326E+03  0.25500000920E-02 0.  1.
    10030    2    1    2    0    0  0.00000000000E+00  0.00000000000E+00 -0.72348900839E+03  0.88056523818E+03  0.50195497152E+03 0.  0.
        5    1    3    3  502    0 -0.38917878261E+02  0.46482995780E+02  0.65420893437E+02  0.89315471456E+02  0.46999998093E+01 0. -1.
       -5    1    3    3    0  502  0.38917878261E+02 -0.46482995780E+02 -0.78890990182E+03  0.79124976672E+03  0.46999998093E+01 0.  1.
</event>
<event>
 5   0  0.4631619E-02  0.5003385E+03  0.7818609E-02  0.1013691E+00
        2   -1    0    0  501    0  0.00000000000E+00  0.00000000000E+00  0.11373638667E+04  0.11373638667E+04  0.25500000920E-02 0.  1.
       -2   -1    0    0    0  501  0.00000000000E+00  0.00000000000E+00 -0.55026062569E+02  0.55026062629E+02  0.25500000920E-02 0. -1.
    10030    2    1    2    0    0  0.00000000000E+00  0.00000000000E+00  0.10823378042E+04  0.11923899294E+04  0.50033850674E+03 0.  0.
        5    1    3    3  502    0 -0.50298111921E+02 -0.44542833060E+01  0.11249854565E+04  0.11261279270E+04  0.46999998093E+01 0.  1.
       -5    1    3    3    0  502  0.50298111921E+02  0.44542833060E+01 -0.42647652349E+02  0.66262002322E+02  0.46999998093E+01 0. -1.
</event>
<event>
 5   0  0.1805500E-02  0.4985760E+03  0.7818609E-02  0.1014151E+00
        3   -1    0    0  501    0  0.00000000000E+00  0.00000000000E+00  0.11010062066E+03  0.11010066699E+03  0.10100000352E+00 0.  1.
       -3   -1    0    0    0  501  0.00000000000E+00  0.00000000000E+00 -0.56443360802E+03  0.56443361706E+03  0.10100000352E+00 0. -1.
    10030    2    1    2    0    0  0.00000000000E+00  0.00000000000E+00 -0.45433298736E+03  0.67453428405E+03  0.49857600920E+03 0.  0.
        3    1    3    3  502    0  0.11844884951E+03 -0.16929788651E+02 -0.52304446510E+03  0.53655593405E+03  0.10100000352E+00 0. -1.
       -3    1    3    3    0  502 -0.11844884951E+03  0.16929788651E+02  0.68711477734E+02  0.13797835000E+03  0.10100000352E+00 0.  1.
</event>
<event>
 5   0  0.4534223E-02  0.5005216E+03  0.7818609E-02  0.1013643E+00
        2   -1    0    0  501    0  0.00000000000E+00  0.00000000000E+00  0.41205751737E+03  0.41205751738E+03  0.25500000920E-02 0. -1.
       -2   -1    0    0    0  501  0.00000000000E+00  0.00000000000E+00 -0.15199446552E+03  0.15199446554E+03  0.25500000920E-02 0.  1.
    10030    2    1    2    0    0  0.00000000000E+00  0.00000000000E+00  0.26006305185E+03  0.56405198292E+03  0.50052157646E+03 0.  0.
        2    1    3    3  502    0  0.16125245962E+03 -0.80114870417E+01  0.34551934027E+03  0.38137927863E+03  0.25500000920E-02 0. -1.
       -2    1    3    3    0  502 -0.16125245962E+03  0.80114870417E+01 -0.85456288424E+02  0.18267270430E+03  0.25500000920E-02 0.  1.
</event>
<event>
 5   0  0.2723308E-02  0.5032720E+03  0.7818609E-02  0.1012928E+00
       -1   -1    0    0    0  501  0.00000000000E+00  0.00000000000E+00  0.22626491793E+03  0.22626491798E+03  0.50400001928E-02 0. -1.
        1   -1    0    0  501    0  0.00000000000E+00  0.00000000000E+00 -0.27985188764E+03  0.27985188768E+03  0.50400001928E-02 0.  1.
    10030    2    1    2    0    0  0.00000000000E+00  0.00000000000E+00 -0.53586969710E+02  0.50611680566E+03  0.50327195198E+03 0.  0.
        4    1    3    3  502    0 -0.41717131973E+01 -0.16966998545E+03 -0.21362239057E+03  0.27283959721E+03  0.12699999809E+01 0.  1.
       -4    1    3    3    0  502  0.41717131973E+01  0.16966998545E+03  0.16003542086E+03  0.23327720845E+03  0.12699999809E+01 0. -1.
</event>
<event>
 5   0  0.4451135E-02  0.5005211E+03  0.7818609E-02  0.1013643E+00
       -2   -1    0    0    0  501  0.00000000000E+00  0.00000000000E+00  0.10981002633E+03  0.10981002636E+03  0.25500000920E-02 0. -1.
        2   -1    0    0  501    0  0.00000000000E+00  0.00000000000E+00 -0.57035177634E+03  0.57035177635E+03  0.25500000920E-02 0.  1.
    10030    2    1    2    0    0  0.00000000000E+00  0.00000000000E+00 -0.46054175001E+03  0.68016180271E+03  0.50052110281E+03 0.  0.
        1    1    3    3  502    0 -0.78319804035E+02 -0.23767315087E+03 -0.23407222615E+03  0.34265481965E+03  0.50400001928E-02 0. -1.
       -1    1    3    3    0  502  0.78319804035E+02  0.23767315087E+03 -0.22646952386E+03  0.33750698306E+03  0.50400001928E-02 0.  1.
</event>
<event>
 5   0  0.4631619E-02  0.4996252E+03  0.7818609E-02  0.1013877E+00
        2   -1    0    0  501    0  0.00000000000E+00  0.00000000000E+00  0.10809288085E+03  0.10809288088E+03  0.25500000920E-02 0.  1.
       -2   -1    0    0    0  501  0.00000000000E+00  0.00000000000E+00 -0.57734001799E+03  0.57734001800E+03  0.25500000920E-02 0. -1.
    10030    2    1    2    0    0  0.00000000000E+00  0.00000000000E+00 -0.46924713714E+03  0.68543289887E+03  0.49962524270E+03 0.  0.
        5    1    3    3  502    0 -0.97498478697E+02 -0.81780516868E+02  0.60222762065E+02  0.14086474845E+03  0.46999998093E+01 0.  1.
       -5    1    3    3    0  502  0.97498478697E+02  0.81780516868E+02 -0.52946989921E+03  0.54456815042E+03  0.46999998093E+01 0. -1.
</event>
<event>
 5   0  0.4519539E-02  0.5172386E+03  0.7818609E-02  0.1009375E+00
       -2   -1    0    0    0  501  0.00000000000E+00  0.00000000000E+00  0.10510016860E+03  0.10510016864E+03  0.25500000920E-02 0. -1.
        2   -1    0    0  501    0  0.00000000000E+00  0.00000000000E+00 -0.63638278091E+03  0.63638278091E+03  0.25500000920E-02 0.  1.
    10030    2    1    2    0    0  0.00000000000E+00  0.00000000000E+00 -0.53128261230E+03  0.74148294955E+03  0.51723858164E+03 0.  0.
        4    1    3    3  502    0  0.15409412076E+03 -0.17963712220E+03 -0.11619620130E+03  0.26366202575E+03  0.12699999809E+01 0. -1.
       -4    1    3    3    0  502 -0.15409412076E+03  0.17963712220E+03 -0.41508641100E+03  0.47782092380E+03  0.12699999809E+01 0.  1.
</event>
<event>
 5   0  0.4409622E-02  0.4995504E+03  0.7818609E-02  0.1013896E+00
       -2   -1    0    0    0  501  0.00000000000E+00  0.00000000000E+00  0.20694848883E+02  0.20694849040E+02  0.25500000920E-02 0.  1.
        2   -1    0    0  501    0  0.00000000000E+00  0.00000000000E+00 -0.30146458736E+04  0.30146458736E+04  0.25500000920E-02 0. -1.
    10030    2    1    2    0    0  0.00000000000E+00  0.00000000000E+00 -0.29939510247E+04  0.30353407226E+04  0.49955036195E+03 0.  0.
        3    1    3    3  502    0  0.40724834962E+02  0.15770355139E+03 -0.34637253738E+03  0.38275692960E+03  0.10100000352E+00 0.  1.
       -3    1    3    3    0  502 -0.40724834962E+02 -0.15770355139E+03 -0.26475784873E+04  0.26525837930E+04  0.10100000352E+00 0. -1.
</event>
<event>
 5   0  0.4631619E-02  0.4863908E+03  0.7818609E-02  0.1017393E+00
        2   -1    0    0  501    0  0.00000000000E+00  0.00000000000E+00  0.16922957519E+04  0.16922957519E+04  0.25500000920E-02 0. -1.
       -2   -1    0    0    0  501  0.00000000000E+00  0.00000000000E+00 -0.34948981518E+02  0.34948981611E+02  0.25500000920E-02 0.  1.
    10030    2    1    2    0    0  0.00000000000E+00  0.00000000000E+00  0.16573467704E+04  0.17272447335E+04  0.48639084300E+03 0.  0.
        5    1    3    3  502    0 -0.75305933277E+01  0.83317876250E+02  0.17927739031E+02  0.85685892443E+02  0.46999998093E+01 0.  1.
       -5    1    3    3    0  502  0.75305933277E+01 -0.83317876250E+02  0.16394190314E+04  0.16415588411E+04  0.46999998093E+01 0. -1.
</event>
<event>
 5   0  0.2723308E-02  0.5018439E+03  0.7818609E-02  0.1013299E+00
        1   -1    0    0  501    0  0.00000000000E+00  0.00000000000E+00  0.21243221593E+03  0.21243221599E+03  0.50400001928E-02 0.  1.
       -1   -1    0    0    0  501  0.00000000000E+00  0.00000000000E+00 -0.29638552849E+03  0.29638552853E+03  0.50400001928E-02 0. -1.
    10030    2    1    2    0    0  0.00000000000E+00  0.00000000000E+00 -0.83953312553E+02  0.50881774452E+03  0.50184393835E+03 0.  0.
        4    1    3    3  502    0  0.10515525136E+03 -0.22780301274E+03 -0.39041218954E+02  0.25392453442E+03  0.12699999809E+01 0. -1.
       -4    1    3    3    0  502 -0.10515525136E+03  0.22780301274E+03 -0.44912093600E+02  0.25489321010E+03  0.12699999809E+01 0.  1.
</event>
<event>
 5   0  0.2779445E-02  0.5013028E+03  0.7818609E-02  0.1013439E+00
        1   -1    0    0  501    0  0.00000000000E+00  0.00000000000E+00  0.51859939038E+03  0.51859939040E+03  0.50400001928E-02 0.  1.
       -1   -1    0    0    0  501  0.00000000000E+00  0.00000000000E+00 -0.12114579101E+03  0.12114579112E+03  0.50400001928E-02 0. -1.
    10030    2    1    2    0    0  0.00000000000E+00  0.00000000000E+00  0.39745359936E+03  0.63974518152E+03  0.50130283624E+03 0.  0.
        3    1    3    3  502    0 -0.93928551013E+02 -0.53782313325E+02  0.48723894976E+03  0.49911613306E+03  0.10100000352E+00 0.  1.
       -3    1    3    3    0  502  0.93928551013E+02  0.53782313325E+02 -0.89785350395E+02  0.14062904845E+03  0.10100000352E+00 0. -1.
</event>
<event>
 5   0  0.2715483E-02  0.5036824E+03  0.7818609E-02  0.1012822E+00
        1   -1    0    0  501    0  0.00000000000E+00  0.00000000000E+00  0.29924162816E+03  0.29924162820E+03  0.50400001928E-02 0.  1.
       -1   -1    0    0    0  501  0.00000000000E+00  0.00000000000E+00 -0.21194906102E+03  0.21194906108E+03  0.50400001928E-02 0. -1.
    10030    2    1    2    0    0  0.00000000000E+00  0.00000000000E+00  0.87292567137E+02  0.51119068928E+03  0.50368236869E+03 0.  0.
        5    1    3    3  502    0  0.75933402617E+02  0.16899282429E+03 -0.12941672104E+03  0.22604254905E+03  0.46999998093E+01 0. -1.
       -5    1    3    3    0  502 -0.75933402617E+02 -0.16899282429E+03  0.21670928818E+03  0.28514814023E+03  0.46999998093E+01 0.  1.
</event>
<event>
 5   0  0.4451135E-02  0.4943489E+03  0.7818609E-02  0.1015265E+00
        2   -1    0    0  501    0  0.00000000000E+00  0.00000000000E+00  0.44890000589E+03  0.44890000590E+03  0.25500000920E-02 0. -1.
       -2   -1    0    0    0  501  0.00000000000E+00  0.00000000000E+00 -0.13609983837E+03  0.13609983840E+03  0.25500000920E-02 0.  1.
    10030    2    1    2    0    0  0.00000000000E+00  0.00000000000E+00  0.31280016752E+03  0.58499984429E+03  0.49434893853E+03 0.  0.
        1    1    3    3  502    0 -0.22965172612E+03  0.48316562658E+02  0.24822270849E+03  0.34159759743E+03  0.50400001928E-02 0. -1.
       -1    1    3    3    0  502  0.22965172612E+03 -0.48316562658E+02  0.64577459030E+02  0.24340224686E+03  0.50400001928E-02 0.  1.
</event>
<event>
 5   0  0.4631619E-02  0.5006318E+03  0.7818609E-02  0.1013614E+00
        2   -1    0    0  501    0  0.00000000000E+00  0.00000000000E+00  0.14779419920E+04  0.14779419920E+04  0.25500000920E-02 0. -1.
       -2   -1    0    0    0  501  0.00000000000E+00  0.00000000000E+00 -0.42395470949E+02  0.42395471026E+02  0.25500000920E-02 0.  1.
    10030    2    1    2    0    0  0.00000000000E+00  0.00000000000E+00  0.14355465211E+04  0.15203374630E+04  0.50063178823E+03 0.  0.
        5    1    3    3  502    0  0.11125876323E+02 -0.43736924827E+02  0.14653490202E+04  0.14660513445E+04  0.46999998093E+01 0. -1.
       -5    1    3    3    0  502 -0.11125876323E+02  0.43736924827E+02 -0.29802499111E+02  0.54286118564E+02  0.46999998093E+01 0.  1.
</event>
<event>
 5   0  0.2715483E-02  0.5007276E+03  0.7818609E-02  0.1013589E+00
       -1   -1    0    0    0  501  0.00000000000E+00  0.00000000000E+00  0.16881137764E+03  0.16881137772E+03  0.50400001928E-02 0. -1.
        1   -1    0    0  501    0  0.00000000000E+00  0.00000000000E+00 -0.37131405530E+03  0.37131405533E+03  0.50400001928E-02 0.  1.
    10030    2    1    2    0    0  0.00000000000E+00  0.00000000000E+00 -0.20250267766E+03  0.54012543305E+03  0.50072761954E+03 0.  0.
        5    1    3    3  502    0 -0.10719319030E+03 -0.21946831231E+03 -0.42137771770E+02  0.24789998379E+03  0.46999998093E+01 0.  1.
       -5    1    3    3    0  502  0.10719319030E+03  0.21946831231E+03 -0.16036490589E+03  0.29222544926E+03  0.46999998093E+01 0. -1.
</event>
<event>
 5   0  0.2643185E-02  0.4995736E+03  0.7818609E-02  0.1013890E+00
       -1   -1    0    0    0  501  0.00000000000E+00  0.00000000000E+00  0.10417871757E+03  0.10417871769E+03  0.50400001928E-02 0.  1.
        1   -1    0    0  501    0  0.00000000000E+00  0.00000000000E+00 -0.59890782099E+03  0.59890782101E+03  0.50400001928E-02 0. -1.
    10030    2    1    2    0    0  0.00000000000E+00  0.00000000000E+00 -0.49472910342E+03  0.70308653871E+03  0.49957361333E+03 0.  0.
        1    1    3    3  502    0  0.21790380394E+03 -0.11738359887E+03 -0.20000332184E+03  0.31821738769E+03  0.50400001928E-02 0.  1.
       -1    1    3    3    0  502 -0.21790380394E+03  0.11738359887E+03 -0.29472578158E+03  0.38486915102E+03  0.50400001928E-02 0. -1.
</event>
<event>
 5   0  0.1805500E-02  0.5009558E+03  0.7818609E-02  0.1013530E+00
        3   -1    0    0  501    0  0.00000000000E+00  0.00000000000E+00  0.49826603378E+03  0.49826604401E+03  0.10100000352E+00 0. -1.
       -3   -1    0    0    0  501  0.00000000000E+00  0.00000000000E+00 -0.12591501019E+03  0.12591505069E+03  0.10100000352E+00 0.  1.
    10030    2    1    2    0    0  0.00000000000E+00  0.00000000000E+00  0.37235102359E+03  0.62418109471E+03  0.50095584059E+03 0.  0.
        3    1    3    3  502    0 -0.24731958610E+03  0.26263733264E+02  0.14916303915E+03  0.29001100635E+03  0.10100000352E+00 0.  1.
       -3    1    3    3    0  502  0.24731958610E+03 -0.26263733264E+02  0.22318798444E+03  0.33417008836E+03  0.10100000352E+00 0. -1.
</event>
<event>
 5   0  0.4519539E-02  0.4995093E+03  0.7818609E-02  0.1013907E+00
       -2   -1    0    0    0  501  0.00000000000E+00  0.00000000000E+00  0.59576281217E+02  0.59576281272E+02  0.25500000920E-02 0.  1.
        2   -1    0    0  501    0  0.00000000000E+00  0.00000000000E+00 -0.10470170969E+04  0.10470170969E+04  0.25500000920E-02 0. -1.
    10030    2    1    2    0    0  0.00000000000E+00  0.00000000000E+00 -0.98744081569E+03  0.11065933782E+04  0.49950929936E+03 0.  0.
        4    1    3    3  502    0 -0.11372587410E+03  0.16284233619E+03 -0.15829566145E+03  0.25398883879E+03  0.12699999809E+01 0.  1.
       -4    1    3    3    0  502  0.11372587410E+03 -0.16284233619E+03 -0.82914515424E+03  0.85260453939E+03  0.12699999809E+01 0. -1.
</event>
<event>
 5   0  0.2723308E-02  0.4997404E+03  0.7818609E-02  0.1013847E+00
       -1   -1    0    0    0  501  0.00000000000E+00  0.00000000000E+00  0.10480279938E+03  0.10480279950E+03  0.50400001928E-02 0. -1.
        1   -1    0    0  501    0  0.00000000000E+00  0.00000000000E+00 -0.59573909773E+03  0.59573909776E+03  0.50400001928E-02 0.  1.
    10030    2    1    2    0    0  0.00000000000E+00  0.00000000000E+00 -0.49093629836E+03  0.70054189726E+03  0.49974043339E+03 0.  0.
        4    1    3    3  502    0  0.19503613004E+03  0.24858321685E+02 -0.29314066635E+02  0.19879123617E+03  0.12699999809E+01 0. -1.
       -4    1    3    3    0  502 -0.19503613004E+03 -0.24858321685E+02 -0.46162223172E+03  0.50175066108E+03  0.12699999809E+01 0.  1.
</event>
<event>
 5   0  0.4519539E-02  0.5232122E+03  0.7818609E-02  0.1007892E+00
       -2   -1    0    0    0  501  0.00000000000E+00  0.00000000000E+00  0.16249679228E+03  0.16249679230E+03  0.25500000920E-02 0. -1.
        2   -1    0    0  501    0  0.00000000000E+00  0.00000000000E+00 -0.42116364368E+03  0.42116364369E+03  0.25500000920E-02 0.  1.
    10030    2    1    2    0    0  0.00000000000E+00  0.00000000000E+00 -0.25866685140E+03  0.58366043598E+03  0.52321216014E+03 0.  0.
        4    1    3    3  502    0 -0.23352089073E+03 -0.51175415768E+02 -0.10828328672E+02  0.23931108455E+03  0.12699999809E+01 0. -1.
       -4    1    3    3    0  502  0.23352089073E+03  0.51175415768E+02 -0.24783852273E+03  0.34434935144E+03  0.12699999809E+01 0.  1.
</event>
<event>
 5   0  0.4451135E-02  0.4997451E+03  0.7818609E-02  0.1013845E+00
        2   -1    0    0  501    0  0.00000000000E+00  0.00000000000E+00  0.11574482182E+04  0.11574482182E+04  0.25500000920E-02 0. -1.
       -2   -1    0    0    0  501  0.00000000000E+00  0.00000000000E+00 -0.53943048656E+02  0.53943048717E+02  0.25500000920E-02 0.  1.
    10030    2    1    2    0    0  0.00000000000E+00  0.00000000000E+00  0.11035051696E+04  0.12113912669E+04  0.49974507738E+03 0.  0.
        1    1    3    3  502    0  0.17150898064E+03  0.11682437235E+03  0.88914443653E+03  0.91303948077E+03  0.50400001928E-02 0. -1.
       -1    1    3    3    0  502 -0.17150898064E+03 -0.11682437235E+03  0.21436073302E+03  0.29835178615E+03  0.50400001928E-02 0.  1.
</event>
<event>
 5   0  0.1805500E-02  0.4995531E+03  0.7818609E-02  0.1013896E+00
       -4   -1    0    0    0  501  0.00000000000E+00  0.00000000000E+00  0.11019903481E+03  0.11020635269E+03  0.12699999809E+01 0. -1.
        4   -1    0    0  501    0  0.00000000000E+00  0.00000000000E+00 -0.56611548013E+03  0.56611690466E+03  0.12699999809E+01 0.  1.
    10030    2    1    2    0    0  0.00000000000E+00  0.00000000000E+00 -0.45591644532E+03  0.67632325735E+03  0.49955314363E+03 0.  0.
        4    1    3    3  502    0 -0.17180579530E+03  0.54326003401E+02 -0.46213303958E+03  0.49602127486E+03  0.12699999809E+01 0.  1.
       -4    1    3    3    0  502  0.17180579530E+03 -0.54326003401E+02  0.62165942534E+01  0.18030198249E+03  0.12699999809E+01 0. -1.
</event>
<event>
 5   0  0.2643185E-02  0.4978113E+03  0.7818609E-02  0.1014352E+00
       -1   -1    0    0    0  501  0.00000000000E+00  0.00000000000E+00  0.42684081501E+03  0.42684081504E+03  0.50400001928E-02 0.  1.
        1   -1    0    0  501    0  0.00000000000E+00  0.00000000000E+00 -0.14514548929E+03  0.14514548937E+03  0.50400001928E-02 0. -1.
    10030    2    1    2    0    0  0.00000000000E+00  0.00000000000E+00  0.28169532572E+03  0.57198630441E+03  0.49781128543E+03 0.  0.
        1    1    3    3  502    0  0.13062934676E+03  0.28803735631E+02 -0.10033428716E+03  0.16721438522E+03  0.50400001928E-02 0. -1.
       -1    1    3    3    0  502 -0.13062934676E+03 -0.28803735631E+02  0.38202961288E+03  0.40477191919E+03  0.50400001928E-02 0.  1.
</event>
<event>
 5   0  0.2715483E-02  0.5147078E+03  0.7818609E-02  0.1010010E+00
        1   -1    0    0  501    0  0.00000000000E+00  0.00000000000E+00  0.62540613983E+03  0.62540613985E+03  0.50400001928E-02 0.  1.
       -1   -1    0    0    0  501  0.00000000000E+00  0.00000000000E+00 -0.10590082450E+03  0.10590082462E+03  0.50400001928E-02 0. -1.
    10030    2    1    2    0    0  0.00000000000E+00  0.00000000000E+00  0.51950531533E+03  0.73130696447E+03  0.51470778470E+03 0.  0.
        5    1    3    3  502    0  0.90469047499E+02 -0.12532400535E+02 -0.82034157792E+02  0.12285521015E+03  0.46999998093E+01 0. -1.
       -5    1    3    3    0  502 -0.90469047499E+02  0.12532400535E+02  0.60153947312E+03  0.60845175432E+03  0.46999998093E+01 0.  1.
</event>
<event>
 5   0  0.4519539E-02  0.4982721E+03  0.7818609E-02  0.1014231E+00
        2   -1    0    0  501    0  0.00000000000E+00  0.00000000000E+00  0.90216563160E+03  0.90216563161E+03  0.25500000920E-02 0.  1.
       -2   -1    0    0    0  501  0.00000000000E+00  0.00000000000E+00 -0.68799765401E+02  0.68799765448E+02  0.25500000920E-02 0. -1.
    10030    2    1    2    0    0  0.00000000000E+00  0.00000000000E+00  0.83336586620E+03  0.97096539705E+03  0.49827214986E+03 0.  0.
        4    1    3    3  502    0  0.11406195014E+03 -0.11113611518E+03  0.43342932434E+02  0.16505025677E+03  0.12699999809E+01 0. -1.
       -4    1    3    3    0  502 -0.11406195014E+03  0.11113611518E+03  0.79002293377E+03  0.80591514029E+03  0.12699999809E+01 0.  1.
</event>
<event>
 5   0  0.1805500E-02  0.5010510E+03  0.7818609E-02  0.1013505E+00
        3   -1    0    0  501    0  0.00000000000E+00  0.00000000000E+00  0.36308292739E+03  0.36308294144E+03  0.10100000352E+00 0.  1.
       -3   -1    0    0    0  501  0.00000000000E+00  0.00000000000E+00 -0.17286137532E+03  0.17286140482E+03  0.10100000352E+00 0. -1.
    10030    2    1    2    0    0  0.00000000000E+00  0.00000000000E+00  0.19022155208E+03  0.53594434626E+03  0.50105099882E+03 0.  0.
        1    1    3    3  502    0  0.20104976947E+03  0.14862237826E+03  0.11213804907E+03  0.27401562583E+03  0.50400001928E-02 0.  1.
       -1    1    3    3    0  502 -0.20104976947E+03 -0.14862237826E+03  0.78083503008E+02  0.26192872044E+03  0.50400001928E-02 0. -1.
</event>
<event>
 5   0  0.2723308E-02  0.5005638E+03  0.7818609E-02  0.1013632E+00
        1   -1    0    0  501    0  0.00000000000E+00  0.00000000000E+00  0.15702643981E+04  0.15702643981E+04  0.50400001928E-02 0. -1.
       -1   -1    0    0    0  501  0.00000000000E+00  0.00000000000E+00 -0.39892026325E+02  0.39892026643E+02  0.50400001928E-02 0.  1.
    10030    2    1    2    0    0  0.00000000000E+00  0.00000000000E+00  0.15303723718E+04  0.16101564247E+04  0.50056379800E+03 0.  0.
        4    1    3    3  502    0 -0.81537580895E+02 -0.14352017061E+03  0.13703421498E+04  0.13802483968E+04  0.12699999809E+01 0. -1.
       -4    1    3    3    0  502  0.81537580895E+02  0.14352017061E+03  0.16003022199E+03  0.22990802796E+03  0.12699999809E+01 0.  1.
</event>
<event>
 5   0  0.4519539E-02  0.4992672E+03  0.7818609E-02  0.1013970E+00
       -2   -1    0    0    0  501  0.00000000000E+00  0.00000000000E+00  0.22621370791E+03  0.22621370793E+03  0.25500000920E-02 0.  1.
        2   -1    0    0  501    0  0.00000000000E+00  0.00000000000E+00 -0.27547810491E+03  0.27547810492E+03  0.25500000920E-02 0. -1.
    10030    2    1    2    0    0  0.00000000000E+00  0.00000000000E+00 -0.49264396996E+02  0.50169181285E+03  0.49926715721E+03 0.  0.
        4    1    3    3  502    0  0.10865423687E+03  0.82392675777E+02 -0.23474336346E+03  0.27147809451E+03  0.12699999809E+01 0. -1.
       -4    1    3    3    0  502 -0.10865423687E+03 -0.82392675777E+02  0.18547896646E+03  0.23021371834E+03  0.12699999809E+01 0.  1.
</event>
<event>
 5   0  0.1805500E-02  0.5110339E+03  0.7818609E-02  0.1010938E+00
       -4   -1    0    0    0  501  0.00000000000E+00  0.00000000000E+00  0.10288580096E+04  0.10288587934E+04  0.12699999809E+01 0. -1.
        4   -1    0    0  501    0  0.00000000000E+00  0.00000000000E+00 -0.63450494148E+02  0.63463202784E+02  0.12699999809E+01 0.  1.
    10030    2    1    2    0    0  0.00000000000E+00  0.00000000000E+00  0.96540751543E+03  0.10923219962E+04  0.51103392502E+03 0.  0.
        3    1    3    3  502    0  0.14637999231E+03  0.20360457155E+03  0.37783706549E+03  0.45347853528E+03  0.10100000352E+00 0.  1.
       -3    1    3    3    0  502 -0.14637999231E+03 -0.20360457155E+03  0.58757044994E+03  0.63884346091E+03  0.10100000352E+00 0. -1.
</event>
<event>
 5   0  0.4451135E-02  0.5001173E+03  0.7818609E-02  0.1013748E+00
        2   -1    0    0  501    0  0.00000000000E+00  0.00000000000E+00  0.16411722407E+04  0.16411722407E+04  0.25500000920E-02 0.  1.
       -2   -1    0    0    0  501  0.00000000000E+00  0.00000000000E+00 -0.38100404332E+02  0.38100404417E+02  0.25500000920E-02 0. -1.
    10030    2    1    2    0    0  0.00000000000E+00  0.00000000000E+00  0.16030718363E+04  0.16792726451E+04  0.50011729032E+03 0.  0.
        1    1    3    3  502    0 -0.57131312017E+02  0.14416108365E+03  0.14602293903E+04  0.14684400829E+04  0.50400001928E-02 0.  1.
       -1    1    3    3    0  502  0.57131312017E+02 -0.14416108365E+03  0.14284244607E+03  0.21083256218E+03  0.50400001928E-02 0. -1.
</event>
<event>
 5   0  0.2643185E-02  0.5038604E+03  0.7818609E-02  0.1012776E+00
        1   -1    0    0  501    0  0.00000000000E+00  0.00000000000E+00  0.26704490262E+03  0.26704490267E+03  0.50400001928E-02 0. -1.
       -1   -1    0    0    0  501  0.00000000000E+00  0.00000000000E+00 -0.23767102409E+03  0.23767102414E+03  0.50400001928E-02 0.  1.
    10030    2    1    2    0    0  0.00000000000E+00  0.00000000000E+00  0.29373878528E+02  0.50471592681E+03  0.50386043905E+03 0.  0.
        1    1    3    3  502    0  0.57748195175E+02 -0.12417038582E+03 -0.19713295639E+03  0.24003029242E+03  0.50400001928E-02 0.  1.
       -1    1    3    3    0  502 -0.57748195175E+02  0.12417038582E+03  0.22650683492E+03  0.26468563439E+03  0.50400001928E-02 0. -1.
</event>
<event>
 5   0  0.2723308E-02  0.5025981E+03  0.7818609E-02  0.1013103E+00
       -1   -1    0    0    0  501  0.00000000000E+00  0.00000000000E+00  0.10487804639E+03  0.10487804651E+03  0.50400001928E-02 0. -1.
        1   -1    0    0  501    0  0.00000000000E+00  0.00000000000E+00 -0.60213941736E+03  0.60213941738E+03  0.50400001928E-02 0.  1.
    10030    2    1    2    0    0  0.00000000000E+00  0.00000000000E+00 -0.49726137097E+03  0.70701746389E+03  0.50259807320E+03 0.  0.
        4    1    3    3  502    0  0.14027125635E+03  0.19583596147E+03 -0.14795548939E+03  0.28270158985E+03  0.12699999809E+01 0. -1.
       -4    1    3    3    0  502 -0.14027125635E+03 -0.19583596147E+03 -0.34930588158E+03  0.42431587404E+03  0.12699999809E+01 0.  1.
</event>
<event>
 5   0  0.2779445E-02  0.5020305E+03  0.7818609E-02  0.1013250E+00
       -1   -1    0    0    0  501  0.00000000000E+00  0.00000000000E+00  0.35720277386E+02  0.35720277741E+02  0.50400001928E-02 0.  1.
        1   -1    0    0  501    0  0.00000000000E+00  0.00000000000E+00 -0.17639465692E+04  0.17639465692E+04  0.50400001928E-02 0. -1.
    10030    2    1    2    0    0  0.00000000000E+00  0.00000000000E+00 -0.17282262918E+04  0.17996668469E+04  0.50203052127E+03 0.  0.
        3    1    3    3  502    0 -0.23253692709E+03  0.32441543105E+02 -0.11823874314E+04  0.12054733196E+04  0.10100000352E+00 0. -1.
       -3    1    3    3    0  502  0.23253692709E+03 -0.32441543105E+02 -0.54583886040E+03  0.59419352731E+03  0.10100000352E+00 0.  1.
</event>
<event>
 5   0  0.4409622E-02  0.5001210E+03  0.7818609E-02  0.1013747E+00
       -2   -1    0    0    0  501  0.00000000000E+00  0.00000000000E+00  0.16614242329E+03  0.16614242331E+03  0.25500000920E-02 0. -1.
        2   -1    0    0  501    0  0.00000000000E+00  0.00000000000E+00 -0.37636538282E+03  0.37636538283E+03  0.25500000920E-02 0.  1.
    10030    2    1    2    0    0  0.00000000000E+00  0.00000000000E+00 -0.21022295953E+03  0.54250780614E+03  0.50012101237E+03 0.  0.
        3    1    3    3  502    0  0.11273182598E+03 -0.19068041305E+03  0.20751490004E+02  0.22248172745E+03  0.10100000352E+00 0. -1.
       -3    1    3    3    0  502 -0.11273182598E+03  0.19068041305E+03 -0.23097444953E+03  0.32002607870E+03  0.10100000352E+00 0.  1.
</event>
<event>
 5   0  0.4534223E-02  0.4981030E+03  0.7818609E-02  0.1014275E+00
        2   -1    0    0  501    0  0.00000000000E+00  0.00000000000E+00  0.45581482409E+03  0.45581482409E+03  0.25500000920E-02 0.  1.
       -2   -1    0    0    0  501  0.00000000000E+00  0.00000000000E+00 -0.13607858833E+03  0.13607858835E+03  0.25500000920E-02 0. -1.
    10030    2    1    2    0    0  0.00000000000E+00  0.00000000000E+00  0.31973623576E+03  0.59189341245E+03  0.49810295245E+03 0.  0.
        2    1    3    3  502    0  0.22157444340E+03  0.36152236336E+02  0.28798608244E+03  0.36515503810E+03  0.25500000920E-02 0.  1.
       -2    1    3    3    0  502 -0.22157444340E+03 -0.36152236336E+02  0.31750153318E+02  0.22673837435E+03  0.25500000920E-02 0. -1.
</event>
<event>
 5   0  0.2719671E-02  0.4775348E+03  0.7818609E-02  0.1019815E+00
        1   -1    0    0  501    0  0.00000000000E+00  0.00000000000E+00  0.60770107275E+03  0.60770107278E+03  0.50400001928E-02 0.  1.
       -1   -1    0    0    0  501  0.00000000000E+00  0.00000000000E+00 -0.93812365164E+02  0.93812365299E+02  0.50400001928E-02 0. -1.
    10030    2    1    2    0    0  0.00000000000E+00  0.00000000000E+00  0.51388870759E+03  0.70151343807E+03  0.47753481549E+03 0.  0.
        2    1    3    3  502    0  0.52185929330E+02  0.17852812691E+03  0.47687851396E+03  0.51186793257E+03  0.25500000920E-02 0.  1.
       -2    1    3    3    0  502 -0.52185929330E+02 -0.17852812691E+03  0.37010193636E+02  0.18964550550E+03  0.25500000920E-02 0. -1.
</event>
<event>
 5   0  0.4451135E-02  0.5037218E+03  0.7818609E-02  0.1012812E+00
       -2   -1    0    0    0  501  0.00000000000E+00  0.00000000000E+00  0.11448910733E+03  0.11448910736E+03  0.25500000920E-02 0. -1.
        2   -1    0    0  501    0  0.00000000000E+00  0.00000000000E+00 -0.55406065784E+03  0.55406065785E+03  0.25500000920E-02 0.  1.
    10030    2    1    2    0    0  0.00000000000E+00  0.00000000000E+00 -0.43957155051E+03  0.66854976520E+03  0.50372178882E+03 0.  0.
        1    1    3    3  502    0 -0.14850063506E+03 -0.95512518851E+02  0.18592850182E+02  0.17754090789E+03  0.50400001928E-02 0. -1.
       -1    1    3    3    0  502  0.14850063506E+03  0.95512518851E+02 -0.45816440069E+03  0.49100885731E+03  0.50400001928E-02 0.  1.
</event>
<event>
 5   0  0.1805500E-02  0.4997712E+03  0.7818609E-02  0.1013839E+00
        4   -1    0    0  501    0  0.00000000000E+00  0.00000000000E+00  0.58190867672E+03  0.58191006259E+03  0.12699999809E+01 0. -1.
       -4   -1    0    0    0  501  0.00000000000E+00  0.00000000000E+00 -0.10730161482E+03  0.10730913029E+03  0.12699999809E+01 0.  1.
    10030    2    1    2    0    0  0.00000000000E+00  0.00000000000E+00  0.47460706190E+03  0.68921919287E+03  0.49977118026E+03 0.  0.
        2    1    3    3  502    0  0.14784681182E+03 -0.19142166736E+03  0.32388750274E+03  0.40423266684E+03  0.25500000920E-02 0. -1.
       -2    1    3    3    0  502 -0.14784681182E+03  0.19142166736E+03  0.15071955916E+03  0.28498652604E+03  0.25500000920E-02 0.  1.
</event>
<event>
 5   0  0.2723308E-02  0.5055191E+03  0.7818609E-02  0.1012348E+00
        1   -1    0    0  501    0  0.00000000000E+00  0.00000000000E+00  0.17210185829E+03  0.17210185836E+03  0.50400001928E-02 0.  1.
       -1   -1    0    0    0  501  0.00000000000E+00  0.00000000000E+00 -0.37121848972E+03  0.37121848975E+03  0.50400001928E-02 0. -1.
    10030    2    1    2    0    0  0.00000000000E+00  0.00000000000E+00 -0.19911663143E+03  0.54332034812E+03  0.50551910722E+03 0.  0.
        4    1    3    3  502    0  0.16064284606E+02  0.49350072742E+02 -0.36542672754E+03  0.36909591846E+03  0.12699999809E+01 0. -1.
       -4    1    3    3    0  502 -0.16064284606E+02 -0.49350072742E+02  0.16631009612E+03  0.17422442966E+03  0.12699999809E+01 0.  1.
</event>
<event>
 5   0  0.4451135E-02  0.5003520E+03  0.7818609E-02  0.1013687E+00
        2   -1    0    0  501    0  0.00000000000E+00  0.00000000000E+00  0.89809718334E+03  0.89809718335E+03  0.25500000920E-02 0. -1.
       -2   -1    0    0    0  501  0.00000000000E+00  0.00000000000E+00 -0.69689608322E+02  0.69689608369E+02  0.25500000920E-02 0.  1.
    10030    2    1    2    0    0  0.00000000000E+00  0.00000000000E+00  0.82840757502E+03  0.96778679171E+03  0.50035203993E+03 0.  0.
        1    1    3    3  502    0  0.24055645061E+02 -0.23886240043E+03  0.27806330025E+03  0.36735965942E+03  0.50400001928E-02 0.  1.
       -1    1    3    3    0  502 -0.24055645061E+02  0.23886240043E+03  0.55034427477E+03  0.60042713229E+03  0.50400001928E-02 0. -1.
</event>
<event>
 5   0  0.2643185E-02  0.5015410E+03  0.7818609E-02  0.1013377E+00
       -1   -1    0    0    0  501  0.00000000000E+00  0.00000000000E+00  0.17254626650E+03  0.17254626657E+03  0.50400001928E-02 0.  1.
        1   -1    0    0  501    0  0.00000000000E+00  0.00000000000E+00 -0.36445779236E+03  0.36445779240E+03  0.50400001928E-02 0. -1.
    10030    2    1    2    0    0  0.00000000000E+00  0.00000000000E+00 -0.19191152586E+03  0.53700405897E+03  0.50154095106E+03 0.  0.
        1    1    3    3  502    0  0.22046919645E+03 -0.53391006436E+02 -0.21041926380E+03  0.30940835922E+03  0.50400001928E-02 0. -1.
       -1    1    3    3    0  502 -0.22046919645E+03  0.53391006436E+02  0.18507737937E+02  0.22759569975E+03  0.50400001928E-02 0.  1.
</event>
<event>
 5   0  0.4451135E-02  0.5020144E+03  0.7818609E-02  0.1013254E+00
        2   -1    0    0  501    0  0.00000000000E+00  0.00000000000E+00  0.70397498795E+02  0.70397498841E+02  0.25500000920E-02 0.  1.
       -2   -1    0    0    0  501  0.00000000000E+00  0.00000000000E+00 -0.89498382447E+03  0.89498382448E+03  0.25500000920E-02 0. -1.
    10030    2    1    2    0    0  0.00000000000E+00  0.00000000000E+00 -0.82458632568E+03  0.96538132332E+03  0.50201443298E+03 0.  0.
        1    1    3    3  502    0 -0.13456405661E+02 -0.17152567215E+03 -0.76375010098E+03  0.78288974181E+03  0.50400001928E-02 0. -1.
       -1    1    3    3    0  502  0.13456405661E+02  0.17152567215E+03 -0.60836224697E+02  0.18249158151E+03  0.50400001928E-02 0.  1.
</event>
<event>
 5   0  0.2719671E-02  0.5079686E+03  0.7818609E-02  0.1011720E+00
        1   -1    0    0  501    0  0.00000000000E+00  0.00000000000E+00  0.51434417933E+03  0.51434417936E+03  0.50400001928E-02 0.  1.
       -1   -1    0    0    0  501  0.00000000000E+00  0.00000000000E+00 -0.12541803355E+03  0.12541803366E+03  0.50400001928E-02 0. -1.
    10030    2    1    2    0    0  0.00000000000E+00  0.00000000000E+00  0.38892614578E+03  0.63976221301E+03  0.50796864306E+03 0.  0.
        2    1    3    3  502    0  0.11430885012E+03  0.18802604989E+03  0.34717429029E+02  0.22276805996E+03  0.25500000920E-02 0. -1.
       -2    1    3    3    0  502 -0.11430885012E+03 -0.18802604989E+03  0.35420871675E+03  0.41699415305E+03  0.25500000920E-02 0.  1.
</event>
<event>
 5   0  0.4534223E-02  0.4992593E+03  0.7818609E-02  0.1013972E+00
       -2   -1    0    0    0  501  0.00000000000E+00  0.00000000000E+00  0.43914923448E+02  0.43914923522E+02  0.25500000920E-02 0.  1.
        2   -1    0    0  501    0  0.00000000000E+00  0.00000000000E+00 -0.14189930656E+04  0.14189930656E+04  0.25500000920E-02 0. -1.
    10030    2    1    2    0    0  0.00000000000E+00  0.00000000000E+00 -0.13750781422E+04  0.14629079892E+04  0.49925933905E+03 0.  0.
        2    1    3    3  502    0  0.10018967998E+03 -0.18175304811E+03 -0.28107208306E+03  0.34939040964E+03  0.25500000920E-02 0.  1.
       -2    1    3    3    0  502 -0.10018967998E+03  0.18175304811E+03 -0.10940060591E+04  0.11135175795E+04  0.25500000920E-02 0. -1.
</event>
<event>
 5   0  0.4534223E-02  0.5016974E+03  0.7818609E-02  0.1013337E+00
       -2   -1    0    0    0  501  0.00000000000E+00  0.00000000000E+00  0.35129342288E+03  0.35129342289E+03  0.25500000920E-02 0.  1.
        2   -1    0    0  501    0  0.00000000000E+00  0.00000000000E+00 -0.17912396243E+03  0.17912396245E+03  0.25500000920E-02 0. -1.
    10030    2    1    2    0    0  0.00000000000E+00  0.00000000000E+00  0.17216946046E+03  0.53041738534E+03  0.50169739840E+03 0.  0.
        2    1    3    3  502    0 -0.56232139948E+02  0.19818245394E+03 -0.65240811314E+02  0.21608956958E+03  0.25500000920E-02 0. -1.
       -2    1    3    3    0  502  0.56232139948E+02 -0.19818245394E+03  0.23741027177E+03  0.31432781576E+03  0.25500000920E-02 0.  1.
</event>
<event>
 5   0  0.2723308E-02  0.5013661E+03  0.7818609E-02  0.1013423E+00
       -1   -1    0    0    0  501  0.00000000000E+00  0.00000000000E+00  0.92135756544E+03  0.92135756545E+03  0.50400001928E-02 0.  1.
        1   -1    0    0  501    0  0.00000000000E+00  0.00000000000E+00 -0.68205869074E+02  0.68205869261E+02  0.50400001928E-02 0. -1.
    10030    2    1    2    0    0  0.00000000000E+00  0.00000000000E+00  0.85315169636E+03  0.98956343471E+03  0.50136610806E+03 0.  0.
        4    1    3    3  502    0  0.40379004761E+01 -0.67360916583E+02  0.90308688540E+03  0.90560550639E+03  0.12699999809E+01 0.  1.
       -4    1    3    3    0  502 -0.40379004761E+01  0.67360916583E+02 -0.49935189040E+02  0.83957928319E+02  0.12699999809E+01 0. -1.
</event>
<event>
 5   0  0.2715483E-02  0.5019394E+03  0.7818609E-02  0.1013274E+00
       -1   -1    0    0    0  501  0.00000000000E+00  0.00000000000E+00  0.35962413817E+03  0.35962413821E+03  0.50400001928E-02 0.  1.
        1   -1    0    0  501    0  0.00000000000E+00  0.00000000000E+00 -0.17514340630E+03  0.17514340637E+03  0.50400001928E-02 0. -1.
    10030    2    1    2    0    0  0.00000000000E+00  0.00000000000E+00  0.18448073187E+03  0.53476754458E+03  0.50193942494E+03 0.  0.
        5    1    3    3  502    0  0.34384477459E+02  0.12647886852E+03 -0.13572717721E+03  0.18874096828E+03  0.46999998093E+01 0. -1.
       -5    1    3    3    0  502 -0.34384477459E+02 -0.12647886852E+03  0.32020790908E+03  0.34602657631E+03  0.46999998093E+01 0.  1.
</event>
<event>
 5   0  0.1805500E-02  0.4984820E+03  0.7818609E-02  0.1014176E+00
        4   -1    0    0  501    0  0.00000000000E+00  0.00000000000E+00  0.16683362668E+03  0.16683846047E+03  0.12699999809E+01 0. -1.
       -4   -1    0    0    0  501  0.00000000000E+00  0.00000000000E+00 -0.37234219779E+03  0.37234436367E+03  0.12699999809E+01 0.  1.
    10030    2    1    2    0    0  0.00000000000E+00  0.00000000000E+00 -0.20550857111E+03  0.53918282414E+03  0.49848204084E+03 0.  0.
        3    1    3    3  502    0 -0.70358339214E+02 -0.37588856906E+02  0.15265670041E+03  0.17224197061E+03  0.10100000352E+00 0. -1.
       -3    1    3    3    0  502  0.70358339214E+02  0.37588856906E+02 -0.35816527152E+03  0.36694085352E+03  0.10100000352E+00 0.  1.
</event>
<event>
 5   0  0.4409622E-02  0.5002967E+03  0.7818609E-02  0.1013702E+00
        2   -1    0    0  501    0  0.00000000000E+00  0.00000000000E+00  0.18157484087E+04  0.18157484087E+04  0.25500000920E-02 0.  1.
       -2   -1    0    0    0  501  0.00000000000E+00  0.00000000000E+00 -0.34461929841E+02  0.34461929936E+02  0.25500000920E-02 0. -1.
    10030    2    1    2    0    0  0.00000000000E+00  0.00000000000E+00  0.17812864788E+04  0.18502103386E+04  0.50029668941E+03 0.  0.
        3    1    3    3  502    0 -0.73941842194E+02 -0.18424549083E+02  0.17717787131E+04  0.17734166680E+04  0.10100000352E+00 0.  1.
       -3    1    3    3    0  502  0.73941842194E+02  0.18424549083E+02  0.95077657632E+01  0.76793670617E+02  0.10100000352E+00 0. -1.
</event>
<event>
 5   0  0.1805500E-02  0.5014726E+03  0.7818609E-02  0.1013395E+00
       -4   -1    0    0    0  501  0.00000000000E+00  0.00000000000E+00  0.30071780145E+03  0.30072048319E+03  0.12699999809E+01 0. -1.
        4   -1    0    0  501    0  0.00000000000E+00  0.00000000000E+00 -0.20905652825E+03  0.20906038578E+03  0.12699999809E+01 0.  1.
    10030    2    1    2    0    0  0.00000000000E+00  0.00000000000E+00  0.91661273205E+02  0.50978086897E+03  0.50147257688E+03 0.  0.
        5    1    3    3  502    0 -0.46461459855E+02  0.23548178174E+03 -0.27730245399E+02  0.24166380220E+03  0.46999998093E+01 0.  1.
       -5    1    3    3    0  502  0.46461459855E+02 -0.23548178174E+03  0.11939151860E+03  0.26811706678E+03  0.46999998093E+01 0. -1.
</event>
<event>
 5   0  0.2643185E-02  0.5001467E+03  0.7818609E-02  0.1013741E+00
        1   -1    0    0  501    0  0.00000000000E+00  0.00000000000E+00  0.27775211613E+03  0.27775211618E+03  0.50400001928E-02 0. -1.
       -1   -1    0    0    0  501  0.00000000000E+00  0.00000000000E+00 -0.22515281307E+03  0.22515281313E+03  0.50400001928E-02 0.  1.
    10030    2    1    2    0    0  0.00000000000E+00  0.00000000000E+00  0.52599303059E+02  0.50290492931E+03  0.50014665973E+03 0.  0.
        1    1    3    3  502    0  0.17114373989E+03 -0.65725531348E+02  0.19731597020E+03  0.26933922346E+03  0.50400001928E-02 0. -1.
       -1    1    3    3    0  502 -0.17114373989E+03  0.65725531348E+02 -0.14471666714E+03  0.23356570585E+03  0.50400001928E-02 0.  1.
</event>
<event>
 5   0  0.4451135E-02  0.4999372E+03  0.7818609E-02  0.1013795E+00
        2   -1    0    0  501    0  0.00000000000E+00  0.00000000000E+00  0.45273316094E+03  0.45273316095E+03  0.25500000920E-02 0. -1.
       -2   -1    0    0    0  501  0.00000000000E+00  0.00000000000E+00 -0.13801574621E+03  0.13801574623E+03  0.25500000920E-02 0.  1.
    10030    2    1    2    0    0  0.00000000000E+00  0.00000000000E+00  0.31471741474E+03  0.59074890718E+03  0.49993721626E+03 0.  0.
        1    1    3    3  502    0  0.22544780275E+03 -0.10748611681E+03  0.16942816632E+03  0.30180437479E+03  0.50400001928E-02 0.  1.
       -1    1    3    3    0  502 -0.22544780275E+03  0.10748611681E+03  0.14528924841E+03  0.28894453239E+03  0.50400001928E-02 0. -1.
</event>
<event>
 5   0  0.2715483E-02  0.4988811E+03  0.7818609E-02  0.1014071E+00
       -1   -1    0    0    0  501  0.00000000000E+00  0.00000000000E+00  0.11750395000E+03  0.11750395010E+03  0.50400001928E-02 0.  1.
        1   -1    0    0  501    0  0.00000000000E+00  0.00000000000E+00 -0.52951904460E+03  0.52951904462E+03  0.50400001928E-02 0. -1.
    10030    2    1    2    0    0  0.00000000000E+00  0.00000000000E+00 -0.41201509460E+03  0.64702299473E+03  0.49888106551E+03 0.  0.
        5    1    3    3  502    0 -0.38551805411E+02 -0.17792677075E+03  0.15061526552E+02  0.18273783689E+03  0.46999998093E+01 0.  1.
       -5    1    3    3    0  502  0.38551805411E+02  0.17792677075E+03 -0.42707662115E+03  0.46428515783E+03  0.46999998093E+01 0. -1.
</event>
<event>
 5   0  0.2715483E-02  0.5007734E+03  0.7818609E-02  0.1013577E+00
        1   -1    0    0  501    0  0.00000000000E+00  0.00000000000E+00  0.31307612940E+03  0.31307612944E+03  0.50400001928E-02 0.  1.
       -1   -1    0    0    0  501  0.00000000000E+00  0.00000000000E+00 -0.20025003078E+03  0.20025003085E+03  0.50400001928E-02 0. -1.
    10030    2    1    2    0    0  0.00000000000E+00  0.00000000000E+00  0.11282609862E+03  0.51332616029E+03  0.50077342013E+03 0.  0.
        5    1    3    3  502    0 -0.14286115722E+03  0.54952481034E+02 -0.14664935131E+03  0.21203114784E+03  0.46999998093E+01 0.  1.
       -5    1    3    3    0  502  0.14286115722E+03 -0.54952481034E+02  0.25947544993E+03  0.30129501245E+03  0.46999998093E+01 0. -1.
</event>
<event>
 5   0  0.4534223E-02  0.4907995E+03  0.7818609E-02  0.1016209E+00
        2   -1    0    0  501    0  0.00000000000E+00  0.00000000000E+00  0.15519501630E+03  0.15519501632E+03  0.25500000920E-02 0.  1.
       -2   -1    0    0    0  501  0.00000000000E+00  0.00000000000E+00 -0.38803459905E+03  0.38803459906E+03  0.25500000920E-02 0. -1.
    10030    2    1    2    0    0  0.00000000000E+00  0.00000000000E+00 -0.23283958275E+03  0.54322961538E+03  0.49079949443E+03 0.  0.
        2    1    3    3  502    0 -0.23782010597E+03  0.29546391875E+02 -0.57960477697E+02  0.24655792232E+03  0.25500000920E-02 0.  1.
       -2    1    3    3    0  502  0.23782010597E+03 -0.29546391875E+02 -0.17487910505E+03  0.29667169306E+03  0.25500000920E-02 0. -1.
</event>
<event>
 5   0  0.4534223E-02  0.5010489E+03  0.7818609E-02  0.1013505E+00
       -2   -1    0    0    0  501  0.00000000000E+00  0.00000000000E+00  0.10068500693E+03  0.10068500697E+03  0.25500000920E-02 0.  1.
        2   -1    0    0  501    0  0.00000000000E+00  0.00000000000E+00 -0.62335502468E+03  0.62335502468E+03  0.25500000920E-02 0. -1.
    10030    2    1    2    0    0  0.00000000000E+00  0.00000000000E+00 -0.52267001774E+03  0.72404003165E+03  0.50104891975E+03 0.  0.
        2    1    3    3  502    0  0.22524515787E+03  0.78761627032E+02 -0.37161153148E+03  0.44162643192E+03  0.25500000920E-02 0. -1.
       -2    1    3    3    0  502 -0.22524515787E+03 -0.78761627032E+02 -0.15105848626E+03  0.28241359973E+03  0.25500000920E-02 0.  1.
</event>
<event>
 5   0  0.2643185E-02  0.5037014E+03  0.7818609E-02  0.1012817E+00
        1   -1    0    0  501    0  0.00000000000E+00  0.00000000000E+00  0.24572735697E+03  0.24572735702E+03  0.50400001928E-02 0.  1.
       -1   -1    0    0    0  501  0.00000000000E+00  0.00000000000E+00 -0.25812662776E+03  0.25812662780E+03  0.50400001928E-02 0. -1.
    10030    2    1    2    0    0  0.00000000000E+00  0.00000000000E+00 -0.12399270788E+02  0.50385398482E+03  0.50370139578E+03 0.  0.
        1    1    3    3  502    0  0.67614721414E+02  0.99320784043E+02 -0.22760896872E+03  0.25737562309E+03  0.50400001928E-02 0. -1.
       -1    1    3    3    0  502 -0.67614721414E+02 -0.99320784043E+02  0.21520969793E+03  0.24647836173E+03  0.50400001928E-02 0.  1.
</event>
<event>
 5   0  0.4631619E-02  0.4992914E+03  0.7818609E-02  0.1013964E+00
       -2   -1    0    0    0  501  0.00000000000E+00  0.00000000000E+00  0.29892882317E+03  0.29892882318E+03  0.25500000920E-02 0.  1.
        2   -1    0    0  501    0  0.00000000000E+00  0.00000000000E+00 -0.20848767023E+03  0.20848767025E+03  0.25500000920E-02 0. -1.
    10030    2    1    2    0    0  0.00000000000E+00  0.00000000000E+00  0.90441152941E+02  0.50741649343E+03  0.49929139354E+03 0.  0.
        5    1    3    3  502    0 -0.17702799811E+03 -0.14478119004E+03 -0.56408674639E+02  0.23559400179E+03  0.46999998093E+01 0. -1.
       -5    1    3    3    0  502  0.17702799811E+03  0.14478119004E+03  0.14684982758E+03  0.27182249164E+03  0.46999998093E+01 0.  1.
</event>
<event>
 5   0  0.2723308E-02  0.4997409E+03  0.7818609E-02  0.1013847E+00
       -1   -1    0    0    0  501  0.00000000000E+00  0.00000000000E+00  0.39679151537E+03  0.39679151541E+03  0.50400001928E-02 0.  1.
        1   -1    0    0  501    0  0.00000000000E+00  0.00000000000E+00 -0.15735024838E+03  0.15735024847E+03  0.50400001928E-02 0. -1.
    10030    2    1    2    0    0  0.00000000000E+00  0.00000000000E+00  0.23944126699E+03  0.55414176387E+03  0.49974090700E+03 0.  0.
        4    1    3    3  502    0  0.94968880719E+02  0.16505937486E+03 -0.59660757685E+02  0.19956127992E+03  0.12699999809E+01 0. -1.
       -4    1    3    3    0  502 -0.94968880719E+02 -0.16505937486E+03  0.29910202467E+03  0.35458048395E+03  0.12699999809E+01 0.  1.
</event>
<event>
 5   0  0.4534223E-02  0.5016587E+03  0.7818609E-02  0.1013347E+00
        2   -1    0    0  501    0  0.00000000000E+00  0.00000000000E+00  0.45977654971E+03  0.45977654972E+03  0.25500000920E-02 0. -1.
       -2   -1    0    0    0  501  0.00000000000E+00  0.00000000000E+00 -0.13683899165E+03  0.13683899168E+03  0.25500000920E-02 0.  1.
    10030    2    1    2    0    0  0.00000000000E+00  0.00000000000E+00  0.32293755806E+03  0.59661554140E+03  0.50165868659E+03 0.  0.
        2    1    3    3  502    0 -0.23994886139E+03 -0.38390617511E+02  0.87521748819E+02  0.25828153654E+03  0.25500000920E-02 0. -1.
       -2    1    3    3    0  502  0.23994886139E+03  0.38390617511E+02  0.23541580924E+03  0.33833400486E+03  0.25500000920E-02 0.  1.
</event>
<event>
 5   0  0.2779445E-02  0.4988608E+03  0.7818609E-02  0.1014077E+00
        1   -1    0    0  501    0  0.00000000000E+00  0.00000000000E+00  0.53119139297E+03  0.53119139299E+03  0.50400001928E-02 0. -1.
       -1   -1    0    0    0  501  0.00000000000E+00  0.00000000000E+00 -0.11712450584E+03  0.11712450595E+03  0.50400001928E-02 0.  1.
    10030    2    1    2    0    0  0.00000000000E+00  0.00000000000E+00  0.41406688712E+03  0.64831589894E+03  0.49886082008E+03 0.  0.
        3    1    3    3  502    0  0.56157161734E+02  0.91074613630E+02  0.49985250202E+03  0.51117584649E+03  0.10100000352E+00 0. -1.
       -3    1    3    3    0  502 -0.56157161734E+02 -0.91074613630E+02 -0.85785614895E+02  0.13714005245E+03  0.10100000352E+00 0.  1.
</event>
<event>
 5   0  0.2715483E-02  0.5014119E+03  0.7818609E-02  0.1013411E+00
       -1   -1    0    0    0  501  0.00000000000E+00  0.00000000000E+00  0.11466337781E+03  0.11466337793E+03  0.50400001928E-02 0. -1.
        1   -1    0    0  501    0  0.00000000000E+00  0.00000000000E+00 -0.54815657838E+03  0.54815657840E+03  0.50400001928E-02 0.  1.
    10030    2    1    2    0    0  0.00000000000E+00  0.00000000000E+00 -0.43349320056E+03  0.66281995633E+03  0.50141194598E+03 0.  0.
        5    1    3    3  502    0 -0.78874539679E+02  0.33185495250E+02  0.94699076433E+02  0.12772030058E+03  0.46999998093E+01 0. -1.
       -5    1    3    3    0  502  0.78874539679E+02 -0.33185495250E+02 -0.52819227700E+03  0.53509965575E+03  0.46999998093E+01 0.  1.
</event>
<event>
 5   0  0.1805500E-02  0.5004203E+03  0.7818609E-02  0.1013669E+00
       -4   -1    0    0    0  501  0.00000000000E+00  0.00000000000E+00  0.86757012643E+02  0.86766307647E+02  0.12699999809E+01 0. -1.
        4   -1    0    0  501    0  0.00000000000E+00  0.00000000000E+00 -0.72156597526E+03  0.72156709289E+03  0.12699999809E+01 0.  1.
    10030    2    1    2    0    0  0.00000000000E+00  0.00000000000E+00 -0.63480896261E+03  0.80833340054E+03  0.50042029077E+03 0.  0.
        5    1    3    3  502    0 -0.24725937606E+03  0.27993397036E+02 -0.35897154917E+03  0.43681059104E+03  0.46999998093E+01 0. -1.
       -5    1    3    3    0  502  0.24725937606E+03 -0.27993397036E+02 -0.27583741344E+03  0.37152280950E+03  0.46999998093E+01 0.  1.
</event>
<event>
 5   0  0.2715483E-02  0.5001079E+03  0.7818609E-02  0.1013751E+00
        1   -1    0    0  501    0  0.00000000000E+00  0.00000000000E+00  0.66703977131E+03  0.66703977133E+03  0.50400001928E-02 0.  1.
       -1   -1    0    0    0  501  0.00000000000E+00  0.00000000000E+00 -0.93737992207E+02  0.93737992343E+02  0.50400001928E-02 0. -1.
    10030    2    1    2    0    0  0.00000000000E+00  0.00000000000E+00  0.57330177911E+03  0.76077776367E+03  0.50010786414E+03 0.  0.
        5    1    3    3  502    0 -0.27925467559E+02  0.16596930112E+03  0.56788974157E+03  0.59232296024E+03  0.46999998093E+01 0.  1.
       -5    1    3    3    0  502  0.27925467559E+02 -0.16596930112E+03  0.54120375365E+01  0.16845480343E+03  0.46999998093E+01 0. -1.
</event>
<event>
 5   0  0.4534223E-02  0.4987560E+03  0.7818609E-02  0.1014104E+00
        2   -1    0    0  501    0  0.00000000000E+00  0.00000000000E+00  0.30373039514E+03  0.30373039515E+03  0.25500000920E-02 0. -1.
       -2   -1    0    0    0  501  0.00000000000E+00  0.00000000000E+00 -0.20475195282E+03  0.20475195283E+03  0.25500000920E-02 0.  1.
    10030    2    1    2    0    0  0.00000000000E+00  0.00000000000E+00  0.98978442324E+02  0.50848234799E+03  0.49875601868E+03 0.  0.
        2    1    3    3  502    0 -0.38754112538E+02  0.75288957713E+02 -0.18964647340E+03  0.20769230431E+03  0.25500000920E-02 0.  1.
       -2    1    3    3    0  502  0.38754112538E+02 -0.75288957713E+02  0.28862491572E+03  0.30079004368E+03  0.25500000920E-02 0. -1.
</event>
<event>
 5   0  0.4534223E-02  0.5012998E+03  0.7818609E-02  0.1013440E+00
       -2   -1    0    0    0  501  0.00000000000E+00  0.00000000000E+00  0.99799973498E+02  0.99799973530E+02  0.25500000920E-02 0. -1.
        2   -1    0    0  501    0  0.00000000000E+00  0.00000000000E+00 -0.62951286766E+03  0.62951286766E+03  0.25500000920E-02 0.  1.
    10030    2    1    2    0    0  0.00000000000E+00  0.00000000000E+00 -0.52971289416E+03  0.72931284119E+03  0.50129978066E+03 0.  0.
        2    1    3    3  502    0 -0.21303031725E+03  0.11392160600E+03 -0.36207353261E+03  0.43526691973E+03  0.25500000920E-02 0.  1.
       -2    1    3    3    0  502  0.21303031725E+03 -0.11392160600E+03 -0.16763936154E+03  0.29404592146E+03  0.25500000920E-02 0. -1.
</event>
<event>
 5   0  0.2719671E-02  0.5003990E+03  0.7818609E-02  0.1013675E+00
        1   -1    0    0  501    0  0.00000000000E+00  0.00000000000E+00  0.59631661465E+02  0.59631661678E+02  0.50400001928E-02 0. -1.
       -1   -1    0    0    0  501  0.00000000000E+00  0.00000000000E+00 -0.10497742578E+04  0.10497742579E+04  0.50400001928E-02 0.  1.
    10030    2    1    2    0    0  0.00000000000E+00  0.00000000000E+00 -0.99014259637E+03  0.11094059195E+04  0.50039897395E+03 0.  0.
        2    1    3    3  502    0 -0.45372027551E+01  0.23546715317E+03 -0.30780772385E+03  0.38757058880E+03  0.25500000920E-02 0. -1.
       -2    1    3    3    0  502  0.45372027551E+01 -0.23546715317E+03 -0.68233487252E+03  0.72183533073E+03  0.25500000920E-02 0.  1.
</event>
<event>
 5   0  0.4519539E-02  0.4996258E+03  0.7818609E-02  0.1013877E+00
        2   -1    0    0  501    0  0.00000000000E+00  0.00000000000E+00  0.10734788953E+04  0.10734788953E+04  0.25500000920E-02 0. -1.
       -2   -1    0    0    0  501  0.00000000000E+00  0.00000000000E+00 -0.58134795470E+02  0.58134795526E+02  0.25500000920E-02 0.  1.
    10030    2    1    2    0    0  0.00000000000E+00  0.00000000000E+00  0.10153440998E+04  0.11316136908E+04  0.49962576415E+03 0.  0.
        4    1    3    3  502    0 -0.31124055817E+02 -0.49805890755E+02 -0.42268368727E+02  0.72370999020E+02  0.12699999809E+01 0.  1.
       -4    1    3    3    0  502  0.31124055817E+02  0.49805890755E+02  0.10576124685E+04  0.10592426918E+04  0.12699999809E+01 0. -1.
</event>
<event>
 5   0  0.2715483E-02  0.4975360E+03  0.7818609E-02  0.1014424E+00
        1   -1    0    0  501    0  0.00000000000E+00  0.00000000000E+00  0.13398912161E+03  0.13398912171E+03  0.50400001928E-02 0.  1.
       -1   -1    0    0    0  501  0.00000000000E+00  0.00000000000E+00 -0.46186964221E+03  0.46186964224E+03  0.50400001928E-02 0. -1.
    10030    2    1    2    0    0  0.00000000000E+00  0.00000000000E+00 -0.32788052060E+03  0.59585876395E+03  0.49753595929E+03 0.  0.
        5    1    3    3  502    0  0.50290418389E+02 -0.24224385929E+03 -0.19452541179E+03  0.31475933565E+03  0.46999998093E+01 0.  1.
       -5    1    3    3    0  502 -0.50290418389E+02  0.24224385929E+03 -0.13335510881E+03  0.28109942830E+03  0.46999998093E+01 0. -1.
</event>
<event>
 5   0  0.2715483E-02  0.4976608E+03  0.7818609E-02  0.1014391E+00
       -1   -1    0    0    0  501  0.00000000000E+00  0.00000000000E+00  0.29862971078E+02  0.29862971503E+02  0.50400001928E-02 0.  1.
        1   -1    0    0  501    0  0.00000000000E+00  0.00000000000E+00 -0.20733557550E+04  0.20733557550E+04  0.50400001928E-02 0. -1.
    10030    2    1    2    0    0  0.00000000000E+00  0.00000000000E+00 -0.20434927839E+04  0.21032187265E+04  0.49766078165E+03 0.  0.
        5    1    3    3  502    0 -0.22149639426E+02 -0.31573957439E+02  0.16964018355E+02  0.42395627511E+02  0.46999998093E+01 0.  1.
       -5    1    3    3    0  502  0.22149639426E+02  0.31573957439E+02 -0.20604568022E+04  0.20608230989E+04  0.46999998093E+01 0. -1.
</event>
<event>
 5   0  0.2779445E-02  0.5021710E+03  0.7818609E-02  0.1013214E+00
        1   -1    0    0  501    0  0.00000000000E+00  0.00000000000E+00  0.52309544483E+03  0.52309544486E+03  0.50400001928E-02 0.  1.
       -1   -1    0    0    0  501  0.00000000000E+00  0.00000000000E+00 -0.12052090051E+03  0.12052090061E+03  0.50400001928E-02 0. -1.
    10030    2    1    2    0    0  0.00000000000E+00  0.00000000000E+00  0.40257454433E+03  0.64361634547E+03  0.50217102307E+03 0.  0.
        3    1    3    3  502    0 -0.12474279815E+03 -0.21737896731E+03  0.22070539476E+03  0.33395398275E+03  0.10100000352E+00 0.  1.
       -3    1    3    3    0  502  0.12474279815E+03  0.21737896731E+03  0.18186914957E+03  0.30966236272E+03  0.10100000352E+00 0. -1.
</event>
<event>
 5   0  0.4534223E-02  0.4896937E+03  0.7818609E-02  0.1016505E+00
       -2   -1    0    0    0  501  0.00000000000E+00  0.00000000000E+00  0.54473336932E+02  0.54473336992E+02  0.25500000920E-02 0. -1.
        2   -1    0    0  501    0  0.00000000000E+00  0.00000000000E+00 -0.11005379596E+04  0.11005379596E+04  0.25500000920E-02 0.  1.
    10030    2    1    2    0    0  0.00000000000E+00  0.00000000000E+00 -0.10460646227E+04  0.11550112966E+04  0.48969368024E+03 0.  0.
        2    1    3    3  502    0 -0.19254950924E+03  0.24308129956E+02 -0.87512428812E+03  0.89638647823E+03  0.25500000920E-02 0.  1.
       -2    1    3    3    0  502  0.19254950924E+03 -0.24308129956E+02 -0.17094033454E+03  0.25862481836E+03  0.25500000920E-02 0. -1.
</event>
<event>
 5   0  0.2723308E-02  0.5003961E+03  0.7818609E-02  0.1013676E+00
        1   -1    0    0  501    0  0.00000000000E+00  0.00000000000E+00  0.20121809933E+04  0.20121809933E+04  0.50400001928E-02 0. -1.
       -1   -1    0    0    0  501  0.00000000000E+00  0.00000000000E+00 -0.31110053207E+02  0.31110053616E+02  0.50400001928E-02 0.  1.
    10030    2    1    2    0    0  0.00000000000E+00  0.00000000000E+00  0.19810709401E+04  0.20432910469E+04  0.50039607588E+03 0.  0.
        4    1    3    3  502    0  0.16627627167E+03  0.14497199997E+03  0.50854882130E+03  0.55433581505E+03  0.12699999809E+01 0.  1.
       -4    1    3    3    0  502 -0.16627627167E+03 -0.14497199997E+03  0.14725221188E+04  0.14889552319E+04  0.12699999809E+01 0. -1.
</event>
<event>
 5   0  0.4534223E-02  0.4985347E+03  0.7818609E-02  0.1014162E+00
       -2   -1    0    0    0  501  0.00000000000E+00  0.00000000000E+00  0.12271655179E+03  0.12271655182E+03  0.25500000920E-02 0. -1.
        2   -1    0    0  501    0  0.00000000000E+00  0.00000000000E+00 -0.50632296767E+03  0.50632296768E+03  0.25500000920E-02 0.  1.
    10030    2    1    2    0    0  0.00000000000E+00  0.00000000000E+00 -0.38360641588E+03  0.62903951950E+03  0.49853468764E+03 0.  0.
        2    1    3    3  502    0 -0.13928653390E+03  0.19201098557E+03 -0.95170116799E+02  0.25559011765E+03  0.25500000920E-02 0. -1.
       -2    1    3    3    0  502  0.13928653390E+03 -0.19201098557E+03 -0.28843629908E+03  0.37344940184E+03  0.25500000920E-02 0.  1.
</event>
<event>
 5   0  0.4534223E-02  0.5001485E+03  0.7818609E-02  0.1013740E+00
       -2   -1    0    0    0  501  0.00000000000E+00  0.00000000000E+00  0.55256287322E+02  0.55256287381E+02  0.25500000920E-02 0. -1.
        2   -1    0    0  501    0  0.00000000000E+00  0.00000000000E+00 -0.11317650677E+04  0.11317650677E+04  0.25500000920E-02 0.  1.
    10030    2    1    2    0    0  0.00000000000E+00  0.00000000000E+00 -0.10765087804E+04  0.11870213551E+04  0.50014852114E+03 0.  0.
        2    1    3    3  502    0  0.70434698984E+02  0.19414149243E+02 -0.11058701483E+04  0.11082809846E+04  0.25500000920E-02 0.  1.
       -2    1    3    3    0  502 -0.70434698984E+02 -0.19414149243E+02  0.29361367889E+02  0.78740370475E+02  0.25500000920E-02 0. -1.
</event>
<event>
 5   0  0.2779445E-02  0.4993863E+03  0.7818609E-02  0.1013939E+00
       -1   -1    0    0    0  501  0.00000000000E+00  0.00000000000E+00  0.12864395377E+03  0.12864395387E+03  0.50400001928E-02 0.  1.
        1   -1    0    0  501    0  0.00000000000E+00  0.00000000000E+00 -0.48464523115E+03  0.48464523118E+03  0.50400001928E-02 0. -1.
    10030    2    1    2    0    0  0.00000000000E+00  0.00000000000E+00 -0.35600127738E+03  0.61328918505E+03  0.49938633841E+03 0.  0.
        3    1    3    3  502    0  0.59941624913E+02 -0.19164066089E+03 -0.36026909797E+03  0.41244754146E+03  0.10100000352E+00 0. -1.
       -3    1    3    3    0  502 -0.59941624913E+02  0.19164066089E+03  0.42678205867E+01  0.20084164358E+03  0.10100000352E+00 0.  1.
</event>
<event>
 5   0  0.2643185E-02  0.4997111E+03  0.7818609E-02  0.1013854E+00
        1   -1    0    0  501    0  0.00000000000E+00  0.00000000000E+00  0.10549853584E+04  0.10549853584E+04  0.50400001928E-02 0. -1.
       -1   -1    0    0    0  501  0.00000000000E+00  0.00000000000E+00 -0.59174095385E+02  0.59174095600E+02  0.50400001928E-02 0.  1.
    10030    2    1    2    0    0  0.00000000000E+00  0.00000000000E+00  0.99581126302E+03  0.11141594540E+04  0.49971113397E+03 0.  0.
        1    1    3    3  502    0  0.24114128751E+03 -0.54361400137E+02  0.57901927325E+03  0.62957731946E+03  0.50400001928E-02 0.  1.
       -1    1    3    3    0  502 -0.24114128751E+03  0.54361400137E+02  0.41679198977E+03  0.48458213455E+03  0.50400001928E-02 0. -1.
</event>
<event>
 5   0  0.2779445E-02  0.4999317E+03  0.7818609E-02  0.1013797E+00
        1   -1    0    0  501    0  0.00000000000E+00  0.00000000000E+00  0.16129340853E+03  0.16129340861E+03  0.50400001928E-02 0. -1.
       -1   -1    0    0    0  501  0.00000000000E+00  0.00000000000E+00 -0.38738678696E+03  0.38738678700E+03  0.50400001928E-02 0.  1.
    10030    2    1    2    0    0  0.00000000000E+00  0.00000000000E+00 -0.22609337843E+03  0.54868019560E+03  0.49993173662E+03 0.  0.
        3    1    3    3  502    0 -0.24328215395E+03 -0.17149737989E+02 -0.17318589546E+03  0.29912152134E+03  0.10100000352E+00 0.  1.
       -3    1    3    3    0  502  0.24328215395E+03  0.17149737989E+02 -0.52907482973E+02  0.24955867426E+03  0.10100000352E+00 0. -1.
</event>
<event>
 5   0  0.2715483E-02  0.4994628E+03  0.7818609E-02  0.1013919E+00
        1   -1    0    0  501    0  0.00000000000E+00  0.00000000000E+00  0.54086842693E+02  0.54086842927E+02  0.50400001928E-02 0. -1.
       -1   -1    0    0    0  501  0.00000000000E+00  0.00000000000E+00 -0.11530674501E+04  0.11530674501E+04  0.50400001928E-02 0.  1.
    10030    2    1    2    0    0  0.00000000000E+00  0.00000000000E+00 -0.10989806074E+04  0.12071542930E+04  0.49946282319E+03 0.  0.
        5    1    3    3  502    0 -0.13292365647E+03 -0.19217361784E+03 -0.76218194469E+03  0.79720938571E+03  0.46999998093E+01 0.  1.
       -5    1    3    3    0  502  0.13292365647E+03  0.19217361784E+03 -0.33679866272E+03  0.40994490733E+03  0.46999998093E+01 0. -1.
</event>
<event>
 5   0  0.2723308E-02  0.5000970E+03  0.7818609E-02  0.1013754E+00
       -1   -1    0    0    0  501  0.00000000000E+00  0.00000000000E+00  0.86406185964E+02  0.86406186111E+02  0.50400001928E-02 0.  1.
        1   -1    0    0  501    0  0.00000000000E+00  0.00000000000E+00 -0.72360843508E+03  0.72360843510E+03  0.50400001928E-02 0. -1.
    10030    2    1    2    0    0  0.00000000000E+00  0.00000000000E+00 -0.63720224912E+03  0.81001462121E+03  0.50009697089E+03 0.  0.
        4    1    3    3  502    0 -0.11988228867E+03 -0.46713523339E+02 -0.66587316572E+03  0.67819068272E+03  0.12699999809E+01 0. -1.
       -4    1    3    3    0  502  0.11988228867E+03  0.46713523339E+02  0.28670916602E+02  0.13182393849E+03  0.12699999809E+01 0.  1.
</event>
<event>
 5   0  0.2723308E-02  0.5023582E+03  0.7818609E-02  0.1013165E+00
        1   -1    0    0  501    0  0.00000000000E+00  0.00000000000E+00  0.68568593277E+02  0.68568593462E+02  0.50400001928E-02 0.  1.
       -1   -1    0    0    0  501  0.00000000000E+00  0.00000000000E+00 -0.92011434143E+03  0.92011434145E+03  0.50400001928E-02 0. -1.
    10030    2    1    2    0    0  0.00000000000E+00  0.00000000000E+00 -0.85154574816E+03  0.98868293491E+03  0.50235822336E+03 0.  0.
        4    1    3    3  502    0 -0.10723499021E+03  0.18977786649E+03 -0.67138426722E+03  0.70588485528E+03  0.12699999809E+01 0. -1.
       -4    1    3    3    0  502  0.10723499021E+03 -0.18977786649E+03 -0.18016148093E+03  0.28279807963E+03  0.12699999809E+01 0.  1.
</event>
<event>
 5   0  0.4451135E-02  0.5042691E+03  0.7818609E-02  0.1012671E+00
       -2   -1    0    0    0  501  0.00000000000E+00  0.00000000000E+00  0.48187363657E+03  0.48187363658E+03  0.25500000920E-02 0.  1.
        2   -1    0    0  501    0  0.00000000000E+00  0.00000000000E+00 -0.13192637462E+03  0.13192637465E+03  0.25500000920E-02 0. -1.
    10030    2    1    2    0    0  0.00000000000E+00  0.00000000000E+00  0.34994726195E+03  0.61380001123E+03  0.50426914206E+03 0.  0.
        1    1    3    3  502    0 -0.13881131755E+03 -0.18435659466E+03  0.51345248438E+02  0.23641546150E+03  0.50400001928E-02 0.  1.
       -1    1    3    3    0  502  0.13881131755E+03  0.18435659466E+03  0.29860201351E+03  0.37738454973E+03  0.50400001928E-02 0. -1.
</event>
<event>
 5   0  0.4409622E-02  0.4975687E+03  0.7818609E-02  0.1014415E+00
        2   -1    0    0  501    0  0.00000000000E+00  0.00000000000E+00  0.22630556549E+03  0.22630556551E+03  0.25500000920E-02 0. -1.
       -2   -1    0    0    0  501  0.00000000000E+00  0.00000000000E+00 -0.27349592513E+03  0.27349592514E+03  0.25500000920E-02 0.  1.
    10030    2    1    2    0    0  0.00000000000E+00  0.00000000000E+00 -0.47190359634E+02  0.49980149065E+03  0.49756868874E+03 0.  0.
        3    1    3    3  502    0 -0.11865438794E+03 -0.14599964196E+03  0.13992007216E+03  0.23446192873E+03  0.10100000352E+00 0. -1.
       -3    1    3    3    0  502  0.11865438794E+03  0.14599964196E+03 -0.18711043179E+03  0.26533956192E+03  0.10100000352E+00 0.  1.
</event>
<event>
 5   0  0.2715483E-02  0.5111088E+03  0.7818609E-02  0.1010919E+00
       -1   -1    0    0    0  501  0.00000000000E+00  0.00000000000E+00  0.64754384563E+03  0.64754384565E+03  0.50400001928E-02 0.  1.
        1   -1    0    0  501    0  0.00000000000E+00  0.00000000000E+00 -0.10085501820E+03  0.10085501832E+03  0.50400001928E-02 0. -1.
    10030    2    1    2    0    0  0.00000000000E+00  0.00000000000E+00  0.54668882744E+03  0.74839886398E+03  0.51110878056E+03 0.  0.
        5    1    3    3  502    0  0.43376902101E+02 -0.22554396816E+03  0.43727883524E+03  0.49394990328E+03  0.46999998093E+01 0. -1.
       -5    1    3    3    0  502 -0.43376902101E+02  0.22554396816E+03  0.10940999220E+03  0.25444896069E+03  0.46999998093E+01 0.  1.
</event>
<event>
 5   0  0.4534223E-02  0.4998623E+03  0.7818609E-02  0.1013815E+00
       -2   -1    0    0    0  501  0.00000000000E+00  0.00000000000E+00  0.68512754879E+02  0.68512754926E+02  0.25500000920E-02 0. -1.
        2   -1    0    0  501    0  0.00000000000E+00  0.00000000000E+00 -0.91173639308E+03  0.91173639308E+03  0.25500000920E-02 0.  1.
    10030    2    1    2    0    0  0.00000000000E+00  0.00000000000E+00 -0.84322363820E+03  0.98024914801E+03  0.49986226918E+03 0.  0.
        2    1    3    3  502    0 -0.49625967995E+02 -0.19062324500E+03 -0.11993287206E+03  0.23061624409E+03  0.25500000920E-02 0. -1.
       -2    1    3    3    0  502  0.49625967995E+02  0.19062324500E+03 -0.72329076615E+03  0.74963290392E+03  0.25500000920E-02 0.  1.
</event>
<event>
 5   0  0.4519539E-02  0.5009514E+03  0.7818609E-02  0.1013531E+00
        2   -1    0    0  501    0  0.00000000000E+00  0.00000000000E+00  0.82959308293E+03  0.82959308293E+03  0.25500000920E-02 0.  1.
       -2   -1    0    0    0  501  0.00000000000E+00  0.00000000000E+00 -0.75625114950E+02  0.75625114993E+02  0.25500000920E-02 0. -1.
    10030    2    1    2    0    0  0.00000000000E+00  0.00000000000E+00  0.75396796798E+03  0.90521819792E+03  0.50095138399E+03 0.  0.
        4    1    3    3  502    0 -0.12547171901E+02  0.87147254799E+02  0.80070243572E+03  0.80552968847E+03  0.12699999809E+01 0. -1.
       -4    1    3    3    0  502  0.12547171901E+02 -0.87147254799E+02 -0.46734467743E+02  0.99688509453E+02  0.12699999809E+01 0.  1.
</event>
<event>
 5   0  0.2723308E-02  0.4990948E+03  0.7818609E-02  0.1014015E+00
        1   -1    0    0  501    0  0.00000000000E+00  0.00000000000E+00  0.72178691763E+03  0.72178691764E+03  0.50400001928E-02 0.  1.
       -1   -1    0    0    0  501  0.00000000000E+00  0.00000000000E+00 -0.86277422868E+02  0.86277423015E+02  0.50400001928E-02 0. -1.
    10030    2    1    2    0    0  0.00000000000E+00  0.00000000000E+00  0.63550949476E+03  0.80806434066E+03  0.49909484141E+03 0.  0.
        4    1    3    3  502    0 -0.58149098675E+02  0.23579194893E+03  0.22484355112E+03  0.33096132136E+03  0.12699999809E+01 0.  1.
       -4    1    3    3    0  502  0.58149098675E+02 -0.23579194893E+03  0.41066594364E+03  0.47710301930E+03  0.12699999809E+01 0. -1.
</event>
<event>
 5   0  0.4631619E-02  0.4986340E+03  0.7818609E-02  0.1014136E+00
        2   -1    0    0  501    0  0.00000000000E+00  0.00000000000E+00  0.60768733950E+03  0.60768733951E+03  0.25500000920E-02 0. -1.
       -2   -1    0    0    0  501  0.00000000000E+00  0.00000000000E+00 -0.10228773689E+03  0.10228773692E+03  0.25500000920E-02 0.  1.
    10030    2    1    2    0    0  0.00000000000E+00  0.00000000000E+00  0.50539960261E+03  0.70997507643E+03  0.49863398483E+03 0.  0.
        5    1    3    3  502    0 -0.43205968770E+02 -0.38928602673E+02  0.59782960473E+03  0.60067005763E+03  0.46999998093E+01 0. -1.
       -5    1    3    3    0  502  0.43205968770E+02  0.38928602673E+02 -0.92430002121E+02  0.10930501879E+03  0.46999998093E+01 0.  1.
</event>
<event>
 5   0  0.4409622E-02  0.4917977E+03  0.7818609E-02  0.1015942E+00
       -2   -1    0    0    0  501  0.00000000000E+00  0.00000000000E+00  0.13120654323E+03  0.13120654325E+03  0.25500000920E-02 0.  1.
        2   -1    0    0  501    0  0.00000000000E+00  0.00000000000E+00 -0.46084776007E+03  0.46084776008E+03  0.25500000920E-02 0. -1.
    10030    2    1    2    0    0  0.00000000000E+00  0.00000000000E+00 -0.32964121685E+03  0.59205430333E+03  0.49179768833E+03 0.  0.
        3    1    3    3  502    0 -0.10477718358E+03  0.22037246180E+03 -0.20141374070E+03  0.31640130414E+03  0.10100000352E+00 0.  1.
       -3    1    3    3    0  502  0.10477718358E+03 -0.22037246180E+03 -0.12822747614E+03  0.27565299918E+03  0.10100000352E+00 0. -1.
</event>
<event>
 5   0  0.2723308E-02  0.5001061E+03  0.7818609E-02  0.1013751E+00
       -1   -1    0    0    0  501  0.00000000000E+00  0.00000000000E+00  0.15713983414E+03  0.15713983422E+03  0.50400001928E-02 0. -1.
        1   -1    0    0  501    0  0.00000000000E+00  0.00000000000E+00 -0.39790373822E+03  0.39790373825E+03  0.50400001928E-02 0.  1.
    10030    2    1    2    0    0  0.00000000000E+00  0.00000000000E+00 -0.24076390408E+03  0.55504357247E+03  0.50010609857E+03 0.  0.
        4    1    3    3  502    0 -0.17146590427E+03 -0.36802185259E+02  0.77439435335E+02  0.19171185725E+03  0.12699999809E+01 0. -1.
       -4    1    3    3    0  502  0.17146590427E+03  0.36802185259E+02 -0.31820333941E+03  0.36333171521E+03  0.12699999809E+01 0.  1.
</event>
<event>
 5   0  0.1805500E-02  0.5012661E+03  0.7818609E-02  0.1013449E+00
       -3   -1    0    0    0  501  0.00000000000E+00  0.00000000000E+00  0.10679559030E+03  0.10679563806E+03  0.10100000352E+00 0. -1.
        3   -1    0    0  501    0  0.00000000000E+00  0.00000000000E+00 -0.58819763231E+03  0.58819764099E+03  0.10100000352E+00 0.  1.
    10030    2    1    2    0    0  0.00000000000E+00  0.00000000000E+00 -0.48140204202E+03  0.69499327904E+03  0.50126612878E+03 0.  0.
        4    1    3    3  502    0  0.24095096844E+02  0.14000130589E+03 -0.52698182259E+03  0.54579519380E+03  0.12699999809E+01 0.  1.
       -4    1    3    3    0  502 -0.24095096844E+02 -0.14000130589E+03  0.45579780572E+02  0.14919808524E+03  0.12699999809E+01 0. -1.
</event>
<event>
 5   0  0.2643185E-02  0.5000172E+03  0.7818609E-02  0.1013774E+00
        1   -1    0    0  501    0  0.00000000000E+00  0.00000000000E+00  0.16817885377E+03  0.16817885384E+03  0.50400001928E-02 0. -1.
       -1   -1    0    0    0  501  0.00000000000E+00  0.00000000000E+00 -0.37165380188E+03  0.37165380191E+03  0.50400001928E-02 0.  1.
    10030    2    1    2    0    0  0.00000000000E+00  0.00000000000E+00 -0.20347494811E+03  0.53983265575E+03  0.50001724141E+03 0.  0.
        1    1    3    3  502    0  0.46641690366E+02 -0.35454636560E+02  0.16066286520E+03  0.17101179729E+03  0.50400001928E-02 0. -1.
       -1    1    3    3    0  502 -0.46641690366E+02  0.35454636560E+02 -0.36413781331E+03  0.36882085846E+03  0.50400001928E-02 0.  1.
</event>
<event>
 5   0  0.4519539E-02  0.4990740E+03  0.7818609E-02  0.1014021E+00
       -2   -1    0    0    0  501  0.00000000000E+00  0.00000000000E+00  0.10213519208E+03  0.10213519212E+03  0.25500000920E-02 0. -1.
        2   -1    0    0  501    0  0.00000000000E+00  0.00000000000E+00 -0.60966943435E+03  0.60966943436E+03  0.25500000920E-02 0.  1.
    10030    2    1    2    0    0  0.00000000000E+00  0.00000000000E+00 -0.50753424227E+03  0.71180462647E+03  0.49907396165E+03 0.  0.
        4    1    3    3  502    0  0.16142701657E+03  0.12004742523E+03 -0.43198082241E+02  0.20576139869E+03  0.12699999809E+01 0. -1.
       -4    1    3    3    0  502 -0.16142701657E+03 -0.12004742523E+03 -0.46433616003E+03  0.50604322779E+03  0.12699999809E+01 0.  1.
</event>
<event>
 5   0  0.4409622E-02  0.4891517E+03  0.7818609E-02  0.1016650E+00
        2   -1    0    0  501    0  0.00000000000E+00  0.00000000000E+00  0.25549935909E+03  0.25549935910E+03  0.25500000920E-02 0. -1.
       -2   -1    0    0    0  501  0.00000000000E+00  0.00000000000E+00 -0.23411940612E+03  0.23411940613E+03  0.25500000920E-02 0.  1.
    10030    2    1    2    0    0  0.00000000000E+00  0.00000000000E+00  0.21379952975E+02  0.48961876523E+03  0.48915174831E+03 0.  0.
        3    1    3    3  502    0  0.76500222292E+02 -0.10542372683E+03 -0.19651225459E+03  0.23576157998E+03  0.10100000352E+00 0.  1.
       -3    1    3    3    0  502 -0.76500222292E+02  0.10542372683E+03  0.21789220756E+03  0.25385718526E+03  0.10100000352E+00 0. -1.
</event>
<event>
 5   0  0.4534223E-02  0.5157233E+03  0.7818609E-02  0.1009754E+00
        2   -1    0    0  501    0  0.00000000000E+00  0.00000000000E+00  0.17419618063E+03  0.17419618065E+03  0.25500000920E-02 0. -1.
       -2   -1    0    0    0  501  0.00000000000E+00  0.00000000000E+00 -0.38171120852E+03  0.38171120853E+03  0.25500000920E-02 0.  1.
    10030    2    1    2    0    0  0.00000000000E+00  0.00000000000E+00 -0.20751502789E+03  0.55590738918E+03  0.51572331588E+03 0.  0.
        2    1    3    3  502    0  0.14019067339E+03  0.25698250745E+02  0.12787901440E+03  0.19148594551E+03  0.25500000920E-02 0. -1.
       -2    1    3    3    0  502 -0.14019067339E+03 -0.25698250745E+02 -0.33539404229E+03  0.36442144367E+03  0.25500000920E-02 0.  1.
</event>
<event>
 5   0  0.4534223E-02  0.4989741E+03  0.7818609E-02  0.1014047E+00
       -2   -1    0    0    0  501  0.00000000000E+00  0.00000000000E+00  0.50083858480E+02  0.50083858545E+02  0.25500000920E-02 0. -1.
        2   -1    0    0  501    0  0.00000000000E+00  0.00000000000E+00 -0.12427915493E+04  0.12427915493E+04  0.25500000920E-02 0.  1.
    10030    2    1    2    0    0  0.00000000000E+00  0.00000000000E+00 -0.11927076908E+04  0.12928754078E+04  0.49897413207E+03 0.  0.
        2    1    3    3  502    0  0.74069019240E+01  0.72816540247E+02 -0.12143474176E+04  0.12165511750E+04  0.25500000920E-02 0.  1.
       -2    1    3    3    0  502 -0.74069019240E+01 -0.72816540247E+02  0.21639726832E+02  0.76324232806E+02  0.25500000920E-02 0. -1.
</event>
<event>
 5   0  0.4519539E-02  0.4929092E+03  0.7818609E-02  0.1015646E+00
        2   -1    0    0  501    0  0.00000000000E+00  0.00000000000E+00  0.52430758262E+03  0.52430758262E+03  0.25500000920E-02 0. -1.
       -2   -1    0    0    0  501  0.00000000000E+00  0.00000000000E+00 -0.11584778921E+03  0.11584778924E+03  0.25500000920E-02 0.  1.
    10030    2    1    2    0    0  0.00000000000E+00  0.00000000000E+00  0.40845979341E+03  0.64015537186E+03  0.49290921810E+03 0.  0.
        4    1    3    3  502    0 -0.37369220489E+02  0.24257650510E+03  0.23322507277E+03  0.33857845019E+03  0.12699999809E+01 0. -1.
       -4    1    3    3    0  502  0.37369220489E+02 -0.24257650510E+03  0.17523472064E+03  0.30157692167E+03  0.12699999809E+01 0.  1.
</event>
<event>
 5   0  0.4631619E-02  0.4956450E+03  0.7818609E-02  0.1014922E+00
       -2   -1    0    0    0  501  0.00000000000E+00  0.00000000000E+00  0.31391448481E+02  0.31391448584E+02  0.25500000920E-02 0. -1.
        2   -1    0    0  501    0  0.00000000000E+00  0.00000000000E+00 -0.19564563323E+04  0.19564563323E+04  0.25500000920E-02 0.  1.
    10030    2    1    2    0    0  0.00000000000E+00  0.00000000000E+00 -0.19250648838E+04  0.19878477809E+04  0.49564502727E+03 0.  0.
        5    1    3    3  502    0 -0.15463407101E+03 -0.86565621693E+02 -0.16570616387E+04  0.16665175269E+04  0.46999998093E+01 0.  1.
       -5    1    3    3    0  502  0.15463407101E+03  0.86565621693E+02 -0.26800324508E+03  0.32133025402E+03  0.46999998093E+01 0. -1.
</event>
<event>
 5   0  0.4631619E-02  0.5068767E+03  0.7818609E-02  0.1011999E+00
        2   -1    0    0  501    0  0.00000000000E+00  0.00000000000E+00  0.45415540801E+03  0.45415540802E+03  0.25500000920E-02 0. -1.
       -2   -1    0    0    0  501  0.00000000000E+00  0.00000000000E+00 -0.14142955501E+03  0.14142955504E+03  0.25500000920E-02 0.  1.
    10030    2    1    2    0    0  0.00000000000E+00  0.00000000000E+00  0.31272585300E+03  0.59558496306E+03  0.50687670008E+03 0.  0.
        5    1    3    3  502    0  0.23538401149E+03  0.17620716086E+02  0.48078386648E+02  0.24093514430E+03  0.46999998093E+01 0.  1.
       -5    1    3    3    0  502 -0.23538401149E+03 -0.17620716086E+02  0.26464746635E+03  0.35464981875E+03  0.46999998093E+01 0. -1.
</event>
<event>
 5   0  0.4409622E-02  0.4987878E+03  0.7818609E-02  0.1014096E+00
        2   -1    0    0  501    0  0.00000000000E+00  0.00000000000E+00  0.10635134114E+04  0.10635134114E+04  0.25500000920E-02 0. -1.
       -2   -1    0    0    0  501  0.00000000000E+00  0.00000000000E+00 -0.58482871989E+02  0.58482872045E+02  0.25500000920E-02 0.  1.
    10030    2    1    2    0    0  0.00000000000E+00  0.00000000000E+00  0.10050305394E+04  0.11219962834E+04  0.49878780551E+03 0.  0.
        3    1    3    3  502    0 -0.11576245121E+03 -0.81512420881E+02  0.96434845977E+03  0.97468619665E+03  0.10100000352E+00 0. -1.
       -3    1    3    3    0  502  0.11576245121E+03  0.81512420881E+02  0.40682079633E+02  0.14731008680E+03  0.10100000352E+00 0.  1.
</event>
<event>
 5   0  0.2723308E-02  0.5007965E+03  0.7818609E-02  0.1013571E+00
       -1   -1    0    0    0  501  0.00000000000E+00  0.00000000000E+00  0.27608061619E+03  0.27608061624E+03  0.50400001928E-02 0.  1.
        1   -1    0    0  501    0  0.00000000000E+00  0.00000000000E+00 -0.22710496459E+03  0.22710496464E+03  0.50400001928E-02 0. -1.
    10030    2    1    2    0    0  0.00000000000E+00  0.00000000000E+00  0.48975651604E+02  0.50318558088E+03  0.50079647997E+03 0.  0.
        4    1    3    3  502    0  0.81284714748E+02 -0.23399456725E+03  0.61227319340E+02  0.25516868908E+03  0.12699999809E+01 0.  1.
       -4    1    3    3    0  502 -0.81284714748E+02  0.23399456725E+03 -0.12251667736E+02  0.24801689180E+03  0.12699999809E+01 0. -1.
</event>
<event>
 5   0  0.2643185E-02  0.5003079E+03  0.7818609E-02  0.1013699E+00
        1   -1    0    0  501    0  0.00000000000E+00  0.00000000000E+00  0.94983052389E+02  0.94983052523E+02  0.50400001928E-02 0.  1.
       -1   -1    0    0    0  501  0.00000000000E+00  0.00000000000E+00 -0.65882282704E+03  0.65882282706E+03  0.50400001928E-02 0. -1.
    10030    2    1    2    0    0  0.00000000000E+00  0.00000000000E+00 -0.56383977465E+03  0.75380587958E+03  0.50030791780E+03 0.  0.
        1    1    3    3  502    0  0.24123670752E+03  0.66195151437E+02 -0.28227642422E+03  0.37716962607E+03  0.50400001928E-02 0.  1.
       -1    1    3    3    0  502 -0.24123670752E+03 -0.66195151437E+02 -0.28156335043E+03  0.37663625352E+03  0.50400001928E-02 0. -1.
</event>
<event>
 5   0  0.4534223E-02  0.4980469E+03  0.7818609E-02  0.1014290E+00
        2   -1    0    0  501    0  0.00000000000E+00  0.00000000000E+00  0.12133579304E+03  0.12133579307E+03  0.25500000920E-02 0.  1.
       -2   -1    0    0    0  501  0.00000000000E+00  0.00000000000E+00 -0.51108324138E+03  0.51108324139E+03  0.25500000920E-02 0. -1.
    10030    2    1    2    0    0  0.00000000000E+00  0.00000000000E+00 -0.38974744834E+03  0.63241903446E+03  0.49804694724E+03 0.  0.
        2    1    3    3  502    0  0.15868413957E+03 -0.36859625186E+02 -0.43403236267E+03  0.46359829591E+03  0.25500000920E-02 0. -1.
       -2    1    3    3    0  502 -0.15868413957E+03  0.36859625186E+02  0.44284914327E+02  0.16882073855E+03  0.25500000920E-02 0.  1.
</event>
<event>
 5   0  0.4519539E-02  0.4995817E+03  0.7818609E-02  0.1013888E+00
        2   -1    0    0  501    0  0.00000000000E+00  0.00000000000E+00  0.47723538568E+03  0.47723538569E+03  0.25500000920E-02 0.  1.
       -2   -1    0    0    0  501  0.00000000000E+00  0.00000000000E+00 -0.13074360822E+03  0.13074360824E+03  0.25500000920E-02 0. -1.
    10030    2    1    2    0    0  0.00000000000E+00  0.00000000000E+00  0.34649177747E+03  0.60797899393E+03  0.49958173026E+03 0.  0.
        4    1    3    3  502    0 -0.23400452832E+02 -0.23407931435E+03  0.71040499590E+02  0.24574188101E+03  0.12699999809E+01 0. -1.
       -4    1    3    3    0  502  0.23400452832E+02  0.23407931435E+03  0.27545127788E+03  0.36223711293E+03  0.12699999809E+01 0.  1.
</event>
<event>
 5   0  0.2715483E-02  0.5040651E+03  0.7818609E-02  0.1012723E+00
       -1   -1    0    0    0  501  0.00000000000E+00  0.00000000000E+00  0.13337491321E+03  0.13337491330E+03  0.50400001928E-02 0. -1.
        1   -1    0    0  501    0  0.00000000000E+00  0.00000000000E+00 -0.47625446700E+03  0.47625446703E+03  0.50400001928E-02 0.  1.
    10030    2    1    2    0    0  0.00000000000E+00  0.00000000000E+00 -0.34287955380E+03  0.60962938033E+03  0.50406506817E+03 0.  0.
        5    1    3    3  502    0  0.56754379704E+01  0.24939190261E+03 -0.21453637002E+03  0.32905391008E+03  0.46999998093E+01 0.  1.
       -5    1    3    3    0  502 -0.56754379704E+01 -0.24939190261E+03 -0.12834318378E+03  0.28057547025E+03  0.46999998093E+01 0. -1.
</event>
<event>
 5   0  0.2715483E-02  0.4997421E+03  0.7818609E-02  0.1013846E+00
       -1   -1    0    0    0  501  0.00000000000E+00  0.00000000000E+00  0.47158645321E+03  0.47158645323E+03  0.50400001928E-02 0.  1.
        1   -1    0    0  501    0  0.00000000000E+00  0.00000000000E+00 -0.13239469070E+03  0.13239469079E+03  0.50400001928E-02 0. -1.
    10030    2    1    2    0    0  0.00000000000E+00  0.00000000000E+00  0.33919176251E+03  0.60398114402E+03  0.49974210407E+03 0.  0.
        5    1    3    3  502    0 -0.44520198313E+02 -0.12966682303E+03  0.42200783196E+03  0.44374343183E+03  0.46999998093E+01 0.  1.
       -5    1    3    3    0  502  0.44520198313E+02  0.12966682303E+03 -0.82816069453E+02  0.16023771220E+03  0.46999998093E+01 0. -1.
</event>
<event>
 5   0  0.4451135E-02  0.5016591E+03  0.7818609E-02  0.1013347E+00
        2   -1    0    0  501    0  0.00000000000E+00  0.00000000000E+00  0.99857656929E+03  0.99857656930E+03  0.25500000920E-02 0.  1.
       -2   -1    0    0    0  501  0.00000000000E+00  0.00000000000E+00 -0.63005142938E+02  0.63005142990E+02  0.25500000920E-02 0. -1.
    10030    2    1    2    0    0  0.00000000000E+00  0.00000000000E+00  0.93557142636E+03  0.10615817123E+04  0.50165908548E+03 0.  0.
        1    1    3    3  502    0 -0.24202965243E+03 -0.65001390930E+02  0.49017345309E+03  0.55052116001E+03  0.50400001928E-02 0. -1.
       -1    1    3    3    0  502  0.24202965243E+03  0.65001390930E+02  0.44539797327E+03  0.51106055228E+03  0.50400001928E-02 0.  1.
</event>
<event>
 5   0  0.1805500E-02  0.5000468E+03  0.7818609E-02  0.1013767E+00
       -3   -1    0    0    0  501  0.00000000000E+00  0.00000000000E+00  0.51057357345E+02  0.51057457243E+02  0.10100000352E+00 0.  1.
        3   -1    0    0  501    0  0.00000000000E+00  0.00000000000E+00 -0.12243412816E+04  0.12243412858E+04  0.10100000352E+00 0. -1.
    10030    2    1    2    0    0  0.00000000000E+00  0.00000000000E+00 -0.11732839243E+04  0.12753987431E+04  0.50004678457E+03 0.  0.
        3    1    3    3  502    0 -0.13841864661E+03  0.16056598812E+03 -0.24855552049E+03  0.32668182569E+03  0.10100000352E+00 0.  1.
       -3    1    3    3    0  502  0.13841864661E+03 -0.16056598812E+03 -0.92472840381E+03  0.94871691736E+03  0.10100000352E+00 0. -1.
</event>
<event>
 5   0  0.2715483E-02  0.5000305E+03  0.7818609E-02  0.1013771E+00
        1   -1    0    0  501    0  0.00000000000E+00  0.00000000000E+00  0.61265570778E+02  0.61265570985E+02  0.50400001928E-02 0.  1.
       -1   -1    0    0    0  501  0.00000000000E+00  0.00000000000E+00 -0.10202733794E+04  0.10202733794E+04  0.50400001928E-02 0. -1.
    10030    2    1    2    0    0  0.00000000000E+00  0.00000000000E+00 -0.95900780863E+03  0.10815389504E+04  0.50003052330E+03 0.  0.
        5    1    3    3  502    0  0.21226616737E+03 -0.12152934208E+03 -0.36796562310E+03  0.44186773652E+03  0.46999998093E+01 0.  1.
       -5    1    3    3    0  502 -0.21226616737E+03  0.12152934208E+03 -0.59104218554E+03  0.63967121389E+03  0.46999998093E+01 0. -1.
</event>
<event>
 5   0  0.2723308E-02  0.4989941E+03  0.7818609E-02  0.1014042E+00
       -1   -1    0    0    0  501  0.00000000000E+00  0.00000000000E+00  0.10314560108E+03  0.10314560120E+03  0.50400001928E-02 0.  1.
        1   -1    0    0  501    0  0.00000000000E+00  0.00000000000E+00 -0.60350391670E+03  0.60350391672E+03  0.50400001928E-02 0. -1.
    10030    2    1    2    0    0  0.00000000000E+00  0.00000000000E+00 -0.50035831562E+03  0.70664951793E+03  0.49899408531E+03 0.  0.
        4    1    3    3  502    0 -0.14149101423E+03  0.55109197117E+01  0.40724973914E+02  0.14734386226E+03  0.12699999809E+01 0.  1.
       -4    1    3    3    0  502  0.14149101423E+03 -0.55109197117E+01 -0.54108328954E+03  0.55930565567E+03  0.12699999809E+01 0. -1.
</event>
<event>
 5   0  0.2723308E-02  0.5009164E+03  0.7818609E-02  0.1013540E+00
        1   -1    0    0  501    0  0.00000000000E+00  0.00000000000E+00  0.30453038681E+03  0.30453038686E+03  0.50400001928E-02 0.  1.
       -1   -1    0    0    0  501  0.00000000000E+00  0.00000000000E+00 -0.20598705022E+03  0.20598705028E+03  0.50400001928E-02 0. -1.
    10030    2    1    2    0    0  0.00000000000E+00  0.00000000000E+00  0.98543336592E+02  0.51051743714E+03  0.50091642460E+03 0.  0.
        4    1    3    3  502    0  0.72373799058E+02 -0.44365147100E+02  0.28941790591E+03  0.30161327926E+03  0.12699999809E+01 0.  1.
       -4    1    3    3    0  502 -0.72373799058E+02  0.44365147100E+02 -0.19087456932E+03  0.20890415788E+03  0.12699999809E+01 0. -1.
</event>
<event>
 5   0  0.2643185E-02  0.4981879E+03  0.7818609E-02  0.1014253E+00
        1   -1    0    0  501    0  0.00000000000E+00  0.00000000000E+00  0.15533178781E+03  0.15533178789E+03  0.50400001928E-02 0. -1.
       -1   -1    0    0    0  501  0.00000000000E+00  0.00000000000E+00 -0.39945330162E+03  0.39945330166E+03  0.50400001928E-02 0.  1.
    10030    2    1    2    0    0  0.00000000000E+00  0.00000000000E+00 -0.24412151382E+03  0.55478508954E+03  0.49818789836E+03 0.  0.
        1    1    3    3  502    0 -0.90167457871E+02 -0.18620683172E+03 -0.27654582620E+03  0.34537045133E+03  0.50400001928E-02 0.  1.
       -1    1    3    3    0  502  0.90167457871E+02  0.18620683172E+03  0.32424312378E+02  0.20941463821E+03  0.50400001928E-02 0. -1.
</event>
<event>
 5   0  0.2643185E-02  0.4993088E+03  0.7818609E-02  0.1013959E+00
       -1   -1    0    0    0  501  0.00000000000E+00  0.00000000000E+00  0.20917215900E+03  0.20917215906E+03  0.50400001928E-02 0. -1.
        1   -1    0    0  501    0  0.00000000000E+00  0.00000000000E+00 -0.29797144862E+03  0.29797144866E+03  0.50400001928E-02 0.  1.
    10030    2    1    2    0    0  0.00000000000E+00  0.00000000000E+00 -0.88799289617E+02  0.50714360773E+03  0.49930884733E+03 0.  0.
        1    1    3    3  502    0  0.81962457447E+01 -0.71231810564E+02 -0.28728830834E+03  0.29610086358E+03  0.50400001928E-02 0.  1.
       -1    1    3    3    0  502 -0.81962457447E+01  0.71231810564E+02  0.19848901872E+03  0.21104274415E+03  0.50400001928E-02 0. -1.
</event>
<event>
 5   0  0.1805500E-02  0.5014320E+03  0.7818609E-02  0.1013406E+00
       -4   -1    0    0    0  501  0.00000000000E+00  0.00000000000E+00  0.17908083553E+03  0.17908533874E+03  0.12699999809E+01 0.  1.
        4   -1    0    0  501    0  0.00000000000E+00  0.00000000000E+00 -0.35099634321E+03  0.35099864080E+03  0.12699999809E+01 0. -1.
    10030    2    1    2    0    0  0.00000000000E+00  0.00000000000E+00 -0.17191550768E+03  0.53008397955E+03  0.50143203287E+03 0.  0.
        1    1    3    3  502    0  0.60741668358E+02 -0.22444094371E+02 -0.34200670742E+03  0.34808314466E+03  0.50400001928E-02 0. -1.
       -1    1    3    3    0  502 -0.60741668358E+02  0.22444094371E+02  0.17009119974E+03  0.18200083489E+03  0.50400001928E-02 0.  1.
</event>
<event>
 5   0  0.2715483E-02  0.4956777E+03  0.7818609E-02  0.1014913E+00
       -1   -1    0    0    0  501  0.00000000000E+00  0.00000000000E+00  0.18826031060E+03  0.18826031067E+03  0.50400001928E-02 0.  1.
        1   -1    0    0  501    0  0.00000000000E+00  0.00000000000E+00 -0.32627219955E+03  0.32627219959E+03  0.50400001928E-02 0. -1.
    10030    2    1    2    0    0  0.00000000000E+00  0.00000000000E+00 -0.13801188895E+03  0.51453251026E+03  0.49567774070E+03 0.  0.
        5    1    3    3  502    0  0.10532157660E+03  0.12523899456E+03 -0.26216080097E+03  0.30907574447E+03  0.46999998093E+01 0. -1.
       -5    1    3    3    0  502 -0.10532157660E+03 -0.12523899456E+03  0.12414891202E+03  0.20545676579E+03  0.46999998093E+01 0.  1.
</event>
<event>
 5   0  0.4409622E-02  0.4819163E+03  0.7818609E-02  0.1018610E+00
        2   -1    0    0  501    0  0.00000000000E+00  0.00000000000E+00  0.95565957494E+02  0.95565957528E+02  0.25500000920E-02 0. -1.
       -2   -1    0    0    0  501  0.00000000000E+00  0.00000000000E+00 -0.60754712526E+03  0.60754712527E+03  0.25500000920E-02 0.  1.
    10030    2    1    2    0    0  0.00000000000E+00  0.00000000000E+00 -0.51198116777E+03  0.70311308280E+03  0.48191626975E+03 0.  0.
        3    1    3    3  502    0  0.16636280144E+03  0.15413336414E+03 -0.37476326551E+03  0.43804245344E+03  0.10100000352E+00 0. -1.
       -3    1    3    3    0  502 -0.16636280144E+03 -0.15413336414E+03 -0.13721790226E+03  0.26507062935E+03  0.10100000352E+00 0.  1.
</event>
<event>
 5   0  0.2779445E-02  0.4998231E+03  0.7818609E-02  0.1013825E+00
       -1   -1    0    0    0  501  0.00000000000E+00  0.00000000000E+00  0.64579422341E+02  0.64579422538E+02  0.50400001928E-02 0.  1.
        1   -1    0    0  501    0  0.00000000000E+00  0.00000000000E+00 -0.96711577664E+03  0.96711577666E+03  0.50400001928E-02 0. -1.
    10030    2    1    2    0    0  0.00000000000E+00  0.00000000000E+00 -0.90253635430E+03  0.10316951992E+04  0.49982308190E+03 0.  0.
        3    1    3    3  502    0  0.14831274776E+03  0.81128331330E+02 -0.71350555614E+02  0.18349220496E+03  0.10100000352E+00 0.  1.
       -3    1    3    3    0  502 -0.14831274776E+03 -0.81128331330E+02 -0.83118579869E+03  0.84820299424E+03  0.10100000352E+00 0. -1.
</event>
<event>
 5   0  0.1805500E-02  0.4715035E+03  0.7818609E-02  0.1021497E+00
       -3   -1    0    0    0  501  0.00000000000E+00  0.00000000000E+00  0.54199951088E+03  0.54199952029E+03  0.10100000352E+00 0. -1.
        3   -1    0    0  501    0  0.00000000000E+00  0.00000000000E+00 -0.10254412548E+03  0.10254417522E+03  0.10100000352E+00 0.  1.
    10030    2    1    2    0    0  0.00000000000E+00  0.00000000000E+00  0.43945538540E+03  0.64454369552E+03  0.47150348850E+03 0.  0.
        1    1    3    3  502    0  0.10347853193E+03  0.95629100014E+02 -0.38653313264E+02  0.14610547557E+03  0.50400001928E-02 0.  1.
       -1    1    3    3    0  502 -0.10347853193E+03 -0.95629100014E+02  0.47810869866E+03  0.49843821995E+03  0.50400001928E-02 0. -1.
</event>
<event>
 5   0  0.1805500E-02  0.5017728E+03  0.7818609E-02  0.1013317E+00
       -4   -1    0    0    0  501  0.00000000000E+00  0.00000000000E+00  0.34666133941E+02  0.34689389479E+02  0.12699999809E+01 0. -1.
        4   -1    0    0  501    0  0.00000000000E+00  0.00000000000E+00 -0.18150873607E+04  0.18150878050E+04  0.12699999809E+01 0.  1.
    10030    2    1    2    0    0  0.00000000000E+00  0.00000000000E+00 -0.17804212267E+04  0.18497771944E+04  0.50177278177E+03 0.  0.
        5    1    3    3  502    0  0.92470867583E+02  0.15171937180E+03 -0.23746079297E+03  0.29661312737E+03  0.46999998093E+01 0. -1.
       -5    1    3    3    0  502 -0.92470867583E+02 -0.15171937180E+03 -0.15429604337E+04  0.15531640671E+04  0.46999998093E+01 0.  1.
</event>
<event>
 5   0  0.4631619E-02  0.5008247E+03  0.7818609E-02  0.1013564E+00
        2   -1    0    0  501    0  0.00000000000E+00  0.00000000000E+00  0.10369850850E+04  0.10369850850E+04  0.25500000920E-02 0.  1.
       -2   -1    0    0    0  501  0.00000000000E+00  0.00000000000E+00 -0.60469859081E+02  0.60469859134E+02  0.25500000920E-02 0. -1.
    10030    2    1    2    0    0  0.00000000000E+00  0.00000000000E+00  0.97651522592E+03  0.10974549441E+04  0.50082468785E+03 0.  0.
        5    1    3    3  502    0 -0.15031729598E+03 -0.17485955035E+03  0.27452932579E+03  0.35855207786E+03  0.46999998093E+01 0. -1.
       -5    1    3    3    0  502  0.15031729598E+03  0.17485955035E+03  0.70198590013E+03  0.73890286628E+03  0.46999998093E+01 0.  1.
</event>
<event>
 5   0  0.4409622E-02  0.5003553E+03  0.7818609E-02  0.1013686E+00
        2   -1    0    0  501    0  0.00000000000E+00  0.00000000000E+00  0.12703890016E+04  0.12703890016E+04  0.25500000920E-02 0.  1.
       -2   -1    0    0    0  501  0.00000000000E+00  0.00000000000E+00 -0.49267477146E+02  0.49267477212E+02  0.25500000920E-02 0. -1.
    10030    2    1    2    0    0  0.00000000000E+00  0.00000000000E+00  0.12211215245E+04  0.13196564788E+04  0.50035531835E+03 0.  0.
        3    1    3    3  502    0 -0.17415291979E+03 -0.14958029681E+03  0.34833321212E+03  0.41718046638E+03  0.10100000352E+00 0. -1.
       -3    1    3    3    0  502  0.17415291979E+03  0.14958029681E+03  0.87278831236E+03  0.90247601246E+03  0.10100000352E+00 0.  1.
</event>
<event>
 5   0  0.2643185E-02  0.4989207E+03  0.7818609E-02  0.1014061E+00
       -1   -1    0    0    0  501  0.00000000000E+00  0.00000000000E+00  0.27987655367E+03  0.27987655371E+03  0.50400001928E-02 0.  1.
        1   -1    0    0  501    0  0.00000000000E+00  0.00000000000E+00 -0.22234972126E+03  0.22234972132E+03  0.50400001928E-02 0. -1.
    10030    2    1    2    0    0  0.00000000000E+00  0.00000000000E+00  0.57526832407E+02  0.50222627503E+03  0.49892073006E+03 0.  0.
        1    1    3    3  502    0  0.13179009059E+03 -0.15019326351E+03 -0.12157071680E+03  0.23389331668E+03  0.50400001928E-02 0. -1.
       -1    1    3    3    0  502 -0.13179009059E+03  0.15019326351E+03  0.17909754920E+03  0.26833295835E+03  0.50400001928E-02 0.  1.
</event>
<event>
 5   0  0.4519539E-02  0.5001308E+03  0.7818609E-02  0.1013745E+00
        2   -1    0    0  501    0  0.00000000000E+00  0.00000000000E+00  0.16703442936E+03  0.16703442938E+03  0.25500000920E-02 0. -1.
       -2   -1    0    0    0  501  0.00000000000E+00  0.00000000000E+00 -0.37437013618E+03  0.37437013619E+03  0.25500000920E-02 0.  1.
    10030    2    1    2    0    0  0.00000000000E+00  0.00000000000E+00 -0.20733570682E+03  0.54140456557E+03  0.50013079119E+03 0.  0.
        4    1    3    3  502    0 -0.43213976624E+02  0.13982117992E+03  0.11583061343E+03  0.18664338734E+03  0.12699999809E+01 0. -1.
       -4    1    3    3    0  502  0.43213976624E+02 -0.13982117992E+03 -0.32316632025E+03  0.35476117823E+03  0.12699999809E+01 0.  1.
</event>
<event>
 5   0  0.4451135E-02  0.4986284E+03  0.7818609E-02  0.1014138E+00
       -2   -1    0    0    0  501  0.00000000000E+00  0.00000000000E+00  0.38264103132E+02  0.38264103217E+02  0.25500000920E-02 0. -1.
        2   -1    0    0  501    0  0.00000000000E+00  0.00000000000E+00 -0.16244358477E+04  0.16244358477E+04  0.25500000920E-02 0.  1.
    10030    2    1    2    0    0  0.00000000000E+00  0.00000000000E+00 -0.15861717446E+04  0.16626999509E+04  0.49862844235E+03 0.  0.
        1    1    3    3  502    0  0.59333638061E+02  0.36726502860E+02  0.50368374251E+01  0.69962035238E+02  0.50400001928E-02 0. -1.
       -1    1    3    3    0  502 -0.59333638061E+02 -0.36726502860E+02 -0.15912085820E+04  0.15927379157E+04  0.50400001928E-02 0.  1.
</event>
<event>
 5   0  0.4409622E-02  0.4996298E+03  0.7818609E-02  0.1013876E+00
       -2   -1    0    0    0  501  0.00000000000E+00  0.00000000000E+00  0.33891041852E+02  0.33891041948E+02  0.25500000920E-02 0.  1.
        2   -1    0    0  501    0  0.00000000000E+00  0.00000000000E+00 -0.18414150187E+04  0.18414150187E+04  0.25500000920E-02 0. -1.
    10030    2    1    2    0    0  0.00000000000E+00  0.00000000000E+00 -0.18075239769E+04  0.18753060607E+04  0.49962975715E+03 0.  0.
        3    1    3    3  502    0  0.63297762155E+02  0.17227214292E+03 -0.26764058174E+03  0.32452394229E+03  0.10100000352E+00 0.  1.
       -3    1    3    3    0  502 -0.63297762155E+02 -0.17227214292E+03 -0.15398833951E+04  0.15507821184E+04  0.10100000352E+00 0. -1.
</event>
<event>
 5   0  0.2715483E-02  0.4993330E+03  0.7818609E-02  0.1013953E+00
        1   -1    0    0  501    0  0.00000000000E+00  0.00000000000E+00  0.12469384682E+04  0.12469384682E+04  0.50400001928E-02 0. -1.
       -1   -1    0    0    0  501  0.00000000000E+00  0.00000000000E+00 -0.49989128930E+02  0.49989129184E+02  0.50400001928E-02 0.  1.
    10030    2    1    2    0    0  0.00000000000E+00  0.00000000000E+00  0.11969493392E+04  0.12969275974E+04  0.49933302725E+03 0.  0.
        5    1    3    3  502    0 -0.56001915311E+02  0.18604539894E+03  0.19141429060E+03  0.27278311097E+03  0.46999998093E+01 0.  1.
       -5    1    3    3    0  502  0.56001915311E+02 -0.18604539894E+03  0.10055350486E+04  0.10241444864E+04  0.46999998093E+01 0. -1.
</event>
<event>
 5   0  0.2719671E-02  0.4966021E+03  0.7818609E-02  0.1014670E+00
       -1   -1    0    0    0  501  0.00000000000E+00  0.00000000000E+00  0.18837936856E+03  0.18837936863E+03  0.50400001928E-02 0. -1.
        1   -1    0    0  501    0  0.00000000000E+00  0.00000000000E+00 -0.32728322157E+03  0.32728322161E+03  0.50400001928E-02 0.  1.
    10030    2    1    2    0    0  0.00000000000E+00  0.00000000000E+00 -0.13890385300E+03  0.51566259023E+03  0.49660208073E+03 0.  0.
        2    1    3    3  502    0 -0.13190566100E+03  0.18660774479E+03 -0.17029721170E+03  0.28499595460E+03  0.25500000920E-02 0. -1.
       -2    1    3    3    0  502  0.13190566100E+03 -0.18660774479E+03  0.31393358695E+02  0.23066663564E+03  0.25500000920E-02 0.  1.
</event>
<event>
 5   0  0.2643185E-02  0.4991094E+03  0.7818609E-02  0.1014012E+00
       -1   -1    0    0    0  501  0.00000000000E+00  0.00000000000E+00  0.59994924497E+02  0.59994924708E+02  0.50400001928E-02 0.  1.
        1   -1    0    0  501    0  0.00000000000E+00  0.00000000000E+00 -0.10380468169E+04  0.10380468169E+04  0.50400001928E-02 0. -1.
    10030    2    1    2    0    0  0.00000000000E+00  0.00000000000E+00 -0.97805189237E+03  0.10980417416E+04  0.49910936888E+03 0.  0.
        1    1    3    3  502    0 -0.12794935898E+03 -0.55053741547E+02 -0.94456767975E+03  0.95478272637E+03  0.50400001928E-02 0. -1.
       -1    1    3    3    0  502  0.12794935898E+03  0.55053741547E+02 -0.33484212628E+02  0.14325901522E+03  0.50400001928E-02 0.  1.
</event>
<event>
 5   0  0.4534223E-02  0.5260044E+03  0.7818609E-02  0.1007206E+00
       -2   -1    0    0    0  501  0.00000000000E+00  0.00000000000E+00  0.12863706765E+03  0.12863706768E+03  0.25500000920E-02 0. -1.
        2   -1    0    0  501    0  0.00000000000E+00  0.00000000000E+00 -0.53771551708E+03  0.53771551708E+03  0.25500000920E-02 0.  1.
    10030    2    1    2    0    0  0.00000000000E+00  0.00000000000E+00 -0.40907844942E+03  0.66635258476E+03  0.52600436256E+03 0.  0.
        2    1    3    3  502    0  0.34409054452E+02 -0.19549371127E+03 -0.42311009990E+03  0.46735846073E+03  0.25500000920E-02 0.  1.
       -2    1    3    3    0  502 -0.34409054452E+02  0.19549371127E+03  0.14031650473E+02  0.19899412403E+03  0.25500000920E-02 0. -1.
</event>
<event>
 5   0  0.4519539E-02  0.4995248E+03  0.7818609E-02  0.1013903E+00
       -2   -1    0    0    0  501  0.00000000000E+00  0.00000000000E+00  0.86922276824E+02  0.86922276861E+02  0.25500000920E-02 0.  1.
        2   -1    0    0  501    0  0.00000000000E+00  0.00000000000E+00 -0.71766705297E+03  0.71766705298E+03  0.25500000920E-02 0. -1.
    10030    2    1    2    0    0  0.00000000000E+00  0.00000000000E+00 -0.63074477615E+03  0.80458932984E+03  0.49952479123E+03 0.  0.
        4    1    3    3  502    0  0.16863457062E+03  0.42221098760E+02 -0.26523165782E+02  0.17585599453E+03  0.12699999809E+01 0.  1.
       -4    1    3    3    0  502 -0.16863457062E+03 -0.42221098760E+02 -0.60422161037E+03  0.62873333531E+03  0.12699999809E+01 0. -1.
</event>
<event>
 5   0  0.2719671E-02  0.4991891E+03  0.7818609E-02  0.1013991E+00
        1   -1    0    0  501    0  0.00000000000E+00  0.00000000000E+00  0.84832864338E+03  0.84832864339E+03  0.50400001928E-02 0.  1.
       -1   -1    0    0    0  501  0.00000000000E+00  0.00000000000E+00 -0.73435487834E+02  0.73435488007E+02  0.50400001928E-02 0. -1.
    10030    2    1    2    0    0  0.00000000000E+00  0.00000000000E+00  0.77489315555E+03  0.92176413140E+03  0.49918905379E+03 0.  0.
        2    1    3    3  502    0 -0.13334652146E+02 -0.87245938747E+02  0.81855243420E+03  0.82329688103E+03  0.25500000920E-02 0.  1.
       -2    1    3    3    0  502  0.13334652146E+02  0.87245938747E+02 -0.43659278656E+02  0.98467250367E+02  0.25500000920E-02 0. -1.
</event>
<event>
 5   0  0.1805500E-02  0.5011135E+03  0.7818609E-02  0.1013489E+00
       -3   -1    0    0    0  501  0.00000000000E+00  0.00000000000E+00  0.12595341765E+03  0.12595345814E+03  0.10100000352E+00 0. -1.
        3   -1    0    0  501    0  0.00000000000E+00  0.00000000000E+00 -0.49842759379E+03  0.49842760402E+03  0.10100000352E+00 0.  1.
    10030    2    1    2    0    0  0.00000000000E+00  0.00000000000E+00 -0.37247417614E+03  0.62438106216E+03  0.50111345911E+03 0.  0.
        4    1    3    3  502    0  0.43681406252E+02  0.13882517222E+03 -0.44035917044E+03  0.46378691830E+03  0.12699999809E+01 0.  1.
       -4    1    3    3    0  502 -0.43681406252E+02 -0.13882517222E+03  0.67884994301E+02  0.16059414387E+03  0.12699999809E+01 0. -1.
</event>
<event>
 5   0  0.2779445E-02  0.4998579E+03  0.7818609E-02  0.1013816E+00
       -1   -1    0    0    0  501  0.00000000000E+00  0.00000000000E+00  0.73117770937E+03  0.73117770939E+03  0.50400001928E-02 0. -1.
        1   -1    0    0  501    0  0.00000000000E+00  0.00000000000E+00 -0.85429951955E+02  0.85429952103E+02  0.50400001928E-02 0.  1.
    10030    2    1    2    0    0  0.00000000000E+00  0.00000000000E+00  0.64574775742E+03  0.81660766149E+03  0.49985788640E+03 0.  0.
        3    1    3    3  502    0 -0.12505248342E+03  0.12372739237E+03  0.61290551153E+03  0.63765176036E+03  0.10100000352E+00 0. -1.
       -3    1    3    3    0  502  0.12505248342E+03 -0.12372739237E+03  0.32842245890E+02  0.17895590113E+03  0.10100000352E+00 0.  1.
</event>
<event>
 5   0  0.2719671E-02  0.5003664E+03  0.7818609E-02  0.1013683E+00
       -1   -1    0    0    0  501  0.00000000000E+00  0.00000000000E+00  0.12981045052E+03  0.12981045061E+03  0.50400001928E-02 0.  1.
        1   -1    0    0  501    0  0.00000000000E+00  0.00000000000E+00 -0.48217707075E+03  0.48217707077E+03  0.50400001928E-02 0. -1.
    10030    2    1    2    0    0  0.00000000000E+00  0.00000000000E+00 -0.35236662023E+03  0.61198752139E+03  0.50036635707E+03 0.  0.
        2    1    3    3  502    0 -0.17887949465E+03 -0.15679657918E+03 -0.81376297905E+02  0.25140632991E+03  0.25500000920E-02 0.  1.
       -2    1    3    3    0  502  0.17887949465E+03  0.15679657918E+03 -0.27099032232E+03  0.36058119148E+03  0.25500000920E-02 0. -1.
</event>
<event>
 5   0  0.2715483E-02  0.4991195E+03  0.7818609E-02  0.1014009E+00
       -1   -1    0    0    0  501  0.00000000000E+00  0.00000000000E+00  0.13477617827E+03  0.13477617837E+03  0.50400001928E-02 0.  1.
        1   -1    0    0  501    0  0.00000000000E+00  0.00000000000E+00 -0.46210004238E+03  0.46210004241E+03  0.50400001928E-02 0. -1.
    10030    2    1    2    0    0  0.00000000000E+00  0.00000000000E+00 -0.32732386411E+03  0.59687622077E+03  0.49911953569E+03 0.  0.
        5    1    3    3  502    0  0.10734876143E+03 -0.14450316029E+03  0.42958941020E+02  0.18512828127E+03  0.46999998093E+01 0.  1.
       -5    1    3    3    0  502 -0.10734876143E+03  0.14450316029E+03 -0.37028280513E+03  0.41174793950E+03  0.46999998093E+01 0. -1.
</event>
<event>
 5   0  0.4534223E-02  0.4993773E+03  0.7818609E-02  0.1013942E+00
        2   -1    0    0  501    0  0.00000000000E+00  0.00000000000E+00  0.82600999113E+03  0.82600999113E+03  0.25500000920E-02 0. -1.
       -2   -1    0    0    0  501  0.00000000000E+00  0.00000000000E+00 -0.75476584884E+02  0.75476584927E+02  0.25500000920E-02 0.  1.
    10030    2    1    2    0    0  0.00000000000E+00  0.00000000000E+00  0.75053340625E+03  0.90148657606E+03  0.49937726513E+03 0.  0.
        2    1    3    3  502    0 -0.64675592461E+02 -0.27267726269E+02 -0.57301255174E+02  0.90608470946E+02  0.25500000920E-02 0.  1.
       -2    1    3    3    0  502  0.64675592461E+02  0.27267726269E+02  0.80783466142E+03  0.81087810511E+03  0.25500000920E-02 0. -1.
</event>
<event>
 5   0  0.4409622E-02  0.4998329E+03  0.7818609E-02  0.1013823E+00
       -2   -1    0    0    0  501  0.00000000000E+00  0.00000000000E+00  0.47500895596E+02  0.47500895664E+02  0.25500000920E-02 0.  1.
        2   -1    0    0  501    0  0.00000000000E+00  0.00000000000E+00 -0.13148851405E+04  0.13148851405E+04  0.25500000920E-02 0. -1.
    10030    2    1    2    0    0  0.00000000000E+00  0.00000000000E+00 -0.12673842449E+04  0.13623860361E+04  0.49983285937E+03 0.  0.
        3    1    3    3  502    0 -0.67546577138E+02  0.17427715779E+03 -0.18149853449E+03  0.26053175629E+03  0.10100000352E+00 0. -1.
       -3    1    3    3    0  502  0.67546577138E+02 -0.17427715779E+03 -0.10858857104E+04  0.11018542798E+04  0.10100000352E+00 0.  1.
</event>
<event>
 5   0  0.4534223E-02  0.5009490E+03  0.7818609E-02  0.1013532E+00
       -2   -1    0    0    0  501  0.00000000000E+00  0.00000000000E+00  0.66725728577E+03  0.66725728577E+03  0.25500000920E-02 0. -1.
        2   -1    0    0  501    0  0.00000000000E+00  0.00000000000E+00 -0.94022903166E+02  0.94022903200E+02  0.25500000920E-02 0.  1.
    10030    2    1    2    0    0  0.00000000000E+00  0.00000000000E+00  0.57323438260E+03  0.76128018897E+03  0.50094896818E+03 0.  0.
        2    1    3    3  502    0  0.11416290940E+03 -0.75939849546E+02  0.60516043586E+03  0.62049914083E+03  0.25500000920E-02 0. -1.
       -2    1    3    3    0  502 -0.11416290940E+03  0.75939849546E+02 -0.31926053263E+02  0.14078104814E+03  0.25500000920E-02 0.  1.
</event>
<event>
 5   0  0.2779445E-02  0.4980705E+03  0.7818609E-02  0.1014284E+00
       -1   -1    0    0    0  501  0.00000000000E+00  0.00000000000E+00  0.14714573961E+03  0.14714573970E+03  0.50400001928E-02 0.  1.
        1   -1    0    0  501    0  0.00000000000E+00  0.00000000000E+00 -0.42147707513E+03  0.42147707516E+03  0.50400001928E-02 0. -1.
    10030    2    1    2    0    0  0.00000000000E+00  0.00000000000E+00 -0.27433133552E+03  0.56862281486E+03  0.49807050097E+03 0.  0.
        3    1    3    3  502    0 -0.20848117664E+03 -0.11384988692E+03 -0.22254063603E+03  0.32550044954E+03  0.10100000352E+00 0.  1.
       -3    1    3    3    0  502  0.20848117664E+03  0.11384988692E+03 -0.51790699487E+02  0.24312236532E+03  0.10100000352E+00 0. -1.
</event>
<event>
 5   0  0.2779445E-02  0.4984277E+03  0.7818609E-02  0.1014190E+00
       -1   -1    0    0    0  501  0.00000000000E+00  0.00000000000E+00  0.59714969653E+02  0.59714969866E+02  0.50400001928E-02 0. -1.
        1   -1    0    0  501    0  0.00000000000E+00  0.00000000000E+00 -0.10400667514E+04  0.10400667514E+04  0.50400001928E-02 0.  1.
    10030    2    1    2    0    0  0.00000000000E+00  0.00000000000E+00 -0.98035178170E+03  0.10997817212E+04  0.49842774649E+03 0.  0.
        3    1    3    3  502    0  0.61175525620E+02 -0.61902143658E+02  0.25094128378E+02  0.90576187844E+02  0.10100000352E+00 0. -1.
       -3    1    3    3    0  502 -0.61175525620E+02  0.61902143658E+02 -0.10054459101E+04  0.10092055334E+04  0.10100000352E+00 0.  1.
</event>
<event>
 5   0  0.4631619E-02  0.4989859E+03  0.7818609E-02  0.1014044E+00
        2   -1    0    0  501    0  0.00000000000E+00  0.00000000000E+00  0.41860458276E+03  0.41860458277E+03  0.25500000920E-02 0.  1.
       -2   -1    0    0    0  501  0.00000000000E+00  0.00000000000E+00 -0.14870055951E+03  0.14870055953E+03  0.25500000920E-02 0. -1.
    10030    2    1    2    0    0  0.00000000000E+00  0.00000000000E+00  0.26990402325E+03  0.56730514230E+03  0.49898591434E+03 0.  0.
        5    1    3    3  502    0 -0.19692969221E+03 -0.12047440940E+03  0.24238462401E+03  0.33476526544E+03  0.46999998093E+01 0. -1.
       -5    1    3    3    0  502  0.19692969221E+03  0.12047440940E+03  0.27519399247E+02  0.23253987686E+03  0.46999998093E+01 0.  1.
</event>
<event>
 5   0  0.2779445E-02  0.4986106E+03  0.7818609E-02  0.1014142E+00
        1   -1    0    0  501    0  0.00000000000E+00  0.00000000000E+00  0.27979728367E+03  0.27979728372E+03  0.50400001928E-02 0. -1.
       -1   -1    0    0    0  501  0.00000000000E+00  0.00000000000E+00 -0.22213628447E+03  0.22213628452E+03  0.50400001928E-02 0.  1.
    10030    2    1    2    0    0  0.00000000000E+00  0.00000000000E+00  0.57660999206E+02  0.50193356824E+03  0.49861058563E+03 0.  0.
        3    1    3    3  502    0  0.74251829758E+02  0.21245445725E+02 -0.20979021395E+03  0.22355457333E+03  0.10100000352E+00 0.  1.
       -3    1    3    3    0  502 -0.74251829758E+02 -0.21245445725E+02  0.26745121316E+03  0.27837899491E+03  0.10100000352E+00 0. -1.
</event>
<event>
 5   0  0.2719671E-02  0.4929957E+03  0.7818609E-02  0.1015623E+00
        1   -1    0    0  501    0  0.00000000000E+00  0.00000000000E+00  0.40730218415E+03  0.40730218419E+03  0.50400001928E-02 0.  1.
       -1   -1    0    0    0  501  0.00000000000E+00  0.00000000000E+00 -0.14917963707E+03  0.14917963715E+03  0.50400001928E-02 0. -1.
    10030    2    1    2    0    0  0.00000000000E+00  0.00000000000E+00  0.25812254709E+03  0.55648182134E+03  0.49299570806E+03 0.  0.
        2    1    3    3  502    0 -0.59168560189E+02 -0.19671614278E+03 -0.24730217702E+02  0.20690515464E+03  0.25500000920E-02 0. -1.
       -2    1    3    3    0  502  0.59168560189E+02  0.19671614278E+03  0.28285276479E+03  0.34957666670E+03  0.25500000920E-02 0.  1.
</event>
<event>
 5   0  0.4631619E-02  0.5012530E+03  0.7818609E-02  0.1013452E+00
        2   -1    0    0  501    0  0.00000000000E+00  0.00000000000E+00  0.41392030622E+03  0.41392030623E+03  0.25500000920E-02 0. -1.
       -2   -1    0    0    0  501  0.00000000000E+00  0.00000000000E+00 -0.15175297946E+03  0.15175297948E+03  0.25500000920E-02 0.  1.
    10030    2    1    2    0    0  0.00000000000E+00  0.00000000000E+00  0.26216732676E+03  0.56567328571E+03  0.50125298897E+03 0.  0.
        5    1    3    3  502    0  0.11320437399E+02 -0.11580159373E+02  0.41327941305E+03  0.41362327744E+03  0.46999998093E+01 0. -1.
       -5    1    3    3    0  502 -0.11320437399E+02  0.11580159373E+02 -0.15111208629E+03  0.15205000827E+03  0.46999998093E+01 0.  1.
</event>
<event>
 5   0  0.2643185E-02  0.4973596E+03  0.7818609E-02  0.1014470E+00
        1   -1    0    0  501    0  0.00000000000E+00  0.00000000000E+00  0.24362316532E+03  0.24362316537E+03  0.50400001928E-02 0. -1.
       -1   -1    0    0    0  501  0.00000000000E+00  0.00000000000E+00 -0.25384139553E+03  0.25384139558E+03  0.50400001928E-02 0.  1.
    10030    2    1    2    0    0  0.00000000000E+00  0.00000000000E+00 -0.10218230207E+02  0.49746456095E+03  0.49735960549E+03 0.  0.
        1    1    3    3  502    0  0.48415962921E+02 -0.32721882523E+02  0.23665829147E+03  0.24376622819E+03  0.50400001928E-02 0. -1.
       -1    1    3    3    0  502 -0.48415962921E+02  0.32721882523E+02 -0.24687652168E+03  0.25369833275E+03  0.50400001928E-02 0.  1.
</event>
<event>
 5   0  0.4409622E-02  0.4970348E+03  0.7818609E-02  0.1014556E+00
       -2   -1    0    0    0  501  0.00000000000E+00  0.00000000000E+00  0.13909830251E+03  0.13909830253E+03  0.25500000920E-02 0.  1.
        2   -1    0    0  501    0  0.00000000000E+00  0.00000000000E+00 -0.44400893609E+03  0.44400893610E+03  0.25500000920E-02 0. -1.
    10030    2    1    2    0    0  0.00000000000E+00  0.00000000000E+00 -0.30491063358E+03  0.58310723863E+03  0.49703476465E+03 0.  0.
        3    1    3    3  502    0 -0.16911184966E+03  0.68769454950E+02 -0.35027598343E+03  0.39499535491E+03  0.10100000352E+00 0. -1.
       -3    1    3    3    0  502  0.16911184966E+03 -0.68769454950E+02  0.45365349848E+02  0.18811188372E+03  0.10100000352E+00 0.  1.
</event>
<event>
 5   0  0.4451135E-02  0.5001246E+03  0.7818609E-02  0.1013746E+00
        2   -1    0    0  501    0  0.00000000000E+00  0.00000000000E+00  0.39936647596E+03  0.39936647597E+03  0.25500000920E-02 0.  1.
       -2   -1    0    0    0  501  0.00000000000E+00  0.00000000000E+00 -0.15657589177E+03  0.15657589179E+03  0.25500000920E-02 0. -1.
    10030    2    1    2    0    0  0.00000000000E+00  0.00000000000E+00  0.24279058420E+03  0.55594236776E+03  0.50012463296E+03 0.  0.
        1    1    3    3  502    0  0.24093001030E+03  0.15947406808E+02  0.19368887701E+03  0.30954316460E+03  0.50400001928E-02 0.  1.
       -1    1    3    3    0  502 -0.24093001030E+03 -0.15947406808E+02  0.49101707185E+02  0.24639920316E+03  0.50400001928E-02 0. -1.
</event>
<event>
 5   0  0.4409622E-02  0.4997144E+03  0.7818609E-02  0.1013853E+00
        2   -1    0    0  501    0  0.00000000000E+00  0.00000000000E+00  0.12200805245E+04  0.12200805245E+04  0.25500000920E-02 0. -1.
       -2   -1    0    0    0  501  0.00000000000E+00  0.00000000000E+00 -0.51167616810E+02  0.51167616874E+02  0.25500000920E-02 0.  1.
    10030    2    1    2    0    0  0.00000000000E+00  0.00000000000E+00  0.11689129077E+04  0.12712481414E+04  0.49971436960E+03 0.  0.
        3    1    3    3  502    0  0.17240372883E+02 -0.20441718401E+03  0.22159803693E+03  0.30197568735E+03  0.10100000352E+00 0.  1.
       -3    1    3    3    0  502 -0.17240372883E+02  0.20441718401E+03  0.94731487074E+03  0.96927245401E+03  0.10100000352E+00 0. -1.
</event>
<event>
 5   0  0.1805500E-02  0.4786384E+03  0.7818609E-02  0.1019510E+00
        4   -1    0    0  501    0  0.00000000000E+00  0.00000000000E+00  0.16744423753E+03  0.16744905369E+03  0.12699999809E+01 0.  1.
       -4   -1    0    0    0  501  0.00000000000E+00  0.00000000000E+00 -0.34203541778E+03  0.34203777557E+03  0.12699999809E+01 0. -1.
    10030    2    1    2    0    0  0.00000000000E+00  0.00000000000E+00 -0.17459118025E+03  0.50948682926E+03  0.47863843240E+03 0.  0.
        1    1    3    3  502    0  0.15984346109E+03  0.79859106505E+02  0.82170376586E+02  0.19667073946E+03  0.50400001928E-02 0.  1.
       -1    1    3    3    0  502 -0.15984346109E+03 -0.79859106505E+02 -0.25676155684E+03  0.31281608980E+03  0.50400001928E-02 0. -1.
</event>
<event>
 5   0  0.4519539E-02  0.5014951E+03  0.7818609E-02  0.1013389E+00
        2   -1    0    0  501    0  0.00000000000E+00  0.00000000000E+00  0.11160088826E+04  0.11160088826E+04  0.25500000920E-02 0.  1.
       -2   -1    0    0    0  501  0.00000000000E+00  0.00000000000E+00 -0.56338566055E+02  0.56338566112E+02  0.25500000920E-02 0. -1.
    10030    2    1    2    0    0  0.00000000000E+00  0.00000000000E+00  0.10596703165E+04  0.11723474487E+04  0.50149512534E+03 0.  0.
        4    1    3    3  502    0  0.45990451912E+01  0.18417901258E+03  0.13222145172E+03  0.22677562719E+03  0.12699999809E+01 0. -1.
       -4    1    3    3    0  502 -0.45990451912E+01 -0.18417901258E+03  0.92744886481E+03  0.94557182151E+03  0.12699999809E+01 0.  1.
</event>
<event>
 5   0  0.2779445E-02  0.5033896E+03  0.7818609E-02  0.1012898E+00
       -1   -1    0    0    0  501  0.00000000000E+00  0.00000000000E+00  0.82635759053E+02  0.82635759207E+02  0.50400001928E-02 0.  1.
        1   -1    0    0  501    0  0.00000000000E+00  0.00000000000E+00 -0.76662064894E+03  0.76662064895E+03  0.50400001928E-02 0. -1.
    10030    2    1    2    0    0  0.00000000000E+00  0.00000000000E+00 -0.68398488988E+03  0.84925640816E+03  0.50338962764E+03 0.  0.
        3    1    3    3  502    0  0.75516967855E+02  0.86903965711E+02  0.35607952488E+02  0.12051161011E+03  0.10100000352E+00 0.  1.
       -3    1    3    3    0  502 -0.75516967855E+02 -0.86903965711E+02 -0.71959284237E+03  0.72874479805E+03  0.10100000352E+00 0. -1.
</event>
<event>
 5   0  0.1805500E-02  0.4980727E+03  0.7818609E-02  0.1014283E+00
        4   -1    0    0  501    0  0.00000000000E+00  0.00000000000E+00  0.23932850668E+03  0.23933187629E+03  0.12699999809E+01 0.  1.
       -4   -1    0    0    0  501  0.00000000000E+00  0.00000000000E+00 -0.25913121578E+03  0.25913432789E+03  0.12699999809E+01 0. -1.
    10030    2    1    2    0    0  0.00000000000E+00  0.00000000000E+00 -0.19802709097E+02  0.49846620418E+03  0.49807269492E+03 0.  0.
        4    1    3    3  502    0  0.53964813062E+02  0.82898576001E+02 -0.23862757103E+03  0.25831977374E+03  0.12699999809E+01 0. -1.
       -4    1    3    3    0  502 -0.53964813062E+02 -0.82898576001E+02  0.21882486193E+03  0.24014643044E+03  0.12699999809E+01 0.  1.
</event>
<event>
 5   0  0.1805500E-02  0.4992749E+03  0.7818609E-02  0.1013968E+00
       -3   -1    0    0    0  501  0.00000000000E+00  0.00000000000E+00  0.45866599319E+03  0.45866600431E+03  0.10100000352E+00 0. -1.
        3   -1    0    0  501    0  0.00000000000E+00  0.00000000000E+00 -0.13586977909E+03  0.13586981663E+03  0.10100000352E+00 0.  1.
    10030    2    1    2    0    0  0.00000000000E+00  0.00000000000E+00  0.32279621409E+03  0.59453582094E+03  0.49927492081E+03 0.  0.
        4    1    3    3  502    0  0.12015750736E+03  0.18784669974E+03  0.27768233182E+02  0.22471514602E+03  0.12699999809E+01 0.  1.
       -4    1    3    3    0  502 -0.12015750736E+03 -0.18784669974E+03  0.29502798091E+03  0.36982067492E+03  0.12699999809E+01 0. -1.
</event>
<event>
 5   0  0.1805500E-02  0.5006914E+03  0.7818609E-02  0.1013599E+00
        3   -1    0    0  501    0  0.00000000000E+00  0.00000000000E+00  0.91821106868E+02  0.91821162416E+02  0.10100000352E+00 0.  1.
       -3   -1    0    0    0  501  0.00000000000E+00  0.00000000000E+00 -0.68255485739E+03  0.68255486486E+03  0.10100000352E+00 0. -1.
    10030    2    1    2    0    0  0.00000000000E+00  0.00000000000E+00 -0.59073375052E+03  0.77437602728E+03  0.50069138960E+03 0.  0.
        4    1    3    3  502    0 -0.11553632826E+03  0.99250486684E+02 -0.60264145102E+03  0.62159281981E+03  0.12699999809E+01 0. -1.
       -4    1    3    3    0  502  0.11553632826E+03 -0.99250486684E+02  0.11907700495E+02  0.15278320747E+03  0.12699999809E+01 0.  1.
</event>
<event>
 5   0  0.2715483E-02  0.5018514E+03  0.7818609E-02  0.1013297E+00
       -1   -1    0    0    0  501  0.00000000000E+00  0.00000000000E+00  0.30345257270E+03  0.30345257274E+03  0.50400001928E-02 0.  1.
        1   -1    0    0  501    0  0.00000000000E+00  0.00000000000E+00 -0.20749112079E+03  0.20749112085E+03  0.50400001928E-02 0. -1.
    10030    2    1    2    0    0  0.00000000000E+00  0.00000000000E+00  0.95961451913E+02  0.51094369359E+03  0.50185142998E+03 0.  0.
        5    1    3    3  502    0 -0.17298227315E+03 -0.33921992412E+02 -0.13376979459E+03  0.22133688426E+03  0.46999998093E+01 0. -1.
       -5    1    3    3    0  502  0.17298227315E+03  0.33921992412E+02  0.22973124650E+03  0.28960680933E+03  0.46999998093E+01 0.  1.
</event>
<event>
 5   0  0.1805500E-02  0.4997330E+03  0.7818609E-02  0.1013849E+00
       -4   -1    0    0    0  501  0.00000000000E+00  0.00000000000E+00  0.11886791591E+04  0.11886798376E+04  0.12699999809E+01 0.  1.
        4   -1    0    0  501    0  0.00000000000E+00  0.00000000000E+00 -0.52514849615E+02  0.52530203978E+02  0.12699999809E+01 0. -1.
    10030    2    1    2    0    0  0.00000000000E+00  0.00000000000E+00  0.11361643095E+04  0.12412100416E+04  0.49973295772E+03 0.  0.
        5    1    3    3  502    0 -0.97058829735E+02  0.19674117974E+03  0.27123900912E+03  0.34888421905E+03  0.46999998093E+01 0.  1.
       -5    1    3    3    0  502  0.97058829735E+02 -0.19674117974E+03  0.86492530041E+03  0.89232582251E+03  0.46999998093E+01 0. -1.
</event>
<event>
 5   0  0.2779445E-02  0.5024667E+03  0.7818609E-02  0.1013137E+00
        1   -1    0    0  501    0  0.00000000000E+00  0.00000000000E+00  0.11683729617E+04  0.11683729617E+04  0.50400001928E-02 0.  1.
       -1   -1    0    0    0  501  0.00000000000E+00  0.00000000000E+00 -0.54022308928E+02  0.54022309163E+02  0.50400001928E-02 0. -1.
    10030    2    1    2    0    0  0.00000000000E+00  0.00000000000E+00  0.11143506527E+04  0.12223952708E+04  0.50246673612E+03 0.  0.
        3    1    3    3  502    0 -0.19826402047E+03  0.95935877377E+02  0.85118946710E+03  0.87922456374E+03  0.10100000352E+00 0.  1.
       -3    1    3    3    0  502  0.19826402047E+03 -0.95935877377E+02  0.26316118563E+03  0.34317070709E+03  0.10100000352E+00 0. -1.
</event>
<event>
 5   0  0.2779445E-02  0.4996412E+03  0.7818609E-02  0.1013873E+00
        1   -1    0    0  501    0  0.00000000000E+00  0.00000000000E+00  0.52798846896E+03  0.52798846899E+03  0.50400001928E-02 0.  1.
       -1   -1    0    0    0  501  0.00000000000E+00  0.00000000000E+00 -0.11820396496E+03  0.11820396507E+03  0.50400001928E-02 0. -1.
    10030    2    1    2    0    0  0.00000000000E+00  0.00000000000E+00  0.40978450400E+03  0.64619243406E+03  0.49964119337E+03 0.  0.
        3    1    3    3  502    0 -0.16716049029E+03 -0.83417209949E+02 -0.96155461427E+01  0.18706557502E+03  0.10100000352E+00 0. -1.
       -3    1    3    3    0  502  0.16716049029E+03  0.83417209949E+02  0.41940005014E+03  0.45912685904E+03  0.10100000352E+00 0.  1.
</event>
<event>
 5   0  0.4631619E-02  0.5002800E+03  0.7818609E-02  0.1013706E+00
        2   -1    0    0  501    0  0.00000000000E+00  0.00000000000E+00  0.10000254251E+04  0.10000254251E+04  0.25500000920E-02 0.  1.
       -2   -1    0    0    0  501  0.00000000000E+00  0.00000000000E+00 -0.62568433168E+02  0.62568433220E+02  0.25500000920E-02 0. -1.
    10030    2    1    2    0    0  0.00000000000E+00  0.00000000000E+00  0.93745699194E+03  0.10625938583E+04  0.50028001762E+03 0.  0.
        5    1    3    3  502    0  0.20112325275E+03 -0.87973253742E+02  0.72323699909E+03  0.75583311850E+03  0.46999998093E+01 0. -1.
       -5    1    3    3    0  502 -0.20112325275E+03  0.87973253742E+02  0.21421999286E+03  0.30676073984E+03  0.46999998093E+01 0.  1.
</event>
<event>
 5   0  0.2643185E-02  0.5000407E+03  0.7818609E-02  0.1013768E+00
       -1   -1    0    0    0  501  0.00000000000E+00  0.00000000000E+00  0.70716722819E+02  0.70716722999E+02  0.50400001928E-02 0. -1.
        1   -1    0    0  501    0  0.00000000000E+00  0.00000000000E+00 -0.88395170517E+03  0.88395170518E+03  0.50400001928E-02 0.  1.
    10030    2    1    2    0    0  0.00000000000E+00  0.00000000000E+00 -0.81323498235E+03  0.95466842818E+03  0.50004066960E+03 0.  0.
        1    1    3    3  502    0  0.15993197631E+03 -0.44845009941E+02 -0.76338859456E+03  0.78124993331E+03  0.50400001928E-02 0.  1.
       -1    1    3    3    0  502 -0.15993197631E+03  0.44845009941E+02 -0.49846387790E+02  0.17341849487E+03  0.50400001928E-02 0. -1.
</event>
<event>
 5   0  0.2715483E-02  0.4987740E+03  0.7818609E-02  0.1014099E+00
        1   -1    0    0  501    0  0.00000000000E+00  0.00000000000E+00  0.78894149312E+03  0.78894149313E+03  0.50400001928E-02 0.  1.
       -1   -1    0    0    0  501  0.00000000000E+00  0.00000000000E+00 -0.78832054737E+02  0.78832054898E+02  0.50400001928E-02 0. -1.
    10030    2    1    2    0    0  0.00000000000E+00  0.00000000000E+00  0.71010943838E+03  0.86777354803E+03  0.49877401314E+03 0.  0.
        5    1    3    3  502    0  0.86071864820E+02  0.21223100947E+03  0.52659553930E+03  0.57426067191E+03  0.46999998093E+01 0.  1.
       -5    1    3    3    0  502 -0.86071864820E+02 -0.21223100947E+03  0.18351389908E+03  0.29351287612E+03  0.46999998093E+01 0. -1.
</event>
<event>
 5   0  0.2723308E-02  0.5064419E+03  0.7818609E-02  0.1012111E+00
       -1   -1    0    0    0  501  0.00000000000E+00  0.00000000000E+00  0.11182493512E+03  0.11182493523E+03  0.50400001928E-02 0.  1.
        1   -1    0    0  501    0  0.00000000000E+00  0.00000000000E+00 -0.57340392824E+03  0.57340392826E+03  0.50400001928E-02 0. -1.
    10030    2    1    2    0    0  0.00000000000E+00  0.00000000000E+00 -0.46157899312E+03  0.68522886349E+03  0.50644193001E+03 0.  0.
        4    1    3    3  502    0 -0.21092917998E+03 -0.82744566954E+02 -0.77823021928E+02  0.23957424312E+03  0.12699999809E+01 0.  1.
       -4    1    3    3    0  502  0.21092917998E+03  0.82744566954E+02 -0.38375597120E+03  0.44565462037E+03  0.12699999809E+01 0. -1.
</event>
<event>
 5   0  0.2719671E-02  0.5020594E+03  0.7818609E-02  0.1013243E+00
       -1   -1    0    0    0  501  0.00000000000E+00  0.00000000000E+00  0.28350311976E+02  0.28350312424E+02  0.50400001928E-02 0.  1.
        1   -1    0    0  501    0  0.00000000000E+00  0.00000000000E+00 -0.22227593164E+04  0.22227593164E+04  0.50400001928E-02 0. -1.
    10030    2    1    2    0    0  0.00000000000E+00  0.00000000000E+00 -0.21944090044E+04  0.22511096289E+04  0.50205944102E+03 0.  0.
        2    1    3    3  502    0  0.16036062107E+03  0.87798771221E+02 -0.32589805627E+03  0.37367592390E+03  0.25500000920E-02 0.  1.
       -2    1    3    3    0  502 -0.16036062107E+03 -0.87798771221E+02 -0.18685109482E+04  0.18774337050E+04  0.25500000920E-02 0. -1.
</event>
<event>
 5   0  0.4534223E-02  0.4987609E+03  0.7818609E-02  0.1014103E+00
       -2   -1    0    0    0  501  0.00000000000E+00  0.00000000000E+00  0.21281044101E+03  0.21281044103E+03  0.25500000920E-02 0. -1.
        2   -1    0    0  501    0  0.00000000000E+00  0.00000000000E+00 -0.29223480732E+03  0.29223480733E+03  0.25500000920E-02 0.  1.
    10030    2    1    2    0    0  0.00000000000E+00  0.00000000000E+00 -0.79424366309E+02  0.50504524836E+03  0.49876093765E+03 0.  0.
        2    1    3    3  502    0 -0.10620386904E+02  0.19479193979E+03 -0.19702055762E+03  0.27726123522E+03  0.25500000920E-02 0.  1.
       -2    1    3    3    0  502  0.10620386904E+02 -0.19479193979E+03  0.11759619131E+03  0.22778401314E+03  0.25500000920E-02 0. -1.
</event>
<event>
 5   0  0.4409622E-02  0.4993319E+03  0.7818609E-02  0.1013953E+00
        2   -1    0    0  501    0  0.00000000000E+00  0.00000000000E+00  0.24024846620E+03  0.24024846621E+03  0.25500000920E-02 0.  1.
       -2   -1    0    0    0  501  0.00000000000E+00  0.00000000000E+00 -0.25945254305E+03  0.25945254306E+03  0.25500000920E-02 0. -1.
    10030    2    1    2    0    0  0.00000000000E+00  0.00000000000E+00 -0.19204076850E+02  0.49970100928E+03  0.49933185569E+03 0.  0.
        3    1    3    3  502    0  0.10885442686E+02 -0.24875791937E+03 -0.27893133196E+02  0.25055345217E+03  0.10100000352E+00 0.  1.
       -3    1    3    3    0  502 -0.10885442686E+02  0.24875791937E+03  0.86890563458E+01  0.24914755711E+03  0.10100000352E+00 0. -1.
</event>
<event>
 5   0  0.4519539E-02  0.4989439E+03  0.7818609E-02  0.1014055E+00
        2   -1    0    0  501    0  0.00000000000E+00  0.00000000000E+00  0.13266680045E+03  0.13266680048E+03  0.25500000920E-02 0.  1.
       -2   -1    0    0    0  501  0.00000000000E+00  0.00000000000E+00 -0.46911697252E+03  0.46911697253E+03  0.25500000920E-02 0. -1.
    10030    2    1    2    0    0  0.00000000000E+00  0.00000000000E+00 -0.33645017207E+03  0.60178377301E+03  0.49894387577E+03 0.  0.
        4    1    3    3  502    0 -0.14429654215E+03  0.20083766587E+03 -0.12863630046E+03  0.27875826590E+03  0.12699999809E+01 0.  1.
       -4    1    3    3    0  502  0.14429654215E+03 -0.20083766587E+03 -0.20781387161E+03  0.32302550711E+03  0.12699999809E+01 0. -1.
</event>
<event>
 5   0  0.2779445E-02  0.4976721E+03  0.7818609E-02  0.1014388E+00
        1   -1    0    0  501    0  0.00000000000E+00  0.00000000000E+00  0.10191096857E+04  0.10191096857E+04  0.50400001928E-02 0. -1.
       -1   -1    0    0    0  501  0.00000000000E+00  0.00000000000E+00 -0.60758309684E+02  0.60758309893E+02  0.50400001928E-02 0.  1.
    10030    2    1    2    0    0  0.00000000000E+00  0.00000000000E+00  0.95835137600E+03  0.10798679956E+04  0.49767210894E+03 0.  0.
        3    1    3    3  502    0 -0.23883343408E+03 -0.39429925421E+02  0.60426161548E+03  0.65094411311E+03  0.10100000352E+00 0. -1.
       -3    1    3    3    0  502  0.23883343408E+03  0.39429925421E+02  0.35408976052E+03  0.42892388247E+03  0.10100000352E+00 0.  1.
</event>
<event>
 5   0  0.4451135E-02  0.4998119E+03  0.7818609E-02  0.1013828E+00
       -2   -1    0    0    0  501  0.00000000000E+00  0.00000000000E+00  0.99250616591E+02  0.99250616623E+02  0.25500000920E-02 0. -1.
        2   -1    0    0  501    0  0.00000000000E+00  0.00000000000E+00 -0.62924539946E+03  0.62924539947E+03  0.25500000920E-02 0.  1.
    10030    2    1    2    0    0  0.00000000000E+00  0.00000000000E+00 -0.52999478287E+03  0.72849601609E+03  0.49981194022E+03 0.  0.
        1    1    3    3  502    0 -0.20727921149E+03  0.85335149952E+02 -0.10396567972E+03  0.24709435833E+03  0.50400001928E-02 0. -1.
       -1    1    3    3    0  502  0.20727921149E+03 -0.85335149952E+02 -0.42602910315E+03  0.48140165776E+03  0.50400001928E-02 0.  1.
</event>
<event>
 5   0  0.4631619E-02  0.5010695E+03  0.7818609E-02  0.1013500E+00
        2   -1    0    0  501    0  0.00000000000E+00  0.00000000000E+00  0.36161630567E+03  0.36161630568E+03  0.25500000920E-02 0. -1.
       -2   -1    0    0    0  501  0.00000000000E+00  0.00000000000E+00 -0.17357528081E+03  0.17357528083E+03  0.25500000920E-02 0.  1.
    10030    2    1    2    0    0  0.00000000000E+00  0.00000000000E+00  0.18804102487E+03  0.53519158651E+03  0.50106946348E+03 0.  0.
        5    1    3    3  502    0  0.67225227872E+01 -0.73453658607E+02  0.34970673815E+03  0.35743184662E+03  0.46999998093E+01 0. -1.
       -5    1    3    3    0  502 -0.67225227872E+01  0.73453658607E+02 -0.16166571328E+03  0.17775973989E+03  0.46999998093E+01 0.  1.
</event>
<event>
 5   0  0.2723308E-02  0.5006729E+03  0.7818609E-02  0.1013603E+00
       -1   -1    0    0    0  501  0.00000000000E+00  0.00000000000E+00  0.90045604082E+03  0.90045604084E+03  0.50400001928E-02 0.  1.
        1   -1    0    0  501    0  0.00000000000E+00  0.00000000000E+00 -0.69596209355E+02  0.69596209538E+02  0.50400001928E-02 0. -1.
    10030    2    1    2    0    0  0.00000000000E+00  0.00000000000E+00  0.83085983147E+03  0.97005225037E+03  0.50067285617E+03 0.  0.
        4    1    3    3  502    0 -0.18561123108E+03  0.74933598870E+02  0.70670051865E+03  0.73450242294E+03  0.12699999809E+01 0.  1.
       -4    1    3    3    0  502  0.18561123108E+03 -0.74933598870E+02  0.12415931281E+03  0.23554982743E+03  0.12699999809E+01 0. -1.
</event>
<event>
 5   0  0.2719671E-02  0.5002071E+03  0.7818609E-02  0.1013725E+00
       -1   -1    0    0    0  501  0.00000000000E+00  0.00000000000E+00  0.28476781893E+03  0.28476781898E+03  0.50400001928E-02 0. -1.
        1   -1    0    0  501    0  0.00000000000E+00  0.00000000000E+00 -0.21965890894E+03  0.21965890900E+03  0.50400001928E-02 0.  1.
    10030    2    1    2    0    0  0.00000000000E+00  0.00000000000E+00  0.65108909993E+02  0.50442672797E+03  0.50020711084E+03 0.  0.
        2    1    3    3  502    0 -0.15097078653E+03  0.10979649433E+03 -0.13529584908E+03  0.23054807598E+03  0.25500000920E-02 0.  1.
       -2    1    3    3    0  502  0.15097078653E+03 -0.10979649433E+03  0.20040475908E+03  0.27387865200E+03  0.25500000920E-02 0. -1.
</event>
<event>
 5   0  0.2719671E-02  0.5064281E+03  0.7818609E-02  0.1012115E+00
        1   -1    0    0  501    0  0.00000000000E+00  0.00000000000E+00  0.11524736153E+03  0.11524736164E+03  0.50400001928E-02 0.  1.
       -1   -1    0    0    0  501  0.00000000000E+00  0.00000000000E+00 -0.55634547664E+03  0.55634547667E+03  0.50400001928E-02 0. -1.
    10030    2    1    2    0    0  0.00000000000E+00  0.00000000000E+00 -0.44109811511E+03  0.67159283830E+03  0.50642807318E+03 0.  0.
        2    1    3    3  502    0  0.14433389844E+03  0.16612325396E+03 -0.38665072511E+03  0.44489098999E+03  0.25500000920E-02 0. -1.
       -2    1    3    3    0  502 -0.14433389844E+03 -0.16612325396E+03 -0.54447390006E+02  0.22670184831E+03  0.25500000920E-02 0.  1.
</event>
<event>
 5   0  0.2779445E-02  0.4948989E+03  0.7818609E-02  0.1015119E+00
        1   -1    0    0  501    0  0.00000000000E+00  0.00000000000E+00  0.23643407938E+04  0.23643407938E+04  0.50400001928E-02 0.  1.
       -1   -1    0    0    0  501  0.00000000000E+00  0.00000000000E+00 -0.25897804994E+02  0.25897805484E+02  0.50400001928E-02 0. -1.
    10030    2    1    2    0    0  0.00000000000E+00  0.00000000000E+00  0.23384429888E+04  0.23902385993E+04  0.49489892871E+03 0.  0.
        3    1    3    3  502    0  0.37106998653E+02 -0.85179060280E+02  0.22768975437E+04  0.22787924075E+04  0.10100000352E+00 0.  1.
       -3    1    3    3    0  502 -0.37106998653E+02  0.85179060280E+02  0.61545445142E+02  0.11144619185E+03  0.10100000352E+00 0. -1.
</event>
<event>
 5   0  0.2719671E-02  0.5034116E+03  0.7818609E-02  0.1012892E+00
       -1   -1    0    0    0  501  0.00000000000E+00  0.00000000000E+00  0.13276085920E+03  0.13276085930E+03  0.50400001928E-02 0.  1.
        1   -1    0    0  501    0  0.00000000000E+00  0.00000000000E+00 -0.47721744150E+03  0.47721744153E+03  0.50400001928E-02 0. -1.
    10030    2    1    2    0    0  0.00000000000E+00  0.00000000000E+00 -0.34445658229E+03  0.60997830083E+03  0.50341155171E+03 0.  0.
        2    1    3    3  502    0 -0.17873047366E+03 -0.55140966764E+02 -0.37632037104E+03  0.42024056217E+03  0.25500000920E-02 0. -1.
       -2    1    3    3    0  502  0.17873047366E+03  0.55140966764E+02  0.31863788742E+02  0.18973773866E+03  0.25500000920E-02 0.  1.
</event>
<event>
 5   0  0.4534223E-02  0.4827803E+03  0.7818609E-02  0.1018374E+00
       -2   -1    0    0    0  501  0.00000000000E+00  0.00000000000E+00  0.47964031599E+02  0.47964031667E+02  0.25500000920E-02 0. -1.
        2   -1    0    0  501    0  0.00000000000E+00  0.00000000000E+00 -0.12148523270E+04  0.12148523270E+04  0.25500000920E-02 0.  1.
    10030    2    1    2    0    0  0.00000000000E+00  0.00000000000E+00 -0.11668882954E+04  0.12628163586E+04  0.48278034526E+03 0.  0.
        2    1    3    3  502    0 -0.18241214651E+03 -0.69712754706E+00 -0.99698000919E+03  0.10135303725E+04  0.25500000920E-02 0.  1.
       -2    1    3    3    0  502  0.18241214651E+03  0.69712754706E+00 -0.16990828618E+03  0.24928598618E+03  0.25500000920E-02 0. -1.
</event>
<event>
 5   0  0.4534223E-02  0.4984816E+03  0.7818609E-02  0.1014176E+00
       -2   -1    0    0    0  501  0.00000000000E+00  0.00000000000E+00  0.92764653758E+02  0.92764653793E+02  0.25500000920E-02 0.  1.
        2   -1    0    0  501    0  0.00000000000E+00  0.00000000000E+00 -0.66966222645E+03  0.66966222645E+03  0.25500000920E-02 0. -1.
    10030    2    1    2    0    0  0.00000000000E+00  0.00000000000E+00 -0.57689757269E+03  0.76242688025E+03  0.49848163291E+03 0.  0.
        2    1    3    3  502    0  0.18123773508E+03  0.94657532833E+02 -0.70454639700E+02  0.21626608934E+03  0.25500000920E-02 0.  1.
       -2    1    3    3    0  502 -0.18123773508E+03 -0.94657532833E+02 -0.50644293299E+03  0.54616079090E+03  0.25500000920E-02 0. -1.
</event>
<event>
 5   0  0.4409622E-02  0.5015646E+03  0.7818609E-02  0.1013371E+00
       -2   -1    0    0    0  501  0.00000000000E+00  0.00000000000E+00  0.82761878592E+02  0.82761878631E+02  0.25500000920E-02 0. -1.
        2   -1    0    0  501    0  0.00000000000E+00  0.00000000000E+00 -0.75991224227E+03  0.75991224228E+03  0.25500000920E-02 0.  1.
    10030    2    1    2    0    0  0.00000000000E+00  0.00000000000E+00 -0.67715036368E+03  0.84267412091E+03  0.50156461101E+03 0.  0.
        3    1    3    3  502    0 -0.17981313596E+03 -0.97509189340E+02 -0.94811721302E+02  0.22545526955E+03  0.10100000352E+00 0. -1.
       -3    1    3    3    0  502  0.17981313596E+03  0.97509189340E+02 -0.58233864238E+03  0.61721885136E+03  0.10100000352E+00 0.  1.
</event>
<event>
 5   0  0.1805500E-02  0.5016170E+03  0.7818609E-02  0.1013358E+00
       -3   -1    0    0    0  501  0.00000000000E+00  0.00000000000E+00  0.14477254716E+03  0.14477258239E+03  0.10100000352E+00 0.  1.
        3   -1    0    0  501    0  0.00000000000E+00  0.00000000000E+00 -0.43450841422E+03  0.43450842596E+03  0.10100000352E+00 0. -1.
    10030    2    1    2    0    0  0.00000000000E+00  0.00000000000E+00 -0.28973586705E+03  0.57928100835E+03  0.50161699929E+03 0.  0.
        4    1    3    3  502    0  0.50566285344E+02 -0.91734851739E+02  0.11829858272E+03  0.15801392284E+03  0.12699999809E+01 0.  1.
       -4    1    3    3    0  502 -0.50566285344E+02  0.91734851739E+02 -0.40803444977E+03  0.42126708551E+03  0.12699999809E+01 0. -1.
</event>
<event>
 5   0  0.2723308E-02  0.5005210E+03  0.7818609E-02  0.1013643E+00
       -1   -1    0    0    0  501  0.00000000000E+00  0.00000000000E+00  0.28772845175E+03  0.28772845179E+03  0.50400001928E-02 0. -1.
        1   -1    0    0  501    0  0.00000000000E+00  0.00000000000E+00 -0.21767162548E+03  0.21767162554E+03  0.50400001928E-02 0.  1.
    10030    2    1    2    0    0  0.00000000000E+00  0.00000000000E+00  0.70056826270E+02  0.50540007733E+03  0.50052100781E+03 0.  0.
        4    1    3    3  502    0  0.53425493639E+02 -0.13943637109E+03 -0.16775734594E+03  0.22459057186E+03  0.12699999809E+01 0.  1.
       -4    1    3    3    0  502 -0.53425493639E+02  0.13943637109E+03  0.23781417221E+03  0.28080950546E+03  0.12699999809E+01 0. -1.
</event>
<event>
 5   0  0.2719671E-02  0.4997372E+03  0.7818609E-02  0.1013848E+00
        1   -1    0    0  501    0  0.00000000000E+00  0.00000000000E+00  0.20655137421E+03  0.20655137427E+03  0.50400001928E-02 0. -1.
       -1   -1    0    0    0  501  0.00000000000E+00  0.00000000000E+00 -0.30227015205E+03  0.30227015210E+03  0.50400001928E-02 0.  1.
    10030    2    1    2    0    0  0.00000000000E+00  0.00000000000E+00 -0.95718777844E+02  0.50882152637E+03  0.49973719220E+03 0.  0.
        2    1    3    3  502    0 -0.21907288123E+03  0.11294082849E+03 -0.60550532781E+01  0.24654659135E+03  0.25500000920E-02 0. -1.
       -2    1    3    3    0  502  0.21907288123E+03 -0.11294082849E+03 -0.89663724566E+02  0.26227493502E+03  0.25500000920E-02 0.  1.
</event>
<event>
 5   0  0.1805500E-02  0.4999647E+03  0.7818609E-02  0.1013788E+00
       -3   -1    0    0    0  501  0.00000000000E+00  0.00000000000E+00  0.93751361959E+02  0.93751416363E+02  0.10100000352E+00 0.  1.
        3   -1    0    0  501    0  0.00000000000E+00  0.00000000000E+00 -0.66656268474E+03  0.66656269239E+03  0.10100000352E+00 0. -1.
    10030    2    1    2    0    0  0.00000000000E+00  0.00000000000E+00 -0.57281132278E+03  0.76031410875E+03  0.49996473122E+03 0.  0.
        1    1    3    3  502    0  0.10710861051E+03 -0.87867026050E+02  0.30032735058E+02  0.14175624824E+03  0.50400001928E-02 0.  1.
       -1    1    3    3    0  502 -0.10710861051E+03  0.87867026050E+02 -0.60284405784E+03  0.61855786052E+03  0.50400001928E-02 0. -1.
</event>
<event>
 5   0  0.2719671E-02  0.5005257E+03  0.7818609E-02  0.1013642E+00
        1   -1    0    0  501    0  0.00000000000E+00  0.00000000000E+00  0.87942774020E+02  0.87942774164E+02  0.50400001928E-02 0. -1.
       -1   -1    0    0    0  501  0.00000000000E+00  0.00000000000E+00 -0.71218456553E+03  0.71218456555E+03  0.50400001928E-02 0.  1.
    10030    2    1    2    0    0  0.00000000000E+00  0.00000000000E+00 -0.62424179151E+03  0.80012733971E+03  0.50052566916E+03 0.  0.
        2    1    3    3  502    0 -0.15088433154E+02  0.24912562531E+03 -0.34160790855E+03  0.42306879014E+03  0.25500000920E-02 0.  1.
       -2    1    3    3    0  502  0.15088433154E+02 -0.24912562531E+03 -0.28263388296E+03  0.37705854957E+03  0.25500000920E-02 0. -1.
</event>
<event>
 5   0  0.4409622E-02  0.4988137E+03  0.7818609E-02  0.1014089E+00
        2   -1    0    0  501    0  0.00000000000E+00  0.00000000000E+00  0.39883629762E+03  0.39883629763E+03  0.25500000920E-02 0. -1.
       -2   -1    0    0    0  501  0.00000000000E+00  0.00000000000E+00 -0.15596320275E+03  0.15596320277E+03  0.25500000920E-02 0.  1.
    10030    2    1    2    0    0  0.00000000000E+00  0.00000000000E+00  0.24287309487E+03  0.55479950040E+03  0.49881373821E+03 0.  0.
        3    1    3    3  502    0  0.80719123888E+02  0.18603081893E+03  0.28292464384E+03  0.34809396267E+03  0.10100000352E+00 0. -1.
       -3    1    3    3    0  502 -0.80719123888E+02 -0.18603081893E+03 -0.40051548963E+02  0.20670553773E+03  0.10100000352E+00 0.  1.
</event>
<event>
 5   0  0.4534223E-02  0.4996428E+03  0.7818609E-02  0.1013872E+00
        2   -1    0    0  501    0  0.00000000000E+00  0.00000000000E+00  0.58333938752E+03  0.58333938752E+03  0.25500000920E-02 0. -1.
       -2   -1    0    0    0  501  0.00000000000E+00  0.00000000000E+00 -0.10698872858E+03  0.10698872861E+03  0.25500000920E-02 0.  1.
    10030    2    1    2    0    0  0.00000000000E+00  0.00000000000E+00  0.47635065894E+03  0.69032811613E+03  0.49964283007E+03 0.  0.
        2    1    3    3  502    0  0.18537872054E+03 -0.15810755454E+03  0.31444742225E+03  0.39779448235E+03  0.25500000920E-02 0. -1.
       -2    1    3    3    0  502 -0.18537872054E+03  0.15810755454E+03  0.16190323670E+03  0.29253363377E+03  0.25500000920E-02 0.  1.
</event>
<event>
 5   0  0.4534223E-02  0.5022853E+03  0.7818609E-02  0.1013184E+00
       -2   -1    0    0    0  501  0.00000000000E+00  0.00000000000E+00  0.82958445264E+02  0.82958445304E+02  0.25500000920E-02 0. -1.
        2   -1    0    0  501    0  0.00000000000E+00  0.00000000000E+00 -0.76029197515E+03  0.76029197516E+03  0.25500000920E-02 0.  1.
    10030    2    1    2    0    0  0.00000000000E+00  0.00000000000E+00 -0.67733352989E+03  0.84325042046E+03  0.50228533813E+03 0.  0.
        2    1    3    3  502    0  0.70827185936E+02 -0.27660031840E+02 -0.74050341238E+03  0.74439698507E+03  0.25500000920E-02 0.  1.
       -2    1    3    3    0  502 -0.70827185936E+02  0.27660031840E+02  0.63169882489E+02  0.98853435393E+02  0.25500000920E-02 0. -1.
</event>
<event>
 5   0  0.2719671E-02  0.4991878E+03  0.7818609E-02  0.1013991E+00
        1   -1    0    0  501    0  0.00000000000E+00  0.00000000000E+00  0.10562452385E+04  0.10562452385E+04  0.50400001928E-02 0. -1.
       -1   -1    0    0    0  501  0.00000000000E+00  0.00000000000E+00 -0.58979792708E+02  0.58979792923E+02  0.50400001928E-02 0.  1.
    10030    2    1    2    0    0  0.00000000000E+00  0.00000000000E+00  0.99726544580E+03  0.11152250314E+04  0.49918784177E+03 0.  0.
        2    1    3    3  502    0 -0.12297991669E+03  0.20015653257E+03  0.68701774824E+03  0.72607167955E+03  0.25500000920E-02 0. -1.
       -2    1    3    3    0  502  0.12297991669E+03 -0.20015653257E+03  0.31024769755E+03  0.38915335188E+03  0.25500000920E-02 0.  1.
</event>
<event>
 5   0  0.2715483E-02  0.5016835E+03  0.7818609E-02  0.1013340E+00
        1   -1    0    0  501    0  0.00000000000E+00  0.00000000000E+00  0.21695810762E+03  0.21695810768E+03  0.50400001928E-02 0.  1.
       -1   -1    0    0    0  501  0.00000000000E+00  0.00000000000E+00 -0.29001718083E+03  0.29001718087E+03  0.50400001928E-02 0. -1.
    10030    2    1    2    0    0  0.00000000000E+00  0.00000000000E+00 -0.73059073204E+02  0.50697528855E+03  0.50168348091E+03 0.  0.
        5    1    3    3  502    0  0.29789880489E+02  0.15793624757E+03  0.15803231941E+03  0.22544977102E+03  0.46999998093E+01 0.  1.
       -5    1    3    3    0  502 -0.29789880489E+02 -0.15793624757E+03 -0.23109139262E+03  0.28152551752E+03  0.46999998093E+01 0. -1.
</event>
<event>
 5   0  0.1805500E-02  0.4975772E+03  0.7818609E-02  0.1014413E+00
        3   -1    0    0  501    0  0.00000000000E+00  0.00000000000E+00  0.17853219111E+03  0.17853221968E+03  0.10100000352E+00 0.  1.
       -3   -1    0    0    0  501  0.00000000000E+00  0.00000000000E+00 -0.34669239888E+03  0.34669241359E+03  0.10100000352E+00 0. -1.
    10030    2    1    2    0    0  0.00000000000E+00  0.00000000000E+00 -0.16816020777E+03  0.52522463328E+03  0.49757718991E+03 0.  0.
        3    1    3    3  502    0 -0.14033794023E+03  0.80834337706E+02  0.11527018164E+03  0.19878670126E+03  0.10100000352E+00 0.  1.
       -3    1    3    3    0  502  0.14033794023E+03 -0.80834337706E+02 -0.28343038941E+03  0.32643793202E+03  0.10100000352E+00 0. -1.
</event>
<event>
 5   0  0.4451135E-02  0.5307087E+03  0.7818609E-02  0.1006060E+00
        2   -1    0    0  501    0  0.00000000000E+00  0.00000000000E+00  0.88850584895E+03  0.88850584895E+03  0.25500000920E-02 0.  1.
       -2   -1    0    0    0  501  0.00000000000E+00  0.00000000000E+00 -0.79248712119E+02  0.79248712160E+02  0.25500000920E-02 0. -1.
    10030    2    1    2    0    0  0.00000000000E+00  0.00000000000E+00  0.80925713683E+03  0.96775456111E+03  0.53070874973E+03 0.  0.
        1    1    3    3  502    0 -0.10903058022E+03 -0.11092136398E+02  0.84530896973E+03  0.85238369133E+03  0.50400001928E-02 0.  1.
       -1    1    3    3    0  502  0.10903058022E+03  0.11092136398E+02 -0.36051832903E+02  0.11537086978E+03  0.50400001928E-02 0. -1.
</event>
<event>
 5   0  0.4409622E-02  0.5010424E+03  0.7818609E-02  0.1013507E+00
       -2   -1    0    0    0  501  0.00000000000E+00  0.00000000000E+00  0.46418427261E+03  0.46418427262E+03  0.25500000920E-02 0.  1.
        2   -1    0    0  501    0  0.00000000000E+00  0.00000000000E+00 -0.13520680624E+03  0.13520680627E+03  0.25500000920E-02 0. -1.
    10030    2    1    2    0    0  0.00000000000E+00  0.00000000000E+00  0.32897746637E+03  0.59939107888E+03  0.50104240546E+03 0.  0.
        3    1    3    3  502    0 -0.10832257100E+03 -0.16878892944E+03  0.34408095021E+03  0.39826522894E+03  0.10100000352E+00 0.  1.
       -3    1    3    3    0  502  0.10832257100E+03  0.16878892944E+03 -0.15103483842E+02  0.20112584994E+03  0.10100000352E+00 0. -1.
</event>
<event>
 5   0  0.1805500E-02  0.4942145E+03  0.7818609E-02  0.1015300E+00
        4   -1    0    0  501    0  0.00000000000E+00  0.00000000000E+00  0.17944024688E+03  0.17944474108E+03  0.12699999809E+01 0.  1.
       -4   -1    0    0    0  501  0.00000000000E+00  0.00000000000E+00 -0.34028154784E+03  0.34028391778E+03  0.12699999809E+01 0. -1.
    10030    2    1    2    0    0  0.00000000000E+00  0.00000000000E+00 -0.16084130096E+03  0.51972865886E+03  0.49421448253E+03 0.  0.
        1    1    3    3  502    0 -0.19200049407E+02 -0.12732340877E+03  0.14137540625E+03  0.19122473124E+03  0.50400001928E-02 0.  1.
       -1    1    3    3    0  502  0.19200049407E+02  0.12732340877E+03 -0.30221670721E+03  0.32850392762E+03  0.50400001928E-02 0. -1.
</event>
<event>
 5   0  0.4409622E-02  0.5024211E+03  0.7818609E-02  0.1013149E+00
       -2   -1    0    0    0  501  0.00000000000E+00  0.00000000000E+00  0.79349696237E+02  0.79349696278E+02  0.25500000920E-02 0. -1.
        2   -1    0    0  501    0  0.00000000000E+00  0.00000000000E+00 -0.79529904074E+03  0.79529904075E+03  0.25500000920E-02 0.  1.
    10030    2    1    2    0    0  0.00000000000E+00  0.00000000000E+00 -0.71594934451E+03  0.87464873702E+03  0.50242108761E+03 0.  0.
        3    1    3    3  502    0 -0.15970570028E+03  0.18772415135E+03 -0.44255397158E+03  0.50655729751E+03  0.10100000352E+00 0.  1.
       -3    1    3    3    0  502  0.15970570028E+03 -0.18772415135E+03 -0.27339537293E+03  0.36809143951E+03  0.10100000352E+00 0. -1.
</event>
<event>
 5   0  0.4534223E-02  0.5006953E+03  0.7818609E-02  0.1013598E+00
       -2   -1    0    0    0  501  0.00000000000E+00  0.00000000000E+00  0.47300278430E+02  0.47300278499E+02  0.25500000920E-02 0.  1.
        2   -1    0    0  501    0  0.00000000000E+00  0.00000000000E+00 -0.13250228522E+04  0.13250228522E+04  0.25500000920E-02 0. -1.
    10030    2    1    2    0    0  0.00000000000E+00  0.00000000000E+00 -0.12777225737E+04  0.13723231307E+04  0.50069531607E+03 0.  0.
        2    1    3    3  502    0  0.87262369945E+02  0.19372461236E+02 -0.12797944445E+04  0.12829122470E+04  0.25500000920E-02 0. -1.
       -2    1    3    3    0  502 -0.87262369945E+02 -0.19372461236E+02  0.20718707134E+01  0.89410883664E+02  0.25500000920E-02 0.  1.
</event>
<event>
 5   0  0.4631619E-02  0.4849949E+03  0.7818609E-02  0.1017771E+00
       -2   -1    0    0    0  501  0.00000000000E+00  0.00000000000E+00  0.42852163743E+02  0.42852163819E+02  0.25500000920E-02 0.  1.
        2   -1    0    0  501    0  0.00000000000E+00  0.00000000000E+00 -0.13722766382E+04  0.13722766382E+04  0.25500000920E-02 0. -1.
    10030    2    1    2    0    0  0.00000000000E+00  0.00000000000E+00 -0.13294244745E+04  0.14151288020E+04  0.48499494124E+03 0.  0.
        5    1    3    3  502    0 -0.24526094593E+02 -0.22652342557E+03 -0.42289289898E+03  0.48039034717E+03  0.46999998093E+01 0.  1.
       -5    1    3    3    0  502  0.24526094593E+02  0.22652342557E+03 -0.90653157550E+03  0.93473845487E+03  0.46999998093E+01 0. -1.
</event>
<event>
 5   0  0.2779445E-02  0.5002525E+03  0.7818609E-02  0.1013713E+00
       -1   -1    0    0    0  501  0.00000000000E+00  0.00000000000E+00  0.22448305135E+03  0.22448305141E+03  0.50400001928E-02 0. -1.
        1   -1    0    0  501    0  0.00000000000E+00  0.00000000000E+00 -0.27869877900E+03  0.27869877905E+03  0.50400001928E-02 0.  1.
    10030    2    1    2    0    0  0.00000000000E+00  0.00000000000E+00 -0.54215727650E+02  0.50318183046E+03  0.50025254560E+03 0.  0.
        3    1    3    3  502    0 -0.72968154429E+01 -0.20045773425E+03 -0.17740368116E+03  0.26778465794E+03  0.10100000352E+00 0.  1.
       -3    1    3    3    0  502  0.72968154429E+01  0.20045773425E+03  0.12318795351E+03  0.23539717252E+03  0.10100000352E+00 0. -1.
</event>
<event>
 5   0  0.2715483E-02  0.5003469E+03  0.7818609E-02  0.1013688E+00
       -1   -1    0    0    0  501  0.00000000000E+00  0.00000000000E+00  0.30264813211E+02  0.30264813631E+02  0.50400001928E-02 0.  1.
        1   -1    0    0  501    0  0.00000000000E+00  0.00000000000E+00 -0.20679709196E+04  0.20679709196E+04  0.50400001928E-02 0. -1.
    10030    2    1    2    0    0  0.00000000000E+00  0.00000000000E+00 -0.20377061064E+04  0.20982357333E+04  0.50034689589E+03 0.  0.
        5    1    3    3  502    0 -0.25806069193E+02 -0.11416884629E+02 -0.20610891826E+04  0.20612877061E+04  0.46999998093E+01 0. -1.
       -5    1    3    3    0  502  0.25806069193E+02  0.11416884629E+02  0.23383076214E+02  0.36948027190E+02  0.46999998093E+01 0.  1.
</event>
<event>
 5   0  0.4451135E-02  0.5140374E+03  0.7818609E-02  0.1010179E+00
       -2   -1    0    0    0  501  0.00000000000E+00  0.00000000000E+00  0.37019152003E+03  0.37019152004E+03  0.25500000920E-02 0. -1.
        2   -1    0    0  501    0  0.00000000000E+00  0.00000000000E+00 -0.17844445636E+03  0.17844445638E+03  0.25500000920E-02 0.  1.
    10030    2    1    2    0    0  0.00000000000E+00  0.00000000000E+00  0.19174706367E+03  0.54863597642E+03  0.51403744824E+03 0.  0.
        1    1    3    3  502    0  0.47016051305E+02 -0.11771414940E+03 -0.14276335993E+03  0.19091492088E+03  0.50400001928E-02 0.  1.
       -1    1    3    3    0  502 -0.47016051305E+02  0.11771414940E+03  0.33451042360E+03  0.35772105554E+03  0.50400001928E-02 0. -1.
</event>
<event>
 5   0  0.2719671E-02  0.5020734E+03  0.7818609E-02  0.1013239E+00
       -1   -1    0    0    0  501  0.00000000000E+00  0.00000000000E+00  0.24916823418E+03  0.24916823423E+03  0.50400001928E-02 0. -1.
        1   -1    0    0  501    0  0.00000000000E+00  0.00000000000E+00 -0.25291919068E+03  0.25291919073E+03  0.50400001928E-02 0.  1.
    10030    2    1    2    0    0  0.00000000000E+00  0.00000000000E+00 -0.37509565029E+01  0.50208742495E+03  0.50207341358E+03 0.  0.
        2    1    3    3  502    0 -0.10058767999E+03 -0.92161745959E+02  0.20886188905E+03  0.24946935180E+03  0.25500000920E-02 0. -1.
       -2    1    3    3    0  502  0.10058767999E+03  0.92161745959E+02 -0.21261284555E+03  0.25261807315E+03  0.25500000920E-02 0.  1.
</event>
<event>
 5   0  0.4534223E-02  0.4996194E+03  0.7818609E-02  0.1013878E+00
       -2   -1    0    0    0  501  0.00000000000E+00  0.00000000000E+00  0.68121437293E+02  0.68121437340E+02  0.25500000920E-02 0. -1.
        2   -1    0    0  501    0  0.00000000000E+00  0.00000000000E+00 -0.91608296847E+03  0.91608296848E+03  0.25500000920E-02 0.  1.
    10030    2    1    2    0    0  0.00000000000E+00  0.00000000000E+00 -0.84796153118E+03  0.98420440582E+03  0.49961940922E+03 0.  0.
        2    1    3    3  502    0 -0.68395116665E+02  0.24922380931E+02 -0.89472649091E+03  0.89768285636E+03  0.25500000920E-02 0.  1.
       -2    1    3    3    0  502  0.68395116665E+02 -0.24922380931E+02  0.46764959733E+02  0.86521549456E+02  0.25500000920E-02 0. -1.
</event>
<event>
 5   0  0.2643185E-02  0.5008582E+03  0.7818609E-02  0.1013555E+00
        1   -1    0    0  501    0  0.00000000000E+00  0.00000000000E+00  0.54452030605E+03  0.54452030607E+03  0.50400001928E-02 0.  1.
       -1   -1    0    0    0  501  0.00000000000E+00  0.00000000000E+00 -0.11517429724E+03  0.11517429735E+03  0.50400001928E-02 0. -1.
    10030    2    1    2    0    0  0.00000000000E+00  0.00000000000E+00  0.42934600881E+03  0.65969460341E+03  0.50085823792E+03 0.  0.
        1    1    3    3  502    0  0.18582723424E+03  0.11183430152E+03  0.37958290486E+03  0.43717485480E+03  0.50400001928E-02 0.  1.
       -1    1    3    3    0  502 -0.18582723424E+03 -0.11183430152E+03  0.49763103950E+02  0.22251974861E+03  0.50400001928E-02 0. -1.
</event>
<event>
 5   0  0.4519539E-02  0.5019360E+03  0.7818609E-02  0.1013275E+00
       -2   -1    0    0    0  501  0.00000000000E+00  0.00000000000E+00  0.15044304746E+03  0.15044304748E+03  0.25500000920E-02 0. -1.
        2   -1    0    0  501    0  0.00000000000E+00  0.00000000000E+00 -0.41866297465E+03  0.41866297466E+03  0.25500000920E-02 0.  1.
    10030    2    1    2    0    0  0.00000000000E+00  0.00000000000E+00 -0.26821992719E+03  0.56910602214E+03  0.50193598705E+03 0.  0.
        4    1    3    3  502    0  0.17783027363E+03 -0.78455052042E+02  0.45894824719E+02  0.19971667243E+03  0.12699999809E+01 0. -1.
       -4    1    3    3    0  502 -0.17783027363E+03  0.78455052042E+02 -0.31411475191E+03  0.36938934971E+03  0.12699999809E+01 0.  1.
</event>
<event>
 5   0  0.2723308E-02  0.4986796E+03  0.7818609E-02  0.1014124E+00
        1   -1    0    0  501    0  0.00000000000E+00  0.00000000000E+00  0.90798642075E+03  0.90798642077E+03  0.50400001928E-02 0. -1.
       -1   -1    0    0    0  501  0.00000000000E+00  0.00000000000E+00 -0.68470562761E+02  0.68470562947E+02  0.50400001928E-02 0.  1.
    10030    2    1    2    0    0  0.00000000000E+00  0.00000000000E+00  0.83951585799E+03  0.97645698371E+03  0.49867962183E+03 0.  0.
        4    1    3    3  502    0  0.21552751849E+03  0.12398946304E+03  0.38348152221E+03  0.45703959232E+03  0.12699999809E+01 0. -1.
       -4    1    3    3    0  502 -0.21552751849E+03 -0.12398946304E+03  0.45603433578E+03  0.51941739139E+03  0.12699999809E+01 0.  1.
</event>
<event>
 5   0  0.1805500E-02  0.5010666E+03  0.7818609E-02  0.1013501E+00
        4   -1    0    0  501    0  0.00000000000E+00  0.00000000000E+00  0.15712761969E+03  0.15713275206E+03  0.12699999809E+01 0. -1.
       -4   -1    0    0    0  501  0.00000000000E+00  0.00000000000E+00 -0.39945194082E+03  0.39945395971E+03  0.12699999809E+01 0.  1.
    10030    2    1    2    0    0  0.00000000000E+00  0.00000000000E+00 -0.24232432113E+03  0.55658671177E+03  0.50106655357E+03 0.  0.
        2    1    3    3  502    0  0.24332958004E+03  0.27891088524E+02 -0.62597130652E+02  0.25279556585E+03  0.25500000920E-02 0. -1.
       -2    1    3    3    0  502 -0.24332958004E+03 -0.27891088524E+02 -0.17972719048E+03  0.30379114592E+03  0.25500000920E-02 0.  1.
</event>
<event>
 5   0  0.2719671E-02  0.5004297E+03  0.7818609E-02  0.1013667E+00
        1   -1    0    0  501    0  0.00000000000E+00  0.00000000000E+00  0.57495263131E+03  0.57495263134E+03  0.50400001928E-02 0. -1.
       -1   -1    0    0    0  501  0.00000000000E+00  0.00000000000E+00 -0.10889154658E+03  0.10889154669E+03  0.50400001928E-02 0.  1.
    10030    2    1    2    0    0  0.00000000000E+00  0.00000000000E+00  0.46606108474E+03  0.68384417803E+03  0.50042974044E+03 0.  0.
        2    1    3    3  502    0 -0.14515509204E+03 -0.46996769498E+02 -0.37969464840E+02  0.15722715209E+03  0.25500000920E-02 0.  1.
       -2    1    3    3    0  502  0.14515509204E+03  0.46996769498E+02  0.50403054958E+03  0.52661702594E+03  0.25500000920E-02 0. -1.
</event>
<event>
 5   0  0.2779445E-02  0.4971272E+03  0.7818609E-02  0.1014531E+00
       -1   -1    0    0    0  501  0.00000000000E+00  0.00000000000E+00  0.91301381086E+02  0.91301381226E+02  0.50400001928E-02 0. -1.
        1   -1    0    0  501    0  0.00000000000E+00  0.00000000000E+00 -0.67670241226E+03  0.67670241228E+03  0.50400001928E-02 0.  1.
    10030    2    1    2    0    0  0.00000000000E+00  0.00000000000E+00 -0.58540103118E+03  0.76800379351E+03  0.49712720660E+03 0.  0.
        3    1    3    3  502    0 -0.34527946767E+02  0.13999510862E+03 -0.60548912111E+03  0.62242099541E+03  0.10100000352E+00 0.  1.
       -3    1    3    3    0  502  0.34527946767E+02 -0.13999510862E+03  0.20088089931E+02  0.14558279810E+03  0.10100000352E+00 0. -1.
</event>
<event>
 5   0  0.4451135E-02  0.5022883E+03  0.7818609E-02  0.1013183E+00
       -2   -1    0    0    0  501  0.00000000000E+00  0.00000000000E+00  0.25266439193E+03  0.25266439195E+03  0.25500000920E-02 0.  1.
        2   -1    0    0  501    0  0.00000000000E+00  0.00000000000E+00 -0.24963304556E+03  0.24963304558E+03  0.25500000920E-02 0. -1.
    10030    2    1    2    0    0  0.00000000000E+00  0.00000000000E+00  0.30313463716E+01  0.50229743752E+03  0.50228829041E+03 0.  0.
        1    1    3    3  502    0 -0.42783791758E+02 -0.78545668499E+02  0.23619739949E+03  0.25256501426E+03  0.50400001928E-02 0.  1.
       -1    1    3    3    0  502  0.42783791758E+02  0.78545668499E+02 -0.23316605312E+03  0.24973242326E+03  0.50400001928E-02 0. -1.
</event>
<event>
 5   0  0.2779445E-02  0.4999061E+03  0.7818609E-02  0.1013803E+00
       -1   -1    0    0    0  501  0.00000000000E+00  0.00000000000E+00  0.35160512655E+02  0.35160513016E+02  0.50400001928E-02 0.  1.
        1   -1    0    0  501    0  0.00000000000E+00  0.00000000000E+00 -0.17768944073E+04  0.17768944074E+04  0.50400001928E-02 0. -1.
    10030    2    1    2    0    0  0.00000000000E+00  0.00000000000E+00 -0.17417338947E+04  0.18120549204E+04  0.49990606570E+03 0.  0.
        3    1    3    3  502    0 -0.11289480030E+02  0.14844531276E+03 -0.15986563920E+04  0.16055733347E+04  0.10100000352E+00 0. -1.
       -3    1    3    3    0  502  0.11289480030E+02 -0.14844531276E+03 -0.14307750267E+03  0.20648158564E+03  0.10100000352E+00 0.  1.
</event>
<event>
 5   0  0.4451135E-02  0.4986344E+03  0.7818609E-02  0.1014136E+00
       -2   -1    0    0    0  501  0.00000000000E+00  0.00000000000E+00  0.75111036694E+02  0.75111036737E+02  0.25500000920E-02 0.  1.
        2   -1    0    0  501    0  0.00000000000E+00  0.00000000000E+00 -0.82756226911E+03  0.82756226912E+03  0.25500000920E-02 0. -1.
    10030    2    1    2    0    0  0.00000000000E+00  0.00000000000E+00 -0.75245123242E+03  0.90267330585E+03  0.49863437500E+03 0.  0.
        1    1    3    3  502    0  0.37476876271E+02 -0.37755045590E+02 -0.81716842666E+03  0.81889816050E+03  0.50400001928E-02 0. -1.
       -1    1    3    3    0  502 -0.37476876271E+02  0.37755045590E+02  0.64717194241E+02  0.83775145350E+02  0.50400001928E-02 0.  1.
</event>
<event>
 5   0  0.2779445E-02  0.5002979E+03  0.7818609E-02  0.1013701E+00
       -1   -1    0    0    0  501  0.00000000000E+00  0.00000000000E+00  0.73367115230E+02  0.73367115403E+02  0.50400001928E-02 0. -1.
        1   -1    0    0  501    0  0.00000000000E+00  0.00000000000E+00 -0.85289566182E+03  0.85289566184E+03  0.50400001928E-02 0.  1.
    10030    2    1    2    0    0  0.00000000000E+00  0.00000000000E+00 -0.77952854659E+03  0.92626277724E+03  0.50029788881E+03 0.  0.
        3    1    3    3  502    0 -0.12494093919E+03  0.14152310952E+03 -0.85908352858E+02  0.20741090643E+03  0.10100000352E+00 0. -1.
       -3    1    3    3    0  502  0.12494093919E+03 -0.14152310952E+03 -0.69362019373E+03  0.71885187081E+03  0.10100000352E+00 0.  1.
</event>
<event>
 5   0  0.2715483E-02  0.4999906E+03  0.7818609E-02  0.1013781E+00
       -1   -1    0    0    0  501  0.00000000000E+00  0.00000000000E+00  0.21805808931E+03  0.21805808937E+03  0.50400001928E-02 0. -1.
        1   -1    0    0  501    0  0.00000000000E+00  0.00000000000E+00 -0.28661006348E+03  0.28661006352E+03  0.50400001928E-02 0.  1.
    10030    2    1    2    0    0  0.00000000000E+00  0.00000000000E+00 -0.68551974166E+02  0.50466815290E+03  0.49999057130E+03 0.  0.
        5    1    3    3  502    0  0.21796498859E+03 -0.96544649479E+02 -0.11011846140E+03  0.26263619540E+03  0.46999998093E+01 0.  1.
       -5    1    3    3    0  502 -0.21796498859E+03  0.96544649479E+02  0.41566487235E+02  0.24203195750E+03  0.46999998093E+01 0. -1.
</event>
<event>
 5   0  0.4519539E-02  0.5002282E+03  0.7818609E-02  0.1013719E+00
       -2   -1    0    0    0  501  0.00000000000E+00  0.00000000000E+00  0.92962543174E+02  0.92962543209E+02  0.25500000920E-02 0.  1.
        2   -1    0    0  501    0  0.00000000000E+00  0.00000000000E+00 -0.67292767396E+03  0.67292767396E+03  0.25500000920E-02 0. -1.
    10030    2    1    2    0    0  0.00000000000E+00  0.00000000000E+00 -0.57996513078E+03  0.76589021717E+03  0.50022821975E+03 0.  0.
        4    1    3    3  502    0  0.16148949503E+03 -0.18003141284E+01  0.24233823833E+01  0.16152270373E+03  0.12699999809E+01 0.  1.
       -4    1    3    3    0  502 -0.16148949503E+03  0.18003141284E+01 -0.58238851316E+03  0.60436751344E+03  0.12699999809E+01 0. -1.
</event>
<event>
 5   0  0.4534223E-02  0.5001342E+03  0.7818609E-02  0.1013744E+00
        2   -1    0    0  501    0  0.00000000000E+00  0.00000000000E+00  0.19276463606E+04  0.19276463606E+04  0.25500000920E-02 0. -1.
       -2   -1    0    0    0  501  0.00000000000E+00  0.00000000000E+00 -0.32440371323E+02  0.32440371423E+02  0.25500000920E-02 0.  1.
    10030    2    1    2    0    0  0.00000000000E+00  0.00000000000E+00  0.18952059893E+04  0.19600867321E+04  0.50013423725E+03 0.  0.
        2    1    3    3  502    0  0.81570660812E+02 -0.23300005000E+03  0.79129107395E+03  0.82890551918E+03  0.25500000920E-02 0.  1.
       -2    1    3    3    0  502 -0.81570660812E+02  0.23300005000E+03  0.11039149154E+04  0.11311812129E+04  0.25500000920E-02 0. -1.
</event>
<event>
 5   0  0.2723308E-02  0.4996613E+03  0.7818609E-02  0.1013867E+00
       -1   -1    0    0    0  501  0.00000000000E+00  0.00000000000E+00  0.82137259710E+02  0.82137259865E+02  0.50400001928E-02 0.  1.
        1   -1    0    0  501    0  0.00000000000E+00  0.00000000000E+00 -0.75989085425E+03  0.75989085427E+03  0.50400001928E-02 0. -1.
    10030    2    1    2    0    0  0.00000000000E+00  0.00000000000E+00 -0.67775359454E+03  0.84202811413E+03  0.49966129536E+03 0.  0.
        4    1    3    3  502    0 -0.39244346259E+02 -0.21024970698E+03 -0.12130554651E+03  0.24588962262E+03  0.12699999809E+01 0. -1.
       -4    1    3    3    0  502  0.39244346259E+02  0.21024970698E+03 -0.55644804803E+03  0.59613849151E+03  0.12699999809E+01 0.  1.
</event>
<event>
 5   0  0.1805500E-02  0.5005848E+03  0.7818609E-02  0.1013626E+00
       -3   -1    0    0    0  501  0.00000000000E+00  0.00000000000E+00  0.11853784647E+03  0.11853788950E+03  0.10100000352E+00 0. -1.
        3   -1    0    0  501    0  0.00000000000E+00  0.00000000000E+00 -0.52849162453E+03  0.52849163418E+03  0.10100000352E+00 0.  1.
    10030    2    1    2    0    0  0.00000000000E+00  0.00000000000E+00 -0.40995377806E+03  0.64702952368E+03  0.50058476242E+03 0.  0.
        2    1    3    3  502    0  0.32793235202E+02 -0.28133820292E+02  0.11368091713E+03  0.12161520894E+03  0.25500000920E-02 0. -1.
       -2    1    3    3    0  502 -0.32793235202E+02  0.28133820292E+02 -0.52363469519E+03  0.52541431474E+03  0.25500000920E-02 0.  1.
</event>
<event>
 5   0  0.4631619E-02  0.4713825E+03  0.7818609E-02  0.1021531E+00
       -2   -1    0    0    0  501  0.00000000000E+00  0.00000000000E+00  0.52810917144E+02  0.52810917205E+02  0.25500000920E-02 0. -1.
        2   -1    0    0  501    0  0.00000000000E+00  0.00000000000E+00 -0.10518729589E+04  0.10518729589E+04  0.25500000920E-02 0.  1.
    10030    2    1    2    0    0  0.00000000000E+00  0.00000000000E+00 -0.99906204178E+03  0.11046838761E+04  0.47138254408E+03 0.  0.
        5    1    3    3  502    0  0.75098750853E+02  0.19680380987E+03 -0.25199816120E+03  0.32847636932E+03  0.46999998093E+01 0.  1.
       -5    1    3    3    0  502 -0.75098750853E+02 -0.19680380987E+03 -0.74706388058E+03  0.77620750680E+03  0.46999998093E+01 0. -1.
</event>
<event>
 5   0  0.2723308E-02  0.4999519E+03  0.7818609E-02  0.1013791E+00
       -1   -1    0    0    0  501  0.00000000000E+00  0.00000000000E+00  0.24735373725E+02  0.24735374239E+02  0.50400001928E-02 0. -1.
        1   -1    0    0  501    0  0.00000000000E+00  0.00000000000E+00 -0.25262592279E+04  0.25262592279E+04  0.50400001928E-02 0.  1.
    10030    2    1    2    0    0  0.00000000000E+00  0.00000000000E+00 -0.25015238542E+04  0.25509946021E+04  0.49995186485E+03 0.  0.
        4    1    3    3  502    0  0.20876040535E+03  0.12805961385E+03 -0.99532264754E+03  0.10250116863E+04  0.12699999809E+01 0.  1.
       -4    1    3    3    0  502 -0.20876040535E+03 -0.12805961385E+03 -0.15062012066E+04  0.15259829158E+04  0.12699999809E+01 0. -1.
</event>
<event>
 5   0  0.4519539E-02  0.4997570E+03  0.7818609E-02  0.1013842E+00
        2   -1    0    0  501    0  0.00000000000E+00  0.00000000000E+00  0.77689263647E+03  0.77689263647E+03  0.25500000920E-02 0. -1.
       -2   -1    0    0    0  501  0.00000000000E+00  0.00000000000E+00 -0.80370506138E+02  0.80370506178E+02  0.25500000920E-02 0.  1.
    10030    2    1    2    0    0  0.00000000000E+00  0.00000000000E+00  0.69652213033E+03  0.85726314265E+03  0.49975695864E+03 0.  0.
        4    1    3    3  502    0  0.20894439158E+03 -0.36979584506E+02  0.57461316794E+03  0.61254155297E+03  0.12699999809E+01 0. -1.
       -4    1    3    3    0  502 -0.20894439158E+03  0.36979584506E+02  0.12190896239E+03  0.24472158968E+03  0.12699999809E+01 0.  1.
</event>
<event>
 5   0  0.2719671E-02  0.4982720E+03  0.7818609E-02  0.1014231E+00
       -1   -1    0    0    0  501  0.00000000000E+00  0.00000000000E+00  0.11456278265E+03  0.11456278276E+03  0.50400001928E-02 0.  1.
        1   -1    0    0  501    0  0.00000000000E+00  0.00000000000E+00 -0.54178814669E+03  0.54178814671E+03  0.50400001928E-02 0. -1.
    10030    2    1    2    0    0  0.00000000000E+00  0.00000000000E+00 -0.42722536404E+03  0.65635092948E+03  0.49827204512E+03 0.  0.
        2    1    3    3  502    0 -0.91294457101E+01 -0.18392440704E+03  0.74240728368E+01  0.18430043719E+03  0.25500000920E-02 0.  1.
       -2    1    3    3    0  502  0.91294457101E+01  0.18392440704E+03 -0.43464943687E+03  0.47205049228E+03  0.25500000920E-02 0. -1.
</event>
<event>
 5   0  0.2719671E-02  0.4972993E+03  0.7818609E-02  0.1014486E+00
       -1   -1    0    0    0  501  0.00000000000E+00  0.00000000000E+00  0.48106524295E+02  0.48106524559E+02  0.50400001928E-02 0.  1.
        1   -1    0    0  501    0  0.00000000000E+00  0.00000000000E+00 -0.12852028874E+04  0.12852028874E+04  0.50400001928E-02 0. -1.
    10030    2    1    2    0    0  0.00000000000E+00  0.00000000000E+00 -0.12370963631E+04  0.13333094120E+04  0.49729928257E+03 0.  0.
        2    1    3    3  502    0 -0.17672788689E+00 -0.16381072521E+03 -0.11701278938E+03  0.20131065002E+03  0.25500000920E-02 0.  1.
       -2    1    3    3    0  502  0.17672788689E+00  0.16381072521E+03 -0.11200835738E+04  0.11319987620E+04  0.25500000920E-02 0. -1.
</event>
<event>
 5   0  0.4534223E-02  0.4997666E+03  0.7818609E-02  0.1013840E+00
        2   -1    0    0  501    0  0.00000000000E+00  0.00000000000E+00  0.10123188199E+04  0.10123188199E+04  0.25500000920E-02 0.  1.
       -2   -1    0    0    0  501  0.00000000000E+00  0.00000000000E+00 -0.61681825205E+02  0.61681825258E+02  0.25500000920E-02 0. -1.
    10030    2    1    2    0    0  0.00000000000E+00  0.00000000000E+00  0.95063699468E+03  0.10740006451E+04  0.49976663566E+03 0.  0.
        2    1    3    3  502    0 -0.22758985417E+03  0.90573067172E+02  0.58149432318E+03  0.63098040391E+03  0.25500000920E-02 0.  1.
       -2    1    3    3    0  502  0.22758985417E+03 -0.90573067172E+02  0.36914267150E+03  0.44302024124E+03  0.25500000920E-02 0. -1.
</event>
<event>
 5   0  0.2715483E-02  0.4981943E+03  0.7818609E-02  0.1014251E+00
        1   -1    0    0  501    0  0.00000000000E+00  0.00000000000E+00  0.51496317624E+03  0.51496317627E+03  0.50400001928E-02 0. -1.
       -1   -1    0    0    0  501  0.00000000000E+00  0.00000000000E+00 -0.12049289222E+03  0.12049289233E+03  0.50400001928E-02 0.  1.
    10030    2    1    2    0    0  0.00000000000E+00  0.00000000000E+00  0.39447028402E+03  0.63545606860E+03  0.49819434976E+03 0.  0.
        5    1    3    3  502    0  0.11990052586E+03 -0.66199896731E+02  0.46255753699E+03  0.48243147436E+03  0.46999998093E+01 0. -1.
       -5    1    3    3    0  502 -0.11990052586E+03  0.66199896731E+02 -0.68087252962E+02  0.15302459424E+03  0.46999998093E+01 0.  1.
</event>
<event>
 5   0  0.2723308E-02  0.5008815E+03  0.7818609E-02  0.1013549E+00
        1   -1    0    0  501    0  0.00000000000E+00  0.00000000000E+00  0.59706992237E+03  0.59706992239E+03  0.50400001928E-02 0.  1.
       -1   -1    0    0    0  501  0.00000000000E+00  0.00000000000E+00 -0.10504727583E+03  0.10504727595E+03  0.50400001928E-02 0. -1.
    10030    2    1    2    0    0  0.00000000000E+00  0.00000000000E+00  0.49202264654E+03  0.70211719834E+03  0.50088149846E+03 0.  0.
        4    1    3    3  502    0  0.10827258886E+03  0.72417391942E+01  0.56239878566E+03  0.57277343103E+03  0.12699999809E+01 0.  1.
       -4    1    3    3    0  502 -0.10827258886E+03 -0.72417391942E+01 -0.70376139120E+02  0.12934376731E+03  0.12699999809E+01 0. -1.
</event>
<event>
 5   0  0.2715483E-02  0.4990670E+03  0.7818609E-02  0.1014023E+00
        1   -1    0    0  501    0  0.00000000000E+00  0.00000000000E+00  0.32577083852E+03  0.32577083856E+03  0.50400001928E-02 0. -1.
       -1   -1    0    0    0  501  0.00000000000E+00  0.00000000000E+00 -0.19113734374E+03  0.19113734380E+03  0.50400001928E-02 0.  1.
    10030    2    1    2    0    0  0.00000000000E+00  0.00000000000E+00  0.13463349478E+03  0.51690818236E+03  0.49906702062E+03 0.  0.
        5    1    3    3  502    0  0.45647044601E+02 -0.47290084195E+01  0.32131583376E+03  0.32461049155E+03  0.46999998093E+01 0. -1.
       -5    1    3    3    0  502 -0.45647044601E+02  0.47290084195E+01 -0.18668233899E+03  0.19229769080E+03  0.46999998093E+01 0.  1.
</event>
<event>
 5   0  0.4534223E-02  0.5008181E+03  0.7818609E-02  0.1013566E+00
        2   -1    0    0  501    0  0.00000000000E+00  0.00000000000E+00  0.11048555094E+04  0.11048555094E+04  0.25500000920E-02 0.  1.
       -2   -1    0    0    0  501  0.00000000000E+00  0.00000000000E+00 -0.56753754144E+02  0.56753754202E+02  0.25500000920E-02 0. -1.
    10030    2    1    2    0    0  0.00000000000E+00  0.00000000000E+00  0.10481017552E+04  0.11616092636E+04  0.50081812259E+03 0.  0.
        2    1    3    3  502    0 -0.80449301749E+02  0.14823091743E+03  0.94736931625E+02  0.19344141556E+03  0.25500000920E-02 0. -1.
       -2    1    3    3    0  502  0.80449301749E+02 -0.14823091743E+03  0.95336482359E+03  0.96816784800E+03  0.25500000920E-02 0.  1.
</event>
<event>
 5   0  0.4534223E-02  0.4997342E+03  0.7818609E-02  0.1013848E+00
        2   -1    0    0  501    0  0.00000000000E+00  0.00000000000E+00  0.15941116398E+03  0.15941116400E+03  0.25500000920E-02 0. -1.
       -2   -1    0    0    0  501  0.00000000000E+00  0.00000000000E+00 -0.39165116574E+03  0.39165116575E+03  0.25500000920E-02 0.  1.
    10030    2    1    2    0    0  0.00000000000E+00  0.00000000000E+00 -0.23224000176E+03  0.55106232974E+03  0.49973420219E+03 0.  0.
        2    1    3    3  502    0  0.75950876679E+02  0.23704015095E+03 -0.92036448112E+02  0.26538137956E+03  0.25500000920E-02 0. -1.
       -2    1    3    3    0  502 -0.75950876679E+02 -0.23704015095E+03 -0.14020355365E+03  0.28568095018E+03  0.25500000920E-02 0.  1.
</event>
<event>
 5   0  0.2723308E-02  0.5000259E+03  0.7818609E-02  0.1013772E+00
       -1   -1    0    0    0  501  0.00000000000E+00  0.00000000000E+00  0.48561473240E+02  0.48561473502E+02  0.50400001928E-02 0.  1.
        1   -1    0    0  501    0  0.00000000000E+00  0.00000000000E+00 -0.12871618345E+04  0.12871618345E+04  0.50400001928E-02 0. -1.
    10030    2    1    2    0    0  0.00000000000E+00  0.00000000000E+00 -0.12386003613E+04  0.13357233080E+04  0.50002589998E+03 0.  0.
        4    1    3    3  502    0  0.16306219223E+02  0.14141400865E+02 -0.12846596843E+04  0.12848416203E+04  0.12699999809E+01 0. -1.
       -4    1    3    3    0  502 -0.16306219223E+02 -0.14141400865E+02  0.46059323026E+02  0.50881687681E+02  0.12699999809E+01 0.  1.
</event>
<event>
 5   0  0.4409622E-02  0.5017134E+03  0.7818609E-02  0.1013333E+00
       -2   -1    0    0    0  501  0.00000000000E+00  0.00000000000E+00  0.29086915105E+02  0.29086915217E+02  0.25500000920E-02 0. -1.
        2   -1    0    0  501    0  0.00000000000E+00  0.00000000000E+00 -0.21634843909E+04  0.21634843909E+04  0.25500000920E-02 0.  1.
    10030    2    1    2    0    0  0.00000000000E+00  0.00000000000E+00 -0.21343974758E+04  0.21925713061E+04  0.50171341195E+03 0.  0.
        3    1    3    3  502    0 -0.23363632043E+03 -0.35590433261E+01 -0.66832722447E+03  0.70799709476E+03  0.10100000352E+00 0. -1.
       -3    1    3    3    0  502  0.23363632043E+03  0.35590433261E+01 -0.14660702513E+04  0.14845742113E+04  0.10100000352E+00 0.  1.
</event>
<event>
 5   0  0.4409622E-02  0.4998477E+03  0.7818609E-02  0.1013819E+00
       -2   -1    0    0    0  501  0.00000000000E+00  0.00000000000E+00  0.47092815140E+02  0.47092815209E+02  0.25500000920E-02 0. -1.
        2   -1    0    0  501    0  0.00000000000E+00  0.00000000000E+00 -0.13263577097E+04  0.13263577097E+04  0.25500000920E-02 0.  1.
    10030    2    1    2    0    0  0.00000000000E+00  0.00000000000E+00 -0.12792648946E+04  0.13734505249E+04  0.49984765072E+03 0.  0.
        3    1    3    3  502    0  0.20668588822E+03  0.10646834948E+03 -0.38768803367E+03  0.45205816825E+03  0.10100000352E+00 0.  1.
       -3    1    3    3    0  502 -0.20668588822E+03 -0.10646834948E+03 -0.89157686091E+03  0.92139235667E+03  0.10100000352E+00 0. -1.
</event>
<event>
 5   0  0.4519539E-02  0.5025606E+03  0.7818609E-02  0.1013113E+00
        2   -1    0    0  501    0  0.00000000000E+00  0.00000000000E+00  0.13798140944E+03  0.13798140946E+03  0.25500000920E-02 0. -1.
       -2   -1    0    0    0  501  0.00000000000E+00  0.00000000000E+00 -0.45761093080E+03  0.45761093081E+03  0.25500000920E-02 0.  1.
    10030    2    1    2    0    0  0.00000000000E+00  0.00000000000E+00 -0.31962952136E+03  0.59559234027E+03  0.50256064794E+03 0.  0.
        4    1    3    3  502    0 -0.17222225169E+03 -0.90132116158E+02 -0.34852697901E+03  0.39907013211E+03  0.12699999809E+01 0.  1.
       -4    1    3    3    0  502  0.17222225169E+03  0.90132116158E+02  0.28897457649E+02  0.19652220816E+03  0.12699999809E+01 0. -1.
</event>
<event>
 5   0  0.2723308E-02  0.5018779E+03  0.7818609E-02  0.1013290E+00
        1   -1    0    0  501    0  0.00000000000E+00  0.00000000000E+00  0.33247784160E+03  0.33247784164E+03  0.50400001928E-02 0.  1.
       -1   -1    0    0    0  501  0.00000000000E+00  0.00000000000E+00 -0.18939714361E+03  0.18939714368E+03  0.50400001928E-02 0. -1.
    10030    2    1    2    0    0  0.00000000000E+00  0.00000000000E+00  0.14308069799E+03  0.52187498532E+03  0.50187788771E+03 0.  0.
        4    1    3    3  502    0  0.22773830524E+03  0.83695946150E+02  0.49659832619E+01  0.24268502419E+03  0.12699999809E+01 0. -1.
       -4    1    3    3    0  502 -0.22773830524E+03 -0.83695946150E+02  0.13811471473E+03  0.27918996114E+03  0.12699999809E+01 0.  1.
</event>
<event>
 5   0  0.2723308E-02  0.4997110E+03  0.7818609E-02  0.1013854E+00
        1   -1    0    0  501    0  0.00000000000E+00  0.00000000000E+00  0.42396274389E+03  0.42396274392E+03  0.50400001928E-02 0. -1.
       -1   -1    0    0    0  501  0.00000000000E+00  0.00000000000E+00 -0.14724827428E+03  0.14724827437E+03  0.50400001928E-02 0.  1.
    10030    2    1    2    0    0  0.00000000000E+00  0.00000000000E+00  0.27671446961E+03  0.57121101829E+03  0.49971104623E+03 0.  0.
        4    1    3    3  502    0 -0.96411442686E+02 -0.35051236907E+02 -0.12206100870E+03  0.15944986119E+03  0.12699999809E+01 0.  1.
       -4    1    3    3    0  502  0.96411442686E+02  0.35051236907E+02  0.39877547831E+03  0.41176115710E+03  0.12699999809E+01 0. -1.
</event>
<event>
 5   0  0.4631619E-02  0.4985027E+03  0.7818609E-02  0.1014170E+00
       -2   -1    0    0    0  501  0.00000000000E+00  0.00000000000E+00  0.90043380067E+02  0.90043380103E+02  0.25500000920E-02 0. -1.
        2   -1    0    0  501    0  0.00000000000E+00  0.00000000000E+00 -0.68995886146E+03  0.68995886147E+03  0.25500000920E-02 0.  1.
    10030    2    1    2    0    0  0.00000000000E+00  0.00000000000E+00 -0.59991548139E+03  0.78000224157E+03  0.49850267004E+03 0.  0.
        5    1    3    3  502    0  0.15990104430E+03  0.18916267335E+03 -0.25701342059E+03  0.35697177664E+03  0.46999998093E+01 0. -1.
       -5    1    3    3    0  502 -0.15990104430E+03 -0.18916267335E+03 -0.34290206080E+03  0.42303046493E+03  0.46999998093E+01 0.  1.
</event>
<event>
 5   0  0.2723308E-02  0.5019873E+03  0.7818609E-02  0.1013262E+00
        1   -1    0    0  501    0  0.00000000000E+00  0.00000000000E+00  0.25592956410E+03  0.25592956415E+03  0.50400001928E-02 0.  1.
       -1   -1    0    0    0  501  0.00000000000E+00  0.00000000000E+00 -0.24615288495E+03  0.24615288500E+03  0.50400001928E-02 0. -1.
    10030    2    1    2    0    0  0.00000000000E+00  0.00000000000E+00  0.97766791531E+01  0.50208244915E+03  0.50198725312E+03 0.  0.
        4    1    3    3  502    0  0.16856328609E+03 -0.71073063787E+02 -0.16699076743E+03  0.24769435020E+03  0.12699999809E+01 0. -1.
       -4    1    3    3    0  502 -0.16856328609E+03  0.71073063787E+02  0.17676744659E+03  0.25438809895E+03  0.12699999809E+01 0.  1.
</event>
<event>
 5   0  0.4409622E-02  0.5010899E+03  0.7818609E-02  0.1013495E+00
        2   -1    0    0  501    0  0.00000000000E+00  0.00000000000E+00  0.73595753054E+02  0.73595753098E+02  0.25500000920E-02 0. -1.
       -2   -1    0    0    0  501  0.00000000000E+00  0.00000000000E+00 -0.85294020909E+03  0.85294020909E+03  0.25500000920E-02 0.  1.
    10030    2    1    2    0    0  0.00000000000E+00  0.00000000000E+00 -0.77934445604E+03  0.92653596219E+03  0.50108992016E+03 0.  0.
        3    1    3    3  502    0 -0.83211627999E+02  0.18305717856E+03 -0.66603222815E+03  0.69572483411E+03  0.10100000352E+00 0.  1.
       -3    1    3    3    0  502  0.83211627999E+02 -0.18305717856E+03 -0.11331222788E+03  0.23081112808E+03  0.10100000352E+00 0. -1.
</event>
<event>
 5   0  0.4409622E-02  0.4989346E+03  0.7818609E-02  0.1014057E+00
        2   -1    0    0  501    0  0.00000000000E+00  0.00000000000E+00  0.16410988712E+04  0.16410988712E+04  0.25500000920E-02 0. -1.
       -2   -1    0    0    0  501  0.00000000000E+00  0.00000000000E+00 -0.37922118649E+02  0.37922118734E+02  0.25500000920E-02 0.  1.
    10030    2    1    2    0    0  0.00000000000E+00  0.00000000000E+00  0.16031767525E+04  0.16790209899E+04  0.49893464975E+03 0.  0.
        3    1    3    3  502    0 -0.10653836577E+03 -0.21133277680E+03  0.53614223415E+03  0.58605500712E+03  0.10100000352E+00 0.  1.
       -3    1    3    3    0  502  0.10653836577E+03  0.21133277680E+03  0.10670345184E+04  0.10929659828E+04  0.10100000352E+00 0. -1.
</event>
<event>
 5   0  0.2723308E-02  0.4993663E+03  0.7818609E-02  0.1013944E+00
       -1   -1    0    0    0  501  0.00000000000E+00  0.00000000000E+00  0.98880811738E+02  0.98880811867E+02  0.50400001928E-02 0. -1.
        1   -1    0    0  501    0  0.00000000000E+00  0.00000000000E+00 -0.63047293003E+03  0.63047293005E+03  0.50400001928E-02 0.  1.
    10030    2    1    2    0    0  0.00000000000E+00  0.00000000000E+00 -0.53159211829E+03  0.72935374191E+03  0.49936629904E+03 0.  0.
        4    1    3    3  502    0  0.13545415566E+03  0.15859709363E+03 -0.65325700895E+02  0.21856332376E+03  0.12699999809E+01 0.  1.
       -4    1    3    3    0  502 -0.13545415566E+03 -0.15859709363E+03 -0.46626641739E+03  0.51079041816E+03  0.12699999809E+01 0. -1.
</event>
<event>
 5   0  0.2779445E-02  0.5035181E+03  0.7818609E-02  0.1012865E+00
       -1   -1    0    0    0  501  0.00000000000E+00  0.00000000000E+00  0.55081395706E+02  0.55081395937E+02  0.50400001928E-02 0.  1.
        1   -1    0    0  501    0  0.00000000000E+00  0.00000000000E+00 -0.11507081474E+04  0.11507081474E+04  0.50400001928E-02 0. -1.
    10030    2    1    2    0    0  0.00000000000E+00  0.00000000000E+00 -0.10956267517E+04  0.12057895433E+04  0.50351806702E+03 0.  0.
        3    1    3    3  502    0 -0.17670971456E+03 -0.16895332962E+02 -0.97533010085E+03  0.99135290957E+03  0.10100000352E+00 0. -1.
       -3    1    3    3    0  502  0.17670971456E+03  0.16895332962E+02 -0.12029665084E+03  0.21443663377E+03  0.10100000352E+00 0.  1.
</event>
<event>
 5   0  0.2723308E-02  0.4993144E+03  0.7818609E-02  0.1013958E+00
        1   -1    0    0  501    0  0.00000000000E+00  0.00000000000E+00  0.13994347435E+04  0.13994347435E+04  0.50400001928E-02 0.  1.
       -1   -1    0    0    0  501  0.00000000000E+00  0.00000000000E+00 -0.44538490880E+02  0.44538491165E+02  0.50400001928E-02 0. -1.
    10030    2    1    2    0    0  0.00000000000E+00  0.00000000000E+00  0.13548962526E+04  0.14439732347E+04  0.49931437701E+03 0.  0.
        4    1    3    3  502    0 -0.22984745281E+03 -0.50662843073E+02  0.43669712788E+03  0.49608726009E+03  0.12699999809E+01 0. -1.
       -4    1    3    3    0  502  0.22984745281E+03  0.50662843073E+02  0.91819912474E+03  0.94788597458E+03  0.12699999809E+01 0.  1.
</event>
<event>
 5   0  0.4631619E-02  0.5004261E+03  0.7818609E-02  0.1013668E+00
        2   -1    0    0  501    0  0.00000000000E+00  0.00000000000E+00  0.41884910672E+03  0.41884910673E+03  0.25500000920E-02 0.  1.
       -2   -1    0    0    0  501  0.00000000000E+00  0.00000000000E+00 -0.14947283849E+03  0.14947283852E+03  0.25500000920E-02 0. -1.
    10030    2    1    2    0    0  0.00000000000E+00  0.00000000000E+00  0.26937626823E+03  0.56832194525E+03  0.50042607802E+03 0.  0.
        5    1    3    3  502    0  0.15438630656E+03  0.26666864101E+02 -0.86807206563E+02  0.17917542913E+03  0.46999998093E+01 0. -1.
       -5    1    3    3    0  502 -0.15438630656E+03 -0.26666864101E+02  0.35618347479E+03  0.38914651612E+03  0.46999998093E+01 0.  1.
</event>
<event>
 5   0  0.2723308E-02  0.5015742E+03  0.7818609E-02  0.1013369E+00
        1   -1    0    0  501    0  0.00000000000E+00  0.00000000000E+00  0.43058466520E+03  0.43058466523E+03  0.50400001928E-02 0.  1.
       -1   -1    0    0    0  501  0.00000000000E+00  0.00000000000E+00 -0.14606691995E+03  0.14606692004E+03  0.50400001928E-02 0. -1.
    10030    2    1    2    0    0  0.00000000000E+00  0.00000000000E+00  0.28451774525E+03  0.57665158527E+03  0.50157422524E+03 0.  0.
        4    1    3    3  502    0 -0.18706390049E+03 -0.39649816467E+02  0.32880383270E+03  0.38036638141E+03  0.12699999809E+01 0.  1.
       -4    1    3    3    0  502  0.18706390049E+03  0.39649816467E+02 -0.44286087450E+02  0.19628520385E+03  0.12699999809E+01 0. -1.
</event>
<event>
 5   0  0.2715483E-02  0.5152064E+03  0.7818609E-02  0.1009884E+00
        1   -1    0    0  501    0  0.00000000000E+00  0.00000000000E+00  0.22757899968E+03  0.22757899973E+03  0.50400001928E-02 0.  1.
       -1   -1    0    0    0  501  0.00000000000E+00  0.00000000000E+00 -0.29158840386E+03  0.29158840390E+03  0.50400001928E-02 0. -1.
    10030    2    1    2    0    0  0.00000000000E+00  0.00000000000E+00 -0.64009404179E+02  0.51916740363E+03  0.51520635591E+03 0.  0.
        5    1    3    3  502    0  0.20364403643E+03 -0.92778689819E+02 -0.16049396047E+03  0.27542545308E+03  0.46999998093E+01 0. -1.
       -5    1    3    3    0  502 -0.20364403643E+03  0.92778689819E+02  0.96484556295E+02  0.24374195055E+03  0.46999998093E+01 0.  1.
</event>
<event>
 5   0  0.2719671E-02  0.4989065E+03  0.7818609E-02  0.1014065E+00
        1   -1    0    0  501    0  0.00000000000E+00  0.00000000000E+00  0.12691611540E+03  0.12691611550E+03  0.50400001928E-02 0. -1.
       -1   -1    0    0    0  501  0.00000000000E+00  0.00000000000E+00 -0.49029968079E+03  0.49029968082E+03  0.50400001928E-02 0.  1.
    10030    2    1    2    0    0  0.00000000000E+00  0.00000000000E+00 -0.36338356539E+03  0.61721579632E+03  0.49890652795E+03 0.  0.
        2    1    3    3  502    0  0.94127334445E+02  0.21166816020E+02  0.10290069788E+03  0.14105510562E+03  0.25500000920E-02 0. -1.
       -2    1    3    3    0  502 -0.94127334445E+02 -0.21166816020E+02 -0.46628426327E+03  0.47616069070E+03  0.25500000920E-02 0.  1.
</event>
<event>
 5   0  0.2715483E-02  0.5021123E+03  0.7818609E-02  0.1013229E+00
        1   -1    0    0  501    0  0.00000000000E+00  0.00000000000E+00  0.34613042540E+03  0.34613042544E+03  0.50400001928E-02 0.  1.
       -1   -1    0    0    0  501  0.00000000000E+00  0.00000000000E+00 -0.18209664913E+03  0.18209664920E+03  0.50400001928E-02 0. -1.
    10030    2    1    2    0    0  0.00000000000E+00  0.00000000000E+00  0.16403377627E+03  0.52822707464E+03  0.50211230081E+03 0.  0.
        5    1    3    3  502    0  0.81514875619E+02 -0.20480161654E+03 -0.44306336846E+02  0.22488556772E+03  0.46999998093E+01 0. -1.
       -5    1    3    3    0  502 -0.81514875619E+02  0.20480161654E+03  0.20834011311E+03  0.30334150691E+03  0.46999998093E+01 0.  1.
</event>
<event>
 5   0  0.4534223E-02  0.4947852E+03  0.7818609E-02  0.1015149E+00
        2   -1    0    0  501    0  0.00000000000E+00  0.00000000000E+00  0.39965544274E+03  0.39965544275E+03  0.25500000920E-02 0.  1.
       -2   -1    0    0    0  501  0.00000000000E+00  0.00000000000E+00 -0.15313965127E+03  0.15313965129E+03  0.25500000920E-02 0. -1.
    10030    2    1    2    0    0  0.00000000000E+00  0.00000000000E+00  0.24651579147E+03  0.55279509404E+03  0.49478518627E+03 0.  0.
        2    1    3    3  502    0 -0.12259012305E+03 -0.20660084360E+03  0.57247402341E+02  0.24696054731E+03  0.25500000920E-02 0. -1.
       -2    1    3    3    0  502  0.12259012305E+03  0.20660084360E+03  0.18926838913E+03  0.30583454673E+03  0.25500000920E-02 0.  1.
</event>
<event>
 5   0  0.4519539E-02  0.5011821E+03  0.7818609E-02  0.1013471E+00
       -2   -1    0    0    0  501  0.00000000000E+00  0.00000000000E+00  0.11795879938E+03  0.11795879940E+03  0.25500000920E-02 0.  1.
        2   -1    0    0  501    0  0.00000000000E+00  0.00000000000E+00 -0.53235421629E+03  0.53235421630E+03  0.25500000920E-02 0. -1.
    10030    2    1    2    0    0  0.00000000000E+00  0.00000000000E+00 -0.41439541692E+03  0.65031301570E+03  0.50118205956E+03 0.  0.
        4    1    3    3  502    0  0.89880899115E+02  0.19184170589E+03 -0.33535929516E+02  0.21449495941E+03  0.12699999809E+01 0.  1.
       -4    1    3    3    0  502 -0.89880899115E+02 -0.19184170589E+03 -0.38085948740E+03  0.43581805629E+03  0.12699999809E+01 0. -1.
</event>
<event>
 5   0  0.4409622E-02  0.5024571E+03  0.7818609E-02  0.1013140E+00
        2   -1    0    0  501    0  0.00000000000E+00  0.00000000000E+00  0.39746437475E+03  0.39746437476E+03  0.25500000920E-02 0. -1.
       -2   -1    0    0    0  501  0.00000000000E+00  0.00000000000E+00 -0.15879608689E+03  0.15879608691E+03  0.25500000920E-02 0.  1.
    10030    2    1    2    0    0  0.00000000000E+00  0.00000000000E+00  0.23866828787E+03  0.55626046167E+03  0.50245711218E+03 0.  0.
        3    1    3    3  502    0  0.21001509548E+03 -0.13497879429E+03  0.15045397655E+03  0.29148246002E+03  0.10100000352E+00 0. -1.
       -3    1    3    3    0  502 -0.21001509548E+03  0.13497879429E+03  0.88214311315E+02  0.26477800165E+03  0.10100000352E+00 0.  1.
</event>
<event>
 5   0  0.2723308E-02  0.4998185E+03  0.7818609E-02  0.1013826E+00
        1   -1    0    0  501    0  0.00000000000E+00  0.00000000000E+00  0.68916223175E+02  0.68916223359E+02  0.50400001928E-02 0.  1.
       -1   -1    0    0    0  501  0.00000000000E+00  0.00000000000E+00 -0.90623979919E+03  0.90623979920E+03  0.50400001928E-02 0. -1.
    10030    2    1    2    0    0  0.00000000000E+00  0.00000000000E+00 -0.83732357601E+03  0.97515602256E+03  0.49981846444E+03 0.  0.
        4    1    3    3  502    0  0.96013341677E+02  0.13508613515E+03 -0.78359224437E+03  0.80092773958E+03  0.12699999809E+01 0. -1.
       -4    1    3    3    0  502 -0.96013341677E+02 -0.13508613515E+03 -0.53731331642E+02  0.17422828298E+03  0.12699999809E+01 0.  1.
</event>
<event>
 5   0  0.2779445E-02  0.5005273E+03  0.7818609E-02  0.1013641E+00
        1   -1    0    0  501    0  0.00000000000E+00  0.00000000000E+00  0.60518502735E+03  0.60518502737E+03  0.50400001928E-02 0. -1.
       -1   -1    0    0    0  501  0.00000000000E+00  0.00000000000E+00 -0.10349215622E+03  0.10349215634E+03  0.50400001928E-02 0.  1.
    10030    2    1    2    0    0  0.00000000000E+00  0.00000000000E+00  0.50169287113E+03  0.70867718371E+03  0.50052733568E+03 0.  0.
        3    1    3    3  502    0  0.10233884013E+03  0.50267930680E+02 -0.64581838623E+02  0.13103788435E+03  0.10100000352E+00 0.  1.
       -3    1    3    3    0  502 -0.10233884013E+03 -0.50267930680E+02  0.56627470975E+03  0.57763929935E+03  0.10100000352E+00 0. -1.
</event>
<event>
 5   0  0.2715483E-02  0.5017964E+03  0.7818609E-02  0.1013311E+00
       -1   -1    0    0    0  501  0.00000000000E+00  0.00000000000E+00  0.14400234305E+03  0.14400234314E+03  0.50400001928E-02 0.  1.
        1   -1    0    0  501    0  0.00000000000E+00  0.00000000000E+00 -0.43714498457E+03  0.43714498460E+03  0.50400001928E-02 0. -1.
    10030    2    1    2    0    0  0.00000000000E+00  0.00000000000E+00 -0.29314264152E+03  0.58114732774E+03  0.50179638128E+03 0.  0.
        5    1    3    3  502    0 -0.18410883508E+03  0.10870369000E+03  0.53838459886E+01  0.21392435853E+03  0.46999998093E+01 0. -1.
       -5    1    3    3    0  502  0.18410883508E+03 -0.10870369000E+03 -0.29852648750E+03  0.36722296921E+03  0.46999998093E+01 0.  1.
</event>
<event>
 5   0  0.2715483E-02  0.4993117E+03  0.7818609E-02  0.1013959E+00
       -1   -1    0    0    0  501  0.00000000000E+00  0.00000000000E+00  0.12437649049E+03  0.12437649059E+03  0.50400001928E-02 0.  1.
        1   -1    0    0  501    0  0.00000000000E+00  0.00000000000E+00 -0.50112401805E+03  0.50112401807E+03  0.50400001928E-02 0. -1.
    10030    2    1    2    0    0  0.00000000000E+00  0.00000000000E+00 -0.37674752756E+03  0.62550050867E+03  0.49931171308E+03 0.  0.
        5    1    3    3  502    0  0.12344002715E+03  0.11207301432E+03 -0.42108469746E+03  0.45291523851E+03  0.46999998093E+01 0. -1.
       -5    1    3    3    0  502 -0.12344002715E+03 -0.11207301432E+03  0.44337169902E+02  0.17258527016E+03  0.46999998093E+01 0.  1.
</event>
<event>
 5   0  0.4534223E-02  0.4999054E+03  0.7818609E-02  0.1013804E+00
       -2   -1    0    0    0  501  0.00000000000E+00  0.00000000000E+00  0.23779742432E+03  0.23779742434E+03  0.25500000920E-02 0.  1.
        2   -1    0    0  501    0  0.00000000000E+00  0.00000000000E+00 -0.26272929436E+03  0.26272929437E+03  0.25500000920E-02 0. -1.
    10030    2    1    2    0    0  0.00000000000E+00  0.00000000000E+00 -0.24931870037E+02  0.50052671871E+03  0.49990538905E+03 0.  0.
        2    1    3    3  502    0 -0.20864845945E+03  0.11408960381E+02 -0.14979327105E+03  0.25710380796E+03  0.25500000920E-02 0. -1.
       -2    1    3    3    0  502  0.20864845945E+03 -0.11408960381E+02  0.12486140102E+03  0.24342291075E+03  0.25500000920E-02 0.  1.
</event>
<event>
 5   0  0.4534223E-02  0.4977275E+03  0.7818609E-02  0.1014374E+00
        2   -1    0    0  501    0  0.00000000000E+00  0.00000000000E+00  0.41468728372E+03  0.41468728373E+03  0.25500000920E-02 0. -1.
       -2   -1    0    0    0  501  0.00000000000E+00  0.00000000000E+00 -0.14934908123E+03  0.14934908126E+03  0.25500000920E-02 0.  1.
    10030    2    1    2    0    0  0.00000000000E+00  0.00000000000E+00  0.26533820249E+03  0.56403636498E+03  0.49772749505E+03 0.  0.
        2    1    3    3  502    0  0.54964860093E+02 -0.13295289566E+03 -0.97449328991E+02  0.17376415061E+03  0.25500000920E-02 0.  1.
       -2    1    3    3    0  502 -0.54964860093E+02  0.13295289566E+03  0.36278753148E+03  0.39027221437E+03  0.25500000920E-02 0. -1.
</event>
<event>
 5   0  0.2643185E-02  0.4974095E+03  0.7818609E-02  0.1014457E+00
        1   -1    0    0  501    0  0.00000000000E+00  0.00000000000E+00  0.60793829992E+03  0.60793829994E+03  0.50400001928E-02 0.  1.
       -1   -1    0    0    0  501  0.00000000000E+00  0.00000000000E+00 -0.10174394483E+03  0.10174394496E+03  0.50400001928E-02 0. -1.
    10030    2    1    2    0    0  0.00000000000E+00  0.00000000000E+00  0.50619435508E+03  0.70968224489E+03  0.49740945266E+03 0.  0.
        1    1    3    3  502    0 -0.10899508482E+03  0.21722202408E+03  0.17775274553E+03  0.30110027372E+03  0.50400001928E-02 0.  1.
       -1    1    3    3    0  502  0.10899508482E+03 -0.21722202408E+03  0.32844160955E+03  0.40858197118E+03  0.50400001928E-02 0. -1.
</event>
<event>
 5   0  0.2723308E-02  0.4983680E+03  0.7818609E-02  0.1014206E+00
        1   -1    0    0  501    0  0.00000000000E+00  0.00000000000E+00  0.28573187888E+03  0.28573187893E+03  0.50400001928E-02 0. -1.
       -1   -1    0    0    0  501  0.00000000000E+00  0.00000000000E+00 -0.21731091271E+03  0.21731091277E+03  0.50400001928E-02 0.  1.
    10030    2    1    2    0    0  0.00000000000E+00  0.00000000000E+00  0.68420966170E+02  0.50304279170E+03  0.49836795811E+03 0.  0.
        4    1    3    3  502    0 -0.11176005411E+03  0.16502035877E+03 -0.11675520084E+03  0.23098791814E+03  0.12699999809E+01 0.  1.
       -4    1    3    3    0  502  0.11176005411E+03 -0.16502035877E+03  0.18517616701E+03  0.27205487356E+03  0.12699999809E+01 0. -1.
</event>
<event>
 5   0  0.4409622E-02  0.5008596E+03  0.7818609E-02  0.1013555E+00
       -2   -1    0    0    0  501  0.00000000000E+00  0.00000000000E+00  0.36118848877E+02  0.36118848967E+02  0.25500000920E-02 0. -1.
        2   -1    0    0  501    0  0.00000000000E+00  0.00000000000E+00 -0.17363532836E+04  0.17363532836E+04  0.25500000920E-02 0.  1.
    10030    2    1    2    0    0  0.00000000000E+00  0.00000000000E+00 -0.17002344347E+04  0.17724721325E+04  0.50085958882E+03 0.  0.
        3    1    3    3  502    0  0.12452599208E+03 -0.19801382556E+03 -0.53361420443E+03  0.58263224008E+03  0.10100000352E+00 0. -1.
       -3    1    3    3    0  502 -0.12452599208E+03  0.19801382556E+03 -0.11666202303E+04  0.11898398924E+04  0.10100000352E+00 0.  1.
</event>
<event>
 5   0  0.4631619E-02  0.5006185E+03  0.7818609E-02  0.1013618E+00
        2   -1    0    0  501    0  0.00000000000E+00  0.00000000000E+00  0.33590596470E+03  0.33590596471E+03  0.25500000920E-02 0.  1.
       -2   -1    0    0    0  501  0.00000000000E+00  0.00000000000E+00 -0.18652455568E+03  0.18652455570E+03  0.25500000920E-02 0. -1.
    10030    2    1    2    0    0  0.00000000000E+00  0.00000000000E+00  0.14938140902E+03  0.52243052041E+03  0.50061846080E+03 0.  0.
        5    1    3    3  502    0  0.19065153522E+03  0.16118904076E+03  0.92847209506E+02  0.26640684874E+03  0.46999998093E+01 0. -1.
       -5    1    3    3    0  502 -0.19065153522E+03 -0.16118904076E+03  0.56534199516E+02  0.25602367167E+03  0.46999998093E+01 0.  1.
</event>
<event>
 5   0  0.2719671E-02  0.5003754E+03  0.7818609E-02  0.1013681E+00
       -1   -1    0    0    0  501  0.00000000000E+00  0.00000000000E+00  0.66204655684E+02  0.66204655876E+02  0.50400001928E-02 0.  1.
        1   -1    0    0  501    0  0.00000000000E+00  0.00000000000E+00 -0.94546059619E+03  0.94546059620E+03  0.50400001928E-02 0. -1.
    10030    2    1    2    0    0  0.00000000000E+00  0.00000000000E+00 -0.87925594050E+03  0.10116652521E+04  0.50037543240E+03 0.  0.
        2    1    3    3  502    0 -0.14841065945E+03 -0.11057466540E+03 -0.77999822788E+03  0.80165436191E+03  0.25500000920E-02 0.  1.
       -2    1    3    3    0  502  0.14841065945E+03  0.11057466540E+03 -0.99257712622E+02  0.21001089017E+03  0.25500000920E-02 0. -1.
</event>
<event>
 5   0  0.2719671E-02  0.4990005E+03  0.7818609E-02  0.1014040E+00
       -1   -1    0    0    0  501  0.00000000000E+00  0.00000000000E+00  0.74604795016E+03  0.74604795018E+03  0.50400001928E-02 0.  1.
        1   -1    0    0  501    0  0.00000000000E+00  0.00000000000E+00 -0.83440168659E+02  0.83440168811E+02  0.50400001928E-02 0. -1.
    10030    2    1    2    0    0  0.00000000000E+00  0.00000000000E+00  0.66260778150E+03  0.82948811899E+03  0.49900046837E+03 0.  0.
        2    1    3    3  502    0  0.62778963961E+01 -0.79831851065E+02  0.72410570439E+03  0.72852014905E+03  0.25500000920E-02 0.  1.
       -2    1    3    3    0  502 -0.62778963961E+01  0.79831851065E+02 -0.61497922891E+02  0.10096796994E+03  0.25500000920E-02 0. -1.
</event>
<event>
 5   0  0.2779445E-02  0.4999124E+03  0.7818609E-02  0.1013802E+00
       -1   -1    0    0    0  501  0.00000000000E+00  0.00000000000E+00  0.33386183927E+03  0.33386183931E+03  0.50400001928E-02 0.  1.
        1   -1    0    0  501    0  0.00000000000E+00  0.00000000000E+00 -0.18713760073E+03  0.18713760080E+03  0.50400001928E-02 0. -1.
    10030    2    1    2    0    0  0.00000000000E+00  0.00000000000E+00  0.14672423854E+03  0.52099944010E+03  0.49991240674E+03 0.  0.
        3    1    3    3  502    0  0.46075541855E+02  0.22093641280E+03 -0.38604452052E+02  0.22896761338E+03  0.10100000352E+00 0. -1.
       -3    1    3    3    0  502 -0.46075541855E+02 -0.22093641280E+03  0.18532869059E+03  0.29203182672E+03  0.10100000352E+00 0.  1.
</event>
<event>
 5   0  0.4409622E-02  0.4995154E+03  0.7818609E-02  0.1013905E+00
       -2   -1    0    0    0  501  0.00000000000E+00  0.00000000000E+00  0.31727474368E+02  0.31727474471E+02  0.25500000920E-02 0.  1.
        2   -1    0    0  501    0  0.00000000000E+00  0.00000000000E+00 -0.19660848126E+04  0.19660848126E+04  0.25500000920E-02 0. -1.
    10030    2    1    2    0    0  0.00000000000E+00  0.00000000000E+00 -0.19343573382E+04  0.19978122871E+04  0.49951538755E+03 0.  0.
        3    1    3    3  502    0  0.36868614543E+01 -0.15725208495E+03 -0.17430930373E+04  0.17501757506E+04  0.10100000352E+00 0. -1.
       -3    1    3    3    0  502 -0.36868614543E+01  0.15725208495E+03 -0.19126430089E+03  0.24763653641E+03  0.10100000352E+00 0.  1.
</event>
<event>
 5   0  0.2779445E-02  0.4996216E+03  0.7818609E-02  0.1013878E+00
        1   -1    0    0  501    0  0.00000000000E+00  0.00000000000E+00  0.41149842552E+03  0.41149842555E+03  0.50400001928E-02 0. -1.
       -1   -1    0    0    0  501  0.00000000000E+00  0.00000000000E+00 -0.15165411624E+03  0.15165411633E+03  0.50400001928E-02 0.  1.
    10030    2    1    2    0    0  0.00000000000E+00  0.00000000000E+00  0.25984430928E+03  0.56315254188E+03  0.49962157716E+03 0.  0.
        3    1    3    3  502    0 -0.81937097966E+02  0.13807542607E+03  0.34563946413E+03  0.38111043108E+03  0.10100000352E+00 0. -1.
       -3    1    3    3    0  502  0.81937097966E+02 -0.13807542607E+03 -0.85795154855E+02  0.18204211080E+03  0.10100000352E+00 0.  1.
</event>
<event>
 5   0  0.2719671E-02  0.5005658E+03  0.7818609E-02  0.1013631E+00
       -1   -1    0    0    0  501  0.00000000000E+00  0.00000000000E+00  0.95384071597E+02  0.95384071730E+02  0.50400001928E-02 0.  1.
        1   -1    0    0  501    0  0.00000000000E+00  0.00000000000E+00 -0.65672952203E+03  0.65672952205E+03  0.50400001928E-02 0. -1.
    10030    2    1    2    0    0  0.00000000000E+00  0.00000000000E+00 -0.56134545043E+03  0.75211359378E+03  0.50056582307E+03 0.  0.
        2    1    3    3  502    0 -0.20767906509E+03  0.10124831473E+03 -0.13608840989E+03  0.26814524166E+03  0.25500000920E-02 0.  1.
       -2    1    3    3    0  502  0.20767906509E+03 -0.10124831473E+03 -0.42525704055E+03  0.48396835212E+03  0.25500000920E-02 0. -1.
</event>
<event>
 5   0  0.4409622E-02  0.5033653E+03  0.7818609E-02  0.1012904E+00
       -2   -1    0    0    0  501  0.00000000000E+00  0.00000000000E+00  0.22683462921E+03  0.22683462922E+03  0.25500000920E-02 0. -1.
        2   -1    0    0  501    0  0.00000000000E+00  0.00000000000E+00 -0.27925257288E+03  0.27925257289E+03  0.25500000920E-02 0.  1.
    10030    2    1    2    0    0  0.00000000000E+00  0.00000000000E+00 -0.52417943670E+02  0.50608720211E+03  0.50336529015E+03 0.  0.
        3    1    3    3  502    0 -0.18393829740E+03  0.16923095156E+03  0.34757810293E+01  0.24996900502E+03  0.10100000352E+00 0.  1.
       -3    1    3    3    0  502  0.18393829740E+03 -0.16923095156E+03 -0.55893724699E+02  0.25611819709E+03  0.10100000352E+00 0. -1.
</event>
<event>
 5   0  0.4631619E-02  0.4993590E+03  0.7818609E-02  0.1013946E+00
        2   -1    0    0  501    0  0.00000000000E+00  0.00000000000E+00  0.16685670425E+04  0.16685670425E+04  0.25500000920E-02 0. -1.
       -2   -1    0    0    0  501  0.00000000000E+00  0.00000000000E+00 -0.37361304939E+02  0.37361305026E+02  0.25500000920E-02 0.  1.
    10030    2    1    2    0    0  0.00000000000E+00  0.00000000000E+00  0.16312057376E+04  0.17059283476E+04  0.49935895772E+03 0.  0.
        5    1    3    3  502    0 -0.12289892804E+03 -0.21726414801E+03  0.82634944126E+03  0.86324002780E+03  0.46999998093E+01 0. -1.
       -5    1    3    3    0  502  0.12289892804E+03  0.21726414801E+03  0.80485629633E+03  0.84268831976E+03  0.46999998093E+01 0.  1.
</event>
<event>
 5   0  0.4631619E-02  0.4979293E+03  0.7818609E-02  0.1014321E+00
       -2   -1    0    0    0  501  0.00000000000E+00  0.00000000000E+00  0.86041766712E+02  0.86041766750E+02  0.25500000920E-02 0. -1.
        2   -1    0    0  501    0  0.00000000000E+00  0.00000000000E+00 -0.72038743758E+03  0.72038743758E+03  0.25500000920E-02 0.  1.
    10030    2    1    2    0    0  0.00000000000E+00  0.00000000000E+00 -0.63434567086E+03  0.80642920433E+03  0.49792934384E+03 0.  0.
        5    1    3    3  502    0 -0.11541147178E+03  0.10685819873E+03 -0.47064868743E+01  0.15742529489E+03  0.46999998093E+01 0. -1.
       -5    1    3    3    0  502  0.11541147178E+03 -0.10685819873E+03 -0.62963918399E+03  0.64900390944E+03  0.46999998093E+01 0.  1.
</event>
<event>
 5   0  0.4631619E-02  0.4986698E+03  0.7818609E-02  0.1014127E+00
       -2   -1    0    0    0  501  0.00000000000E+00  0.00000000000E+00  0.20885843809E+03  0.20885843810E+03  0.25500000920E-02 0. -1.
        2   -1    0    0  501    0  0.00000000000E+00  0.00000000000E+00 -0.29765564405E+03  0.29765564406E+03  0.25500000920E-02 0.  1.
    10030    2    1    2    0    0  0.00000000000E+00  0.00000000000E+00 -0.88797205960E+02  0.50651408216E+03  0.49866980221E+03 0.  0.
        5    1    3    3  502    0 -0.23815322621E+03  0.60589082993E+02 -0.86984325707E+02  0.26072276281E+03  0.46999998093E+01 0.  1.
       -5    1    3    3    0  502  0.23815322621E+03 -0.60589082993E+02 -0.18128802522E+01  0.24579131935E+03  0.46999998093E+01 0. -1.
</event>
<event>
 5   0  0.4534223E-02  0.4985310E+03  0.7818609E-02  0.1014163E+00
       -2   -1    0    0    0  501  0.00000000000E+00  0.00000000000E+00  0.92082076886E+02  0.92082076922E+02  0.25500000920E-02 0. -1.
        2   -1    0    0  501    0  0.00000000000E+00  0.00000000000E+00 -0.67475999180E+03  0.67475999181E+03  0.25500000920E-02 0.  1.
    10030    2    1    2    0    0  0.00000000000E+00  0.00000000000E+00 -0.58267791492E+03  0.76684206873E+03  0.49853104802E+03 0.  0.
        2    1    3    3  502    0  0.47390640465E+02 -0.23176958328E+03 -0.41216664646E+03  0.47523084601E+03  0.25500000920E-02 0.  1.
       -2    1    3    3    0  502 -0.47390640465E+02  0.23176958328E+03 -0.17051126845E+03  0.29161122272E+03  0.25500000920E-02 0. -1.
</event>
<event>
 5   0  0.4519539E-02  0.5083258E+03  0.7818609E-02  0.1011628E+00
       -2   -1    0    0    0  501  0.00000000000E+00  0.00000000000E+00  0.37721194850E+03  0.37721194851E+03  0.25500000920E-02 0. -1.
        2   -1    0    0  501    0  0.00000000000E+00  0.00000000000E+00 -0.17125324296E+03  0.17125324298E+03  0.25500000920E-02 0.  1.
    10030    2    1    2    0    0  0.00000000000E+00  0.00000000000E+00  0.20595870554E+03  0.54846519149E+03  0.50832575962E+03 0.  0.
        4    1    3    3  502    0  0.42829373746E+02  0.11180010350E+03 -0.13891931695E+03  0.18339522327E+03  0.12699999809E+01 0.  1.
       -4    1    3    3    0  502 -0.42829373746E+02 -0.11180010350E+03  0.34487802249E+03  0.36506996822E+03  0.12699999809E+01 0. -1.
</event>
<event>
 5   0  0.4409622E-02  0.5012499E+03  0.7818609E-02  0.1013453E+00
       -2   -1    0    0    0  501  0.00000000000E+00  0.00000000000E+00  0.11790203456E+04  0.11790203456E+04  0.25500000920E-02 0. -1.
        2   -1    0    0  501    0  0.00000000000E+00  0.00000000000E+00 -0.53275474847E+02  0.53275474908E+02  0.25500000920E-02 0.  1.
    10030    2    1    2    0    0  0.00000000000E+00  0.00000000000E+00  0.11257448708E+04  0.12322958205E+04  0.50124991295E+03 0.  0.
        3    1    3    3  502    0 -0.19317873378E+03  0.64016047077E+02  0.20325984572E+03  0.28762936664E+03  0.10100000352E+00 0.  1.
       -3    1    3    3    0  502  0.19317873378E+03 -0.64016047077E+02  0.92248502506E+03  0.94466645391E+03  0.10100000352E+00 0. -1.
</event>
<event>
 5   0  0.4631619E-02  0.5124170E+03  0.7818609E-02  0.1010588E+00
       -2   -1    0    0    0  501  0.00000000000E+00  0.00000000000E+00  0.23967306809E+03  0.23967306810E+03  0.25500000920E-02 0. -1.
        2   -1    0    0  501    0  0.00000000000E+00  0.00000000000E+00 -0.27388468490E+03  0.27388468491E+03  0.25500000920E-02 0.  1.
    10030    2    1    2    0    0  0.00000000000E+00  0.00000000000E+00 -0.34211616818E+02  0.51355775301E+03  0.51241695030E+03 0.  0.
        5    1    3    3  502    0 -0.22252071834E+03  0.49547333877E+02  0.99988733492E+02  0.24897840309E+03  0.46999998093E+01 0. -1.
       -5    1    3    3    0  502  0.22252071834E+03 -0.49547333877E+02 -0.13420035031E+03  0.26457934992E+03  0.46999998093E+01 0.  1.
</event>
<event>
 5   0  0.4451135E-02  0.4990006E+03  0.7818609E-02  0.1014040E+00
        2   -1    0    0  501    0  0.00000000000E+00  0.00000000000E+00  0.19114594402E+04  0.19114594402E+04  0.25500000920E-02 0.  1.
       -2   -1    0    0    0  501  0.00000000000E+00  0.00000000000E+00 -0.32566952069E+02  0.32566952168E+02  0.25500000920E-02 0. -1.
    10030    2    1    2    0    0  0.00000000000E+00  0.00000000000E+00  0.18788924881E+04  0.19440263923E+04  0.49900063354E+03 0.  0.
        1    1    3    3  502    0 -0.11771277564E+02 -0.24280242740E+03  0.11584058149E+04  0.11836366055E+04  0.50400001928E-02 0. -1.
       -1    1    3    3    0  502  0.11771277564E+02  0.24280242740E+03  0.72048667315E+03  0.76038978684E+03  0.50400001928E-02 0.  1.
</event>
<event>
 5   0  0.2715483E-02  0.5009006E+03  0.7818609E-02  0.1013544E+00
        1   -1    0    0  501    0  0.00000000000E+00  0.00000000000E+00  0.22481606510E+03  0.22481606515E+03  0.50400001928E-02 0. -1.
       -1   -1    0    0    0  501  0.00000000000E+00  0.00000000000E+00 -0.27900743495E+03  0.27900743499E+03  0.50400001928E-02 0.  1.
    10030    2    1    2    0    0  0.00000000000E+00  0.00000000000E+00 -0.54191369850E+02  0.50382350014E+03  0.50090060364E+03 0.  0.
        5    1    3    3  502    0  0.39235158671E+02 -0.24662176136E+03 -0.45685219880E+02  0.25391124466E+03  0.46999998093E+01 0. -1.
       -5    1    3    3    0  502 -0.39235158671E+02  0.24662176136E+03 -0.85061499707E+01  0.24991225548E+03  0.46999998093E+01 0.  1.
</event>
<event>
 5   0  0.4451135E-02  0.4996263E+03  0.7818609E-02  0.1013876E+00
        2   -1    0    0  501    0  0.00000000000E+00  0.00000000000E+00  0.88770375482E+03  0.88770375483E+03  0.25500000920E-02 0. -1.
       -2   -1    0    0    0  501  0.00000000000E+00  0.00000000000E+00 -0.70301172210E+02  0.70301172256E+02  0.25500000920E-02 0.  1.
    10030    2    1    2    0    0  0.00000000000E+00  0.00000000000E+00  0.81740258261E+03  0.95800492708E+03  0.49962631861E+03 0.  0.
        1    1    3    3  502    0 -0.28519014699E+01 -0.88350069997E+02 -0.39310976570E+02  0.96743067528E+02  0.50400001928E-02 0.  1.
       -1    1    3    3    0  502  0.28519014699E+01  0.88350069997E+02  0.85671355918E+03  0.86126185955E+03  0.50400001928E-02 0. -1.
</event>
<event>
 5   0  0.2719671E-02  0.4999953E+03  0.7818609E-02  0.1013780E+00
        1   -1    0    0  501    0  0.00000000000E+00  0.00000000000E+00  0.19809601584E+04  0.19809601584E+04  0.50400001928E-02 0. -1.
       -1   -1    0    0    0  501  0.00000000000E+00  0.00000000000E+00 -0.31549761945E+02  0.31549762347E+02  0.50400001928E-02 0.  1.
    10030    2    1    2    0    0  0.00000000000E+00  0.00000000000E+00  0.19494103965E+04  0.20125099208E+04  0.49999528731E+03 0.  0.
        2    1    3    3  502    0 -0.37597714003E+02 -0.24569997610E+03  0.86694518698E+03  0.90187361842E+03  0.25500000920E-02 0. -1.
       -2    1    3    3    0  502  0.37597714003E+02  0.24569997610E+03  0.10824652095E+04  0.11106363024E+04  0.25500000920E-02 0.  1.
</event>
<event>
 5   0  0.4409622E-02  0.5010171E+03  0.7818609E-02  0.1013514E+00
        2   -1    0    0  501    0  0.00000000000E+00  0.00000000000E+00  0.73022181155E+03  0.73022181155E+03  0.25500000920E-02 0.  1.
       -2   -1    0    0    0  501  0.00000000000E+00  0.00000000000E+00 -0.85938996749E+02  0.85938996787E+02  0.25500000920E-02 0. -1.
    10030    2    1    2    0    0  0.00000000000E+00  0.00000000000E+00  0.64428281480E+03  0.81616080834E+03  0.50101708516E+03 0.  0.
        3    1    3    3  502    0  0.23586065182E+03 -0.83074813327E+02  0.34645939256E+03  0.42727718472E+03  0.10100000352E+00 0.  1.
       -3    1    3    3    0  502 -0.23586065182E+03  0.83074813327E+02  0.29782342224E+03  0.38888362362E+03  0.10100000352E+00 0. -1.
</event>
<event>
 5   0  0.2723308E-02  0.5002851E+03  0.7818609E-02  0.1013705E+00
       -1   -1    0    0    0  501  0.00000000000E+00  0.00000000000E+00  0.14255727534E+03  0.14255727543E+03  0.50400001928E-02 0.  1.
        1   -1    0    0  501    0  0.00000000000E+00  0.00000000000E+00 -0.43892032642E+03  0.43892032645E+03  0.50400001928E-02 0. -1.
    10030    2    1    2    0    0  0.00000000000E+00  0.00000000000E+00 -0.29636305108E+03  0.58147760187E+03  0.50028506217E+03 0.  0.
        4    1    3    3  502    0 -0.18178655549E+03 -0.26130117895E+02 -0.34556788399E+03  0.39134116849E+03  0.12699999809E+01 0. -1.
       -4    1    3    3    0  502  0.18178655549E+03  0.26130117895E+02  0.49204832903E+02  0.19013643338E+03  0.12699999809E+01 0.  1.
</event>
<event>
 5   0  0.2643185E-02  0.4996892E+03  0.7818609E-02  0.1013860E+00
       -1   -1    0    0    0  501  0.00000000000E+00  0.00000000000E+00  0.29303855807E+03  0.29303855811E+03  0.50400001928E-02 0. -1.
        1   -1    0    0  501    0  0.00000000000E+00  0.00000000000E+00 -0.21301742368E+03  0.21301742374E+03  0.50400001928E-02 0.  1.
    10030    2    1    2    0    0  0.00000000000E+00  0.00000000000E+00  0.80021134389E+02  0.50605598185E+03  0.49968917820E+03 0.  0.
        1    1    3    3  502    0 -0.21990308763E+01  0.23562676335E+03 -0.44098889998E+02  0.23972801144E+03  0.50400001928E-02 0.  1.
       -1    1    3    3    0  502  0.21990308763E+01 -0.23562676335E+03  0.12412002439E+03  0.26632797041E+03  0.50400001928E-02 0. -1.
</event>
<event>
 5   0  0.2715483E-02  0.5009568E+03  0.7818609E-02  0.1013529E+00
        1   -1    0    0  501    0  0.00000000000E+00  0.00000000000E+00  0.19609049318E+03  0.19609049325E+03  0.50400001928E-02 0. -1.
       -1   -1    0    0    0  501  0.00000000000E+00  0.00000000000E+00 -0.31995137259E+03  0.31995137263E+03  0.50400001928E-02 0.  1.
    10030    2    1    2    0    0  0.00000000000E+00  0.00000000000E+00 -0.12386087941E+03  0.51604186588E+03  0.50095677447E+03 0.  0.
        5    1    3    3  502    0  0.21878962508E+03 -0.37275670567E+02  0.57575745310E+02  0.22933694013E+03  0.46999998093E+01 0. -1.
       -5    1    3    3    0  502 -0.21878962508E+03  0.37275670567E+02 -0.18143662472E+03  0.28670492575E+03  0.46999998093E+01 0.  1.
</event>
<event>
 5   0  0.4519539E-02  0.5009700E+03  0.7818609E-02  0.1013526E+00
       -2   -1    0    0    0  501  0.00000000000E+00  0.00000000000E+00  0.59282086890E+02  0.59282086945E+02  0.25500000920E-02 0. -1.
        2   -1    0    0  501    0  0.00000000000E+00  0.00000000000E+00 -0.10583757998E+04  0.10583757998E+04  0.25500000920E-02 0.  1.
    10030    2    1    2    0    0  0.00000000000E+00  0.00000000000E+00 -0.99909371294E+03  0.11176578868E+04  0.50096996381E+03 0.  0.
        4    1    3    3  502    0 -0.18712719786E+03 -0.12955775925E+03 -0.73288847476E+03  0.76741705122E+03  0.12699999809E+01 0. -1.
       -4    1    3    3    0  502  0.18712719786E+03  0.12955775925E+03 -0.26620523817E+03  0.35024083556E+03  0.12699999809E+01 0.  1.
</event>
<event>
 5   0  0.2719671E-02  0.4957652E+03  0.7818609E-02  0.1014890E+00
       -1   -1    0    0    0  501  0.00000000000E+00  0.00000000000E+00  0.74337609414E+02  0.74337609585E+02  0.50400001928E-02 0.  1.
        1   -1    0    0  501    0  0.00000000000E+00  0.00000000000E+00 -0.82657727340E+03  0.82657727342E+03  0.50400001928E-02 0. -1.
    10030    2    1    2    0    0  0.00000000000E+00  0.00000000000E+00 -0.75223966399E+03  0.90091488300E+03  0.49576518064E+03 0.  0.
        2    1    3    3  502    0 -0.13444482834E+03  0.20266476150E+03 -0.46322067876E+03  0.52318430277E+03  0.25500000920E-02 0. -1.
       -2    1    3    3    0  502  0.13444482834E+03 -0.20266476150E+03 -0.28901898522E+03  0.37773058024E+03  0.25500000920E-02 0.  1.
</event>
<event>
 5   0  0.4534223E-02  0.4955186E+03  0.7818609E-02  0.1014955E+00
       -2   -1    0    0    0  501  0.00000000000E+00  0.00000000000E+00  0.11901728698E+03  0.11901728700E+03  0.25500000920E-02 0. -1.
        2   -1    0    0  501    0  0.00000000000E+00  0.00000000000E+00 -0.51576264024E+03  0.51576264025E+03  0.25500000920E-02 0.  1.
    10030    2    1    2    0    0  0.00000000000E+00  0.00000000000E+00 -0.39674535327E+03  0.63477992725E+03  0.49551859774E+03 0.  0.
        2    1    3    3  502    0 -0.13722486226E+03  0.18931946138E+03 -0.30332547360E+03  0.38298676769E+03  0.25500000920E-02 0. -1.
       -2    1    3    3    0  502  0.13722486226E+03 -0.18931946138E+03 -0.93419879665E+02  0.25179315956E+03  0.25500000920E-02 0.  1.
</event>
<event>
 5   0  0.1805500E-02  0.4982883E+03  0.7818609E-02  0.1014227E+00
        3   -1    0    0  501    0  0.00000000000E+00  0.00000000000E+00  0.17424105461E+03  0.17424108388E+03  0.10100000352E+00 0. -1.
       -3   -1    0    0    0  501  0.00000000000E+00  0.00000000000E+00 -0.35624668707E+03  0.35624670139E+03  0.10100000352E+00 0.  1.
    10030    2    1    2    0    0  0.00000000000E+00  0.00000000000E+00 -0.18200563246E+03  0.53048778528E+03  0.49828831020E+03 0.  0.
        1    1    3    3  502    0 -0.17228759055E+02 -0.20615134954E+02  0.17269437189E+03  0.17477173695E+03  0.50400001928E-02 0. -1.
       -1    1    3    3    0  502  0.17228759055E+02  0.20615134954E+02 -0.35470000435E+03  0.35571604833E+03  0.50400001928E-02 0.  1.
</event>
<event>
 5   0  0.1805500E-02  0.5004751E+03  0.7818609E-02  0.1013655E+00
        3   -1    0    0  501    0  0.00000000000E+00  0.00000000000E+00  0.22860913591E+02  0.22861136700E+02  0.10100000352E+00 0. -1.
       -3   -1    0    0    0  501  0.00000000000E+00  0.00000000000E+00 -0.27391080867E+04  0.27391080885E+04  0.10100000352E+00 0.  1.
    10030    2    1    2    0    0  0.00000000000E+00  0.00000000000E+00 -0.27162471731E+04  0.27619692252E+04  0.50047507018E+03 0.  0.
        5    1    3    3  502    0  0.28046260509E+02  0.16030214312E+03 -0.30937748453E+03  0.34959961063E+03  0.46999998093E+01 0. -1.
       -5    1    3    3    0  502 -0.28046260509E+02 -0.16030214312E+03 -0.24068696886E+04  0.24123696146E+04  0.46999998093E+01 0.  1.
</event>
<event>
 5   0  0.4451135E-02  0.5000058E+03  0.7818609E-02  0.1013777E+00
       -2   -1    0    0    0  501  0.00000000000E+00  0.00000000000E+00  0.25604765537E+02  0.25604765664E+02  0.25500000920E-02 0.  1.
        2   -1    0    0  501    0  0.00000000000E+00  0.00000000000E+00 -0.24410088369E+04  0.24410088369E+04  0.25500000920E-02 0. -1.
    10030    2    1    2    0    0  0.00000000000E+00  0.00000000000E+00 -0.24154040714E+04  0.24666136026E+04  0.50000583637E+03 0.  0.
        1    1    3    3  502    0  0.17691959685E+03  0.10725894403E+03 -0.51536135010E+03  0.55533984732E+03  0.50400001928E-02 0.  1.
       -1    1    3    3    0  502 -0.17691959685E+03 -0.10725894403E+03 -0.19000427213E+04  0.19112737552E+04  0.50400001928E-02 0. -1.
</event>
<event>
 5   0  0.4631619E-02  0.5001588E+03  0.7818609E-02  0.1013737E+00
        2   -1    0    0  501    0  0.00000000000E+00  0.00000000000E+00  0.12803069227E+03  0.12803069229E+03  0.25500000920E-02 0. -1.
       -2   -1    0    0    0  501  0.00000000000E+00  0.00000000000E+00 -0.48847431443E+03  0.48847431444E+03  0.25500000920E-02 0.  1.
    10030    2    1    2    0    0  0.00000000000E+00  0.00000000000E+00 -0.36044362217E+03  0.61650500673E+03  0.50015879335E+03 0.  0.
        5    1    3    3  502    0  0.96184763233E+01  0.17800221683E+02 -0.48740917802E+03  0.48785157558E+03  0.46999998093E+01 0.  1.
       -5    1    3    3    0  502 -0.96184763233E+01 -0.17800221683E+02  0.12696555585E+03  0.12865343116E+03  0.46999998093E+01 0. -1.
</event>
<event>
 5   0  0.2719671E-02  0.4997367E+03  0.7818609E-02  0.1013848E+00
       -1   -1    0    0    0  501  0.00000000000E+00  0.00000000000E+00  0.16459877886E+03  0.16459877894E+03  0.50400001928E-02 0. -1.
        1   -1    0    0  501    0  0.00000000000E+00  0.00000000000E+00 -0.37931140795E+03  0.37931140799E+03  0.50400001928E-02 0.  1.
    10030    2    1    2    0    0  0.00000000000E+00  0.00000000000E+00 -0.21471262909E+03  0.54391018692E+03  0.49973670902E+03 0.  0.
        2    1    3    3  502    0 -0.57856617490E+02 -0.14095043399E+03  0.10818896962E+03  0.18686697457E+03  0.25500000920E-02 0. -1.
       -2    1    3    3    0  502  0.57856617490E+02  0.14095043399E+03 -0.32290159871E+03  0.35704321235E+03  0.25500000920E-02 0.  1.
</event>
<event>
 5   0  0.2723308E-02  0.5008476E+03  0.7818609E-02  0.1013558E+00
        1   -1    0    0  501    0  0.00000000000E+00  0.00000000000E+00  0.12164500796E+04  0.12164500796E+04  0.50400001928E-02 0.  1.
       -1   -1    0    0    0  501  0.00000000000E+00  0.00000000000E+00 -0.51553357512E+02  0.51553357758E+02  0.50400001928E-02 0. -1.
    10030    2    1    2    0    0  0.00000000000E+00  0.00000000000E+00  0.11648967221E+04  0.12680034374E+04  0.50084762557E+03 0.  0.
        4    1    3    3  502    0 -0.13212111294E+03 -0.73852741804E+02  0.77371176733E+02  0.16999449357E+03  0.12699999809E+01 0. -1.
       -4    1    3    3    0  502  0.13212111294E+03  0.73852741804E+02  0.10875255453E+04  0.10980089438E+04  0.12699999809E+01 0.  1.
</event>
<event>
 5   0  0.4519539E-02  0.4993596E+03  0.7818609E-02  0.1013946E+00
        2   -1    0    0  501    0  0.00000000000E+00  0.00000000000E+00  0.15908489724E+03  0.15908489726E+03  0.25500000920E-02 0. -1.
       -2   -1    0    0    0  501  0.00000000000E+00  0.00000000000E+00 -0.39186629636E+03  0.39186629637E+03  0.25500000920E-02 0.  1.
    10030    2    1    2    0    0  0.00000000000E+00  0.00000000000E+00 -0.23278139912E+03  0.55095119363E+03  0.49935962790E+03 0.  0.
        4    1    3    3  502    0  0.24952479931E+03 -0.41320882440E+01 -0.10793776441E+03  0.27190416237E+03  0.12699999809E+01 0.  1.
       -4    1    3    3    0  502 -0.24952479931E+03  0.41320882440E+01 -0.12484363471E+03  0.27904703126E+03  0.12699999809E+01 0. -1.
</event>
<event>
 5   0  0.4409622E-02  0.4988910E+03  0.7818609E-02  0.1014069E+00
       -2   -1    0    0    0  501  0.00000000000E+00  0.00000000000E+00  0.38968799412E+03  0.38968799412E+03  0.25500000920E-02 0. -1.
        2   -1    0    0  501    0  0.00000000000E+00  0.00000000000E+00 -0.15967402339E+03  0.15967402341E+03  0.25500000920E-02 0.  1.
    10030    2    1    2    0    0  0.00000000000E+00  0.00000000000E+00  0.23001397073E+03  0.54936201753E+03  0.49889096963E+03 0.  0.
        3    1    3    3  502    0  0.18183990518E+03  0.14906582506E+02  0.30231887624E+03  0.35310716567E+03  0.10100000352E+00 0. -1.
       -3    1    3    3    0  502 -0.18183990518E+03 -0.14906582506E+02 -0.72304905511E+02  0.19625485186E+03  0.10100000352E+00 0.  1.
</event>
<event>
 5   0  0.2643185E-02  0.4992911E+03  0.7818609E-02  0.1013964E+00
        1   -1    0    0  501    0  0.00000000000E+00  0.00000000000E+00  0.33888102783E+03  0.33888102787E+03  0.50400001928E-02 0.  1.
       -1   -1    0    0    0  501  0.00000000000E+00  0.00000000000E+00 -0.18390788573E+03  0.18390788580E+03  0.50400001928E-02 0. -1.
    10030    2    1    2    0    0  0.00000000000E+00  0.00000000000E+00  0.15497314210E+03  0.52278891367E+03  0.49929107090E+03 0.  0.
        1    1    3    3  502    0 -0.35345083054E+02  0.10533703381E+03  0.31156469248E+03  0.33078349900E+03  0.50400001928E-02 0.  1.
       -1    1    3    3    0  502  0.35345083054E+02 -0.10533703381E+03 -0.15659155038E+03  0.19200541467E+03  0.50400001928E-02 0. -1.
</event>
<event>
 5   0  0.2643185E-02  0.5002102E+03  0.7818609E-02  0.1013724E+00
       -1   -1    0    0    0  501  0.00000000000E+00  0.00000000000E+00  0.11340843681E+03  0.11340843693E+03  0.50400001928E-02 0. -1.
        1   -1    0    0  501    0  0.00000000000E+00  0.00000000000E+00 -0.55156876513E+03  0.55156876515E+03  0.50400001928E-02 0.  1.
    10030    2    1    2    0    0  0.00000000000E+00  0.00000000000E+00 -0.43816032832E+03  0.66497720208E+03  0.50021016181E+03 0.  0.
        1    1    3    3  502    0  0.19003526642E+03 -0.15519172826E+03 -0.15457122982E+03  0.28998299970E+03  0.50400001928E-02 0.  1.
       -1    1    3    3    0  502 -0.19003526642E+03  0.15519172826E+03 -0.28358909850E+03  0.37499420238E+03  0.50400001928E-02 0. -1.
</event>
<event>
 5   0  0.2719671E-02  0.4969193E+03  0.7818609E-02  0.1014586E+00
        1   -1    0    0  501    0  0.00000000000E+00  0.00000000000E+00  0.65768783627E+03  0.65768783629E+03  0.50400001928E-02 0. -1.
       -1   -1    0    0    0  501  0.00000000000E+00  0.00000000000E+00 -0.93862450693E+02  0.93862450828E+02  0.50400001928E-02 0.  1.
    10030    2    1    2    0    0  0.00000000000E+00  0.00000000000E+00  0.56382538558E+03  0.75155028712E+03  0.49691927780E+03 0.  0.
        2    1    3    3  502    0  0.16771740354E+02 -0.16732773158E+03  0.52915359872E+01  0.16824940235E+03  0.25500000920E-02 0.  1.
       -2    1    3    3    0  502 -0.16771740354E+02  0.16732773158E+03  0.55853384959E+03  0.58330088478E+03  0.25500000920E-02 0. -1.
</event>
<event>
 5   0  0.2719671E-02  0.5018771E+03  0.7818609E-02  0.1013290E+00
        1   -1    0    0  501    0  0.00000000000E+00  0.00000000000E+00  0.25218910086E+03  0.25218910091E+03  0.50400001928E-02 0. -1.
       -1   -1    0    0    0  501  0.00000000000E+00  0.00000000000E+00 -0.24969418384E+03  0.24969418389E+03  0.50400001928E-02 0.  1.
    10030    2    1    2    0    0  0.00000000000E+00  0.00000000000E+00  0.24949170161E+01  0.50188328481E+03  0.50187708351E+03 0.  0.
        2    1    3    3  502    0  0.20404900241E+02  0.20970089047E+03 -0.13506023555E+03  0.25026404186E+03  0.25500000920E-02 0.  1.
       -2    1    3    3    0  502 -0.20404900241E+02 -0.20970089047E+03  0.13755515256E+03  0.25161924294E+03  0.25500000920E-02 0. -1.
</event>
<event>
 5   0  0.4631619E-02  0.5022296E+03  0.7818609E-02  0.1013199E+00
       -2   -1    0    0    0  501  0.00000000000E+00  0.00000000000E+00  0.10807784805E+03  0.10807784808E+03  0.25500000920E-02 0.  1.
        2   -1    0    0  501    0  0.00000000000E+00  0.00000000000E+00 -0.58345586194E+03  0.58345586194E+03  0.25500000920E-02 0. -1.
    10030    2    1    2    0    0  0.00000000000E+00  0.00000000000E+00 -0.47537801389E+03  0.69153371002E+03  0.50222964470E+03 0.  0.
        5    1    3    3  502    0 -0.11092348989E+03 -0.71394262148E+02  0.56456321413E+02  0.14356380987E+03  0.46999998093E+01 0.  1.
       -5    1    3    3    0  502  0.11092348989E+03  0.71394262148E+02 -0.53183433530E+03  0.54796990016E+03  0.46999998093E+01 0. -1.
</event>
<event>
 5   0  0.2715483E-02  0.5001133E+03  0.7818609E-02  0.1013749E+00
        1   -1    0    0  501    0  0.00000000000E+00  0.00000000000E+00  0.68930460089E+03  0.68930460091E+03  0.50400001928E-02 0. -1.
       -1   -1    0    0    0  501  0.00000000000E+00  0.00000000000E+00 -0.90712189627E+02  0.90712189767E+02  0.50400001928E-02 0.  1.
    10030    2    1    2    0    0  0.00000000000E+00  0.00000000000E+00  0.59859241126E+03  0.78001679068E+03  0.50011330608E+03 0.  0.
        5    1    3    3  502    0 -0.18249413353E+03  0.15708199471E+03  0.19435189117E+03  0.30947311585E+03  0.46999998093E+01 0.  1.
       -5    1    3    3    0  502  0.18249413353E+03 -0.15708199471E+03  0.40424052009E+03  0.47054367482E+03  0.46999998093E+01 0. -1.
</event>
<event>
 5   0  0.2779445E-02  0.4995065E+03  0.7818609E-02  0.1013908E+00
        1   -1    0    0  501    0  0.00000000000E+00  0.00000000000E+00  0.19569129314E+04  0.19569129314E+04  0.50400001928E-02 0.  1.
       -1   -1    0    0    0  501  0.00000000000E+00  0.00000000000E+00 -0.31875046074E+02  0.31875046472E+02  0.50400001928E-02 0. -1.
    10030    2    1    2    0    0  0.00000000000E+00  0.00000000000E+00  0.19250378854E+04  0.19887879779E+04  0.49950651749E+03 0.  0.
        3    1    3    3  502    0  0.52627539604E+02 -0.47730427449E+02  0.92095761489E+01  0.71642711584E+02  0.10100000352E+00 0. -1.
       -3    1    3    3    0  502 -0.52627539604E+02  0.47730427449E+02  0.19158283092E+04  0.19171452663E+04  0.10100000352E+00 0.  1.
</event>
<event>
 5   0  0.2779445E-02  0.4970810E+03  0.7818609E-02  0.1014544E+00
       -1   -1    0    0    0  501  0.00000000000E+00  0.00000000000E+00  0.16194178593E+03  0.16194178600E+03  0.50400001928E-02 0. -1.
        1   -1    0    0  501    0  0.00000000000E+00  0.00000000000E+00 -0.38144810885E+03  0.38144810888E+03  0.50400001928E-02 0.  1.
    10030    2    1    2    0    0  0.00000000000E+00  0.00000000000E+00 -0.21950632292E+03  0.54338989488E+03  0.49708103168E+03 0.  0.
        3    1    3    3  502    0 -0.37220484300E+02  0.13965629755E+03  0.11127949635E+03  0.18240718847E+03  0.10100000352E+00 0. -1.
       -3    1    3    3    0  502  0.37220484300E+02 -0.13965629755E+03 -0.33078581927E+03  0.36098270641E+03  0.10100000352E+00 0.  1.
</event>
<event>
 5   0  0.2723308E-02  0.4992199E+03  0.7818609E-02  0.1013983E+00
       -1   -1    0    0    0  501  0.00000000000E+00  0.00000000000E+00  0.32616925712E+03  0.32616925716E+03  0.50400001928E-02 0. -1.
        1   -1    0    0  501    0  0.00000000000E+00  0.00000000000E+00 -0.19102082279E+03  0.19102082286E+03  0.50400001928E-02 0.  1.
    10030    2    1    2    0    0  0.00000000000E+00  0.00000000000E+00  0.13514843433E+03  0.51719008002E+03  0.49921987096E+03 0.  0.
        4    1    3    3  502    0 -0.20892118445E+03 -0.78604268605E+02 -0.48146251554E+02  0.22835578993E+03  0.12699999809E+01 0.  1.
       -4    1    3    3    0  502  0.20892118445E+03  0.78604268605E+02  0.18329468588E+03  0.28883429008E+03  0.12699999809E+01 0. -1.
</event>
<event>
 5   0  0.4534223E-02  0.4969914E+03  0.7818609E-02  0.1014567E+00
       -2   -1    0    0    0  501  0.00000000000E+00  0.00000000000E+00  0.90700745882E+02  0.90700745918E+02  0.25500000920E-02 0. -1.
        2   -1    0    0  501    0  0.00000000000E+00  0.00000000000E+00 -0.68081165713E+03  0.68081165714E+03  0.25500000920E-02 0.  1.
    10030    2    1    2    0    0  0.00000000000E+00  0.00000000000E+00 -0.59011091125E+03  0.77151240305E+03  0.49699144911E+03 0.  0.
        2    1    3    3  502    0  0.14767501520E+03 -0.28531657745E+02 -0.60212638667E+03  0.62062722398E+03  0.25500000920E-02 0.  1.
       -2    1    3    3    0  502 -0.14767501520E+03  0.28531657745E+02  0.12015475420E+02  0.15088517908E+03  0.25500000920E-02 0. -1.
</event>
<event>
 5   0  0.4451135E-02  0.5005507E+03  0.7818609E-02  0.1013635E+00
       -2   -1    0    0    0  501  0.00000000000E+00  0.00000000000E+00  0.36684659358E+03  0.36684659359E+03  0.25500000920E-02 0. -1.
        2   -1    0    0  501    0  0.00000000000E+00  0.00000000000E+00 -0.17074644152E+03  0.17074644154E+03  0.25500000920E-02 0.  1.
    10030    2    1    2    0    0  0.00000000000E+00  0.00000000000E+00  0.19610015206E+03  0.53759303513E+03  0.50055069852E+03 0.  0.
        1    1    3    3  502    0 -0.14479814737E+02  0.32595168355E+02 -0.16800294647E+03  0.17174719818E+03  0.50400001928E-02 0.  1.
       -1    1    3    3    0  502  0.14479814737E+02 -0.32595168355E+02  0.36410309853E+03  0.36584583695E+03  0.50400001928E-02 0. -1.
</event>
<event>
 5   0  0.2715483E-02  0.5006649E+03  0.7818609E-02  0.1013606E+00
       -1   -1    0    0    0  501  0.00000000000E+00  0.00000000000E+00  0.12360028501E+03  0.12360028512E+03  0.50400001928E-02 0.  1.
        1   -1    0    0  501    0  0.00000000000E+00  0.00000000000E+00 -0.50700799135E+03  0.50700799137E+03  0.50400001928E-02 0. -1.
    10030    2    1    2    0    0  0.00000000000E+00  0.00000000000E+00 -0.38340770633E+03  0.63060827649E+03  0.50066488702E+03 0.  0.
        5    1    3    3  502    0  0.10776772300E+02  0.22415197015E+02  0.12198438692E+03  0.12458274571E+03  0.46999998093E+01 0.  1.
       -5    1    3    3    0  502 -0.10776772300E+02 -0.22415197015E+02 -0.50539209325E+03  0.50602553078E+03  0.46999998093E+01 0. -1.
</event>
<event>
 5   0  0.2719671E-02  0.5010697E+03  0.7818609E-02  0.1013500E+00
        1   -1    0    0  501    0  0.00000000000E+00  0.00000000000E+00  0.22991091633E+03  0.22991091639E+03  0.50400001928E-02 0. -1.
       -1   -1    0    0    0  501  0.00000000000E+00  0.00000000000E+00 -0.27300880246E+03  0.27300880251E+03  0.50400001928E-02 0.  1.
    10030    2    1    2    0    0  0.00000000000E+00  0.00000000000E+00 -0.43097886133E+02  0.50291971890E+03  0.50106967167E+03 0.  0.
        2    1    3    3  502    0  0.72920434428E+02  0.84788634813E+02 -0.24656679827E+03  0.27074284545E+03  0.25500000920E-02 0.  1.
       -2    1    3    3    0  502 -0.72920434428E+02 -0.84788634813E+02  0.20346891213E+03  0.23217687344E+03  0.25500000920E-02 0. -1.
</event>
<event>
 5   0  0.2779445E-02  0.5001323E+03  0.7818609E-02  0.1013744E+00
       -1   -1    0    0    0  501  0.00000000000E+00  0.00000000000E+00  0.26942686038E+03  0.26942686043E+03  0.50400001928E-02 0. -1.
        1   -1    0    0  501    0  0.00000000000E+00  0.00000000000E+00 -0.23209665723E+03  0.23209665728E+03  0.50400001928E-02 0.  1.
    10030    2    1    2    0    0  0.00000000000E+00  0.00000000000E+00  0.37330203151E+02  0.50152351771E+03  0.50013227725E+03 0.  0.
        3    1    3    3  502    0  0.59217220981E+02  0.20314629987E+03 -0.11496460601E+03  0.24081521806E+03  0.10100000352E+00 0.  1.
       -3    1    3    3    0  502 -0.59217220981E+02 -0.20314629987E+03  0.15229480916E+03  0.26070829966E+03  0.10100000352E+00 0. -1.
</event>
<event>
 5   0  0.4534223E-02  0.5039701E+03  0.7818609E-02  0.1012748E+00
        2   -1    0    0  501    0  0.00000000000E+00  0.00000000000E+00  0.69114495454E+03  0.69114495454E+03  0.25500000920E-02 0. -1.
       -2   -1    0    0    0  501  0.00000000000E+00  0.00000000000E+00 -0.91871419729E+02  0.91871419765E+02  0.25500000920E-02 0.  1.
    10030    2    1    2    0    0  0.00000000000E+00  0.00000000000E+00  0.59927353481E+03  0.78301637430E+03  0.50397011113E+03 0.  0.
        2    1    3    3  502    0 -0.17772693780E+03  0.12083389399E+03  0.50404539175E+03  0.54795022703E+03  0.25500000920E-02 0.  1.
       -2    1    3    3    0  502  0.17772693780E+03 -0.12083389399E+03  0.95228143056E+02  0.23506614727E+03  0.25500000920E-02 0. -1.
</event>
<event>
 5   0  0.4451135E-02  0.5006051E+03  0.7818609E-02  0.1013621E+00
        2   -1    0    0  501    0  0.00000000000E+00  0.00000000000E+00  0.11777215326E+04  0.11777215326E+04  0.25500000920E-02 0.  1.
       -2   -1    0    0    0  501  0.00000000000E+00  0.00000000000E+00 -0.53197106999E+02  0.53197107060E+02  0.25500000920E-02 0. -1.
    10030    2    1    2    0    0  0.00000000000E+00  0.00000000000E+00  0.11245244256E+04  0.12309186397E+04  0.50060514749E+03 0.  0.
        1    1    3    3  502    0 -0.13761072638E+03 -0.18036771170E+03  0.30224817811E+03  0.37791954784E+03  0.50400001928E-02 0. -1.
       -1    1    3    3    0  502  0.13761072638E+03  0.18036771170E+03  0.82227624748E+03  0.85299909181E+03  0.50400001928E-02 0.  1.
</event>
<event>
 5   0  0.2643185E-02  0.5001676E+03  0.7818609E-02  0.1013735E+00
        1   -1    0    0  501    0  0.00000000000E+00  0.00000000000E+00  0.32184207203E+03  0.32184207207E+03  0.50400001928E-02 0. -1.
       -1   -1    0    0    0  501  0.00000000000E+00  0.00000000000E+00 -0.19432486704E+03  0.19432486711E+03  0.50400001928E-02 0.  1.
    10030    2    1    2    0    0  0.00000000000E+00  0.00000000000E+00  0.12751720499E+03  0.51616693918E+03  0.50016764343E+03 0.  0.
        1    1    3    3  502    0 -0.29471310768E+02  0.60771342785E+02 -0.18473456908E+03  0.19669411608E+03  0.50400001928E-02 0.  1.
       -1    1    3    3    0  502  0.29471310768E+02 -0.60771342785E+02  0.31225177407E+03  0.31947282309E+03  0.50400001928E-02 0. -1.
</event>
<event>
 5   0  0.4534223E-02  0.5028126E+03  0.7818609E-02  0.1013047E+00
        2   -1    0    0  501    0  0.00000000000E+00  0.00000000000E+00  0.75682719049E+03  0.75682719050E+03  0.25500000920E-02 0. -1.
       -2   -1    0    0    0  501  0.00000000000E+00  0.00000000000E+00 -0.83513292544E+02  0.83513292583E+02  0.25500000920E-02 0.  1.
    10030    2    1    2    0    0  0.00000000000E+00  0.00000000000E+00  0.67331389795E+03  0.84034048308E+03  0.50281261155E+03 0.  0.
        2    1    3    3  502    0  0.16181748933E+03 -0.12114475111E+03  0.58647932500E+03  0.62033777028E+03  0.25500000920E-02 0. -1.
       -2    1    3    3    0  502 -0.16181748933E+03  0.12114475111E+03  0.86834572951E+02  0.22000271280E+03  0.25500000920E-02 0.  1.
</event>
<event>
 5   0  0.2719671E-02  0.5024042E+03  0.7818609E-02  0.1013153E+00
        1   -1    0    0  501    0  0.00000000000E+00  0.00000000000E+00  0.34886359659E+03  0.34886359663E+03  0.50400001928E-02 0.  1.
       -1   -1    0    0    0  501  0.00000000000E+00  0.00000000000E+00 -0.18088014133E+03  0.18088014140E+03  0.50400001928E-02 0. -1.
    10030    2    1    2    0    0  0.00000000000E+00  0.00000000000E+00  0.16798345525E+03  0.52974373803E+03  0.50240420653E+03 0.  0.
        2    1    3    3  502    0 -0.21682753396E+03  0.28851738389E+02 -0.46244378061E+02  0.22357357805E+03  0.25500000920E-02 0. -1.
       -2    1    3    3    0  502  0.21682753396E+03 -0.28851738389E+02  0.21422783332E+03  0.30617015999E+03  0.25500000920E-02 0.  1.
</event>
<event>
 5   0  0.1805500E-02  0.5062787E+03  0.7818609E-02  0.1012153E+00
       -3   -1    0    0    0  501  0.00000000000E+00  0.00000000000E+00  0.76492740025E+02  0.76492806705E+02  0.10100000352E+00 0.  1.
        3   -1    0    0  501    0  0.00000000000E+00  0.00000000000E+00 -0.83772003976E+03  0.83772004585E+03  0.10100000352E+00 0. -1.
    10030    2    1    2    0    0  0.00000000000E+00  0.00000000000E+00 -0.76122729973E+03  0.91421285255E+03  0.50627871564E+03 0.  0.
        2    1    3    3  502    0  0.38183912451E+02 -0.24939809694E+03 -0.41771346804E+03  0.48799791323E+03  0.25500000920E-02 0. -1.
       -2    1    3    3    0  502 -0.38183912451E+02  0.24939809694E+03 -0.34351383169E+03  0.42621493932E+03  0.25500000920E-02 0.  1.
</event>
<event>
 5   0  0.2779445E-02  0.4971501E+03  0.7818609E-02  0.1014525E+00
        1   -1    0    0  501    0  0.00000000000E+00  0.00000000000E+00  0.77239468091E+03  0.77239468092E+03  0.50400001928E-02 0. -1.
       -1   -1    0    0    0  501  0.00000000000E+00  0.00000000000E+00 -0.79997399685E+02  0.79997399843E+02  0.50400001928E-02 0.  1.
    10030    2    1    2    0    0  0.00000000000E+00  0.00000000000E+00  0.69239728122E+03  0.85239208077E+03  0.49715014262E+03 0.  0.
        3    1    3    3  502    0  0.14742532988E+03 -0.16363221376E+03  0.14861633903E+03  0.26570012363E+03  0.10100000352E+00 0.  1.
       -3    1    3    3    0  502 -0.14742532988E+03  0.16363221376E+03  0.54378094220E+03  0.58669195714E+03  0.10100000352E+00 0. -1.
</event>
<event>
 5   0  0.4631619E-02  0.5034640E+03  0.7818609E-02  0.1012879E+00
       -2   -1    0    0    0  501  0.00000000000E+00  0.00000000000E+00  0.24614329418E+03  0.24614329419E+03  0.25500000920E-02 0.  1.
        2   -1    0    0  501    0  0.00000000000E+00  0.00000000000E+00 -0.25744761576E+03  0.25744761577E+03  0.25500000920E-02 0. -1.
    10030    2    1    2    0    0  0.00000000000E+00  0.00000000000E+00 -0.11304321576E+02  0.50359090996E+03  0.50346401750E+03 0.  0.
        5    1    3    3  502    0  0.21649287363E+03  0.41698410334E+01 -0.13398244041E+03  0.25467613992E+03  0.46999998093E+01 0. -1.
       -5    1    3    3    0  502 -0.21649287363E+03 -0.41698410334E+01  0.12267811883E+03  0.24891477005E+03  0.46999998093E+01 0.  1.
</event>
<event>
 5   0  0.4534223E-02  0.5025224E+03  0.7818609E-02  0.1013123E+00
        2   -1    0    0  501    0  0.00000000000E+00  0.00000000000E+00  0.12955502785E+04  0.12955502785E+04  0.25500000920E-02 0. -1.
       -2   -1    0    0    0  501  0.00000000000E+00  0.00000000000E+00 -0.48730019313E+02  0.48730019380E+02  0.25500000920E-02 0.  1.
    10030    2    1    2    0    0  0.00000000000E+00  0.00000000000E+00  0.12468202592E+04  0.13442802979E+04  0.50252239807E+03 0.  0.
        2    1    3    3  502    0  0.21239223733E+03  0.23897247125E+02  0.27003156322E+03  0.34438145426E+03  0.25500000920E-02 0. -1.
       -2    1    3    3    0  502 -0.21239223733E+03 -0.23897247125E+02  0.97678869597E+03  0.99989884363E+03  0.25500000920E-02 0.  1.
</event>
<event>
 5   0  0.2715483E-02  0.4999136E+03  0.7818609E-02  0.1013801E+00
        1   -1    0    0  501    0  0.00000000000E+00  0.00000000000E+00  0.50352748574E+03  0.50352748576E+03  0.50400001928E-02 0.  1.
       -1   -1    0    0    0  501  0.00000000000E+00  0.00000000000E+00 -0.12408142739E+03  0.12408142750E+03  0.50400001928E-02 0. -1.
    10030    2    1    2    0    0  0.00000000000E+00  0.00000000000E+00  0.37944605834E+03  0.62760891326E+03  0.49991362935E+03 0.  0.
        5    1    3    3  502    0 -0.94392332368E+02 -0.60942804894E+02  0.46997582000E+03  0.48324248495E+03  0.46999998093E+01 0.  1.
       -5    1    3    3    0  502  0.94392332368E+02  0.60942804894E+02 -0.90529761658E+02  0.14436642831E+03  0.46999998093E+01 0. -1.
</event>
<event>
 5   0  0.1805500E-02  0.5050180E+03  0.7818609E-02  0.1012477E+00
        3   -1    0    0  501    0  0.00000000000E+00  0.00000000000E+00  0.12915256679E+04  0.12915256719E+04  0.10100000352E+00 0.  1.
       -3   -1    0    0    0  501  0.00000000000E+00  0.00000000000E+00 -0.49368526929E+02  0.49368630244E+02  0.10100000352E+00 0. -1.
    10030    2    1    2    0    0  0.00000000000E+00  0.00000000000E+00  0.12421571410E+04  0.13408943021E+04  0.50501798634E+03 0.  0.
        3    1    3    3  502    0 -0.23762132995E+03  0.40867939559E+02  0.42191291750E+03  0.48594712169E+03  0.10100000352E+00 0. -1.
       -3    1    3    3    0  502  0.23762132995E+03 -0.40867939559E+02  0.82024422352E+03  0.85494718045E+03  0.10100000352E+00 0.  1.
</event>
<event>
 5   0  0.2715483E-02  0.4999772E+03  0.7818609E-02  0.1013785E+00
       -1   -1    0    0    0  501  0.00000000000E+00  0.00000000000E+00  0.13534073978E+03  0.13534073988E+03  0.50400001928E-02 0. -1.
        1   -1    0    0  501    0  0.00000000000E+00  0.00000000000E+00 -0.46175518330E+03  0.46175518333E+03  0.50400001928E-02 0.  1.
    10030    2    1    2    0    0  0.00000000000E+00  0.00000000000E+00 -0.32641444352E+03  0.59709592320E+03  0.49997715205E+03 0.  0.
        5    1    3    3  502    0 -0.80399898691E+02  0.22832497190E+03 -0.88858676115E+02  0.25790384026E+03  0.46999998093E+01 0. -1.
       -5    1    3    3    0  502  0.80399898691E+02 -0.22832497190E+03 -0.23755576740E+03  0.33919208294E+03  0.46999998093E+01 0.  1.
</event>
<event>
 5   0  0.2719671E-02  0.5009400E+03  0.7818609E-02  0.1013534E+00
       -1   -1    0    0    0  501  0.00000000000E+00  0.00000000000E+00  0.20061656837E+03  0.20061656844E+03  0.50400001928E-02 0.  1.
        1   -1    0    0  501    0  0.00000000000E+00  0.00000000000E+00 -0.31271205918E+03  0.31271205923E+03  0.50400001928E-02 0. -1.
    10030    2    1    2    0    0  0.00000000000E+00  0.00000000000E+00 -0.11209549081E+03  0.51332862766E+03  0.50093999732E+03 0.  0.
        2    1    3    3  502    0  0.22548893636E+02  0.21623292520E+03 -0.18350254413E+03  0.28449659797E+03  0.25500000920E-02 0. -1.
       -2    1    3    3    0  502 -0.22548893636E+02 -0.21623292520E+03  0.71407053324E+02  0.22883202970E+03  0.25500000920E-02 0.  1.
</event>
<event>
 5   0  0.2643185E-02  0.4997249E+03  0.7818609E-02  0.1013851E+00
       -1   -1    0    0    0  501  0.00000000000E+00  0.00000000000E+00  0.14061251486E+03  0.14061251495E+03  0.50400001928E-02 0.  1.
        1   -1    0    0  501    0  0.00000000000E+00  0.00000000000E+00 -0.44399497538E+03  0.44399497541E+03  0.50400001928E-02 0. -1.
    10030    2    1    2    0    0  0.00000000000E+00  0.00000000000E+00 -0.30338246052E+03  0.58460749036E+03  0.49972492477E+03 0.  0.
        1    1    3    3  502    0  0.98377197791E+02  0.11410809154E+03 -0.38487935086E+03  0.41331688127E+03  0.50400001928E-02 0. -1.
       -1    1    3    3    0  502 -0.98377197791E+02 -0.11410809154E+03  0.81496890343E+02  0.17129060909E+03  0.50400001928E-02 0.  1.
</event>
<event>
 5   0  0.4534223E-02  0.4919071E+03  0.7818609E-02  0.1015913E+00
        2   -1    0    0  501    0  0.00000000000E+00  0.00000000000E+00  0.58278108692E+03  0.58278108692E+03  0.25500000920E-02 0.  1.
       -2   -1    0    0    0  501  0.00000000000E+00  0.00000000000E+00 -0.10380082585E+03  0.10380082588E+03  0.25500000920E-02 0. -1.
    10030    2    1    2    0    0  0.00000000000E+00  0.00000000000E+00  0.47898026107E+03  0.68658191281E+03  0.49190713809E+03 0.  0.
        2    1    3    3  502    0 -0.70517865012E+02  0.23562756620E+03  0.23921491914E+03  0.34309896063E+03  0.25500000920E-02 0.  1.
       -2    1    3    3    0  502  0.70517865012E+02 -0.23562756620E+03  0.23976534193E+03  0.34348295218E+03  0.25500000920E-02 0. -1.
</event>
<event>
 5   0  0.2643185E-02  0.5000106E+03  0.7818609E-02  0.1013776E+00
        1   -1    0    0  501    0  0.00000000000E+00  0.00000000000E+00  0.13931197421E+04  0.13931197421E+04  0.50400001928E-02 0.  1.
       -1   -1    0    0    0  501  0.00000000000E+00  0.00000000000E+00 -0.44865245326E+02  0.44865245609E+02  0.50400001928E-02 0. -1.
    10030    2    1    2    0    0  0.00000000000E+00  0.00000000000E+00  0.13482544968E+04  0.14379849877E+04  0.50001063671E+03 0.  0.
        1    1    3    3  502    0 -0.30661859821E+02  0.16101493809E+03  0.13122224403E+03  0.20996484774E+03  0.50400001928E-02 0. -1.
       -1    1    3    3    0  502  0.30661859821E+02 -0.16101493809E+03  0.12170322527E+04  0.12280201400E+04  0.50400001928E-02 0.  1.
</event>
<event>
 5   0  0.1805500E-02  0.4987172E+03  0.7818609E-02  0.1014114E+00
       -3   -1    0    0    0  501  0.00000000000E+00  0.00000000000E+00  0.94424419280E+02  0.94424473297E+02  0.10100000352E+00 0.  1.
        3   -1    0    0  501    0  0.00000000000E+00  0.00000000000E+00 -0.65851268533E+03  0.65851269307E+03  0.10100000352E+00 0. -1.
    10030    2    1    2    0    0  0.00000000000E+00  0.00000000000E+00 -0.56408826605E+03  0.75293716637E+03  0.49871715893E+03 0.  0.
        4    1    3    3  502    0 -0.19345583259E+03 -0.30862293753E+00 -0.44514997779E+02  0.19851562241E+03  0.12699999809E+01 0.  1.
       -4    1    3    3    0  502  0.19345583259E+03  0.30862293753E+00 -0.51957326827E+03  0.55442154396E+03  0.12699999809E+01 0. -1.
</event>
<event>
 5   0  0.1805500E-02  0.4993060E+03  0.7818609E-02  0.1013960E+00
        3   -1    0    0  501    0  0.00000000000E+00  0.00000000000E+00  0.29271311508E+03  0.29271313250E+03  0.10100000352E+00 0.  1.
       -3   -1    0    0    0  501  0.00000000000E+00  0.00000000000E+00 -0.21292731907E+03  0.21292734302E+03  0.10100000352E+00 0. -1.
    10030    2    1    2    0    0  0.00000000000E+00  0.00000000000E+00  0.79785796014E+02  0.50564047552E+03  0.49930603566E+03 0.  0.
        3    1    3    3  502    0 -0.82995856952E+02 -0.11900831901E+03 -0.16584783164E+03  0.22035608847E+03  0.10100000352E+00 0. -1.
       -3    1    3    3    0  502  0.82995856952E+02  0.11900831901E+03  0.24563362765E+03  0.28528438706E+03  0.10100000352E+00 0.  1.
</event>
<event>
 5   0  0.1805500E-02  0.5051915E+03  0.7818609E-02  0.1012433E+00
       -4   -1    0    0    0  501  0.00000000000E+00  0.00000000000E+00  0.34774447866E+03  0.34774679774E+03  0.12699999809E+01 0.  1.
        4   -1    0    0  501    0  0.00000000000E+00  0.00000000000E+00 -0.18347621536E+03  0.18348061070E+03  0.12699999809E+01 0. -1.
    10030    2    1    2    0    0  0.00000000000E+00  0.00000000000E+00  0.16426826330E+03  0.53122740843E+03  0.50519154500E+03 0.  0.
        2    1    3    3  502    0 -0.11038044427E+03 -0.13407689918E+03 -0.11074235657E+03  0.20597166533E+03  0.25500000920E-02 0. -1.
       -2    1    3    3    0  502  0.11038044427E+03  0.13407689918E+03  0.27501061987E+03  0.32525574310E+03  0.25500000920E-02 0.  1.
</event>
<event>
 5   0  0.2779445E-02  0.5037919E+03  0.7818609E-02  0.1012794E+00
        1   -1    0    0  501    0  0.00000000000E+00  0.00000000000E+00  0.21730802841E+03  0.21730802847E+03  0.50400001928E-02 0.  1.
       -1   -1    0    0    0  501  0.00000000000E+00  0.00000000000E+00 -0.29198904840E+03  0.29198904844E+03  0.50400001928E-02 0. -1.
    10030    2    1    2    0    0  0.00000000000E+00  0.00000000000E+00 -0.74681019992E+02  0.50929707691E+03  0.50379187945E+03 0.  0.
        3    1    3    3  502    0 -0.11315749824E+03  0.15056280629E+03 -0.20643389440E+03  0.27944362760E+03  0.10100000352E+00 0. -1.
       -3    1    3    3    0  502  0.11315749824E+03 -0.15056280629E+03  0.13175287441E+03  0.22985344931E+03  0.10100000352E+00 0.  1.
</event>
<event>
 5   0  0.2715483E-02  0.5008578E+03  0.7818609E-02  0.1013555E+00
        1   -1    0    0  501    0  0.00000000000E+00  0.00000000000E+00  0.84525476219E+03  0.84525476221E+03  0.50400001928E-02 0. -1.
       -1   -1    0    0    0  501  0.00000000000E+00  0.00000000000E+00 -0.74196125125E+02  0.74196125296E+02  0.50400001928E-02 0.  1.
    10030    2    1    2    0    0  0.00000000000E+00  0.00000000000E+00  0.77105863707E+03  0.91945088750E+03  0.50085777695E+03 0.  0.
        5    1    3    3  502    0  0.71150456945E+02  0.12772897876E+03  0.12390524228E+02  0.14680836021E+03  0.46999998093E+01 0.  1.
       -5    1    3    3    0  502 -0.71150456945E+02 -0.12772897876E+03  0.75866811284E+03  0.77264252729E+03  0.46999998093E+01 0. -1.
</event>
<event>
 5   0  0.2715483E-02  0.4986414E+03  0.7818609E-02  0.1014134E+00
        1   -1    0    0  501    0  0.00000000000E+00  0.00000000000E+00  0.11780305830E+03  0.11780305841E+03  0.50400001928E-02 0.  1.
       -1   -1    0    0    0  501  0.00000000000E+00  0.00000000000E+00 -0.52766715821E+03  0.52766715823E+03  0.50400001928E-02 0. -1.
    10030    2    1    2    0    0  0.00000000000E+00  0.00000000000E+00 -0.40986409991E+03  0.64547021664E+03  0.49864137431E+03 0.  0.
        5    1    3    3  502    0  0.28913805952E+02  0.54544371127E+02 -0.51755799609E+03  0.52124798888E+03  0.46999998093E+01 0. -1.
       -5    1    3    3    0  502 -0.28913805952E+02 -0.54544371127E+02  0.10769389618E+03  0.12422222776E+03  0.46999998093E+01 0.  1.
</event>
<event>
 5   0  0.4534223E-02  0.4988689E+03  0.7818609E-02  0.1014075E+00
       -2   -1    0    0    0  501  0.00000000000E+00  0.00000000000E+00  0.46282845692E+02  0.46282845762E+02  0.25500000920E-02 0. -1.
        2   -1    0    0  501    0  0.00000000000E+00  0.00000000000E+00 -0.13442893103E+04  0.13442893103E+04  0.25500000920E-02 0.  1.
    10030    2    1    2    0    0  0.00000000000E+00  0.00000000000E+00 -0.12980064647E+04  0.13905721561E+04  0.49886885959E+03 0.  0.
        2    1    3    3  502    0 -0.24165289342E+03 -0.60389059779E+02 -0.61217350036E+03  0.66090797694E+03  0.25500000920E-02 0. -1.
       -2    1    3    3    0  502  0.24165289342E+03  0.60389059779E+02 -0.68583296430E+03  0.72966417917E+03  0.25500000920E-02 0.  1.
</event>
<event>
 5   0  0.2715483E-02  0.5083240E+03  0.7818609E-02  0.1011629E+00
       -1   -1    0    0    0  501  0.00000000000E+00  0.00000000000E+00  0.13930654077E+03  0.13930654086E+03  0.50400001928E-02 0.  1.
        1   -1    0    0  501    0  0.00000000000E+00  0.00000000000E+00 -0.46371347585E+03  0.46371347588E+03  0.50400001928E-02 0. -1.
    10030    2    1    2    0    0  0.00000000000E+00  0.00000000000E+00 -0.32440693508E+03  0.60302001674E+03  0.50832399221E+03 0.  0.
        5    1    3    3  502    0 -0.10459544259E+02  0.43121516988E+02 -0.45903075679E+03  0.46119431151E+03  0.46999998093E+01 0. -1.
       -5    1    3    3    0  502  0.10459544259E+02 -0.43121516988E+02  0.13462382171E+03  0.14182570523E+03  0.46999998093E+01 0.  1.
</event>
<event>
 5   0  0.2643185E-02  0.4986733E+03  0.7818609E-02  0.1014126E+00
        1   -1    0    0  501    0  0.00000000000E+00  0.00000000000E+00  0.10256386473E+04  0.10256386473E+04  0.50400001928E-02 0. -1.
       -1   -1    0    0    0  501  0.00000000000E+00  0.00000000000E+00 -0.60614684623E+02  0.60614684833E+02  0.50400001928E-02 0.  1.
    10030    2    1    2    0    0  0.00000000000E+00  0.00000000000E+00  0.96502396268E+03  0.10862533321E+04  0.49867329291E+03 0.  0.
        1    1    3    3  502    0  0.81557573531E+02 -0.15787415134E+03  0.86351215873E+03  0.88160599689E+03  0.50400001928E-02 0. -1.
       -1    1    3    3    0  502 -0.81557573531E+02  0.15787415134E+03  0.10151180395E+03  0.20464733526E+03  0.50400001928E-02 0.  1.
</event>
<event>
 5   0  0.4534223E-02  0.4994933E+03  0.7818609E-02  0.1013911E+00
       -2   -1    0    0    0  501  0.00000000000E+00  0.00000000000E+00  0.38413716085E+03  0.38413716086E+03  0.25500000920E-02 0.  1.
        2   -1    0    0  501    0  0.00000000000E+00  0.00000000000E+00 -0.16237267593E+03  0.16237267595E+03  0.25500000920E-02 0. -1.
    10030    2    1    2    0    0  0.00000000000E+00  0.00000000000E+00  0.22176448492E+03  0.54650983680E+03  0.49949325816E+03 0.  0.
        2    1    3    3  502    0  0.21894315552E+03  0.92374882067E+02  0.26811049301E+02  0.23914024453E+03  0.25500000920E-02 0.  1.
       -2    1    3    3    0  502 -0.21894315552E+03 -0.92374882067E+02  0.19495343562E+03  0.30736959227E+03  0.25500000920E-02 0. -1.
</event>
<event>
 5   0  0.1805500E-02  0.4986026E+03  0.7818609E-02  0.1014144E+00
       -4   -1    0    0    0  501  0.00000000000E+00  0.00000000000E+00  0.14810584114E+03  0.14811128613E+03  0.12699999809E+01 0. -1.
        4   -1    0    0  501    0  0.00000000000E+00  0.00000000000E+00 -0.41962583693E+03  0.41962775876E+03  0.12699999809E+01 0.  1.
    10030    2    1    2    0    0  0.00000000000E+00  0.00000000000E+00 -0.27151999579E+03  0.56773904488E+03  0.49860256214E+03 0.  0.
        3    1    3    3  502    0 -0.18706204585E+03 -0.87964273926E+02 -0.29444367045E+03  0.35975965276E+03  0.10100000352E+00 0.  1.
       -3    1    3    3    0  502  0.18706204585E+03  0.87964273926E+02  0.22923674661E+02  0.20797939212E+03  0.10100000352E+00 0. -1.
</event>
<event>
 5   0  0.2719671E-02  0.5005432E+03  0.7818609E-02  0.1013637E+00
       -1   -1    0    0    0  501  0.00000000000E+00  0.00000000000E+00  0.97825994184E+02  0.97825994314E+02  0.50400001928E-02 0.  1.
        1   -1    0    0  501    0  0.00000000000E+00  0.00000000000E+00 -0.64027851567E+03  0.64027851569E+03  0.50400001928E-02 0. -1.
    10030    2    1    2    0    0  0.00000000000E+00  0.00000000000E+00 -0.54245252149E+03  0.73810451001E+03  0.50054323452E+03 0.  0.
        2    1    3    3  502    0 -0.21432480113E+03  0.45400664400E+01 -0.46167418206E+03  0.50901746823E+03  0.25500000920E-02 0. -1.
       -2    1    3    3    0  502  0.21432480113E+03 -0.45400664400E+01 -0.80778339434E+02  0.22908704178E+03  0.25500000920E-02 0.  1.
</event>
<event>
 5   0  0.2719671E-02  0.5029231E+03  0.7818609E-02  0.1013019E+00
       -1   -1    0    0    0  501  0.00000000000E+00  0.00000000000E+00  0.80844757268E+03  0.80844757269E+03  0.50400001928E-02 0.  1.
        1   -1    0    0  501    0  0.00000000000E+00  0.00000000000E+00 -0.78215224700E+02  0.78215224862E+02  0.50400001928E-02 0. -1.
    10030    2    1    2    0    0  0.00000000000E+00  0.00000000000E+00  0.73023234798E+03  0.88666279755E+03  0.50292309008E+03 0.  0.
        2    1    3    3  502    0 -0.24847326106E+03  0.52276538172E+01  0.29759880108E+03  0.38772585191E+03  0.25500000920E-02 0. -1.
       -2    1    3    3    0  502  0.24847326106E+03 -0.52276538172E+01  0.43263354689E+03  0.49893694564E+03  0.25500000920E-02 0.  1.
</event>
<event>
 5   0  0.2723308E-02  0.5011447E+03  0.7818609E-02  0.1013481E+00
        1   -1    0    0  501    0  0.00000000000E+00  0.00000000000E+00  0.11612905305E+04  0.11612905306E+04  0.50400001928E-02 0.  1.
       -1   -1    0    0    0  501  0.00000000000E+00  0.00000000000E+00 -0.54066148607E+02  0.54066148842E+02  0.50400001928E-02 0. -1.
    10030    2    1    2    0    0  0.00000000000E+00  0.00000000000E+00  0.11072243819E+04  0.12153566794E+04  0.50114471583E+03 0.  0.
        4    1    3    3  502    0  0.13455413653E+03  0.74549526621E+02  0.73929997589E+02  0.17067426584E+03  0.12699999809E+01 0. -1.
       -4    1    3    3    0  502 -0.13455413653E+03 -0.74549526621E+02  0.10332943843E+04  0.10446824136E+04  0.12699999809E+01 0.  1.
</event>
<event>
 5   0  0.2715483E-02  0.5012805E+03  0.7818609E-02  0.1013445E+00
       -1   -1    0    0    0  501  0.00000000000E+00  0.00000000000E+00  0.55381270059E+02  0.55381270289E+02  0.50400001928E-02 0.  1.
        1   -1    0    0  501    0  0.00000000000E+00  0.00000000000E+00 -0.11343283316E+04  0.11343283316E+04  0.50400001928E-02 0. -1.
    10030    2    1    2    0    0  0.00000000000E+00  0.00000000000E+00 -0.10789470615E+04  0.11897096019E+04  0.50128053547E+03 0.  0.
        5    1    3    3  502    0  0.22652900597E+02 -0.14605649383E+03 -0.10197617434E+04  0.10304279483E+04  0.46999998093E+01 0. -1.
       -5    1    3    3    0  502 -0.22652900597E+02  0.14605649383E+03 -0.59185318123E+02  0.15928165360E+03  0.46999998093E+01 0.  1.
</event>
<event>
 5   0  0.2779445E-02  0.4935688E+03  0.7818609E-02  0.1015471E+00
        1   -1    0    0  501    0  0.00000000000E+00  0.00000000000E+00  0.16804753180E+03  0.16804753188E+03  0.50400001928E-02 0.  1.
       -1   -1    0    0    0  501  0.00000000000E+00  0.00000000000E+00 -0.36241253235E+03  0.36241253238E+03  0.50400001928E-02 0. -1.
    10030    2    1    2    0    0  0.00000000000E+00  0.00000000000E+00 -0.19436500055E+03  0.53046006426E+03  0.49356876556E+03 0.  0.
        3    1    3    3  502    0  0.21974241841E+02 -0.50573594347E+02 -0.35570694653E+03  0.35995554970E+03  0.10100000352E+00 0. -1.
       -3    1    3    3    0  502 -0.21974241841E+02  0.50573594347E+02  0.16134194598E+03  0.17050451456E+03  0.10100000352E+00 0.  1.
</event>
<event>
 5   0  0.4631619E-02  0.5013433E+03  0.7818609E-02  0.1013429E+00
        2   -1    0    0  501    0  0.00000000000E+00  0.00000000000E+00  0.75634897861E+03  0.75634897861E+03  0.25500000920E-02 0. -1.
       -2   -1    0    0    0  501  0.00000000000E+00  0.00000000000E+00 -0.83078401894E+02  0.83078401933E+02  0.25500000920E-02 0.  1.
    10030    2    1    2    0    0  0.00000000000E+00  0.00000000000E+00  0.67327057671E+03  0.83942738054E+03  0.50134325341E+03 0.  0.
        5    1    3    3  502    0 -0.22004632463E+03 -0.28433342702E+02  0.14147874210E+03  0.26318655822E+03  0.46999998093E+01 0.  1.
       -5    1    3    3    0  502  0.22004632463E+03  0.28433342702E+02  0.53179183461E+03  0.57624082233E+03  0.46999998093E+01 0. -1.
</event>
<event>
 5   0  0.2715483E-02  0.5002869E+03  0.7818609E-02  0.1013704E+00
        1   -1    0    0  501    0  0.00000000000E+00  0.00000000000E+00  0.22485753904E+03  0.22485753910E+03  0.50400001928E-02 0. -1.
       -1   -1    0    0    0  501  0.00000000000E+00  0.00000000000E+00 -0.27827284843E+03  0.27827284848E+03  0.50400001928E-02 0.  1.
    10030    2    1    2    0    0  0.00000000000E+00  0.00000000000E+00 -0.53415309391E+02  0.50313038757E+03  0.50028690931E+03 0.  0.
        5    1    3    3  502    0  0.57827570551E+02 -0.59446836923E+02  0.21058192365E+03  0.22637312319E+03  0.46999998093E+01 0. -1.
       -5    1    3    3    0  502 -0.57827570551E+02  0.59446836923E+02 -0.26399723304E+03  0.27675726438E+03  0.46999998093E+01 0.  1.
</event>
<event>
 5   0  0.4451135E-02  0.4975963E+03  0.7818609E-02  0.1014408E+00
       -2   -1    0    0    0  501  0.00000000000E+00  0.00000000000E+00  0.27338810825E+03  0.27338810826E+03  0.25500000920E-02 0.  1.
        2   -1    0    0  501    0  0.00000000000E+00  0.00000000000E+00 -0.22641993661E+03  0.22641993662E+03  0.25500000920E-02 0. -1.
    10030    2    1    2    0    0  0.00000000000E+00  0.00000000000E+00  0.46968171643E+02  0.49980804488E+03  0.49759629478E+03 0.  0.
        1    1    3    3  502    0 -0.20009268572E+03  0.96860762358E+02  0.13570097921E+03  0.26044931551E+03  0.50400001928E-02 0.  1.
       -1    1    3    3    0  502  0.20009268572E+03 -0.96860762358E+02 -0.88732807565E+02  0.23935872938E+03  0.50400001928E-02 0. -1.
</event>
<event>
 5   0  0.2779445E-02  0.4998890E+03  0.7818609E-02  0.1013808E+00
       -1   -1    0    0    0  501  0.00000000000E+00  0.00000000000E+00  0.41019344347E+02  0.41019344657E+02  0.50400001928E-02 0.  1.
        1   -1    0    0  501    0  0.00000000000E+00  0.00000000000E+00 -0.15229948215E+04  0.15229948215E+04  0.50400001928E-02 0. -1.
    10030    2    1    2    0    0  0.00000000000E+00  0.00000000000E+00 -0.14819754772E+04  0.15640141662E+04  0.49988898476E+03 0.  0.
        3    1    3    3  502    0  0.12098471531E+03  0.15080280321E+03 -0.24536945136E+03  0.31238592263E+03  0.10100000352E+00 0.  1.
       -3    1    3    3    0  502 -0.12098471531E+03 -0.15080280321E+03 -0.12366060258E+04  0.12516282436E+04  0.10100000352E+00 0. -1.
</event>
<event>
 5   0  0.2719671E-02  0.5005841E+03  0.7818609E-02  0.1013627E+00
        1   -1    0    0  501    0  0.00000000000E+00  0.00000000000E+00  0.35949975470E+03  0.35949975473E+03  0.50400001928E-02 0.  1.
       -1   -1    0    0    0  501  0.00000000000E+00  0.00000000000E+00 -0.17425908557E+03  0.17425908564E+03  0.50400001928E-02 0. -1.
    10030    2    1    2    0    0  0.00000000000E+00  0.00000000000E+00  0.18524066912E+03  0.53375884037E+03  0.50058405306E+03 0.  0.
        2    1    3    3  502    0  0.83272348603E+02 -0.17089974265E+03  0.26621354398E+03  0.32712483410E+03  0.25500000920E-02 0.  1.
       -2    1    3    3    0  502 -0.83272348603E+02  0.17089974265E+03 -0.80972874855E+02  0.20663400628E+03  0.25500000920E-02 0. -1.
</event>
<event>
 5   0  0.1805500E-02  0.4986931E+03  0.7818609E-02  0.1014121E+00
        3   -1    0    0  501    0  0.00000000000E+00  0.00000000000E+00  0.82621632329E+02  0.82621694062E+02  0.10100000352E+00 0.  1.
       -3   -1    0    0    0  501  0.00000000000E+00  0.00000000000E+00 -0.75251075883E+03  0.75251076561E+03  0.10100000352E+00 0. -1.
    10030    2    1    2    0    0  0.00000000000E+00  0.00000000000E+00 -0.66988912650E+03  0.83513245967E+03  0.49869307534E+03 0.  0.
        2    1    3    3  502    0 -0.20912692997E+03  0.79285987380E+02 -0.51956089686E+03  0.56565348597E+03  0.25500000920E-02 0. -1.
       -2    1    3    3    0  502  0.20912692997E+03 -0.79285987380E+02 -0.15032822965E+03  0.26947897371E+03  0.25500000920E-02 0.  1.
</event>
<event>
 5   0  0.4451135E-02  0.5000704E+03  0.7818609E-02  0.1013761E+00
        2   -1    0    0  501    0  0.00000000000E+00  0.00000000000E+00  0.57056831095E+02  0.57056831151E+02  0.25500000920E-02 0.  1.
       -2   -1    0    0    0  501  0.00000000000E+00  0.00000000000E+00 -0.10957076689E+04  0.10957076689E+04  0.25500000920E-02 0. -1.
    10030    2    1    2    0    0  0.00000000000E+00  0.00000000000E+00 -0.10386508378E+04  0.11527645001E+04  0.50007042476E+03 0.  0.
        1    1    3    3  502    0 -0.12456743133E+03 -0.21678958932E+03 -0.52320776897E+03  0.57988028120E+03  0.50400001928E-02 0.  1.
       -1    1    3    3    0  502  0.12456743133E+03  0.21678958932E+03 -0.51544306887E+03  0.57288421889E+03  0.50400001928E-02 0. -1.
</event>
<event>
 5   0  0.4409622E-02  0.4991172E+03  0.7818609E-02  0.1014010E+00
        2   -1    0    0  501    0  0.00000000000E+00  0.00000000000E+00  0.50161654825E+03  0.50161654826E+03  0.25500000920E-02 0. -1.
       -2   -1    0    0    0  501  0.00000000000E+00  0.00000000000E+00 -0.12415757131E+03  0.12415757133E+03  0.25500000920E-02 0.  1.
    10030    2    1    2    0    0  0.00000000000E+00  0.00000000000E+00  0.37745897694E+03  0.62577411959E+03  0.49911719012E+03 0.  0.
        3    1    3    3  502    0 -0.91462394792E+01 -0.21587711417E+03  0.32170315778E+02  0.21845256130E+03  0.10100000352E+00 0.  1.
       -3    1    3    3    0  502  0.91462394792E+01  0.21587711417E+03  0.34528866117E+03  0.40732155829E+03  0.10100000352E+00 0. -1.
</event>
<event>
 5   0  0.1805500E-02  0.5002419E+03  0.7818609E-02  0.1013716E+00
        3   -1    0    0  501    0  0.00000000000E+00  0.00000000000E+00  0.15981037230E+03  0.15981040421E+03  0.10100000352E+00 0. -1.
       -3   -1    0    0    0  501  0.00000000000E+00  0.00000000000E+00 -0.39146698774E+03  0.39146700077E+03  0.10100000352E+00 0.  1.
    10030    2    1    2    0    0  0.00000000000E+00  0.00000000000E+00 -0.23165661544E+03  0.55127740498E+03  0.50024193124E+03 0.  0.
        5    1    3    3  502    0  0.17576456572E+03 -0.16306408051E+03 -0.37473639083E+02  0.24271267074E+03  0.46999998093E+01 0. -1.
       -5    1    3    3    0  502 -0.17576456572E+03  0.16306408051E+03 -0.19418297636E+03  0.30856473424E+03  0.46999998093E+01 0.  1.
</event>
<event>
 5   0  0.4451135E-02  0.4985274E+03  0.7818609E-02  0.1014164E+00
       -2   -1    0    0    0  501  0.00000000000E+00  0.00000000000E+00  0.11354431604E+03  0.11354431607E+03  0.25500000920E-02 0.  1.
        2   -1    0    0  501    0  0.00000000000E+00  0.00000000000E+00 -0.54720835042E+03  0.54720835043E+03  0.25500000920E-02 0. -1.
    10030    2    1    2    0    0  0.00000000000E+00  0.00000000000E+00 -0.43366403438E+03  0.66075266650E+03  0.49852742308E+03 0.  0.
        1    1    3    3  502    0 -0.18852913342E+03 -0.89139873463E+02 -0.35860326239E+02  0.21160130957E+03  0.50400001928E-02 0.  1.
       -1    1    3    3    0  502  0.18852913342E+03  0.89139873463E+02 -0.39780370814E+03  0.44915135692E+03  0.50400001928E-02 0. -1.
</event>
<event>
 5   0  0.4409622E-02  0.5002871E+03  0.7818609E-02  0.1013704E+00
       -2   -1    0    0    0  501  0.00000000000E+00  0.00000000000E+00  0.56505756249E+02  0.56505756306E+02  0.25500000920E-02 0. -1.
        2   -1    0    0  501    0  0.00000000000E+00  0.00000000000E+00 -0.11073527422E+04  0.11073527422E+04  0.25500000920E-02 0.  1.
    10030    2    1    2    0    0  0.00000000000E+00  0.00000000000E+00 -0.10508469860E+04  0.11638584985E+04  0.50028713423E+03 0.  0.
        3    1    3    3  502    0  0.13534135757E+03 -0.91272531824E+02 -0.96635608294E+03  0.98004696182E+03  0.10100000352E+00 0.  1.
       -3    1    3    3    0  502 -0.13534135757E+03  0.91272531824E+02 -0.84490903048E+02  0.18381153673E+03  0.10100000352E+00 0. -1.
</event>
<event>
 5   0  0.4534223E-02  0.5019961E+03  0.7818609E-02  0.1013259E+00
        2   -1    0    0  501    0  0.00000000000E+00  0.00000000000E+00  0.11773733345E+04  0.11773733345E+04  0.25500000920E-02 0.  1.
       -2   -1    0    0    0  501  0.00000000000E+00  0.00000000000E+00 -0.53508948245E+02  0.53508948306E+02  0.25500000920E-02 0. -1.
    10030    2    1    2    0    0  0.00000000000E+00  0.00000000000E+00  0.11238643863E+04  0.12308822828E+04  0.50199605122E+03 0.  0.
        2    1    3    3  502    0  0.14738151718E+02  0.23597498990E+03  0.35534539327E+03  0.42681583558E+03  0.25500000920E-02 0. -1.
       -2    1    3    3    0  502 -0.14738151718E+02 -0.23597498990E+03  0.76851899299E+03  0.80406644723E+03  0.25500000920E-02 0.  1.
</event>
<event>
 5   0  0.4451135E-02  0.5008051E+03  0.7818609E-02  0.1013569E+00
        2   -1    0    0  501    0  0.00000000000E+00  0.00000000000E+00  0.84603584977E+03  0.84603584978E+03  0.25500000920E-02 0. -1.
       -2   -1    0    0    0  501  0.00000000000E+00  0.00000000000E+00 -0.74112028931E+02  0.74112028974E+02  0.25500000920E-02 0.  1.
    10030    2    1    2    0    0  0.00000000000E+00  0.00000000000E+00  0.77192382084E+03  0.92014787875E+03  0.50080508542E+03 0.  0.
        1    1    3    3  502    0  0.75142254555E+02 -0.21687563878E+03  0.20204423937E+03  0.30578305349E+03  0.50400001928E-02 0.  1.
       -1    1    3    3    0  502 -0.75142254555E+02  0.21687563878E+03  0.56987958147E+03  0.61436482526E+03  0.50400001928E-02 0. -1.
</event>
<event>
 5   0  0.2715483E-02  0.4984212E+03  0.7818609E-02  0.1014192E+00
        1   -1    0    0  501    0  0.00000000000E+00  0.00000000000E+00  0.83107105216E+02  0.83107105369E+02  0.50400001928E-02 0.  1.
       -1   -1    0    0    0  501  0.00000000000E+00  0.00000000000E+00 -0.74729989079E+03  0.74729989081E+03  0.50400001928E-02 0. -1.
    10030    2    1    2    0    0  0.00000000000E+00  0.00000000000E+00 -0.66419278557E+03  0.83040699618E+03  0.49842123038E+03 0.  0.
        5    1    3    3  502    0 -0.30961885873E+01  0.16433793806E+03 -0.20102847663E+02  0.16565856076E+03  0.46999998093E+01 0.  1.
       -5    1    3    3    0  502  0.30961885873E+01 -0.16433793806E+03 -0.64408993791E+03  0.66474843542E+03  0.46999998093E+01 0. -1.
</event>
<event>
 5   0  0.2779445E-02  0.4990042E+03  0.7818609E-02  0.1014039E+00
        1   -1    0    0  501    0  0.00000000000E+00  0.00000000000E+00  0.35033455906E+03  0.35033455910E+03  0.50400001928E-02 0.  1.
       -1   -1    0    0    0  501  0.00000000000E+00  0.00000000000E+00 -0.17769103271E+03  0.17769103278E+03  0.50400001928E-02 0. -1.
    10030    2    1    2    0    0  0.00000000000E+00  0.00000000000E+00  0.17264352636E+03  0.52802559188E+03  0.49900424696E+03 0.  0.
        3    1    3    3  502    0  0.16739061255E+03 -0.16182374585E+03  0.18123072211E+03  0.29504427927E+03  0.10100000352E+00 0.  1.
       -3    1    3    3    0  502 -0.16739061255E+03  0.16182374585E+03 -0.85871957581E+01  0.23298131261E+03  0.10100000352E+00 0. -1.
</event>
<event>
 5   0  0.4534223E-02  0.4995052E+03  0.7818609E-02  0.1013908E+00
        2   -1    0    0  501    0  0.00000000000E+00  0.00000000000E+00  0.82069600503E+03  0.82069600503E+03  0.25500000920E-02 0. -1.
       -2   -1    0    0    0  501  0.00000000000E+00  0.00000000000E+00 -0.76004229166E+02  0.76004229209E+02  0.25500000920E-02 0.  1.
    10030    2    1    2    0    0  0.00000000000E+00  0.00000000000E+00  0.74469177586E+03  0.89670023424E+03  0.49950522425E+03 0.  0.
        2    1    3    3  502    0  0.15722624758E+03 -0.17642112728E+03  0.22725982753E+03  0.32785901893E+03  0.25500000920E-02 0. -1.
       -2    1    3    3    0  502 -0.15722624758E+03  0.17642112728E+03  0.51743194833E+03  0.56884121531E+03  0.25500000920E-02 0.  1.
</event>
<event>
 5   0  0.2779445E-02  0.4706510E+03  0.7818609E-02  0.1021737E+00
        1   -1    0    0  501    0  0.00000000000E+00  0.00000000000E+00  0.62033217674E+03  0.62033217676E+03  0.50400001928E-02 0. -1.
       -1   -1    0    0    0  501  0.00000000000E+00  0.00000000000E+00 -0.89271660419E+02  0.89271660561E+02  0.50400001928E-02 0.  1.
    10030    2    1    2    0    0  0.00000000000E+00  0.00000000000E+00  0.53106051633E+03  0.70960383733E+03  0.47065096829E+03 0.  0.
        3    1    3    3  502    0  0.30369670811E+02  0.19841488682E+03  0.45072242133E+03  0.49339790789E+03  0.10100000352E+00 0. -1.
       -3    1    3    3    0  502 -0.30369670811E+02 -0.19841488682E+03  0.80338094992E+02  0.21620592944E+03  0.10100000352E+00 0.  1.
</event>
<event>
 5   0  0.2779445E-02  0.4905436E+03  0.7818609E-02  0.1016277E+00
        1   -1    0    0  501    0  0.00000000000E+00  0.00000000000E+00  0.52237231733E+03  0.52237231735E+03  0.50400001928E-02 0. -1.
       -1   -1    0    0    0  501  0.00000000000E+00  0.00000000000E+00 -0.11516357001E+03  0.11516357012E+03  0.50400001928E-02 0.  1.
    10030    2    1    2    0    0  0.00000000000E+00  0.00000000000E+00  0.40720874732E+03  0.63753588748E+03  0.49054362082E+03 0.  0.
        3    1    3    3  502    0  0.89573220544E+02  0.18191678272E+03  0.24265740723E+02  0.20422025866E+03  0.10100000352E+00 0.  1.
       -3    1    3    3    0  502 -0.89573220544E+02 -0.18191678272E+03  0.38294300659E+03  0.43331562882E+03  0.10100000352E+00 0. -1.
</event>
<event>
 5   0  0.1805500E-02  0.5081532E+03  0.7818609E-02  0.1011672E+00
        4   -1    0    0  501    0  0.00000000000E+00  0.00000000000E+00  0.13266322672E+03  0.13266930550E+03  0.12699999809E+01 0. -1.
       -4   -1    0    0    0  501  0.00000000000E+00  0.00000000000E+00 -0.48658946266E+03  0.48659112001E+03  0.12699999809E+01 0.  1.
    10030    2    1    2    0    0  0.00000000000E+00  0.00000000000E+00 -0.35392623594E+03  0.61926042551E+03  0.50815321914E+03 0.  0.
        2    1    3    3  502    0  0.21018857409E+03 -0.10749097851E+03 -0.62504941629E+02  0.24421387117E+03  0.25500000920E-02 0. -1.
       -2    1    3    3    0  502 -0.21018857409E+03  0.10749097851E+03 -0.29142129431E+03  0.37504655434E+03  0.25500000920E-02 0.  1.
</event>
<event>
 5   0  0.4409622E-02  0.5056978E+03  0.7818609E-02  0.1012302E+00
        2   -1    0    0  501    0  0.00000000000E+00  0.00000000000E+00  0.13799545007E+04  0.13799545007E+04  0.25500000920E-02 0. -1.
       -2   -1    0    0    0  501  0.00000000000E+00  0.00000000000E+00 -0.46329470010E+02  0.46329470080E+02  0.25500000920E-02 0.  1.
    10030    2    1    2    0    0  0.00000000000E+00  0.00000000000E+00  0.13336250307E+04  0.14262839708E+04  0.50569777815E+03 0.  0.
        3    1    3    3  502    0  0.23580336834E+03 -0.81310443957E+02  0.54991153471E+03  0.60383550991E+03  0.10100000352E+00 0. -1.
       -3    1    3    3    0  502 -0.23580336834E+03  0.81310443957E+02  0.78371349595E+03  0.82244846085E+03  0.10100000352E+00 0.  1.
</event>
<event>
 5   0  0.2715483E-02  0.4967123E+03  0.7818609E-02  0.1014641E+00
        1   -1    0    0  501    0  0.00000000000E+00  0.00000000000E+00  0.14370084330E+04  0.14370084330E+04  0.50400001928E-02 0.  1.
       -1   -1    0    0    0  501  0.00000000000E+00  0.00000000000E+00 -0.42923036362E+02  0.42923036658E+02  0.50400001928E-02 0. -1.
    10030    2    1    2    0    0  0.00000000000E+00  0.00000000000E+00  0.13940853966E+04  0.14799314697E+04  0.49671225250E+03 0.  0.
        5    1    3    3  502    0 -0.11537221763E+02 -0.24783881634E+03  0.72705825374E+03  0.76824018425E+03  0.46999998093E+01 0.  1.
       -5    1    3    3    0  502  0.11537221763E+02  0.24783881634E+03  0.66702714289E+03  0.71169128541E+03  0.46999998093E+01 0. -1.
</event>
<event>
 5   0  0.4534223E-02  0.5005343E+03  0.7818609E-02  0.1013640E+00
       -2   -1    0    0    0  501  0.00000000000E+00  0.00000000000E+00  0.93259172177E+02  0.93259172212E+02  0.25500000920E-02 0. -1.
        2   -1    0    0  501    0  0.00000000000E+00  0.00000000000E+00 -0.67160832405E+03  0.67160832406E+03  0.25500000920E-02 0.  1.
    10030    2    1    2    0    0  0.00000000000E+00  0.00000000000E+00 -0.57834915188E+03  0.76486749627E+03  0.50053425994E+03 0.  0.
        2    1    3    3  502    0  0.10840968810E+03  0.16932065082E+03 -0.51691560213E+03  0.55463851561E+03  0.25500000920E-02 0.  1.
       -2    1    3    3    0  502 -0.10840968810E+03 -0.16932065082E+03 -0.61433549750E+02  0.21022898066E+03  0.25500000920E-02 0. -1.
</event>
<event>
 5   0  0.2643185E-02  0.5001212E+03  0.7818609E-02  0.1013747E+00
        1   -1    0    0  501    0  0.00000000000E+00  0.00000000000E+00  0.92835498284E+03  0.92835498286E+03  0.50400001928E-02 0. -1.
       -1   -1    0    0    0  501  0.00000000000E+00  0.00000000000E+00 -0.67356027369E+02  0.67356027558E+02  0.50400001928E-02 0.  1.
    10030    2    1    2    0    0  0.00000000000E+00  0.00000000000E+00  0.86099895547E+03  0.99571101042E+03  0.50012120024E+03 0.  0.
        1    1    3    3  502    0 -0.35467581012E+02  0.22497308494E+03  0.22494556026E+03  0.32011145459E+03  0.50400001928E-02 0.  1.
       -1    1    3    3    0  502  0.35467581012E+02 -0.22497308494E+03  0.63605339521E+03  0.67559955583E+03  0.50400001928E-02 0. -1.
</event>
<event>
 5   0  0.2715483E-02  0.5000698E+03  0.7818609E-02  0.1013761E+00
       -1   -1    0    0    0  501  0.00000000000E+00  0.00000000000E+00  0.84033851108E+02  0.84033851259E+02  0.50400001928E-02 0. -1.
        1   -1    0    0  501    0  0.00000000000E+00  0.00000000000E+00 -0.74395560126E+03  0.74395560127E+03  0.50400001928E-02 0.  1.
    10030    2    1    2    0    0  0.00000000000E+00  0.00000000000E+00 -0.65992175015E+03  0.82798945253E+03  0.50006981231E+03 0.  0.
        5    1    3    3  502    0 -0.89484730546E+01  0.19201952341E+03 -0.59458951743E+03  0.62490827869E+03  0.46999998093E+01 0.  1.
       -5    1    3    3    0  502  0.89484730546E+01 -0.19201952341E+03 -0.65332232720E+02  0.20308117384E+03  0.46999998093E+01 0. -1.
</event>
<event>
 5   0  0.4409622E-02  0.5019709E+03  0.7818609E-02  0.1013266E+00
       -2   -1    0    0    0  501  0.00000000000E+00  0.00000000000E+00  0.68010983410E+03  0.68010983410E+03  0.25500000920E-02 0.  1.
        2   -1    0    0  501    0  0.00000000000E+00  0.00000000000E+00 -0.92622821036E+02  0.92622821071E+02  0.25500000920E-02 0. -1.
    10030    2    1    2    0    0  0.00000000000E+00  0.00000000000E+00  0.58748701306E+03  0.77273265517E+03  0.50197088148E+03 0.  0.
        3    1    3    3  502    0  0.26612604979E+02  0.25053982526E+02 -0.88503921015E+02  0.95754305492E+02  0.10100000352E+00 0. -1.
       -3    1    3    3    0  502 -0.26612604979E+02 -0.25053982526E+02  0.67599093407E+03  0.67697834968E+03  0.10100000352E+00 0.  1.
</event>
<event>
 5   0  0.2719671E-02  0.4994753E+03  0.7818609E-02  0.1013916E+00
        1   -1    0    0  501    0  0.00000000000E+00  0.00000000000E+00  0.34995147254E+03  0.34995147258E+03  0.50400001928E-02 0.  1.
       -1   -1    0    0    0  501  0.00000000000E+00  0.00000000000E+00 -0.17822156733E+03  0.17822156740E+03  0.50400001928E-02 0. -1.
    10030    2    1    2    0    0  0.00000000000E+00  0.00000000000E+00  0.17172990521E+03  0.52817303998E+03  0.49947532453E+03 0.  0.
        2    1    3    3  502    0  0.10848600764E+03 -0.25630795355E+02  0.32218382781E+03  0.34092311513E+03  0.25500000920E-02 0.  1.
       -2    1    3    3    0  502 -0.10848600764E+03  0.25630795355E+02 -0.15045392260E+03  0.18724992485E+03  0.25500000920E-02 0. -1.
</event>
<event>
 5   0  0.2779445E-02  0.4918496E+03  0.7818609E-02  0.1015928E+00
       -1   -1    0    0    0  501  0.00000000000E+00  0.00000000000E+00  0.49572339274E+02  0.49572339531E+02  0.50400001928E-02 0.  1.
        1   -1    0    0  501    0  0.00000000000E+00  0.00000000000E+00 -0.12200150721E+04  0.12200150721E+04  0.50400001928E-02 0. -1.
    10030    2    1    2    0    0  0.00000000000E+00  0.00000000000E+00 -0.11704427328E+04  0.12695874116E+04  0.49184957554E+03 0.  0.
        3    1    3    3  502    0 -0.14811146508E+03  0.18520108532E+03 -0.75335067627E+03  0.78979345384E+03  0.10100000352E+00 0. -1.
       -3    1    3    3    0  502  0.14811146508E+03 -0.18520108532E+03 -0.41709205651E+03  0.47979395775E+03  0.10100000352E+00 0.  1.
</event>
<event>
 5   0  0.2715483E-02  0.4992963E+03  0.7818609E-02  0.1013963E+00
       -1   -1    0    0    0  501  0.00000000000E+00  0.00000000000E+00  0.10888337981E+03  0.10888337993E+03  0.50400001928E-02 0.  1.
        1   -1    0    0  501    0  0.00000000000E+00  0.00000000000E+00 -0.57239404346E+03  0.57239404349E+03  0.50400001928E-02 0. -1.
    10030    2    1    2    0    0  0.00000000000E+00  0.00000000000E+00 -0.46351066365E+03  0.68127742342E+03  0.49929629714E+03 0.  0.
        5    1    3    3  502    0  0.93358244161E+02 -0.68858053247E+02  0.69805776192E+02  0.13547003225E+03  0.46999998093E+01 0.  1.
       -5    1    3    3    0  502 -0.93358244161E+02  0.68858053247E+02 -0.53331643984E+03  0.54580739117E+03  0.46999998093E+01 0. -1.
</event>
<event>
 5   0  0.2719671E-02  0.5016038E+03  0.7818609E-02  0.1013361E+00
        1   -1    0    0  501    0  0.00000000000E+00  0.00000000000E+00  0.38905638522E+03  0.38905638525E+03  0.50400001928E-02 0. -1.
       -1   -1    0    0    0  501  0.00000000000E+00  0.00000000000E+00 -0.16167730440E+03  0.16167730448E+03  0.50400001928E-02 0.  1.
    10030    2    1    2    0    0  0.00000000000E+00  0.00000000000E+00  0.22737908082E+03  0.55073368972E+03  0.50160377850E+03 0.  0.
        2    1    3    3  502    0 -0.18254437442E+03 -0.69749850290E+02 -0.58915399830E+02  0.20410417583E+03  0.25500000920E-02 0.  1.
       -2    1    3    3    0  502  0.18254437442E+03  0.69749850290E+02  0.28629448065E+03  0.34662951390E+03  0.25500000920E-02 0. -1.
</event>
<event>
 5   0  0.1805500E-02  0.5029503E+03  0.7818609E-02  0.1013012E+00
        3   -1    0    0  501    0  0.00000000000E+00  0.00000000000E+00  0.13234427464E+04  0.13234427502E+04  0.10100000352E+00 0. -1.
       -3   -1    0    0    0  501  0.00000000000E+00  0.00000000000E+00 -0.47784214615E+02  0.47784321355E+02  0.10100000352E+00 0.  1.
    10030    2    1    2    0    0  0.00000000000E+00  0.00000000000E+00  0.12756585317E+04  0.13712270716E+04  0.50295028799E+03 0.  0.
        1    1    3    3  502    0 -0.16640951218E+03  0.18747630089E+03  0.69237424819E+03  0.73635697099E+03  0.50400001928E-02 0. -1.
       -1    1    3    3    0  502  0.16640951218E+03 -0.18747630089E+03  0.58328428355E+03  0.63487010058E+03  0.50400001928E-02 0.  1.
</event>
<event>
 5   0  0.4519539E-02  0.4998415E+03  0.7818609E-02  0.1013820E+00
       -2   -1    0    0    0  501  0.00000000000E+00  0.00000000000E+00  0.41954169052E+02  0.41954169130E+02  0.25500000920E-02 0. -1.
        2   -1    0    0  501    0  0.00000000000E+00  0.00000000000E+00 -0.14887767494E+04  0.14887767494E+04  0.25500000920E-02 0.  1.
    10030    2    1    2    0    0  0.00000000000E+00  0.00000000000E+00 -0.14468225804E+04  0.15307309186E+04  0.49984154084E+03 0.  0.
        4    1    3    3  502    0  0.23583875821E+03  0.37360123669E+02 -0.49747350798E+03  0.55181265186E+03  0.12699999809E+01 0.  1.
       -4    1    3    3    0  502 -0.23583875821E+03 -0.37360123669E+02 -0.94934907239E+03  0.97891826669E+03  0.12699999809E+01 0. -1.
</event>
<event>
 5   0  0.2723308E-02  0.4823333E+03  0.7818609E-02  0.1018496E+00
        1   -1    0    0  501    0  0.00000000000E+00  0.00000000000E+00  0.34646630083E+03  0.34646630086E+03  0.50400001928E-02 0. -1.
       -1   -1    0    0    0  501  0.00000000000E+00  0.00000000000E+00 -0.16787017002E+03  0.16787017010E+03  0.50400001928E-02 0.  1.
    10030    2    1    2    0    0  0.00000000000E+00  0.00000000000E+00  0.17859613081E+03  0.51433647096E+03  0.48233331569E+03 0.  0.
        4    1    3    3  502    0 -0.59526424642E+02 -0.64721584110E+02 -0.15016229383E+03  0.17401898192E+03  0.12699999809E+01 0.  1.
       -4    1    3    3    0  502  0.59526424642E+02  0.64721584110E+02  0.32875842463E+03  0.34031748904E+03  0.12699999809E+01 0. -1.
</event>
<event>
 5   0  0.2779445E-02  0.4987817E+03  0.7818609E-02  0.1014097E+00
       -1   -1    0    0    0  501  0.00000000000E+00  0.00000000000E+00  0.20502575827E+03  0.20502575833E+03  0.50400001928E-02 0.  1.
        1   -1    0    0  501    0  0.00000000000E+00  0.00000000000E+00 -0.30335598912E+03  0.30335598916E+03  0.50400001928E-02 0. -1.
    10030    2    1    2    0    0  0.00000000000E+00  0.00000000000E+00 -0.98330230848E+02  0.50838174750E+03  0.49878168259E+03 0.  0.
        3    1    3    3  502    0 -0.78285563378E+02  0.55392911789E+02 -0.28381069623E+03  0.29957557578E+03  0.10100000352E+00 0. -1.
       -3    1    3    3    0  502  0.78285563378E+02 -0.55392911789E+02  0.18548046538E+03  0.20880617172E+03  0.10100000352E+00 0.  1.
</event>
<event>
 5   0  0.1805500E-02  0.4973224E+03  0.7818609E-02  0.1014480E+00
        4   -1    0    0  501    0  0.00000000000E+00  0.00000000000E+00  0.12855686624E+03  0.12856313918E+03  0.12699999809E+01 0. -1.
       -4   -1    0    0    0  501  0.00000000000E+00  0.00000000000E+00 -0.48095423425E+03  0.48095591102E+03  0.12699999809E+01 0.  1.
    10030    2    1    2    0    0  0.00000000000E+00  0.00000000000E+00 -0.35239736802E+03  0.60951905021E+03  0.49732239803E+03 0.  0.
        4    1    3    3  502    0 -0.31243898894E+02 -0.24220954457E+03 -0.23354235173E+03  0.33791313625E+03  0.12699999809E+01 0.  1.
       -4    1    3    3    0  502  0.31243898894E+02  0.24220954457E+03 -0.11885501629E+03  0.27160591396E+03  0.12699999809E+01 0. -1.
</event>
<event>
 5   0  0.4451135E-02  0.5001547E+03  0.7818609E-02  0.1013739E+00
        2   -1    0    0  501    0  0.00000000000E+00  0.00000000000E+00  0.57043842996E+03  0.57043842997E+03  0.25500000920E-02 0. -1.
       -2   -1    0    0    0  501  0.00000000000E+00  0.00000000000E+00 -0.10963266525E+03  0.10963266528E+03  0.25500000920E-02 0.  1.
    10030    2    1    2    0    0  0.00000000000E+00  0.00000000000E+00  0.46080576472E+03  0.68007109524E+03  0.50015471785E+03 0.  0.
        1    1    3    3  502    0  0.16873989742E+03  0.18074996380E+03  0.28118775983E+03  0.37444660327E+03  0.50400001928E-02 0. -1.
       -1    1    3    3    0  502 -0.16873989742E+03 -0.18074996380E+03  0.17961800488E+03  0.30562449198E+03  0.50400001928E-02 0.  1.
</event>
<event>
 5   0  0.4409622E-02  0.4957540E+03  0.7818609E-02  0.1014893E+00
       -2   -1    0    0    0  501  0.00000000000E+00  0.00000000000E+00  0.33501493928E+03  0.33501493929E+03  0.25500000920E-02 0.  1.
        2   -1    0    0  501    0  0.00000000000E+00  0.00000000000E+00 -0.18340379694E+03  0.18340379696E+03  0.25500000920E-02 0. -1.
    10030    2    1    2    0    0  0.00000000000E+00  0.00000000000E+00  0.15161114234E+03  0.51841873626E+03  0.49575401927E+03 0.  0.
        3    1    3    3  502    0 -0.69107832666E+02 -0.21411649582E+03  0.18458652616E+03  0.29102227090E+03  0.10100000352E+00 0.  1.
       -3    1    3    3    0  502  0.69107832666E+02  0.21411649582E+03 -0.32975383820E+02  0.22739646536E+03  0.10100000352E+00 0. -1.
</event>
<event>
 5   0  0.4409622E-02  0.5007428E+03  0.7818609E-02  0.1013585E+00
       -2   -1    0    0    0  501  0.00000000000E+00  0.00000000000E+00  0.85549013889E+02  0.85549013927E+02  0.25500000920E-02 0.  1.
        2   -1    0    0  501    0  0.00000000000E+00  0.00000000000E+00 -0.73274768831E+03  0.73274768832E+03  0.25500000920E-02 0. -1.
    10030    2    1    2    0    0  0.00000000000E+00  0.00000000000E+00 -0.64719867442E+03  0.81829670225E+03  0.50074281695E+03 0.  0.
        3    1    3    3  502    0  0.18520674696E+03 -0.16377541866E+03 -0.38818310751E+03  0.46022827166E+03  0.10100000352E+00 0.  1.
       -3    1    3    3    0  502 -0.18520674696E+03  0.16377541866E+03 -0.25901556692E+03  0.35806843059E+03  0.10100000352E+00 0. -1.
</event>
<event>
 5   0  0.2723308E-02  0.5004105E+03  0.7818609E-02  0.1013672E+00
        1   -1    0    0  501    0  0.00000000000E+00  0.00000000000E+00  0.20241985237E+03  0.20241985243E+03  0.50400001928E-02 0.  1.
       -1   -1    0    0    0  501  0.00000000000E+00  0.00000000000E+00 -0.30927143109E+03  0.30927143113E+03  0.50400001928E-02 0. -1.
    10030    2    1    2    0    0  0.00000000000E+00  0.00000000000E+00 -0.10685157872E+03  0.51169128357E+03  0.50041054126E+03 0.  0.
        4    1    3    3  502    0 -0.12260460931E+03 -0.22760796985E+02  0.16837677062E+03  0.20952874240E+03  0.12699999809E+01 0.  1.
       -4    1    3    3    0  502  0.12260460931E+03  0.22760796985E+02 -0.27522834934E+03  0.30216254117E+03  0.12699999809E+01 0. -1.
</event>
<event>
 5   0  0.4451135E-02  0.4979872E+03  0.7818609E-02  0.1014306E+00
       -2   -1    0    0    0  501  0.00000000000E+00  0.00000000000E+00  0.12781620031E+03  0.12781620033E+03  0.25500000920E-02 0.  1.
        2   -1    0    0  501    0  0.00000000000E+00  0.00000000000E+00 -0.48505445657E+03  0.48505445658E+03  0.25500000920E-02 0. -1.
    10030    2    1    2    0    0  0.00000000000E+00  0.00000000000E+00 -0.35723825626E+03  0.61287065691E+03  0.49798721908E+03 0.  0.
        1    1    3    3  502    0  0.17155494509E+03  0.17896588190E+03 -0.20716308115E+03  0.32307341006E+03  0.50400001928E-02 0. -1.
       -1    1    3    3    0  502 -0.17155494509E+03 -0.17896588190E+03 -0.15007517511E+03  0.28979724685E+03  0.50400001928E-02 0.  1.
</event>
<event>
 5   0  0.2719671E-02  0.5044314E+03  0.7818609E-02  0.1012629E+00
       -1   -1    0    0    0  501  0.00000000000E+00  0.00000000000E+00  0.17736900722E+03  0.17736900729E+03  0.50400001928E-02 0. -1.
        1   -1    0    0  501    0  0.00000000000E+00  0.00000000000E+00 -0.35864640410E+03  0.35864640414E+03  0.50400001928E-02 0.  1.
    10030    2    1    2    0    0  0.00000000000E+00  0.00000000000E+00 -0.18127739688E+03  0.53601541142E+03  0.50443138945E+03 0.  0.
        2    1    3    3  502    0 -0.71991273224E+02 -0.10264543133E+03 -0.32318819539E+03  0.34665463741E+03  0.25500000920E-02 0.  1.
       -2    1    3    3    0  502  0.71991273224E+02  0.10264543133E+03  0.14191079851E+03  0.18936077401E+03  0.25500000920E-02 0. -1.
</event>
<event>
 5   0  0.2643185E-02  0.5001413E+03  0.7818609E-02  0.1013742E+00
        1   -1    0    0  501    0  0.00000000000E+00  0.00000000000E+00  0.62480882143E+03  0.62480882145E+03  0.50400001928E-02 0.  1.
       -1   -1    0    0    0  501  0.00000000000E+00  0.00000000000E+00 -0.10008713382E+03  0.10008713395E+03  0.50400001928E-02 0. -1.
    10030    2    1    2    0    0  0.00000000000E+00  0.00000000000E+00  0.52472168760E+03  0.72489595540E+03  0.50014127675E+03 0.  0.
        1    1    3    3  502    0 -0.17579446803E+03  0.56334740572E+02  0.50686450427E+03  0.53943389187E+03  0.50400001928E-02 0.  1.
       -1    1    3    3    0  502  0.17579446803E+03 -0.56334740572E+02  0.17857183334E+02  0.18546206353E+03  0.50400001928E-02 0. -1.
</event>
<event>
 5   0  0.2715483E-02  0.5002229E+03  0.7818609E-02  0.1013721E+00
        1   -1    0    0  501    0  0.00000000000E+00  0.00000000000E+00  0.38792636919E+03  0.38792636923E+03  0.50400001928E-02 0. -1.
       -1   -1    0    0    0  501  0.00000000000E+00  0.00000000000E+00 -0.16125675170E+03  0.16125675177E+03  0.50400001928E-02 0.  1.
    10030    2    1    2    0    0  0.00000000000E+00  0.00000000000E+00  0.22666961750E+03  0.54918312100E+03  0.50022293520E+03 0.  0.
        5    1    3    3  502    0 -0.18793251842E+01  0.14737626497E+03 -0.10845357611E+03  0.18305071294E+03  0.46999998093E+01 0.  1.
       -5    1    3    3    0  502  0.18793251842E+01 -0.14737626497E+03  0.33512319360E+03  0.36613240806E+03  0.46999998093E+01 0. -1.
</event>
<event>
 5   0  0.4534223E-02  0.4988043E+03  0.7818609E-02  0.1014091E+00
        2   -1    0    0  501    0  0.00000000000E+00  0.00000000000E+00  0.82436965960E+03  0.82436965961E+03  0.25500000920E-02 0.  1.
       -2   -1    0    0    0  501  0.00000000000E+00  0.00000000000E+00 -0.75453332705E+02  0.75453332748E+02  0.25500000920E-02 0. -1.
    10030    2    1    2    0    0  0.00000000000E+00  0.00000000000E+00  0.74891632690E+03  0.89982299236E+03  0.49880432323E+03 0.  0.
        2    1    3    3  502    0  0.31240322474E+01  0.16261870957E+03  0.71552984985E+03  0.73378305398E+03  0.25500000920E-02 0.  1.
       -2    1    3    3    0  502 -0.31240322474E+01 -0.16261870957E+03  0.33386477049E+02  0.16603993837E+03  0.25500000920E-02 0. -1.
</event>
<event>
 5   0  0.4451135E-02  0.5006637E+03  0.7818609E-02  0.1013606E+00
        2   -1    0    0  501    0  0.00000000000E+00  0.00000000000E+00  0.81316265007E+03  0.81316265007E+03  0.25500000920E-02 0.  1.
       -2   -1    0    0    0  501  0.00000000000E+00  0.00000000000E+00 -0.77064561770E+02  0.77064561812E+02  0.25500000920E-02 0. -1.
    10030    2    1    2    0    0  0.00000000000E+00  0.00000000000E+00  0.73609808830E+03  0.89022721188E+03  0.50066365275E+03 0.  0.
        1    1    3    3  502    0  0.62637227432E+02 -0.89638506106E+02  0.76844627891E+03  0.77618822952E+03  0.50400001928E-02 0.  1.
       -1    1    3    3    0  502 -0.62637227432E+02  0.89638506106E+02 -0.32348190619E+02  0.11403898237E+03  0.50400001928E-02 0. -1.
</event>
<event>
 5   0  0.4631619E-02  0.4989958E+03  0.7818609E-02  0.1014041E+00
        2   -1    0    0  501    0  0.00000000000E+00  0.00000000000E+00  0.44416692466E+03  0.44416692467E+03  0.25500000920E-02 0. -1.
       -2   -1    0    0    0  501  0.00000000000E+00  0.00000000000E+00 -0.14014823148E+03  0.14014823150E+03  0.25500000920E-02 0.  1.
    10030    2    1    2    0    0  0.00000000000E+00  0.00000000000E+00  0.30401869318E+03  0.58431515617E+03  0.49899582757E+03 0.  0.
        5    1    3    3  502    0 -0.13843148564E+03  0.83733963638E+02 -0.70330717092E+02  0.17647422658E+03  0.46999998093E+01 0.  1.
       -5    1    3    3    0  502  0.13843148564E+03 -0.83733963638E+02  0.37434941027E+03  0.40784092959E+03  0.46999998093E+01 0. -1.
</event>
<event>
 5   0  0.2715483E-02  0.4994638E+03  0.7818609E-02  0.1013919E+00
        1   -1    0    0  501    0  0.00000000000E+00  0.00000000000E+00  0.14373205324E+03  0.14373205333E+03  0.50400001928E-02 0. -1.
       -1   -1    0    0    0  501  0.00000000000E+00  0.00000000000E+00 -0.43390473159E+03  0.43390473162E+03  0.50400001928E-02 0.  1.
    10030    2    1    2    0    0  0.00000000000E+00  0.00000000000E+00 -0.29017267835E+03  0.57763678495E+03  0.49946378453E+03 0.  0.
        5    1    3    3  502    0 -0.53501809095E+02 -0.19627928982E+03  0.22332472290E+02  0.20471646857E+03  0.46999998093E+01 0.  1.
       -5    1    3    3    0  502  0.53501809095E+02  0.19627928982E+03 -0.31250515064E+03  0.37292031637E+03  0.46999998093E+01 0. -1.
</event>
<event>
 5   0  0.1805500E-02  0.4998751E+03  0.7818609E-02  0.1013812E+00
        4   -1    0    0  501    0  0.00000000000E+00  0.00000000000E+00  0.15106055311E+03  0.15106589160E+03  0.12699999809E+01 0. -1.
       -4   -1    0    0    0  501  0.00000000000E+00  0.00000000000E+00 -0.41352107328E+03  0.41352302348E+03  0.12699999809E+01 0.  1.
    10030    2    1    2    0    0  0.00000000000E+00  0.00000000000E+00 -0.26246052018E+03  0.56458891508E+03  0.49987510278E+03 0.  0.
        4    1    3    3  502    0  0.16777114484E+03  0.14508581287E+03 -0.26133952088E+03  0.34277836602E+03  0.12699999809E+01 0. -1.
       -4    1    3    3    0  502 -0.16777114484E+03 -0.14508581287E+03 -0.11209993001E+01  0.22181054906E+03  0.12699999809E+01 0.  1.
</event>
<event>
 5   0  0.4519539E-02  0.4975733E+03  0.7818609E-02  0.1014414E+00
        2   -1    0    0  501    0  0.00000000000E+00  0.00000000000E+00  0.15486007434E+03  0.15486007437E+03  0.25500000920E-02 0.  1.
       -2   -1    0    0    0  501  0.00000000000E+00  0.00000000000E+00 -0.39968202767E+03  0.39968202768E+03  0.25500000920E-02 0. -1.
    10030    2    1    2    0    0  0.00000000000E+00  0.00000000000E+00 -0.24482195333E+03  0.55454210205E+03  0.49757326507E+03 0.  0.
        4    1    3    3  502    0 -0.31112629503E+02 -0.82765298582E+02  0.13675387015E+03  0.16285368975E+03  0.12699999809E+01 0.  1.
       -4    1    3    3    0  502  0.31112629503E+02  0.82765298582E+02 -0.38157582348E+03  0.39168841230E+03  0.12699999809E+01 0. -1.
</event>
<event>
 5   0  0.4451135E-02  0.4877167E+03  0.7818609E-02  0.1017036E+00
        2   -1    0    0  501    0  0.00000000000E+00  0.00000000000E+00  0.85767265220E+03  0.85767265221E+03  0.25500000920E-02 0.  1.
       -2   -1    0    0    0  501  0.00000000000E+00  0.00000000000E+00 -0.69335184234E+02  0.69335184281E+02  0.25500000920E-02 0. -1.
    10030    2    1    2    0    0  0.00000000000E+00  0.00000000000E+00  0.78833746797E+03  0.92700783649E+03  0.48771668570E+03 0.  0.
        1    1    3    3  502    0 -0.70506535841E+02 -0.22878290162E+03  0.48238508574E+03  0.53852405576E+03  0.50400001928E-02 0. -1.
       -1    1    3    3    0  502  0.70506535841E+02  0.22878290162E+03  0.30595238223E+03  0.38848378073E+03  0.50400001928E-02 0.  1.
</event>
<event>
 5   0  0.2723308E-02  0.4854007E+03  0.7818609E-02  0.1017661E+00
        1   -1    0    0  501    0  0.00000000000E+00  0.00000000000E+00  0.74496035734E+02  0.74496035905E+02  0.50400001928E-02 0. -1.
       -1   -1    0    0    0  501  0.00000000000E+00  0.00000000000E+00 -0.79069242873E+03  0.79069242875E+03  0.50400001928E-02 0.  1.
    10030    2    1    2    0    0  0.00000000000E+00  0.00000000000E+00 -0.71619639299E+03  0.86518846465E+03  0.48540066546E+03 0.  0.
        4    1    3    3  502    0  0.14477573610E+03  0.63944694106E+02 -0.68604869718E+03  0.70406914821E+03  0.12699999809E+01 0.  1.
       -4    1    3    3    0  502 -0.14477573610E+03 -0.63944694106E+02 -0.30147695819E+02  0.16111931644E+03  0.12699999809E+01 0. -1.
</event>
<event>
 5   0  0.2715483E-02  0.4991443E+03  0.7818609E-02  0.1014003E+00
        1   -1    0    0  501    0  0.00000000000E+00  0.00000000000E+00  0.10456647997E+03  0.10456648009E+03  0.50400001928E-02 0. -1.
       -1   -1    0    0    0  501  0.00000000000E+00  0.00000000000E+00 -0.59566182681E+03  0.59566182683E+03  0.50400001928E-02 0.  1.
    10030    2    1    2    0    0  0.00000000000E+00  0.00000000000E+00 -0.49109534683E+03  0.70022830692E+03  0.49914430993E+03 0.  0.
        5    1    3    3  502    0  0.17574590092E+03  0.94704672567E+02 -0.35547019401E+02  0.20283312669E+03  0.46999998093E+01 0.  1.
       -5    1    3    3    0  502 -0.17574590092E+03 -0.94704672567E+02 -0.45554832743E+03  0.49739518023E+03  0.46999998093E+01 0. -1.
</event>
<event>
 5   0  0.4631619E-02  0.4995013E+03  0.7818609E-02  0.1013909E+00
        2   -1    0    0  501    0  0.00000000000E+00  0.00000000000E+00  0.67040251885E+03  0.67040251885E+03  0.25500000920E-02 0. -1.
       -2   -1    0    0    0  501  0.00000000000E+00  0.00000000000E+00 -0.93041712123E+02  0.93041712158E+02  0.25500000920E-02 0.  1.
    10030    2    1    2    0    0  0.00000000000E+00  0.00000000000E+00  0.57736080672E+03  0.76344423101E+03  0.49950134406E+03 0.  0.
        5    1    3    3  502    0  0.24917008434E+03 -0.14064806508E+02  0.27591486533E+03  0.37206807525E+03  0.46999998093E+01 0.  1.
       -5    1    3    3    0  502 -0.24917008434E+03  0.14064806508E+02  0.30144594139E+03  0.39137615575E+03  0.46999998093E+01 0. -1.
</event>
<event>
 5   0  0.4631619E-02  0.5015790E+03  0.7818609E-02  0.1013368E+00
        2   -1    0    0  501    0  0.00000000000E+00  0.00000000000E+00  0.28835159170E+03  0.28835159171E+03  0.25500000920E-02 0. -1.
       -2   -1    0    0    0  501  0.00000000000E+00  0.00000000000E+00 -0.21812045299E+03  0.21812045300E+03  0.25500000920E-02 0.  1.
    10030    2    1    2    0    0  0.00000000000E+00  0.00000000000E+00  0.70231138712E+02  0.50647204471E+03  0.50157902590E+03 0.  0.
        5    1    3    3  502    0 -0.19678448131E+03  0.66933589190E+02 -0.10649896529E+03  0.23359870944E+03  0.46999998093E+01 0.  1.
       -5    1    3    3    0  502  0.19678448131E+03 -0.66933589190E+02  0.17673010400E+03  0.27287333527E+03  0.46999998093E+01 0. -1.
</event>
<event>
 5   0  0.4631619E-02  0.5010114E+03  0.7818609E-02  0.1013515E+00
       -2   -1    0    0    0  501  0.00000000000E+00  0.00000000000E+00  0.76408883526E+02  0.76408883568E+02  0.25500000920E-02 0. -1.
        2   -1    0    0  501    0  0.00000000000E+00  0.00000000000E+00 -0.82128026201E+03  0.82128026201E+03  0.25500000920E-02 0.  1.
    10030    2    1    2    0    0  0.00000000000E+00  0.00000000000E+00 -0.74487137848E+03  0.89768914558E+03  0.50101140866E+03 0.  0.
        5    1    3    3  502    0 -0.92535398840E+02 -0.44514254722E+02 -0.78175126571E+03  0.78848046922E+03  0.46999998093E+01 0.  1.
       -5    1    3    3    0  502  0.92535398840E+02  0.44514254722E+02  0.36879887226E+02  0.10920867636E+03  0.46999998093E+01 0. -1.
</event>
<event>
 5   0  0.4519539E-02  0.4989367E+03  0.7818609E-02  0.1014057E+00
       -2   -1    0    0    0  501  0.00000000000E+00  0.00000000000E+00  0.46856125494E+03  0.46856125495E+03  0.25500000920E-02 0. -1.
        2   -1    0    0  501    0  0.00000000000E+00  0.00000000000E+00 -0.13282030902E+03  0.13282030904E+03  0.25500000920E-02 0.  1.
    10030    2    1    2    0    0  0.00000000000E+00  0.00000000000E+00  0.33574094593E+03  0.60138156400E+03  0.49893667208E+03 0.  0.
        4    1    3    3  502    0 -0.15275012546E+03  0.92882335769E+01  0.40533497267E+03  0.43326311299E+03  0.12699999809E+01 0. -1.
       -4    1    3    3    0  502  0.15275012546E+03 -0.92882335769E+01 -0.69594026742E+02  0.16811845101E+03  0.12699999809E+01 0.  1.
</event>
<event>
 5   0  0.4519539E-02  0.4984873E+03  0.7818609E-02  0.1014174E+00
       -2   -1    0    0    0  501  0.00000000000E+00  0.00000000000E+00  0.45219808948E+02  0.45219809020E+02  0.25500000920E-02 0. -1.
        2   -1    0    0  501    0  0.00000000000E+00  0.00000000000E+00 -0.13737874092E+04  0.13737874092E+04  0.25500000920E-02 0.  1.
    10030    2    1    2    0    0  0.00000000000E+00  0.00000000000E+00 -0.13285676003E+04  0.14190072182E+04  0.49848732876E+03 0.  0.
        4    1    3    3  502    0  0.11023905927E+03 -0.20708529842E+03 -0.42469624832E+03  0.48518603365E+03  0.12699999809E+01 0.  1.
       -4    1    3    3    0  502 -0.11023905927E+03  0.20708529842E+03 -0.90387135195E+03  0.93382118459E+03  0.12699999809E+01 0. -1.
</event>
<event>
 5   0  0.2715483E-02  0.4976741E+03  0.7818609E-02  0.1014388E+00
        1   -1    0    0  501    0  0.00000000000E+00  0.00000000000E+00  0.81110708753E+03  0.81110708755E+03  0.50400001928E-02 0.  1.
       -1   -1    0    0    0  501  0.00000000000E+00  0.00000000000E+00 -0.76339950435E+02  0.76339950602E+02  0.50400001928E-02 0. -1.
    10030    2    1    2    0    0  0.00000000000E+00  0.00000000000E+00  0.73476713710E+03  0.88744703815E+03  0.49767408990E+03 0.  0.
        5    1    3    3  502    0 -0.67019231943E+02  0.77839332425E+02  0.77145299411E+03  0.77827524131E+03  0.46999998093E+01 0.  1.
       -5    1    3    3    0  502  0.67019231943E+02 -0.77839332425E+02 -0.36685857008E+02  0.10917179684E+03  0.46999998093E+01 0. -1.
</event>
<event>
 5   0  0.4409622E-02  0.5004921E+03  0.7818609E-02  0.1013651E+00
       -2   -1    0    0    0  501  0.00000000000E+00  0.00000000000E+00  0.52727877931E+02  0.52727877993E+02  0.25500000920E-02 0.  1.
        2   -1    0    0  501    0  0.00000000000E+00  0.00000000000E+00 -0.11876655346E+04  0.11876655346E+04  0.25500000920E-02 0. -1.
    10030    2    1    2    0    0  0.00000000000E+00  0.00000000000E+00 -0.11349376566E+04  0.12403934125E+04  0.50049209132E+03 0.  0.
        3    1    3    3  502    0 -0.88083305719E+02 -0.39184308568E+02 -0.11397954257E+04  0.11438652462E+04  0.10100000352E+00 0. -1.
       -3    1    3    3    0  502  0.88083305719E+02  0.39184308568E+02  0.48577690553E+01  0.96528166385E+02  0.10100000352E+00 0.  1.
</event>
<event>
 5   0  0.4534223E-02  0.5023988E+03  0.7818609E-02  0.1013155E+00
        2   -1    0    0  501    0  0.00000000000E+00  0.00000000000E+00  0.44263055226E+03  0.44263055226E+03  0.25500000920E-02 0. -1.
       -2   -1    0    0    0  501  0.00000000000E+00  0.00000000000E+00 -0.14255939938E+03  0.14255939940E+03  0.25500000920E-02 0.  1.
    10030    2    1    2    0    0  0.00000000000E+00  0.00000000000E+00  0.30007115288E+03  0.58518995167E+03  0.50239882837E+03 0.  0.
        2    1    3    3  502    0 -0.86855113300E+02 -0.23554025656E+03  0.13974033966E+03  0.28731582919E+03  0.25500000920E-02 0.  1.
       -2    1    3    3    0  502  0.86855113300E+02  0.23554025656E+03  0.16033081322E+03  0.29787412248E+03  0.25500000920E-02 0. -1.
</event>
<event>
 5   0  0.2643185E-02  0.4943701E+03  0.7818609E-02  0.1015259E+00
       -1   -1    0    0    0  501  0.00000000000E+00  0.00000000000E+00  0.11483155702E+03  0.11483155713E+03  0.50400001928E-02 0.  1.
        1   -1    0    0  501    0  0.00000000000E+00  0.00000000000E+00 -0.53208766981E+03  0.53208766984E+03  0.50400001928E-02 0. -1.
    10030    2    1    2    0    0  0.00000000000E+00  0.00000000000E+00 -0.41725611279E+03  0.64691922697E+03  0.49437012709E+03 0.  0.
        1    1    3    3  502    0  0.85957271489E+02 -0.47024080770E+02  0.88335889776E+02  0.13192098446E+03  0.50400001928E-02 0.  1.
       -1    1    3    3    0  502 -0.85957271489E+02  0.47024080770E+02 -0.50559200257E+03  0.51499824250E+03  0.50400001928E-02 0. -1.
</event>
<event>
 5   0  0.4631619E-02  0.5002881E+03  0.7818609E-02  0.1013704E+00
       -2   -1    0    0    0  501  0.00000000000E+00  0.00000000000E+00  0.64016666613E+02  0.64016666664E+02  0.25500000920E-02 0. -1.
        2   -1    0    0  501    0  0.00000000000E+00  0.00000000000E+00 -0.97743382804E+03  0.97743382804E+03  0.25500000920E-02 0.  1.
    10030    2    1    2    0    0  0.00000000000E+00  0.00000000000E+00 -0.91341716143E+03  0.10414504947E+04  0.50028813911E+03 0.  0.
        5    1    3    3  502    0  0.98585377693E+01  0.75109848914E+01  0.63285082244E+02  0.64658311870E+02  0.46999998093E+01 0. -1.
       -5    1    3    3    0  502 -0.98585377693E+01 -0.75109848914E+01 -0.97670224367E+03  0.97679218284E+03  0.46999998093E+01 0.  1.
</event>
<event>
 5   0  0.4534223E-02  0.4989286E+03  0.7818609E-02  0.1014059E+00
       -2   -1    0    0    0  501  0.00000000000E+00  0.00000000000E+00  0.17903859105E+03  0.17903859107E+03  0.25500000920E-02 0. -1.
        2   -1    0    0  501    0  0.00000000000E+00  0.00000000000E+00 -0.34759237290E+03  0.34759237291E+03  0.25500000920E-02 0.  1.
    10030    2    1    2    0    0  0.00000000000E+00  0.00000000000E+00 -0.16855378185E+03  0.52663096398E+03  0.49892864705E+03 0.  0.
        2    1    3    3  502    0  0.13551119196E+03  0.70902851878E+02  0.12374951640E+03  0.19673444123E+03  0.25500000920E-02 0. -1.
       -2    1    3    3    0  502 -0.13551119196E+03 -0.70902851878E+02 -0.29230329825E+03  0.32989652275E+03  0.25500000920E-02 0.  1.
</event>
<event>
 5   0  0.2643185E-02  0.4917785E+03  0.7818609E-02  0.1015947E+00
        1   -1    0    0  501    0  0.00000000000E+00  0.00000000000E+00  0.29441587774E+03  0.29441587779E+03  0.50400001928E-02 0. -1.
       -1   -1    0    0    0  501  0.00000000000E+00  0.00000000000E+00 -0.20536091135E+03  0.20536091141E+03  0.50400001928E-02 0.  1.
    10030    2    1    2    0    0  0.00000000000E+00  0.00000000000E+00  0.89054966396E+02  0.49977678920E+03  0.49177845823E+03 0.  0.
        1    1    3    3  502    0  0.21139074550E+03  0.69004946289E+02 -0.62125950184E+02  0.23088387472E+03  0.50400001928E-02 0.  1.
       -1    1    3    3    0  502 -0.21139074550E+03 -0.69004946289E+02  0.15118091658E+03  0.26889291448E+03  0.50400001928E-02 0. -1.
</event>
<event>
 5   0  0.4631619E-02  0.5007060E+03  0.7818609E-02  0.1013595E+00
        2   -1    0    0  501    0  0.00000000000E+00  0.00000000000E+00  0.24101885377E+04  0.24101885377E+04  0.25500000920E-02 0. -1.
       -2   -1    0    0    0  501  0.00000000000E+00  0.00000000000E+00 -0.26004859814E+02  0.26004859939E+02  0.25500000920E-02 0.  1.
    10030    2    1    2    0    0  0.00000000000E+00  0.00000000000E+00  0.23841836779E+04  0.24361933976E+04  0.50070596242E+03 0.  0.
        5    1    3    3  502    0 -0.34068024839E+01 -0.68970995712E+02  0.23627105763E+04  0.23637241722E+04  0.46999998093E+01 0. -1.
       -5    1    3    3    0  502  0.34068024839E+01  0.68970995712E+02  0.21473101553E+02  0.72469225477E+02  0.46999998093E+01 0.  1.
</event>
<event>
 5   0  0.1805500E-02  0.4951552E+03  0.7818609E-02  0.1015051E+00
       -4   -1    0    0    0  501  0.00000000000E+00  0.00000000000E+00  0.68735138113E+03  0.68735255440E+03  0.12699999809E+01 0.  1.
        4   -1    0    0  501    0  0.00000000000E+00  0.00000000000E+00 -0.89169379602E+02  0.89178423167E+02  0.12699999809E+01 0. -1.
    10030    2    1    2    0    0  0.00000000000E+00  0.00000000000E+00  0.59818200152E+03  0.77653097756E+03  0.49515517989E+03 0.  0.
        2    1    3    3  502    0 -0.11927824096E+03 -0.14562717480E+03  0.55128368067E+03  0.58253606703E+03  0.25500000920E-02 0.  1.
       -2    1    3    3    0  502  0.11927824096E+03  0.14562717480E+03  0.46898320852E+02  0.19399491053E+03  0.25500000920E-02 0. -1.
</event>
<event>
 5   0  0.4409622E-02  0.5006108E+03  0.7818609E-02  0.1013620E+00
       -2   -1    0    0    0  501  0.00000000000E+00  0.00000000000E+00  0.58174376040E+02  0.58174376096E+02  0.25500000920E-02 0. -1.
        2   -1    0    0  501    0  0.00000000000E+00  0.00000000000E+00 -0.10769826019E+04  0.10769826019E+04  0.25500000920E-02 0.  1.
    10030    2    1    2    0    0  0.00000000000E+00  0.00000000000E+00 -0.10188082258E+04  0.11351569780E+04  0.50061079055E+03 0.  0.
        3    1    3    3  502    0  0.22711132785E+03  0.98811411580E+02 -0.59146071137E+03  0.64122463583E+03  0.10100000352E+00 0.  1.
       -3    1    3    3    0  502 -0.22711132785E+03 -0.98811411580E+02 -0.42734751445E+03  0.49393234213E+03  0.10100000352E+00 0. -1.
</event>
<event>
 5   0  0.1805500E-02  0.5006908E+03  0.7818609E-02  0.1013599E+00
        4   -1    0    0  501    0  0.00000000000E+00  0.00000000000E+00  0.11858684041E+04  0.11858690842E+04  0.12699999809E+01 0.  1.
       -4   -1    0    0    0  501  0.00000000000E+00  0.00000000000E+00 -0.52841407857E+02  0.52856667358E+02  0.12699999809E+01 0. -1.
    10030    2    1    2    0    0  0.00000000000E+00  0.00000000000E+00  0.11330269963E+04  0.12387257515E+04  0.50069083598E+03 0.  0.
        3    1    3    3  502    0  0.39708608341E+02  0.16515399158E+03  0.10214948872E+04  0.10355213321E+04  0.10100000352E+00 0.  1.
       -3    1    3    3    0  502 -0.39708608341E+02 -0.16515399158E+03  0.11153210907E+03  0.20320441941E+03  0.10100000352E+00 0. -1.
</event>
<event>
 5   0  0.2715483E-02  0.4999355E+03  0.7818609E-02  0.1013796E+00
       -1   -1    0    0    0  501  0.00000000000E+00  0.00000000000E+00  0.24066222644E+03  0.24066222649E+03  0.50400001928E-02 0.  1.
        1   -1    0    0  501    0  0.00000000000E+00  0.00000000000E+00 -0.25963313188E+03  0.25963313193E+03  0.50400001928E-02 0. -1.
    10030    2    1    2    0    0  0.00000000000E+00  0.00000000000E+00 -0.18970905442E+02  0.50029535842E+03  0.49993554624E+03 0.  0.
        5    1    3    3  502    0 -0.21327647966E+03 -0.22988684890E+01 -0.13984684087E+03  0.25509090630E+03  0.46999998093E+01 0. -1.
       -5    1    3    3    0  502  0.21327647966E+03  0.22988684890E+01  0.12087593543E+03  0.24520445212E+03  0.46999998093E+01 0.  1.
</event>
<event>
 5   0  0.4534223E-02  0.5007068E+03  0.7818609E-02  0.1013595E+00
        2   -1    0    0  501    0  0.00000000000E+00  0.00000000000E+00  0.62024282105E+03  0.62024282106E+03  0.25500000920E-02 0.  1.
       -2   -1    0    0    0  501  0.00000000000E+00  0.00000000000E+00 -0.10105207771E+03  0.10105207774E+03  0.25500000920E-02 0. -1.
    10030    2    1    2    0    0  0.00000000000E+00  0.00000000000E+00  0.51919074334E+03  0.72129489880E+03  0.50070680349E+03 0.  0.
        2    1    3    3  502    0  0.78051522071E+02 -0.22197373822E+03  0.38278118083E+03  0.44931705172E+03  0.25500000920E-02 0.  1.
       -2    1    3    3    0  502 -0.78051522071E+02  0.22197373822E+03  0.13640956251E+03  0.27197784708E+03  0.25500000920E-02 0. -1.
</event>
<event>
 5   0  0.4451135E-02  0.5007633E+03  0.7818609E-02  0.1013580E+00
        2   -1    0    0  501    0  0.00000000000E+00  0.00000000000E+00  0.73848271215E+03  0.73848271215E+03  0.25500000920E-02 0.  1.
       -2   -1    0    0    0  501  0.00000000000E+00  0.00000000000E+00 -0.84891581776E+02  0.84891581814E+02  0.25500000920E-02 0. -1.
    10030    2    1    2    0    0  0.00000000000E+00  0.00000000000E+00  0.65359113037E+03  0.82337429397E+03  0.50076327967E+03 0.  0.
        1    1    3    3  502    0  0.54389498588E+02  0.21158338337E+03  0.52793923982E+03  0.57135416918E+03  0.50400001928E-02 0.  1.
       -1    1    3    3    0  502 -0.54389498588E+02 -0.21158338337E+03  0.12565189056E+03  0.25202012479E+03  0.50400001928E-02 0. -1.
</event>
<event>
 5   0  0.2719671E-02  0.4958937E+03  0.7818609E-02  0.1014856E+00
       -1   -1    0    0    0  501  0.00000000000E+00  0.00000000000E+00  0.98045539500E+02  0.98045539630E+02  0.50400001928E-02 0. -1.
        1   -1    0    0  501    0  0.00000000000E+00  0.00000000000E+00 -0.62703152604E+03  0.62703152606E+03  0.50400001928E-02 0.  1.
    10030    2    1    2    0    0  0.00000000000E+00  0.00000000000E+00 -0.52898598654E+03  0.72507706569E+03  0.49589371566E+03 0.  0.
        2    1    3    3  502    0  0.92071162992E+02  0.56866847962E+02  0.61692780430E+02  0.12456699649E+03  0.25500000920E-02 0. -1.
       -2    1    3    3    0  502 -0.92071162992E+02 -0.56866847962E+02 -0.59067876697E+03  0.60051006920E+03  0.25500000920E-02 0.  1.
</event>
<event>
 5   0  0.2643185E-02  0.5005591E+03  0.7818609E-02  0.1013633E+00
       -1   -1    0    0    0  501  0.00000000000E+00  0.00000000000E+00  0.45378724878E+02  0.45378725158E+02  0.50400001928E-02 0. -1.
        1   -1    0    0  501    0  0.00000000000E+00  0.00000000000E+00 -0.13803790965E+04  0.13803790965E+04  0.50400001928E-02 0.  1.
    10030    2    1    2    0    0  0.00000000000E+00  0.00000000000E+00 -0.13350003716E+04  0.14257578217E+04  0.50055906127E+03 0.  0.
        1    1    3    3  502    0 -0.11531574403E+03 -0.21967751203E+03 -0.76127532369E+03  0.80068473733E+03  0.50400001928E-02 0. -1.
       -1    1    3    3    0  502  0.11531574403E+03  0.21967751203E+03 -0.57372504794E+03  0.62507308435E+03  0.50400001928E-02 0.  1.
</event>
<event>
 5   0  0.4534223E-02  0.4998030E+03  0.7818609E-02  0.1013830E+00
       -2   -1    0    0    0  501  0.00000000000E+00  0.00000000000E+00  0.27697114688E+03  0.27697114689E+03  0.25500000920E-02 0. -1.
        2   -1    0    0  501    0  0.00000000000E+00  0.00000000000E+00 -0.22547746716E+03  0.22547746718E+03  0.25500000920E-02 0.  1.
    10030    2    1    2    0    0  0.00000000000E+00  0.00000000000E+00  0.51493679712E+02  0.50244861406E+03  0.49980297191E+03 0.  0.
        2    1    3    3  502    0 -0.86263341343E+02  0.88645458209E+02  0.24403992690E+03  0.27359617550E+03  0.25500000920E-02 0. -1.
       -2    1    3    3    0  502  0.86263341343E+02 -0.88645458209E+02 -0.19254624719E+03  0.22885243856E+03  0.25500000920E-02 0.  1.
</event>
<event>
 5   0  0.2643185E-02  0.4986286E+03  0.7818609E-02  0.1014137E+00
        1   -1    0    0  501    0  0.00000000000E+00  0.00000000000E+00  0.75644411207E+03  0.75644411208E+03  0.50400001928E-02 0. -1.
       -1   -1    0    0    0  501  0.00000000000E+00  0.00000000000E+00 -0.82170815969E+02  0.82170816123E+02  0.50400001928E-02 0.  1.
    10030    2    1    2    0    0  0.00000000000E+00  0.00000000000E+00  0.67427329610E+03  0.83861492821E+03  0.49862863935E+03 0.  0.
        1    1    3    3  502    0 -0.75602705410E+02  0.22661343995E+03  0.21716797027E+03  0.32284879986E+03  0.50400001928E-02 0.  1.
       -1    1    3    3    0  502  0.75602705410E+02 -0.22661343995E+03  0.45710532582E+03  0.51576612835E+03  0.50400001928E-02 0. -1.
</event>
<event>
 5   0  0.2643185E-02  0.4992005E+03  0.7818609E-02  0.1013988E+00
       -1   -1    0    0    0  501  0.00000000000E+00  0.00000000000E+00  0.45921205673E+03  0.45921205676E+03  0.50400001928E-02 0.  1.
        1   -1    0    0  501    0  0.00000000000E+00  0.00000000000E+00 -0.13566777345E+03  0.13566777354E+03  0.50400001928E-02 0. -1.
    10030    2    1    2    0    0  0.00000000000E+00  0.00000000000E+00  0.32354428328E+03  0.59487983031E+03  0.49920047001E+03 0.  0.
        1    1    3    3  502    0  0.10588363889E+03 -0.13376921008E+03  0.37888664412E+03  0.41552453076E+03  0.50400001928E-02 0.  1.
       -1    1    3    3    0  502 -0.10588363889E+03  0.13376921008E+03 -0.55342360832E+02  0.17935529955E+03  0.50400001928E-02 0. -1.
</event>
<event>
 5   0  0.2719671E-02  0.5007989E+03  0.7818609E-02  0.1013571E+00
       -1   -1    0    0    0  501  0.00000000000E+00  0.00000000000E+00  0.14247346267E+03  0.14247346276E+03  0.50400001928E-02 0.  1.
        1   -1    0    0  501    0  0.00000000000E+00  0.00000000000E+00 -0.44008108694E+03  0.44008108696E+03  0.50400001928E-02 0. -1.
    10030    2    1    2    0    0  0.00000000000E+00  0.00000000000E+00 -0.29760762427E+03  0.58255454972E+03  0.50079886719E+03 0.  0.
        2    1    3    3  502    0  0.41910473565E+02  0.22961399171E+03 -0.25427416292E+03  0.34515854751E+03  0.25500000920E-02 0. -1.
       -2    1    3    3    0  502 -0.41910473565E+02 -0.22961399171E+03 -0.43333461347E+02  0.23739600221E+03  0.25500000920E-02 0.  1.
</event>
<event>
 5   0  0.4519539E-02  0.5000309E+03  0.7818609E-02  0.1013771E+00
       -2   -1    0    0    0  501  0.00000000000E+00  0.00000000000E+00  0.60890509419E+02  0.60890509472E+02  0.25500000920E-02 0. -1.
        2   -1    0    0  501    0  0.00000000000E+00  0.00000000000E+00 -0.10265594305E+04  0.10265594305E+04  0.25500000920E-02 0.  1.
    10030    2    1    2    0    0  0.00000000000E+00  0.00000000000E+00 -0.96566892108E+03  0.10874499400E+04  0.50003090585E+03 0.  0.
        4    1    3    3  502    0  0.13096709381E+03  0.20818853369E+03 -0.58036653476E+03  0.63033465142E+03  0.12699999809E+01 0.  1.
       -4    1    3    3    0  502 -0.13096709381E+03 -0.20818853369E+03 -0.38530238632E+03  0.45711528855E+03  0.12699999809E+01 0. -1.
</event>
<event>
 5   0  0.1805500E-02  0.5281022E+03  0.7818609E-02  0.1006693E+00
       -4   -1    0    0    0  501  0.00000000000E+00  0.00000000000E+00  0.12732398347E+03  0.12733031716E+03  0.12699999809E+01 0.  1.
        4   -1    0    0  501    0  0.00000000000E+00  0.00000000000E+00 -0.54758228560E+03  0.54758375835E+03  0.12699999809E+01 0. -1.
    10030    2    1    2    0    0  0.00000000000E+00  0.00000000000E+00 -0.42025830213E+03  0.67491407551E+03  0.52810223329E+03 0.  0.
        2    1    3    3  502    0 -0.14041029477E+03  0.20802505819E+03 -0.10525910826E+03  0.27215612356E+03  0.25500000920E-02 0. -1.
       -2    1    3    3    0  502  0.14041029477E+03 -0.20802505819E+03 -0.31499919387E+03  0.40275795195E+03  0.25500000920E-02 0.  1.
</event>
<event>
 5   0  0.4519539E-02  0.5013503E+03  0.7818609E-02  0.1013427E+00
        2   -1    0    0  501    0  0.00000000000E+00  0.00000000000E+00  0.24640199744E+04  0.24640199744E+04  0.25500000920E-02 0. -1.
       -2   -1    0    0    0  501  0.00000000000E+00  0.00000000000E+00 -0.25502240890E+02  0.25502241018E+02  0.25500000920E-02 0.  1.
    10030    2    1    2    0    0  0.00000000000E+00  0.00000000000E+00  0.24385177335E+04  0.24895222154E+04  0.50135030111E+03 0.  0.
        4    1    3    3  502    0 -0.18227289871E+03 -0.15241961233E+03  0.82258983230E+03  0.85621889312E+03  0.12699999809E+01 0.  1.
       -4    1    3    3    0  502  0.18227289871E+03  0.15241961233E+03  0.16159279012E+04  0.16333033223E+04  0.12699999809E+01 0. -1.
</event>
<event>
 5   0  0.4451135E-02  0.5000309E+03  0.7818609E-02  0.1013771E+00
        2   -1    0    0  501    0  0.00000000000E+00  0.00000000000E+00  0.40865691275E+03  0.40865691276E+03  0.25500000920E-02 0.  1.
       -2   -1    0    0    0  501  0.00000000000E+00  0.00000000000E+00 -0.15295893317E+03  0.15295893319E+03  0.25500000920E-02 0. -1.
    10030    2    1    2    0    0  0.00000000000E+00  0.00000000000E+00  0.25569797958E+03  0.56161584595E+03  0.50003090070E+03 0.  0.
        1    1    3    3  502    0 -0.20708538433E+03  0.13403559240E+03  0.17358016583E+03  0.30162886206E+03  0.50400001928E-02 0.  1.
       -1    1    3    3    0  502  0.20708538433E+03 -0.13403559240E+03  0.82117813753E+02  0.25998698389E+03  0.50400001928E-02 0. -1.
</event>
<event>
 5   0  0.1805500E-02  0.5019503E+03  0.7818609E-02  0.1013271E+00
        4   -1    0    0  501    0  0.00000000000E+00  0.00000000000E+00  0.15128349578E+04  0.15128354909E+04  0.12699999809E+01 0. -1.
       -4   -1    0    0    0  501  0.00000000000E+00  0.00000000000E+00 -0.41625857114E+02  0.41645226382E+02  0.12699999809E+01 0.  1.
    10030    2    1    2    0    0  0.00000000000E+00  0.00000000000E+00  0.14712091007E+04  0.15544807173E+04  0.50195027879E+03 0.  0.
        2    1    3    3  502    0 -0.18284533065E+02  0.19350715239E+03  0.12273088267E+04  0.12426046428E+04  0.25500000920E-02 0. -1.
       -2    1    3    3    0  502  0.18284533065E+02 -0.19350715239E+03  0.24390027405E+03  0.31187607453E+03  0.25500000920E-02 0.  1.
</event>
<event>
 5   0  0.4409622E-02  0.4976821E+03  0.7818609E-02  0.1014386E+00
       -2   -1    0    0    0  501  0.00000000000E+00  0.00000000000E+00  0.17058778122E+03  0.17058778124E+03  0.25500000920E-02 0.  1.
        2   -1    0    0  501    0  0.00000000000E+00  0.00000000000E+00 -0.36299119879E+03  0.36299119880E+03  0.25500000920E-02 0. -1.
    10030    2    1    2    0    0  0.00000000000E+00  0.00000000000E+00 -0.19240341757E+03  0.53357898004E+03  0.49768208009E+03 0.  0.
        3    1    3    3  502    0 -0.83491316317E+02  0.14900753838E+03  0.97814412293E+02  0.19682915396E+03  0.10100000352E+00 0.  1.
       -3    1    3    3    0  502  0.83491316317E+02 -0.14900753838E+03 -0.29021782986E+03  0.33674982608E+03  0.10100000352E+00 0. -1.
</event>
<event>
 5   0  0.4519539E-02  0.5036818E+03  0.7818609E-02  0.1012822E+00
       -2   -1    0    0    0  501  0.00000000000E+00  0.00000000000E+00  0.34745278981E+02  0.34745279075E+02  0.25500000920E-02 0. -1.
        2   -1    0    0  501    0  0.00000000000E+00  0.00000000000E+00 -0.18253943507E+04  0.18253943507E+04  0.25500000920E-02 0.  1.
    10030    2    1    2    0    0  0.00000000000E+00  0.00000000000E+00 -0.17906490717E+04  0.18601396298E+04  0.50368178865E+03 0.  0.
        4    1    3    3  502    0  0.13755170332E+03 -0.13592233259E+03 -0.14911242374E+04  0.15036118036E+04  0.12699999809E+01 0.  1.
       -4    1    3    3    0  502 -0.13755170332E+03  0.13592233259E+03 -0.29952483429E+03  0.35652782617E+03  0.12699999809E+01 0. -1.
</event>
<event>
 5   0  0.2779445E-02  0.4958362E+03  0.7818609E-02  0.1014871E+00
        1   -1    0    0  501    0  0.00000000000E+00  0.00000000000E+00  0.22725903903E+03  0.22725903908E+03  0.50400001928E-02 0. -1.
       -1   -1    0    0    0  501  0.00000000000E+00  0.00000000000E+00 -0.27045520305E+03  0.27045520310E+03  0.50400001928E-02 0.  1.
    10030    2    1    2    0    0  0.00000000000E+00  0.00000000000E+00 -0.43196164024E+02  0.49771424218E+03  0.49583622123E+03 0.  0.
        3    1    3    3  502    0  0.24977684704E+02  0.15329688351E+03  0.17236827897E+03  0.23202295796E+03  0.10100000352E+00 0. -1.
       -3    1    3    3    0  502 -0.24977684704E+02 -0.15329688351E+03 -0.21556444299E+03  0.26569128422E+03  0.10100000352E+00 0.  1.
</event>
<event>
 5   0  0.2719671E-02  0.4937059E+03  0.7818609E-02  0.1015435E+00
       -1   -1    0    0    0  501  0.00000000000E+00  0.00000000000E+00  0.96201233434E+02  0.96201233566E+02  0.50400001928E-02 0.  1.
        1   -1    0    0  501    0  0.00000000000E+00  0.00000000000E+00 -0.63342610731E+03  0.63342610733E+03  0.50400001928E-02 0. -1.
    10030    2    1    2    0    0  0.00000000000E+00  0.00000000000E+00 -0.53722487387E+03  0.72962734089E+03  0.49370587547E+03 0.  0.
        2    1    3    3  502    0 -0.12778582981E+03 -0.10412129618E+03  0.29514616800E+01  0.16486107409E+03  0.25500000920E-02 0.  1.
       -2    1    3    3    0  502  0.12778582981E+03  0.10412129618E+03 -0.54017633555E+03  0.56476626680E+03  0.25500000920E-02 0. -1.
</event>
<event>
 5   0  0.2779445E-02  0.4981718E+03  0.7818609E-02  0.1014257E+00
       -1   -1    0    0    0  501  0.00000000000E+00  0.00000000000E+00  0.22334283511E+03  0.22334283516E+03  0.50400001928E-02 0. -1.
        1   -1    0    0  501    0  0.00000000000E+00  0.00000000000E+00 -0.27779621961E+03  0.27779621966E+03  0.50400001928E-02 0.  1.
    10030    2    1    2    0    0  0.00000000000E+00  0.00000000000E+00 -0.54453384503E+02  0.50113905482E+03  0.49817183901E+03 0.  0.
        3    1    3    3  502    0 -0.16233976148E+03 -0.15764557249E+03  0.77496491691E+02  0.23919038674E+03  0.10100000352E+00 0. -1.
       -3    1    3    3    0  502  0.16233976148E+03  0.15764557249E+03 -0.13194987619E+03  0.26194866808E+03  0.10100000352E+00 0.  1.
</event>
<event>
 5   0  0.4519539E-02  0.4983982E+03  0.7818609E-02  0.1014198E+00
        2   -1    0    0  501    0  0.00000000000E+00  0.00000000000E+00  0.29640960561E+03  0.29640960562E+03  0.25500000920E-02 0. -1.
       -2   -1    0    0    0  501  0.00000000000E+00  0.00000000000E+00 -0.20950803086E+03  0.20950803088E+03  0.25500000920E-02 0.  1.
    10030    2    1    2    0    0  0.00000000000E+00  0.00000000000E+00  0.86901574742E+02  0.50591763650E+03  0.49839820548E+03 0.  0.
        4    1    3    3  502    0 -0.18579127430E+03 -0.11247307512E+03 -0.80581028814E+02  0.23165384810E+03  0.12699999809E+01 0.  1.
       -4    1    3    3    0  502  0.18579127430E+03  0.11247307512E+03  0.16748260356E+03  0.27426378840E+03  0.12699999809E+01 0. -1.
</event>
<event>
 5   0  0.2643185E-02  0.5027680E+03  0.7818609E-02  0.1013059E+00
       -1   -1    0    0    0  501  0.00000000000E+00  0.00000000000E+00  0.80956937299E+02  0.80956937456E+02  0.50400001928E-02 0. -1.
        1   -1    0    0  501    0  0.00000000000E+00  0.00000000000E+00 -0.78058664166E+03  0.78058664167E+03  0.50400001928E-02 0.  1.
    10030    2    1    2    0    0  0.00000000000E+00  0.00000000000E+00 -0.69962970436E+03  0.86154357913E+03  0.50276795395E+03 0.  0.
        1    1    3    3  502    0 -0.44447393345E+02 -0.23276873862E+03 -0.20606582975E+03  0.31403818665E+03  0.50400001928E-02 0. -1.
       -1    1    3    3    0  502  0.44447393345E+02  0.23276873862E+03 -0.49356387461E+03  0.54750539248E+03  0.50400001928E-02 0.  1.
</event>
<event>
 5   0  0.2715483E-02  0.4957740E+03  0.7818609E-02  0.1014888E+00
       -1   -1    0    0    0  501  0.00000000000E+00  0.00000000000E+00  0.65966207565E+02  0.65966207758E+02  0.50400001928E-02 0.  1.
        1   -1    0    0  501    0  0.00000000000E+00  0.00000000000E+00 -0.93150662221E+03  0.93150662223E+03  0.50400001928E-02 0. -1.
    10030    2    1    2    0    0  0.00000000000E+00  0.00000000000E+00 -0.86554041465E+03  0.99747282999E+03  0.49577397791E+03 0.  0.
        5    1    3    3  502    0  0.23382539870E+03 -0.73821763390E+02 -0.36017531399E+03  0.43574340687E+03  0.46999998093E+01 0.  1.
       -5    1    3    3    0  502 -0.23382539870E+03  0.73821763390E+02 -0.50536510066E+03  0.56172942311E+03  0.46999998093E+01 0. -1.
</event>
<event>
 5   0  0.2643185E-02  0.5024196E+03  0.7818609E-02  0.1013149E+00
       -1   -1    0    0    0  501  0.00000000000E+00  0.00000000000E+00  0.77932637363E+02  0.77932637526E+02  0.50400001928E-02 0. -1.
        1   -1    0    0  501    0  0.00000000000E+00  0.00000000000E+00 -0.80975534208E+03  0.80975534210E+03  0.50400001928E-02 0.  1.
    10030    2    1    2    0    0  0.00000000000E+00  0.00000000000E+00 -0.73182270472E+03  0.88768797963E+03  0.50241962345E+03 0.  0.
        1    1    3    3  502    0 -0.71222645000E+02 -0.17807835778E+03 -0.65256109819E+03  0.68016215240E+03  0.50400001928E-02 0.  1.
       -1    1    3    3    0  502  0.71222645000E+02  0.17807835778E+03 -0.79261606536E+02  0.20752582722E+03  0.50400001928E-02 0. -1.
</event>
<event>
 5   0  0.2719671E-02  0.4979107E+03  0.7818609E-02  0.1014326E+00
        1   -1    0    0  501    0  0.00000000000E+00  0.00000000000E+00  0.44158718922E+03  0.44158718925E+03  0.50400001928E-02 0.  1.
       -1   -1    0    0    0  501  0.00000000000E+00  0.00000000000E+00 -0.14035452484E+03  0.14035452494E+03  0.50400001928E-02 0. -1.
    10030    2    1    2    0    0  0.00000000000E+00  0.00000000000E+00  0.30123266438E+03  0.58194171419E+03  0.49791067535E+03 0.  0.
        2    1    3    3  502    0  0.67377993349E+02  0.11499298086E+03  0.39637888916E+03  0.41818584794E+03  0.25500000920E-02 0.  1.
       -2    1    3    3    0  502 -0.67377993349E+02 -0.11499298086E+03 -0.95146224786E+02  0.16375586625E+03  0.25500000920E-02 0. -1.
</event>
<event>
 5   0  0.4631619E-02  0.4985115E+03  0.7818609E-02  0.1014168E+00
        2   -1    0    0  501    0  0.00000000000E+00  0.00000000000E+00  0.27173950101E+03  0.27173950102E+03  0.25500000920E-02 0.  1.
       -2   -1    0    0    0  501  0.00000000000E+00  0.00000000000E+00 -0.22863233376E+03  0.22863233377E+03  0.25500000920E-02 0. -1.
    10030    2    1    2    0    0  0.00000000000E+00  0.00000000000E+00  0.43107167255E+02  0.50037183479E+03  0.49851152964E+03 0.  0.
        5    1    3    3  502    0 -0.96954880792E+02  0.79080724745E+02 -0.19477874733E+03  0.23154882929E+03  0.46999998093E+01 0. -1.
       -5    1    3    3    0  502  0.96954880792E+02 -0.79080724745E+02  0.23788591458E+03  0.26882300551E+03  0.46999998093E+01 0.  1.
</event>
<event>
 5   0  0.4519539E-02  0.5033600E+03  0.7818609E-02  0.1012906E+00
        2   -1    0    0  501    0  0.00000000000E+00  0.00000000000E+00  0.17524865007E+03  0.17524865009E+03  0.25500000920E-02 0.  1.
       -2   -1    0    0    0  501  0.00000000000E+00  0.00000000000E+00 -0.36144543450E+03  0.36144543450E+03  0.25500000920E-02 0. -1.
    10030    2    1    2    0    0  0.00000000000E+00  0.00000000000E+00 -0.18619678443E+03  0.53669408459E+03  0.50336000825E+03 0.  0.
        4    1    3    3  502    0 -0.17257038464E+03 -0.53062913573E+02  0.93855864142E+02  0.20348647765E+03  0.12699999809E+01 0.  1.
       -4    1    3    3    0  502  0.17257038464E+03  0.53062913573E+02 -0.28005264857E+03  0.33320760694E+03  0.12699999809E+01 0. -1.
</event>
<event>
 5   0  0.2779445E-02  0.4968285E+03  0.7818609E-02  0.1014610E+00
       -1   -1    0    0    0  501  0.00000000000E+00  0.00000000000E+00  0.38408619377E+02  0.38408619708E+02  0.50400001928E-02 0.  1.
        1   -1    0    0  501    0  0.00000000000E+00  0.00000000000E+00 -0.16066611033E+04  0.16066611033E+04  0.50400001928E-02 0. -1.
    10030    2    1    2    0    0  0.00000000000E+00  0.00000000000E+00 -0.15682524839E+04  0.16450697230E+04  0.49682848172E+03 0.  0.
        3    1    3    3  502    0 -0.72088668372E+02 -0.98448513744E+02 -0.15005945029E+04  0.15055473285E+04  0.10100000352E+00 0. -1.
       -3    1    3    3    0  502  0.72088668372E+02  0.98448513744E+02 -0.67657980931E+02  0.13952239444E+03  0.10100000352E+00 0.  1.
</event>
<event>
 5   0  0.1805500E-02  0.5070179E+03  0.7818609E-02  0.1011963E+00
       -4   -1    0    0    0  501  0.00000000000E+00  0.00000000000E+00  0.32676858516E+03  0.32677105310E+03  0.12699999809E+01 0.  1.
        4   -1    0    0  501    0  0.00000000000E+00  0.00000000000E+00 -0.19666846589E+03  0.19667256640E+03  0.12699999809E+01 0. -1.
    10030    2    1    2    0    0  0.00000000000E+00  0.00000000000E+00  0.13010011927E+03  0.52344361950E+03  0.50701793042E+03 0.  0.
        5    1    3    3  502    0 -0.22731667998E+03 -0.34358967366E+02 -0.45137640616E+02  0.23433503415E+03  0.46999998093E+01 0. -1.
       -5    1    3    3    0  502  0.22731667998E+03  0.34358967366E+02  0.17523775989E+03  0.28910858535E+03  0.46999998093E+01 0.  1.
</event>
<event>
 5   0  0.4519539E-02  0.4980950E+03  0.7818609E-02  0.1014277E+00
        2   -1    0    0  501    0  0.00000000000E+00  0.00000000000E+00  0.15981437715E+03  0.15981437717E+03  0.25500000920E-02 0.  1.
       -2   -1    0    0    0  501  0.00000000000E+00  0.00000000000E+00 -0.38810435011E+03  0.38810435012E+03  0.25500000920E-02 0. -1.
    10030    2    1    2    0    0  0.00000000000E+00  0.00000000000E+00 -0.22828997296E+03  0.54791872728E+03  0.49809499089E+03 0.  0.
        4    1    3    3  502    0  0.24638494430E+03  0.20714121377E+01 -0.15400809424E+03  0.29056830095E+03  0.12699999809E+01 0.  1.
       -4    1    3    3    0  502 -0.24638494430E+03 -0.20714121377E+01 -0.74281878717E+02  0.25735042633E+03  0.12699999809E+01 0. -1.
</event>
<event>
 5   0  0.2723308E-02  0.5005309E+03  0.7818609E-02  0.1013640E+00
       -1   -1    0    0    0  501  0.00000000000E+00  0.00000000000E+00  0.57357024185E+02  0.57357024407E+02  0.50400001928E-02 0. -1.
        1   -1    0    0  501    0  0.00000000000E+00  0.00000000000E+00 -0.10919812962E+04  0.10919812962E+04  0.50400001928E-02 0.  1.
    10030    2    1    2    0    0  0.00000000000E+00  0.00000000000E+00 -0.10346242720E+04  0.11493383206E+04  0.50053090913E+03 0.  0.
        4    1    3    3  502    0 -0.23879900269E+03 -0.36537018299E+02 -0.66738264960E+03  0.70976131993E+03  0.12699999809E+01 0.  1.
       -4    1    3    3    0  502  0.23879900269E+03  0.36537018299E+02 -0.36724162240E+03  0.43957700067E+03  0.12699999809E+01 0. -1.
</event>
<event>
 5   0  0.4451135E-02  0.4974780E+03  0.7818609E-02  0.1014439E+00
        2   -1    0    0  501    0  0.00000000000E+00  0.00000000000E+00  0.29805071652E+03  0.29805071653E+03  0.25500000920E-02 0.  1.
       -2   -1    0    0    0  501  0.00000000000E+00  0.00000000000E+00 -0.20758576855E+03  0.20758576856E+03  0.25500000920E-02 0. -1.
    10030    2    1    2    0    0  0.00000000000E+00  0.00000000000E+00  0.90464947975E+02  0.50563648509E+03  0.49747798770E+03 0.  0.
        1    1    3    3  502    0  0.23678625450E+03 -0.74095117104E+02  0.63222184425E+02  0.25603683588E+03  0.50400001928E-02 0. -1.
       -1    1    3    3    0  502 -0.23678625450E+03  0.74095117104E+02  0.27242763550E+02  0.24959964922E+03  0.50400001928E-02 0.  1.
</event>
<event>
 5   0  0.2723308E-02  0.5123297E+03  0.7818609E-02  0.1010610E+00
       -1   -1    0    0    0  501  0.00000000000E+00  0.00000000000E+00  0.36705545876E+03  0.36705545880E+03  0.50400001928E-02 0.  1.
        1   -1    0    0  501    0  0.00000000000E+00  0.00000000000E+00 -0.17877524046E+03  0.17877524053E+03  0.50400001928E-02 0. -1.
    10030    2    1    2    0    0  0.00000000000E+00  0.00000000000E+00  0.18828021830E+03  0.54583069933E+03  0.51232969046E+03 0.  0.
        4    1    3    3  502    0  0.17237088888E+03 -0.18492128686E+03  0.50068388400E+02  0.25771313914E+03  0.12699999809E+01 0. -1.
       -4    1    3    3    0  502 -0.17237088888E+03  0.18492128686E+03  0.13821182990E+03  0.28811756019E+03  0.12699999809E+01 0.  1.
</event>
<event>
 5   0  0.2643185E-02  0.4979747E+03  0.7818609E-02  0.1014309E+00
       -1   -1    0    0    0  501  0.00000000000E+00  0.00000000000E+00  0.12209694514E+03  0.12209694525E+03  0.50400001928E-02 0. -1.
        1   -1    0    0  501    0  0.00000000000E+00  0.00000000000E+00 -0.50774989751E+03  0.50774989753E+03  0.50400001928E-02 0.  1.
    10030    2    1    2    0    0  0.00000000000E+00  0.00000000000E+00 -0.38565295236E+03  0.62984684278E+03  0.49797474403E+03 0.  0.
        1    1    3    3  502    0  0.21879905330E+03  0.23600448453E+02 -0.45516279805E+02  0.22472591894E+03  0.50400001928E-02 0. -1.
       -1    1    3    3    0  502 -0.21879905330E+03 -0.23600448453E+02 -0.34013667256E+03  0.40512092384E+03  0.50400001928E-02 0.  1.
</event>
<event>
 5   0  0.4409622E-02  0.4967513E+03  0.7818609E-02  0.1014630E+00
        2   -1    0    0  501    0  0.00000000000E+00  0.00000000000E+00  0.85689559351E+03  0.85689559351E+03  0.25500000920E-02 0.  1.
       -2   -1    0    0    0  501  0.00000000000E+00  0.00000000000E+00 -0.71992972838E+02  0.71992972883E+02  0.25500000920E-02 0. -1.
    10030    2    1    2    0    0  0.00000000000E+00  0.00000000000E+00  0.78490262067E+03  0.92888856640E+03  0.49675129073E+03 0.  0.
        3    1    3    3  502    0  0.78719442737E+02 -0.76362234224E+02 -0.24263507511E+02  0.11232394882E+03  0.10100000352E+00 0. -1.
       -3    1    3    3    0  502 -0.78719442737E+02  0.76362234224E+02  0.80916612818E+03  0.81656461758E+03  0.10100000352E+00 0.  1.
</event>
<event>
 5   0  0.2715483E-02  0.4971652E+03  0.7818609E-02  0.1014522E+00
        1   -1    0    0  501    0  0.00000000000E+00  0.00000000000E+00  0.35295829320E+03  0.35295829324E+03  0.50400001928E-02 0. -1.
       -1   -1    0    0    0  501  0.00000000000E+00  0.00000000000E+00 -0.17507252718E+03  0.17507252725E+03  0.50400001928E-02 0.  1.
    10030    2    1    2    0    0  0.00000000000E+00  0.00000000000E+00  0.17788576603E+03  0.52803082049E+03  0.49716516535E+03 0.  0.
        5    1    3    3  502    0 -0.29353449582E+00  0.74954812891E+02 -0.16273478262E+03  0.17922893073E+03  0.46999998093E+01 0.  1.
       -5    1    3    3    0  502  0.29353449582E+00 -0.74954812891E+02  0.34062054865E+03  0.34880188976E+03  0.46999998093E+01 0. -1.
</event>
<event>
 5   0  0.4409622E-02  0.4943255E+03  0.7818609E-02  0.1015271E+00
       -2   -1    0    0    0  501  0.00000000000E+00  0.00000000000E+00  0.13065742460E+03  0.13065742462E+03  0.25500000920E-02 0.  1.
        2   -1    0    0  501    0  0.00000000000E+00  0.00000000000E+00 -0.46755415379E+03  0.46755415380E+03  0.25500000920E-02 0. -1.
    10030    2    1    2    0    0  0.00000000000E+00  0.00000000000E+00 -0.33689672919E+03  0.59821157842E+03  0.49432548631E+03 0.  0.
        3    1    3    3  502    0  0.11957552162E+03 -0.58747568257E+01  0.93227243767E+02  0.15173709936E+03  0.10100000352E+00 0.  1.
       -3    1    3    3    0  502 -0.11957552162E+03  0.58747568257E+01 -0.43012397296E+03  0.44647447907E+03  0.10100000352E+00 0. -1.
</event>
<event>
 5   0  0.4519539E-02  0.4991058E+03  0.7818609E-02  0.1014013E+00
        2   -1    0    0  501    0  0.00000000000E+00  0.00000000000E+00  0.63256473408E+03  0.63256473409E+03  0.25500000920E-02 0.  1.
       -2   -1    0    0    0  501  0.00000000000E+00  0.00000000000E+00 -0.98451042476E+02  0.98451042509E+02  0.25500000920E-02 0. -1.
    10030    2    1    2    0    0  0.00000000000E+00  0.00000000000E+00  0.53411369161E+03  0.73101577660E+03  0.49910583053E+03 0.  0.
        4    1    3    3  502    0  0.11377105601E+03  0.87714652563E+02 -0.31808492075E+02  0.14714314978E+03  0.12699999809E+01 0. -1.
       -4    1    3    3    0  502 -0.11377105601E+03 -0.87714652563E+02  0.56592218368E+03  0.58387262681E+03  0.12699999809E+01 0.  1.
</event>
<event>
 5   0  0.4409622E-02  0.5034223E+03  0.7818609E-02  0.1012889E+00
       -2   -1    0    0    0  501  0.00000000000E+00  0.00000000000E+00  0.41971707916E+02  0.41971707993E+02  0.25500000920E-02 0.  1.
        2   -1    0    0  501    0  0.00000000000E+00  0.00000000000E+00 -0.15095524898E+04  0.15095524898E+04  0.25500000920E-02 0. -1.
    10030    2    1    2    0    0  0.00000000000E+00  0.00000000000E+00 -0.14675807819E+04  0.15515241978E+04  0.50342227303E+03 0.  0.
        3    1    3    3  502    0 -0.23256611576E+03 -0.74973934582E+02 -0.91999746471E+03  0.95189465506E+03  0.10100000352E+00 0. -1.
       -3    1    3    3    0  502  0.23256611576E+03  0.74973934582E+02 -0.54758331717E+03  0.59962954272E+03  0.10100000352E+00 0.  1.
</event>
<event>
 5   0  0.4451135E-02  0.4988013E+03  0.7818609E-02  0.1014092E+00
       -2   -1    0    0    0  501  0.00000000000E+00  0.00000000000E+00  0.19399497621E+03  0.19399497623E+03  0.25500000920E-02 0. -1.
        2   -1    0    0  501    0  0.00000000000E+00  0.00000000000E+00 -0.32063040008E+03  0.32063040009E+03  0.25500000920E-02 0.  1.
    10030    2    1    2    0    0  0.00000000000E+00  0.00000000000E+00 -0.12663542387E+03  0.51462537632E+03  0.49880131051E+03 0.  0.
        1    1    3    3  502    0 -0.27403155650E+02 -0.73015239562E+02  0.18109103800E+03  0.19717028736E+03  0.50400001928E-02 0. -1.
       -1    1    3    3    0  502  0.27403155650E+02  0.73015239562E+02 -0.30772646187E+03  0.31745508896E+03  0.50400001928E-02 0.  1.
</event>
<event>
 5   0  0.1805500E-02  0.5013740E+03  0.7818609E-02  0.1013421E+00
       -4   -1    0    0    0  501  0.00000000000E+00  0.00000000000E+00  0.63521694373E+03  0.63521821329E+03  0.12699999809E+01 0.  1.
        4   -1    0    0  501    0  0.00000000000E+00  0.00000000000E+00 -0.98927640571E+02  0.98935792153E+02  0.12699999809E+01 0. -1.
    10030    2    1    2    0    0  0.00000000000E+00  0.00000000000E+00  0.53628930316E+03  0.73415400544E+03  0.50137399916E+03 0.  0.
        5    1    3    3  502    0 -0.68178847045E+01 -0.14679774759E+02 -0.98101774860E+02  0.99539075582E+02  0.46999998093E+01 0. -1.
       -5    1    3    3    0  502  0.68178847045E+01  0.14679774759E+02  0.63439107802E+03  0.63461492986E+03  0.46999998093E+01 0.  1.
</event>
<event>
 5   0  0.2723308E-02  0.4974221E+03  0.7818609E-02  0.1014454E+00
       -1   -1    0    0    0  501  0.00000000000E+00  0.00000000000E+00  0.57328167996E+02  0.57328168217E+02  0.50400001928E-02 0. -1.
        1   -1    0    0  501    0  0.00000000000E+00  0.00000000000E+00 -0.10790016880E+04  0.10790016880E+04  0.50400001928E-02 0.  1.
    10030    2    1    2    0    0  0.00000000000E+00  0.00000000000E+00 -0.10216735200E+04  0.11363298562E+04  0.49742211518E+03 0.  0.
        4    1    3    3  502    0 -0.14307637666E+03 -0.96301021381E+02 -0.10147698272E+03  0.20010978787E+03  0.12699999809E+01 0. -1.
       -4    1    3    3    0  502  0.14307637666E+03  0.96301021381E+02 -0.92019653725E+03  0.93622006833E+03  0.12699999809E+01 0.  1.
</event>
<event>
 5   0  0.4631619E-02  0.4972584E+03  0.7818609E-02  0.1014497E+00
        2   -1    0    0  501    0  0.00000000000E+00  0.00000000000E+00  0.20678039097E+04  0.20678039097E+04  0.25500000920E-02 0. -1.
       -2   -1    0    0    0  501  0.00000000000E+00  0.00000000000E+00 -0.29894744956E+02  0.29894745065E+02  0.25500000920E-02 0.  1.
    10030    2    1    2    0    0  0.00000000000E+00  0.00000000000E+00  0.20379091647E+04  0.20976986548E+04  0.49725836591E+03 0.  0.
        5    1    3    3  502    0  0.16566055633E+03  0.15614456846E+03  0.14401706936E+04  0.14580597597E+04  0.46999998093E+01 0. -1.
       -5    1    3    3    0  502 -0.16566055633E+03 -0.15614456846E+03  0.59773847112E+03  0.63963889504E+03  0.46999998093E+01 0.  1.
</event>
<event>
 5   0  0.2643185E-02  0.5016445E+03  0.7818609E-02  0.1013351E+00
       -1   -1    0    0    0  501  0.00000000000E+00  0.00000000000E+00  0.69050622522E+02  0.69050622706E+02  0.50400001928E-02 0.  1.
        1   -1    0    0  501    0  0.00000000000E+00  0.00000000000E+00 -0.91109697564E+03  0.91109697566E+03  0.50400001928E-02 0. -1.
    10030    2    1    2    0    0  0.00000000000E+00  0.00000000000E+00 -0.84204635312E+03  0.98014759836E+03  0.50164454923E+03 0.  0.
        1    1    3    3  502    0  0.17524861875E+03  0.15650369056E+03 -0.59254491919E+03  0.63742839975E+03  0.50400001928E-02 0. -1.
       -1    1    3    3    0  502 -0.17524861875E+03 -0.15650369056E+03 -0.24950143393E+03  0.34271919861E+03  0.50400001928E-02 0.  1.
</event>
<event>
 5   0  0.1805500E-02  0.4999589E+03  0.7818609E-02  0.1013790E+00
        3   -1    0    0  501    0  0.00000000000E+00  0.00000000000E+00  0.25666510505E+03  0.25666512492E+03  0.10100000352E+00 0. -1.
       -3   -1    0    0    0  501  0.00000000000E+00  0.00000000000E+00 -0.24346788112E+03  0.24346790207E+03  0.10100000352E+00 0.  1.
    10030    2    1    2    0    0  0.00000000000E+00  0.00000000000E+00  0.13197223931E+02  0.50013302699E+03  0.49995887627E+03 0.  0.
        3    1    3    3  502    0 -0.22333248165E+02 -0.24895488300E+03  0.10121421411E+02  0.25015947137E+03  0.10100000352E+00 0.  1.
       -3    1    3    3    0  502  0.22333248165E+02  0.24895488300E+03  0.30758025205E+01  0.24997355562E+03  0.10100000352E+00 0. -1.
</event>
<event>
 5   0  0.2723308E-02  0.4990347E+03  0.7818609E-02  0.1014031E+00
       -1   -1    0    0    0  501  0.00000000000E+00  0.00000000000E+00  0.29735188811E+03  0.29735188815E+03  0.50400001928E-02 0. -1.
        1   -1    0    0  501    0  0.00000000000E+00  0.00000000000E+00 -0.20937787533E+03  0.20937787539E+03  0.50400001928E-02 0.  1.
    10030    2    1    2    0    0  0.00000000000E+00  0.00000000000E+00  0.87974012782E+02  0.50672976354E+03  0.49903469452E+03 0.  0.
        4    1    3    3  502    0  0.15238565677E+02  0.10717167027E+03  0.27226305179E+03  0.29299618267E+03  0.12699999809E+01 0. -1.
       -4    1    3    3    0  502 -0.15238565677E+02 -0.10717167027E+03 -0.18428903901E+03  0.21373358087E+03  0.12699999809E+01 0.  1.
</event>
<event>
 5   0  0.2715483E-02  0.4989787E+03  0.7818609E-02  0.1014046E+00
        1   -1    0    0  501    0  0.00000000000E+00  0.00000000000E+00  0.18697498783E+03  0.18697498790E+03  0.50400001928E-02 0.  1.
       -1   -1    0    0    0  501  0.00000000000E+00  0.00000000000E+00 -0.33290509475E+03  0.33290509479E+03  0.50400001928E-02 0. -1.
    10030    2    1    2    0    0  0.00000000000E+00  0.00000000000E+00 -0.14593010692E+03  0.51988008269E+03  0.49897866114E+03 0.  0.
        5    1    3    3  502    0 -0.69267781267E+02 -0.50291553305E+02  0.17114735538E+03  0.19141779725E+03  0.46999998093E+01 0.  1.
       -5    1    3    3    0  502  0.69267781267E+02  0.50291553305E+02 -0.31707746230E+03  0.32846228543E+03  0.46999998093E+01 0. -1.
</event>
<event>
 5   0  0.4519539E-02  0.5127903E+03  0.7818609E-02  0.1010493E+00
        2   -1    0    0  501    0  0.00000000000E+00  0.00000000000E+00  0.71165135521E+03  0.71165135521E+03  0.25500000920E-02 0. -1.
       -2   -1    0    0    0  501  0.00000000000E+00  0.00000000000E+00 -0.92374534829E+02  0.92374534864E+02  0.25500000920E-02 0.  1.
    10030    2    1    2    0    0  0.00000000000E+00  0.00000000000E+00  0.61927682038E+03  0.80402589008E+03  0.51279026088E+03 0.  0.
        4    1    3    3  502    0 -0.22013107472E+03  0.12660893844E+03  0.25421796533E+03  0.35932701004E+03  0.12699999809E+01 0. -1.
       -4    1    3    3    0  502  0.22013107472E+03 -0.12660893844E+03  0.36505885505E+03  0.44469888004E+03  0.12699999809E+01 0.  1.
</event>
<event>
 5   0  0.2643185E-02  0.5004653E+03  0.7818609E-02  0.1013658E+00
       -1   -1    0    0    0  501  0.00000000000E+00  0.00000000000E+00  0.93666134147E+02  0.93666134283E+02  0.50400001928E-02 0. -1.
        1   -1    0    0  501    0  0.00000000000E+00  0.00000000000E+00 -0.66850618945E+03  0.66850618946E+03  0.50400001928E-02 0.  1.
    10030    2    1    2    0    0  0.00000000000E+00  0.00000000000E+00 -0.57484005530E+03  0.76217232375E+03  0.50046534536E+03 0.  0.
        1    1    3    3  502    0  0.16715987184E+03 -0.85441269246E+02 -0.53938859678E+03  0.57112405974E+03  0.50400001928E-02 0.  1.
       -1    1    3    3    0  502 -0.16715987184E+03  0.85441269246E+02 -0.35451458517E+02  0.19104826401E+03  0.50400001928E-02 0. -1.
</event>
<event>
 5   0  0.4534223E-02  0.5001322E+03  0.7818609E-02  0.1013744E+00
        2   -1    0    0  501    0  0.00000000000E+00  0.00000000000E+00  0.57139578875E+03  0.57139578875E+03  0.25500000920E-02 0. -1.
       -2   -1    0    0    0  501  0.00000000000E+00  0.00000000000E+00 -0.10943912771E+03  0.10943912774E+03  0.25500000920E-02 0.  1.
    10030    2    1    2    0    0  0.00000000000E+00  0.00000000000E+00  0.46195666104E+03  0.68083491649E+03  0.50013220935E+03 0.  0.
        2    1    3    3  502    0 -0.14227657990E+02  0.24507080364E+03  0.16610607060E+03  0.29640066084E+03  0.25500000920E-02 0. -1.
       -2    1    3    3    0  502  0.14227657990E+02 -0.24507080364E+03  0.29585059045E+03  0.38443425566E+03  0.25500000920E-02 0.  1.
</event>
<event>
 5   0  0.4631619E-02  0.5255216E+03  0.7818609E-02  0.1007324E+00
       -2   -1    0    0    0  501  0.00000000000E+00  0.00000000000E+00  0.95575277573E+02  0.95575277607E+02  0.25500000920E-02 0.  1.
        2   -1    0    0  501    0  0.00000000000E+00  0.00000000000E+00 -0.72239636214E+03  0.72239636214E+03  0.25500000920E-02 0. -1.
    10030    2    1    2    0    0  0.00000000000E+00  0.00000000000E+00 -0.62682108457E+03  0.81797163975E+03  0.52552158032E+03 0.  0.
        5    1    3    3  502    0  0.40204491690E+02 -0.13920614015E+03  0.27694133941E+02  0.14759337946E+03  0.46999998093E+01 0.  1.
       -5    1    3    3    0  502 -0.40204491690E+02  0.13920614015E+03 -0.65451521851E+03  0.67037826029E+03  0.46999998093E+01 0. -1.
</event>
<event>
 5   0  0.2779445E-02  0.4978359E+03  0.7818609E-02  0.1014345E+00
       -1   -1    0    0    0  501  0.00000000000E+00  0.00000000000E+00  0.22417385282E+03  0.22417385287E+03  0.50400001928E-02 0. -1.
        1   -1    0    0  501    0  0.00000000000E+00  0.00000000000E+00 -0.27639330732E+03  0.27639330736E+03  0.50400001928E-02 0.  1.
    10030    2    1    2    0    0  0.00000000000E+00  0.00000000000E+00 -0.52219454499E+02  0.50056716024E+03  0.49783592727E+03 0.  0.
        3    1    3    3  502    0  0.24267408638E+02 -0.87758102026E+02 -0.25904803103E+03  0.27458383815E+03  0.10100000352E+00 0.  1.
       -3    1    3    3    0  502 -0.24267408638E+02  0.87758102026E+02  0.20682857653E+03  0.22598332209E+03  0.10100000352E+00 0. -1.
</event>
<event>
 5   0  0.1805500E-02  0.4941779E+03  0.7818609E-02  0.1015310E+00
       -3   -1    0    0    0  501  0.00000000000E+00  0.00000000000E+00  0.15278965400E+03  0.15278968738E+03  0.10100000352E+00 0. -1.
        3   -1    0    0  501    0  0.00000000000E+00  0.00000000000E+00 -0.39958812925E+03  0.39958814202E+03  0.10100000352E+00 0.  1.
    10030    2    1    2    0    0  0.00000000000E+00  0.00000000000E+00 -0.24679847526E+03  0.55237782940E+03  0.49417788196E+03 0.  0.
        2    1    3    3  502    0  0.15200216061E+02 -0.13492167698E+03 -0.35415346609E+03  0.37928825850E+03  0.25500000920E-02 0.  1.
       -2    1    3    3    0  502 -0.15200216061E+02  0.13492167698E+03  0.10735499084E+03  0.17308957089E+03  0.25500000920E-02 0. -1.
</event>
<event>
 5   0  0.2715483E-02  0.5005792E+03  0.7818609E-02  0.1013628E+00
       -1   -1    0    0    0  501  0.00000000000E+00  0.00000000000E+00  0.46105978223E+03  0.46105978226E+03  0.50400001928E-02 0.  1.
        1   -1    0    0  501    0  0.00000000000E+00  0.00000000000E+00 -0.13587152417E+03  0.13587152426E+03  0.50400001928E-02 0. -1.
    10030    2    1    2    0    0  0.00000000000E+00  0.00000000000E+00  0.32518825806E+03  0.59693130651E+03  0.50057924599E+03 0.  0.
        5    1    3    3  502    0  0.11686424412E+03  0.12590321468E+03 -0.54404459203E+02  0.18025206295E+03  0.46999998093E+01 0. -1.
       -5    1    3    3    0  502 -0.11686424412E+03 -0.12590321468E+03  0.37959271727E+03  0.41667924356E+03  0.46999998093E+01 0.  1.
</event>
<event>
 5   0  0.4534223E-02  0.4998989E+03  0.7818609E-02  0.1013805E+00
        2   -1    0    0  501    0  0.00000000000E+00  0.00000000000E+00  0.58036874307E+03  0.58036874308E+03  0.25500000920E-02 0.  1.
       -2   -1    0    0    0  501  0.00000000000E+00  0.00000000000E+00 -0.10764662388E+03  0.10764662391E+03  0.25500000920E-02 0. -1.
    10030    2    1    2    0    0  0.00000000000E+00  0.00000000000E+00  0.47272211920E+03  0.68801536699E+03  0.49989893302E+03 0.  0.
        2    1    3    3  502    0  0.35694579822E+02 -0.23684315706E+03  0.33470651166E+03  0.41157895114E+03  0.25500000920E-02 0.  1.
       -2    1    3    3    0  502 -0.35694579822E+02  0.23684315706E+03  0.13801560754E+03  0.27643641584E+03  0.25500000920E-02 0. -1.
</event>
<event>
 5   0  0.2723308E-02  0.4980616E+03  0.7818609E-02  0.1014286E+00
       -1   -1    0    0    0  501  0.00000000000E+00  0.00000000000E+00  0.46926635785E+02  0.46926636055E+02  0.50400001928E-02 0. -1.
        1   -1    0    0  501    0  0.00000000000E+00  0.00000000000E+00 -0.13215596439E+04  0.13215596439E+04  0.50400001928E-02 0.  1.
    10030    2    1    2    0    0  0.00000000000E+00  0.00000000000E+00 -0.12746330081E+04  0.13684862799E+04  0.49806163581E+03 0.  0.
        4    1    3    3  502    0  0.16494007274E+03  0.18226426900E+03 -0.52778157041E+03  0.58222031081E+03  0.12699999809E+01 0. -1.
       -4    1    3    3    0  502 -0.16494007274E+03 -0.18226426900E+03 -0.74685143766E+03  0.78626596911E+03  0.12699999809E+01 0.  1.
</event>
<event>
 5   0  0.4409622E-02  0.4944561E+03  0.7818609E-02  0.1015236E+00
       -2   -1    0    0    0  501  0.00000000000E+00  0.00000000000E+00  0.12693334390E+04  0.12693334390E+04  0.25500000920E-02 0.  1.
        2   -1    0    0  501    0  0.00000000000E+00  0.00000000000E+00 -0.48152598653E+02  0.48152598720E+02  0.25500000920E-02 0. -1.
    10030    2    1    2    0    0  0.00000000000E+00  0.00000000000E+00  0.12211808404E+04  0.13174860377E+04  0.49445607972E+03 0.  0.
        3    1    3    3  502    0  0.10665318021E+02  0.64675882162E+02  0.12457574196E+04  0.12474807723E+04  0.10100000352E+00 0.  1.
       -3    1    3    3    0  502 -0.10665318021E+02 -0.64675882162E+02 -0.24576579182E+02  0.70005265425E+02  0.10100000352E+00 0. -1.
</event>
<event>
 5   0  0.4631619E-02  0.5012865E+03  0.7818609E-02  0.1013444E+00
       -2   -1    0    0    0  501  0.00000000000E+00  0.00000000000E+00  0.15782692972E+03  0.15782692974E+03  0.25500000920E-02 0. -1.
        2   -1    0    0  501    0  0.00000000000E+00  0.00000000000E+00 -0.39804386506E+03  0.39804386507E+03  0.25500000920E-02 0.  1.
    10030    2    1    2    0    0  0.00000000000E+00  0.00000000000E+00 -0.24021693535E+03  0.55587079481E+03  0.50128650939E+03 0.  0.
        5    1    3    3  502    0 -0.88020650492E+02 -0.64815981994E+02  0.12994821361E+03  0.16987458507E+03  0.46999998093E+01 0. -1.
       -5    1    3    3    0  502  0.88020650492E+02  0.64815981994E+02 -0.37016514895E+03  0.38599620974E+03  0.46999998093E+01 0.  1.
</event>
<event>
 5   0  0.4451135E-02  0.5000806E+03  0.7818609E-02  0.1013758E+00
       -2   -1    0    0    0  501  0.00000000000E+00  0.00000000000E+00  0.56616065624E+02  0.56616065681E+02  0.25500000920E-02 0. -1.
        2   -1    0    0  501    0  0.00000000000E+00  0.00000000000E+00 -0.11042827696E+04  0.11042827696E+04  0.25500000920E-02 0.  1.
    10030    2    1    2    0    0  0.00000000000E+00  0.00000000000E+00 -0.10476667039E+04  0.11608988352E+04  0.50008057664E+03 0.  0.
        1    1    3    3  502    0  0.10825567703E+01  0.99984071526E+02 -0.10558505541E+04  0.10605745515E+04  0.50400001928E-02 0.  1.
       -1    1    3    3    0  502 -0.10825567703E+01 -0.99984071526E+02  0.81838502055E+01  0.10032428379E+03  0.50400001928E-02 0. -1.
</event>
<event>
 5   0  0.2723308E-02  0.4984652E+03  0.7818609E-02  0.1014180E+00
        1   -1    0    0  501    0  0.00000000000E+00  0.00000000000E+00  0.68474357033E+03  0.68474357035E+03  0.50400001928E-02 0. -1.
       -1   -1    0    0    0  501  0.00000000000E+00  0.00000000000E+00 -0.90715562008E+02  0.90715562148E+02  0.50400001928E-02 0.  1.
    10030    2    1    2    0    0  0.00000000000E+00  0.00000000000E+00  0.59402800832E+03  0.77545913250E+03  0.49846523600E+03 0.  0.
        4    1    3    3  502    0  0.94371267450E+02 -0.14529882829E+03  0.57572898710E+03  0.60123470051E+03  0.12699999809E+01 0. -1.
       -4    1    3    3    0  502 -0.94371267450E+02  0.14529882829E+03  0.18299021228E+02  0.17422443198E+03  0.12699999809E+01 0.  1.
</event>
<event>
 5   0  0.4451135E-02  0.5010732E+03  0.7818609E-02  0.1013499E+00
       -2   -1    0    0    0  501  0.00000000000E+00  0.00000000000E+00  0.26943272235E+03  0.26943272236E+03  0.25500000920E-02 0.  1.
        2   -1    0    0  501    0  0.00000000000E+00  0.00000000000E+00 -0.23296572464E+03  0.23296572465E+03  0.25500000920E-02 0. -1.
    10030    2    1    2    0    0  0.00000000000E+00  0.00000000000E+00  0.36466997712E+02  0.50239844702E+03  0.50107320587E+03 0.  0.
        1    1    3    3  502    0 -0.21980643209E+03 -0.78923442509E+02 -0.72697109887E+02  0.24459895171E+03  0.50400001928E-02 0. -1.
       -1    1    3    3    0  502  0.21980643209E+03  0.78923442509E+02  0.10916410760E+03  0.25779949531E+03  0.50400001928E-02 0.  1.
</event>
<event>
 5   0  0.2723308E-02  0.5003960E+03  0.7818609E-02  0.1013676E+00
       -1   -1    0    0    0  501  0.00000000000E+00  0.00000000000E+00  0.51521385883E+02  0.51521386130E+02  0.50400001928E-02 0.  1.
        1   -1    0    0  501    0  0.00000000000E+00  0.00000000000E+00 -0.12150109036E+04  0.12150109036E+04  0.50400001928E-02 0. -1.
    10030    2    1    2    0    0  0.00000000000E+00  0.00000000000E+00 -0.11634895178E+04  0.12665322898E+04  0.50039602629E+03 0.  0.
        4    1    3    3  502    0 -0.84803612439E+02 -0.14173976121E+03 -0.10609658519E+03  0.19631584470E+03  0.12699999809E+01 0.  1.
       -4    1    3    3    0  502  0.84803612439E+02  0.14173976121E+03 -0.10573929326E+04  0.10702164451E+04  0.12699999809E+01 0. -1.
</event>
<event>
 5   0  0.4519539E-02  0.5016360E+03  0.7818609E-02  0.1013353E+00
        2   -1    0    0  501    0  0.00000000000E+00  0.00000000000E+00  0.11835592432E+04  0.11835592432E+04  0.25500000920E-02 0.  1.
       -2   -1    0    0    0  501  0.00000000000E+00  0.00000000000E+00 -0.53152950778E+02  0.53152950839E+02  0.25500000920E-02 0. -1.
    10030    2    1    2    0    0  0.00000000000E+00  0.00000000000E+00  0.11304062925E+04  0.12367121941E+04  0.50163598849E+03 0.  0.
        4    1    3    3  502    0  0.12329936703E+03 -0.19731570544E+03  0.33430252315E+03  0.40730334078E+03  0.12699999809E+01 0.  1.
       -4    1    3    3    0  502 -0.12329936703E+03  0.19731570544E+03  0.79610376932E+03  0.82940885331E+03  0.12699999809E+01 0. -1.
</event>
<event>
 5   0  0.2643185E-02  0.4996488E+03  0.7818609E-02  0.1013871E+00
       -1   -1    0    0    0  501  0.00000000000E+00  0.00000000000E+00  0.80050922839E+03  0.80050922840E+03  0.50400001928E-02 0. -1.
        1   -1    0    0  501    0  0.00000000000E+00  0.00000000000E+00 -0.77965662802E+02  0.77965662965E+02  0.50400001928E-02 0.  1.
    10030    2    1    2    0    0  0.00000000000E+00  0.00000000000E+00  0.72254356558E+03  0.87847489137E+03  0.49964880726E+03 0.  0.
        1    1    3    3  502    0  0.13694640255E+03 -0.20834969559E+03  0.38897754946E+03  0.46202537467E+03  0.50400001928E-02 0.  1.
       -1    1    3    3    0  502 -0.13694640255E+03  0.20834969559E+03  0.33356601612E+03  0.41644951670E+03  0.50400001928E-02 0. -1.
</event>
<event>
 5   0  0.4631619E-02  0.5015196E+03  0.7818609E-02  0.1013383E+00
       -2   -1    0    0    0  501  0.00000000000E+00  0.00000000000E+00  0.64640100347E+03  0.64640100348E+03  0.25500000920E-02 0. -1.
        2   -1    0    0  501    0  0.00000000000E+00  0.00000000000E+00 -0.97277805998E+02  0.97277806032E+02  0.25500000920E-02 0.  1.
    10030    2    1    2    0    0  0.00000000000E+00  0.00000000000E+00  0.54912319748E+03  0.74367880951E+03  0.50151957660E+03 0.  0.
        5    1    3    3  502    0 -0.18211150447E+03  0.13335866302E+03  0.11273880567E+03  0.25235146397E+03  0.46999998093E+01 0.  1.
       -5    1    3    3    0  502  0.18211150447E+03 -0.13335866302E+03  0.43638439181E+03  0.49132734554E+03  0.46999998093E+01 0. -1.
</event>
<event>
 5   0  0.4631619E-02  0.4820220E+03  0.7818609E-02  0.1018581E+00
       -2   -1    0    0    0  501  0.00000000000E+00  0.00000000000E+00  0.25697425740E+03  0.25697425741E+03  0.25500000920E-02 0.  1.
        2   -1    0    0  501    0  0.00000000000E+00  0.00000000000E+00 -0.22603937928E+03  0.22603937929E+03  0.25500000920E-02 0. -1.
    10030    2    1    2    0    0  0.00000000000E+00  0.00000000000E+00  0.30934878125E+02  0.48301363671E+03  0.48202199800E+03 0.  0.
        5    1    3    3  502    0  0.47565651449E+02  0.10515144241E+03  0.22743249904E+03  0.25508223900E+03  0.46999998093E+01 0.  1.
       -5    1    3    3    0  502 -0.47565651449E+02 -0.10515144241E+03 -0.19649762091E+03  0.22793139770E+03  0.46999998093E+01 0. -1.
</event>
<event>
 5   0  0.4534223E-02  0.5004246E+03  0.7818609E-02  0.1013668E+00
       -2   -1    0    0    0  501  0.00000000000E+00  0.00000000000E+00  0.53365765316E+02  0.53365765377E+02  0.25500000920E-02 0.  1.
        2   -1    0    0  501    0  0.00000000000E+00  0.00000000000E+00 -0.11731527375E+04  0.11731527375E+04  0.25500000920E-02 0. -1.
    10030    2    1    2    0    0  0.00000000000E+00  0.00000000000E+00 -0.11197869722E+04  0.12265185029E+04  0.50042459455E+03 0.  0.
        2    1    3    3  502    0 -0.10771001211E+03 -0.81694824285E+02 -0.43848258668E+02  0.14212023367E+03  0.25500000920E-02 0.  1.
       -2    1    3    3    0  502  0.10771001211E+03  0.81694824285E+02 -0.10759387135E+04  0.10843982692E+04  0.25500000920E-02 0. -1.
</event>
<event>
 5   0  0.4534223E-02  0.5097301E+03  0.7818609E-02  0.1011270E+00
        2   -1    0    0  501    0  0.00000000000E+00  0.00000000000E+00  0.61056785006E+03  0.61056785007E+03  0.25500000920E-02 0. -1.
       -2   -1    0    0    0  501  0.00000000000E+00  0.00000000000E+00 -0.10638651114E+03  0.10638651117E+03  0.25500000920E-02 0.  1.
    10030    2    1    2    0    0  0.00000000000E+00  0.00000000000E+00  0.50418133892E+03  0.71695436124E+03  0.50973005953E+03 0.  0.
        2    1    3    3  502    0 -0.95672247656E+02  0.22835425662E+03  0.16702901822E+03  0.29865956944E+03  0.25500000920E-02 0.  1.
       -2    1    3    3    0  502  0.95672247656E+02 -0.22835425662E+03  0.33715232070E+03  0.41829479180E+03  0.25500000920E-02 0. -1.
</event>
<event>
 5   0  0.4451135E-02  0.5012996E+03  0.7818609E-02  0.1013440E+00
        2   -1    0    0  501    0  0.00000000000E+00  0.00000000000E+00  0.31866199046E+03  0.31866199047E+03  0.25500000920E-02 0. -1.
       -2   -1    0    0    0  501  0.00000000000E+00  0.00000000000E+00 -0.19715344984E+03  0.19715344985E+03  0.25500000920E-02 0.  1.
    10030    2    1    2    0    0  0.00000000000E+00  0.00000000000E+00  0.12150854062E+03  0.51581544032E+03  0.50129955419E+03 0.  0.
        1    1    3    3  502    0  0.23082767945E+03 -0.34806525537E+02 -0.33170911958E+02  0.23578214785E+03  0.50400001928E-02 0.  1.
       -1    1    3    3    0  502 -0.23082767945E+03  0.34806525537E+02  0.15467945258E+03  0.28003329247E+03  0.50400001928E-02 0. -1.
</event>
<event>
 5   0  0.2779445E-02  0.5027711E+03  0.7818609E-02  0.1013058E+00
       -1   -1    0    0    0  501  0.00000000000E+00  0.00000000000E+00  0.27813749706E+03  0.27813749711E+03  0.50400001928E-02 0. -1.
        1   -1    0    0  501    0  0.00000000000E+00  0.00000000000E+00 -0.22720664592E+03  0.22720664598E+03  0.50400001928E-02 0.  1.
    10030    2    1    2    0    0  0.00000000000E+00  0.00000000000E+00  0.50930851138E+02  0.50534414308E+03  0.50277107251E+03 0.  0.
        3    1    3    3  502    0 -0.15491612615E+03 -0.35603400821E+02  0.22121342070E+03  0.27240043317E+03  0.10100000352E+00 0. -1.
       -3    1    3    3    0  502  0.15491612615E+03  0.35603400821E+02 -0.17028256956E+03  0.23294370992E+03  0.10100000352E+00 0.  1.
</event>
<event>
 5   0  0.2779445E-02  0.4984989E+03  0.7818609E-02  0.1014171E+00
        1   -1    0    0  501    0  0.00000000000E+00  0.00000000000E+00  0.78084534838E+03  0.78084534840E+03  0.50400001928E-02 0. -1.
       -1   -1    0    0    0  501  0.00000000000E+00  0.00000000000E+00 -0.79561562612E+02  0.79561562771E+02  0.50400001928E-02 0.  1.
    10030    2    1    2    0    0  0.00000000000E+00  0.00000000000E+00  0.70128378577E+03  0.86040691117E+03  0.49849885116E+03 0.  0.
        3    1    3    3  502    0 -0.19614171831E+03 -0.11356987693E+03  0.17164044173E+03  0.28430642280E+03  0.10100000352E+00 0. -1.
       -3    1    3    3    0  502  0.19614171831E+03  0.11356987693E+03  0.52964334404E+03  0.57610048837E+03  0.10100000352E+00 0.  1.
</event>
<event>
 5   0  0.2715483E-02  0.5009655E+03  0.7818609E-02  0.1013527E+00
        1   -1    0    0  501    0  0.00000000000E+00  0.00000000000E+00  0.69193802570E+03  0.69193802572E+03  0.50400001928E-02 0.  1.
       -1   -1    0    0    0  501  0.00000000000E+00  0.00000000000E+00 -0.90675175071E+02  0.90675175211E+02  0.50400001928E-02 0. -1.
    10030    2    1    2    0    0  0.00000000000E+00  0.00000000000E+00  0.60126285063E+03  0.78261320093E+03  0.50096547458E+03 0.  0.
        5    1    3    3  502    0  0.18188172089E+03 -0.12011027159E+03  0.49331007181E+03  0.53933695839E+03  0.46999998093E+01 0.  1.
       -5    1    3    3    0  502 -0.18188172089E+03  0.12011027159E+03  0.10795277882E+03  0.24327624254E+03  0.46999998093E+01 0. -1.
</event>
<event>
 5   0  0.4409622E-02  0.4997160E+03  0.7818609E-02  0.1013853E+00
        2   -1    0    0  501    0  0.00000000000E+00  0.00000000000E+00  0.53897086044E+03  0.53897086045E+03  0.25500000920E-02 0. -1.
       -2   -1    0    0    0  501  0.00000000000E+00  0.00000000000E+00 -0.11583006769E+03  0.11583006772E+03  0.25500000920E-02 0.  1.
    10030    2    1    2    0    0  0.00000000000E+00  0.00000000000E+00  0.42314079275E+03  0.65480092817E+03  0.49971604441E+03 0.  0.
        3    1    3    3  502    0  0.43855756714E+02  0.46611217483E+02 -0.10490756818E+03  0.12288832757E+03  0.10100000352E+00 0.  1.
       -3    1    3    3    0  502 -0.43855756714E+02 -0.46611217483E+02  0.52804836093E+03  0.53191260059E+03  0.10100000352E+00 0. -1.
</event>
<event>
 5   0  0.1805500E-02  0.5018750E+03  0.7818609E-02  0.1013291E+00
       -3   -1    0    0    0  501  0.00000000000E+00  0.00000000000E+00  0.92980531812E+03  0.92980532360E+03  0.10100000352E+00 0.  1.
        3   -1    0    0  501    0  0.00000000000E+00  0.00000000000E+00 -0.67723410220E+02  0.67723485534E+02  0.10100000352E+00 0. -1.
    10030    2    1    2    0    0  0.00000000000E+00  0.00000000000E+00  0.86208190790E+03  0.99752880914E+03  0.50187499353E+03 0.  0.
        5    1    3    3  502    0 -0.25049267564E+03  0.10640746574E+02  0.44965784021E+03  0.51485344449E+03  0.46999998093E+01 0.  1.
       -5    1    3    3    0  502  0.25049267564E+03 -0.10640746574E+02  0.41242406768E+03  0.48267536465E+03  0.46999998093E+01 0. -1.
</event>
<event>
 5   0  0.2723308E-02  0.5012321E+03  0.7818609E-02  0.1013458E+00
       -1   -1    0    0    0  501  0.00000000000E+00  0.00000000000E+00  0.97703468548E+02  0.97703468678E+02  0.50400001928E-02 0.  1.
        1   -1    0    0  501    0  0.00000000000E+00  0.00000000000E+00 -0.64284718977E+03  0.64284718979E+03  0.50400001928E-02 0. -1.
    10030    2    1    2    0    0  0.00000000000E+00  0.00000000000E+00 -0.54514372122E+03  0.74055065847E+03  0.50123208294E+03 0.  0.
        4    1    3    3  502    0 -0.15581480912E+03 -0.62515814669E+02 -0.54747605038E+03  0.57264135413E+03  0.12699999809E+01 0. -1.
       -4    1    3    3    0  502  0.15581480912E+03  0.62515814669E+02  0.23323291529E+01  0.16790930434E+03  0.12699999809E+01 0.  1.
</event>
<event>
 5   0  0.4534223E-02  0.5003990E+03  0.7818609E-02  0.1013675E+00
        2   -1    0    0  501    0  0.00000000000E+00  0.00000000000E+00  0.28838366313E+03  0.28838366314E+03  0.25500000920E-02 0. -1.
       -2   -1    0    0    0  501  0.00000000000E+00  0.00000000000E+00 -0.21707118092E+03  0.21707118094E+03  0.25500000920E-02 0.  1.
    10030    2    1    2    0    0  0.00000000000E+00  0.00000000000E+00  0.71312482205E+02  0.50545484408E+03  0.50039897011E+03 0.  0.
        2    1    3    3  502    0  0.11758287217E+03 -0.15237572998E+03 -0.12582041205E+03  0.22994536527E+03  0.25500000920E-02 0.  1.
       -2    1    3    3    0  502 -0.11758287217E+03  0.15237572998E+03  0.19713289425E+03  0.27550947881E+03  0.25500000920E-02 0. -1.
</event>
<event>
 5   0  0.2723308E-02  0.5011095E+03  0.7818609E-02  0.1013490E+00
        1   -1    0    0  501    0  0.00000000000E+00  0.00000000000E+00  0.28735189308E+03  0.28735189312E+03  0.50400001928E-02 0. -1.
       -1   -1    0    0    0  501  0.00000000000E+00  0.00000000000E+00 -0.21846969516E+03  0.21846969522E+03  0.50400001928E-02 0.  1.
    10030    2    1    2    0    0  0.00000000000E+00  0.00000000000E+00  0.68882197923E+02  0.50582158834E+03  0.50110949107E+03 0.  0.
        4    1    3    3  502    0  0.97551258586E+02 -0.17971476465E+01  0.26738503502E+03  0.28463282953E+03  0.12699999809E+01 0. -1.
       -4    1    3    3    0  502 -0.97551258586E+02  0.17971476465E+01 -0.19850283710E+03  0.22118875882E+03  0.12699999809E+01 0.  1.
</event>
<event>
 5   0  0.2643185E-02  0.5027054E+03  0.7818609E-02  0.1013075E+00
       -1   -1    0    0    0  501  0.00000000000E+00  0.00000000000E+00  0.23286469344E+03  0.23286469350E+03  0.50400001928E-02 0.  1.
        1   -1    0    0  501    0  0.00000000000E+00  0.00000000000E+00 -0.27130849811E+03  0.27130849816E+03  0.50400001928E-02 0. -1.
    10030    2    1    2    0    0  0.00000000000E+00  0.00000000000E+00 -0.38443804665E+02  0.50417319165E+03  0.50270536208E+03 0.  0.
        1    1    3    3  502    0 -0.10723674307E+03  0.10037762482E+01  0.20876859320E+03  0.23470204976E+03  0.50400001928E-02 0.  1.
       -1    1    3    3    0  502  0.10723674307E+03 -0.10037762482E+01 -0.24721239786E+03  0.26947114189E+03  0.50400001928E-02 0. -1.
</event>
<event>
 5   0  0.2719671E-02  0.4997240E+03  0.7818609E-02  0.1013851E+00
       -1   -1    0    0    0  501  0.00000000000E+00  0.00000000000E+00  0.45312971956E+03  0.45312971959E+03  0.50400001928E-02 0.  1.
        1   -1    0    0  501    0  0.00000000000E+00  0.00000000000E+00 -0.13777735575E+03  0.13777735584E+03  0.50400001928E-02 0. -1.
    10030    2    1    2    0    0  0.00000000000E+00  0.00000000000E+00  0.31535236381E+03  0.59090707543E+03  0.49972398224E+03 0.  0.
        2    1    3    3  502    0  0.35940020417E+02 -0.18481420643E+03 -0.36561920056E+02  0.19179350868E+03  0.25500000920E-02 0. -1.
       -2    1    3    3    0  502 -0.35940020417E+02  0.18481420643E+03  0.35191428387E+03  0.39911356675E+03  0.25500000920E-02 0.  1.
</event>
<event>
 5   0  0.2779445E-02  0.5038196E+03  0.7818609E-02  0.1012787E+00
        1   -1    0    0  501    0  0.00000000000E+00  0.00000000000E+00  0.37647019198E+03  0.37647019202E+03  0.50400001928E-02 0. -1.
       -1   -1    0    0    0  501  0.00000000000E+00  0.00000000000E+00 -0.16856197437E+03  0.16856197444E+03  0.50400001928E-02 0.  1.
    10030    2    1    2    0    0  0.00000000000E+00  0.00000000000E+00  0.20790821762E+03  0.54503216646E+03  0.50381964583E+03 0.  0.
        3    1    3    3  502    0 -0.45003177090E+02  0.18712381710E+03 -0.71877321492E+02  0.20544334602E+03  0.10100000352E+00 0.  1.
       -3    1    3    3    0  502  0.45003177090E+02 -0.18712381710E+03  0.27978553911E+03  0.33958882045E+03  0.10100000352E+00 0. -1.
</event>
<event>
 5   0  0.4519539E-02  0.5009708E+03  0.7818609E-02  0.1013526E+00
        2   -1    0    0  501    0  0.00000000000E+00  0.00000000000E+00  0.12139134746E+04  0.12139134746E+04  0.25500000920E-02 0.  1.
       -2   -1    0    0    0  501  0.00000000000E+00  0.00000000000E+00 -0.51686506338E+02  0.51686506401E+02  0.25500000920E-02 0. -1.
    10030    2    1    2    0    0  0.00000000000E+00  0.00000000000E+00  0.11622269683E+04  0.12655999810E+04  0.50097084363E+03 0.  0.
        4    1    3    3  502    0 -0.23565952031E+03  0.72406388172E+02  0.46917727258E+03  0.53000662313E+03  0.12699999809E+01 0. -1.
       -4    1    3    3    0  502  0.23565952031E+03 -0.72406388172E+02  0.69304969572E+03  0.73559335791E+03  0.12699999809E+01 0.  1.
</event>
<event>
 5   0  0.4519539E-02  0.5116808E+03  0.7818609E-02  0.1010774E+00
       -2   -1    0    0    0  501  0.00000000000E+00  0.00000000000E+00  0.82082522752E+02  0.82082522792E+02  0.25500000920E-02 0.  1.
        2   -1    0    0  501    0  0.00000000000E+00  0.00000000000E+00 -0.79742091368E+03  0.79742091369E+03  0.25500000920E-02 0. -1.
    10030    2    1    2    0    0  0.00000000000E+00  0.00000000000E+00 -0.71533839093E+03  0.87950343648E+03  0.51168083923E+03 0.  0.
        4    1    3    3  502    0  0.61634740841E+00 -0.23835163236E+03 -0.51744684876E+03  0.56970583175E+03  0.12699999809E+01 0. -1.
       -4    1    3    3    0  502 -0.61634740841E+00  0.23835163236E+03 -0.19789154217E+03  0.30979760473E+03  0.12699999809E+01 0.  1.
</event>
<event>
 5   0  0.2719671E-02  0.4986209E+03  0.7818609E-02  0.1014140E+00
       -1   -1    0    0    0  501  0.00000000000E+00  0.00000000000E+00  0.73703528133E+02  0.73703528305E+02  0.50400001928E-02 0. -1.
        1   -1    0    0  501    0  0.00000000000E+00  0.00000000000E+00 -0.84332052104E+03  0.84332052105E+03  0.50400001928E-02 0.  1.
    10030    2    1    2    0    0  0.00000000000E+00  0.00000000000E+00 -0.76961699291E+03  0.91702404936E+03  0.49862088939E+03 0.  0.
        2    1    3    3  502    0 -0.26623350722E+02 -0.99554671090E+02  0.32699318759E+02  0.10811651490E+03  0.25500000920E-02 0. -1.
       -2    1    3    3    0  502  0.26623350722E+02  0.99554671090E+02 -0.80231631167E+03  0.80890753446E+03  0.25500000920E-02 0.  1.
</event>
<event>
 5   0  0.4519539E-02  0.4929941E+03  0.7818609E-02  0.1015624E+00
        2   -1    0    0  501    0  0.00000000000E+00  0.00000000000E+00  0.97288404717E+02  0.97288404750E+02  0.25500000920E-02 0.  1.
       -2   -1    0    0    0  501  0.00000000000E+00  0.00000000000E+00 -0.62454303729E+03  0.62454303729E+03  0.25500000920E-02 0. -1.
    10030    2    1    2    0    0  0.00000000000E+00  0.00000000000E+00 -0.52725463257E+03  0.72183144204E+03  0.49299410053E+03 0.  0.
        4    1    3    3  502    0  0.13176927976E+03 -0.98006591822E+02  0.55218100312E+01  0.16431840559E+03  0.12699999809E+01 0.  1.
       -4    1    3    3    0  502 -0.13176927976E+03  0.98006591822E+02 -0.53277644260E+03  0.55751303646E+03  0.12699999809E+01 0. -1.
</event>
<event>
 5   0  0.4451135E-02  0.5019105E+03  0.7818609E-02  0.1013281E+00
       -2   -1    0    0    0  501  0.00000000000E+00  0.00000000000E+00  0.14111733732E+03  0.14111733734E+03  0.25500000920E-02 0.  1.
        2   -1    0    0  501    0  0.00000000000E+00  0.00000000000E+00 -0.44628486198E+03  0.44628486198E+03  0.25500000920E-02 0. -1.
    10030    2    1    2    0    0  0.00000000000E+00  0.00000000000E+00 -0.30516752466E+03  0.58740219933E+03  0.50191047575E+03 0.  0.
        1    1    3    3  502    0  0.12124792124E+03 -0.20626842762E+03 -0.24118040520E+03  0.33972887796E+03  0.50400001928E-02 0. -1.
       -1    1    3    3    0  502 -0.12124792124E+03  0.20626842762E+03 -0.63987119454E+02  0.24767332137E+03  0.50400001928E-02 0.  1.
</event>
<event>
 5   0  0.1805500E-02  0.4732463E+03  0.7818609E-02  0.1021008E+00
       -3   -1    0    0    0  501  0.00000000000E+00  0.00000000000E+00  0.80806372003E+02  0.80806435123E+02  0.10100000352E+00 0. -1.
        3   -1    0    0  501    0  0.00000000000E+00  0.00000000000E+00 -0.69289692164E+03  0.69289692900E+03  0.10100000352E+00 0.  1.
    10030    2    1    2    0    0  0.00000000000E+00  0.00000000000E+00 -0.61209054964E+03  0.77370336413E+03  0.47324629391E+03 0.  0.
        4    1    3    3  502    0 -0.16068487002E+02 -0.23540528549E+03 -0.27702635881E+03  0.36389429933E+03  0.12699999809E+01 0. -1.
       -4    1    3    3    0  502  0.16068487002E+02  0.23540528549E+03 -0.33506419083E+03  0.40980906479E+03  0.12699999809E+01 0.  1.
</event>
<event>
 5   0  0.4519539E-02  0.4921501E+03  0.7818609E-02  0.1015848E+00
        2   -1    0    0  501    0  0.00000000000E+00  0.00000000000E+00  0.13012957655E+04  0.13012957655E+04  0.25500000920E-02 0. -1.
       -2   -1    0    0    0  501  0.00000000000E+00  0.00000000000E+00 -0.46532786418E+02  0.46532786488E+02  0.25500000920E-02 0.  1.
    10030    2    1    2    0    0  0.00000000000E+00  0.00000000000E+00  0.12547629790E+04  0.13478285519E+04  0.49215005016E+03 0.  0.
        4    1    3    3  502    0  0.21027674213E+03  0.79364161994E+02  0.90174383742E+03  0.92933230855E+03  0.12699999809E+01 0. -1.
       -4    1    3    3    0  502 -0.21027674213E+03 -0.79364161994E+02  0.35301914162E+03  0.41849624340E+03  0.12699999809E+01 0.  1.
</event>
<event>
 5   0  0.2779445E-02  0.5018956E+03  0.7818609E-02  0.1013285E+00
       -1   -1    0    0    0  501  0.00000000000E+00  0.00000000000E+00  0.10288065487E+03  0.10288065499E+03  0.50400001928E-02 0.  1.
        1   -1    0    0  501    0  0.00000000000E+00  0.00000000000E+00 -0.61211506079E+03  0.61211506081E+03  0.50400001928E-02 0. -1.
    10030    2    1    2    0    0  0.00000000000E+00  0.00000000000E+00 -0.50923440592E+03  0.71499571580E+03  0.50189560013E+03 0.  0.
        3    1    3    3  502    0  0.91300802021E+02 -0.16706031369E+03 -0.48752709416E+03  0.52338099182E+03  0.10100000352E+00 0. -1.
       -3    1    3    3    0  502 -0.91300802021E+02  0.16706031369E+03 -0.21707311763E+02  0.19161472398E+03  0.10100000352E+00 0.  1.
</event>
<event>
 5   0  0.4631619E-02  0.5009264E+03  0.7818609E-02  0.1013537E+00
       -2   -1    0    0    0  501  0.00000000000E+00  0.00000000000E+00  0.55928183761E+02  0.55928183820E+02  0.25500000920E-02 0. -1.
        2   -1    0    0  501    0  0.00000000000E+00  0.00000000000E+00 -0.11216493359E+04  0.11216493359E+04  0.25500000920E-02 0.  1.
    10030    2    1    2    0    0  0.00000000000E+00  0.00000000000E+00 -0.10657211521E+04  0.11775775197E+04  0.50092638266E+03 0.  0.
        5    1    3    3  502    0 -0.13648434499E+03  0.11966134825E+03 -0.93841884769E+03  0.95582364398E+03  0.46999998093E+01 0.  1.
       -5    1    3    3    0  502  0.13648434499E+03 -0.11966134825E+03 -0.12730230446E+03  0.22175387575E+03  0.46999998093E+01 0. -1.
</event>
<event>
 5   0  0.2779445E-02  0.5003751E+03  0.7818609E-02  0.1013681E+00
       -1   -1    0    0    0  501  0.00000000000E+00  0.00000000000E+00  0.12444209911E+03  0.12444209921E+03  0.50400001928E-02 0.  1.
        1   -1    0    0  501    0  0.00000000000E+00  0.00000000000E+00 -0.50299548533E+03  0.50299548535E+03  0.50400001928E-02 0. -1.
    10030    2    1    2    0    0  0.00000000000E+00  0.00000000000E+00 -0.37855338622E+03  0.62743758457E+03  0.50037511560E+03 0.  0.
        3    1    3    3  502    0  0.22216317344E+03 -0.16678912516E+02 -0.33202236627E+03  0.39984187332E+03  0.10100000352E+00 0. -1.
       -3    1    3    3    0  502 -0.22216317344E+03  0.16678912516E+02 -0.46531019946E+02  0.22759571124E+03  0.10100000352E+00 0.  1.
</event>
<event>
 5   0  0.2779445E-02  0.5055189E+03  0.7818609E-02  0.1012348E+00
       -1   -1    0    0    0  501  0.00000000000E+00  0.00000000000E+00  0.24592919559E+03  0.24592919564E+03  0.50400001928E-02 0.  1.
        1   -1    0    0  501    0  0.00000000000E+00  0.00000000000E+00 -0.25977940392E+03  0.25977940397E+03  0.50400001928E-02 0. -1.
    10030    2    1    2    0    0  0.00000000000E+00  0.00000000000E+00 -0.13850208332E+02  0.50570859961E+03  0.50551890118E+03 0.  0.
        3    1    3    3  502    0 -0.65680916147E+02  0.84849367134E+02 -0.23586449862E+03  0.25912442911E+03  0.10100000352E+00 0. -1.
       -3    1    3    3    0  502  0.65680916147E+02 -0.84849367134E+02  0.22201429029E+03  0.24658417050E+03  0.10100000352E+00 0.  1.
</event>
<event>
 5   0  0.4409622E-02  0.4992505E+03  0.7818609E-02  0.1013975E+00
       -2   -1    0    0    0  501  0.00000000000E+00  0.00000000000E+00  0.51075384073E+02  0.51075384136E+02  0.25500000920E-02 0.  1.
        2   -1    0    0  501    0  0.00000000000E+00  0.00000000000E+00 -0.12200156544E+04  0.12200156544E+04  0.25500000920E-02 0. -1.
    10030    2    1    2    0    0  0.00000000000E+00  0.00000000000E+00 -0.11689402703E+04  0.12710910385E+04  0.49925051092E+03 0.  0.
        3    1    3    3  502    0  0.12716179000E+03 -0.19446315521E+03 -0.81679467064E+03  0.84919937809E+03  0.10100000352E+00 0. -1.
       -3    1    3    3    0  502 -0.12716179000E+03  0.19446315521E+03 -0.35214559967E+03  0.42189166043E+03  0.10100000352E+00 0.  1.
</event>
<event>
 5   0  0.1805500E-02  0.5087471E+03  0.7818609E-02  0.1011521E+00
        3   -1    0    0  501    0  0.00000000000E+00  0.00000000000E+00  0.21039061426E+03  0.21039063851E+03  0.10100000352E+00 0. -1.
       -3   -1    0    0    0  501  0.00000000000E+00  0.00000000000E+00 -0.30755128032E+03  0.30755129691E+03  0.10100000352E+00 0.  1.
    10030    2    1    2    0    0  0.00000000000E+00  0.00000000000E+00 -0.97160666059E+02  0.51794193541E+03  0.50874714096E+03 0.  0.
        3    1    3    3  502    0 -0.23299464968E+03 -0.53266185826E+02 -0.13722939185E+03  0.27560063411E+03  0.10100000352E+00 0.  1.
       -3    1    3    3    0  502  0.23299464968E+03  0.53266185826E+02  0.40068725795E+02  0.24234130131E+03  0.10100000352E+00 0. -1.
</event>
<event>
 5   0  0.2643185E-02  0.5008114E+03  0.7818609E-02  0.1013567E+00
       -1   -1    0    0    0  501  0.00000000000E+00  0.00000000000E+00  0.33809940709E+03  0.33809940713E+03  0.50400001928E-02 0. -1.
        1   -1    0    0  501    0  0.00000000000E+00  0.00000000000E+00 -0.18545736442E+03  0.18545736448E+03  0.50400001928E-02 0.  1.
    10030    2    1    2    0    0  0.00000000000E+00  0.00000000000E+00  0.15264204267E+03  0.52355677161E+03  0.50081144147E+03 0.  0.
        1    1    3    3  502    0  0.11539557837E+03 -0.20786284612E+03  0.15850384495E+03  0.28573864141E+03  0.50400001928E-02 0. -1.
       -1    1    3    3    0  502 -0.11539557837E+03  0.20786284612E+03 -0.58618022781E+01  0.23781813021E+03  0.50400001928E-02 0.  1.
</event>
<event>
 5   0  0.2723308E-02  0.4980359E+03  0.7818609E-02  0.1014293E+00
        1   -1    0    0  501    0  0.00000000000E+00  0.00000000000E+00  0.96032451220E+03  0.96032451222E+03  0.50400001928E-02 0.  1.
       -1   -1    0    0    0  501  0.00000000000E+00  0.00000000000E+00 -0.64571854369E+02  0.64571854566E+02  0.50400001928E-02 0. -1.
    10030    2    1    2    0    0  0.00000000000E+00  0.00000000000E+00  0.89575265783E+03  0.10248963668E+04  0.49803588086E+03 0.  0.
        4    1    3    3  502    0 -0.22479849087E+03 -0.88927227138E+02  0.57076289843E+03  0.61985023380E+03  0.12699999809E+01 0. -1.
       -4    1    3    3    0  502  0.22479849087E+03  0.88927227138E+02  0.32498975941E+03  0.40504613298E+03  0.12699999809E+01 0.  1.
</event>
<event>
 5   0  0.2715483E-02  0.4989951E+03  0.7818609E-02  0.1014042E+00
       -1   -1    0    0    0  501  0.00000000000E+00  0.00000000000E+00  0.93169116628E+02  0.93169116765E+02  0.50400001928E-02 0. -1.
        1   -1    0    0  501    0  0.00000000000E+00  0.00000000000E+00 -0.66812953043E+03  0.66812953045E+03  0.50400001928E-02 0.  1.
    10030    2    1    2    0    0  0.00000000000E+00  0.00000000000E+00 -0.57496041380E+03  0.76129864721E+03  0.49899514307E+03 0.  0.
        5    1    3    3  502    0 -0.11229234518E+02  0.13389281771E+03  0.33176234788E+02  0.13847792205E+03  0.46999998093E+01 0. -1.
       -5    1    3    3    0  502  0.11229234518E+02 -0.13389281771E+03 -0.60813664859E+03  0.62282072517E+03  0.46999998093E+01 0.  1.
</event>
<event>
 5   0  0.1805500E-02  0.4986631E+03  0.7818609E-02  0.1014128E+00
        3   -1    0    0  501    0  0.00000000000E+00  0.00000000000E+00  0.65398188140E+03  0.65398188920E+03  0.10100000352E+00 0. -1.
       -3   -1    0    0    0  501  0.00000000000E+00  0.00000000000E+00 -0.95057996139E+02  0.95058049796E+02  0.10100000352E+00 0.  1.
    10030    2    1    2    0    0  0.00000000000E+00  0.00000000000E+00  0.55892388526E+03  0.74903993900E+03  0.49866313348E+03 0.  0.
        1    1    3    3  502    0 -0.16788499746E+03  0.37107365771E+02  0.82352067605E+01  0.17213409779E+03  0.50400001928E-02 0.  1.
       -1    1    3    3    0  502  0.16788499746E+03 -0.37107365771E+02  0.55068867850E+03  0.57690584121E+03  0.50400001928E-02 0. -1.
</event>
<event>
 5   0  0.2723308E-02  0.5011031E+03  0.7818609E-02  0.1013491E+00
       -1   -1    0    0    0  501  0.00000000000E+00  0.00000000000E+00  0.21686486028E+03  0.21686486034E+03  0.50400001928E-02 0.  1.
        1   -1    0    0  501    0  0.00000000000E+00  0.00000000000E+00 -0.28947097642E+03  0.28947097646E+03  0.50400001928E-02 0. -1.
    10030    2    1    2    0    0  0.00000000000E+00  0.00000000000E+00 -0.72606116138E+02  0.50633583680E+03  0.50110311467E+03 0.  0.
        4    1    3    3  502    0 -0.17311784365E+00 -0.23236320448E+03  0.58386670331E+02  0.23958986819E+03  0.12699999809E+01 0.  1.
       -4    1    3    3    0  502  0.17311784365E+00  0.23236320448E+03 -0.13099278647E+03  0.26674596862E+03  0.12699999809E+01 0. -1.
</event>
<event>
 5   0  0.2643185E-02  0.4999311E+03  0.7818609E-02  0.1013797E+00
        1   -1    0    0  501    0  0.00000000000E+00  0.00000000000E+00  0.39885756800E+03  0.39885756803E+03  0.50400001928E-02 0. -1.
       -1   -1    0    0    0  501  0.00000000000E+00  0.00000000000E+00 -0.15665435826E+03  0.15665435834E+03  0.50400001928E-02 0.  1.
    10030    2    1    2    0    0  0.00000000000E+00  0.00000000000E+00  0.24220320974E+03  0.55551192637E+03  0.49993110078E+03 0.  0.
        1    1    3    3  502    0  0.20510386694E+03  0.10504563844E+03  0.13480263350E+02  0.23083305638E+03  0.50400001928E-02 0.  1.
       -1    1    3    3    0  502 -0.20510386694E+03 -0.10504563844E+03  0.22872294639E+03  0.32467886999E+03  0.50400001928E-02 0. -1.
</event>
<event>
 5   0  0.4519539E-02  0.5219328E+03  0.7818609E-02  0.1008208E+00
       -2   -1    0    0    0  501  0.00000000000E+00  0.00000000000E+00  0.56247897222E+02  0.56247897280E+02  0.25500000920E-02 0.  1.
        2   -1    0    0  501    0  0.00000000000E+00  0.00000000000E+00 -0.12107732472E+04  0.12107732472E+04  0.25500000920E-02 0. -1.
    10030    2    1    2    0    0  0.00000000000E+00  0.00000000000E+00 -0.11545253500E+04  0.12670211445E+04  0.52193275125E+03 0.  0.
        4    1    3    3  502    0 -0.12241754613E+02 -0.24505196234E+03 -0.79304923981E+03  0.83013796110E+03  0.12699999809E+01 0. -1.
       -4    1    3    3    0  502  0.12241754613E+02  0.24505196234E+03 -0.36147611021E+03  0.43688318342E+03  0.12699999809E+01 0.  1.
</event>
<event>
 5   0  0.2723308E-02  0.4989598E+03  0.7818609E-02  0.1014051E+00
       -1   -1    0    0    0  501  0.00000000000E+00  0.00000000000E+00  0.37963746455E+02  0.37963746790E+02  0.50400001928E-02 0. -1.
        1   -1    0    0  501    0  0.00000000000E+00  0.00000000000E+00 -0.16394647440E+04  0.16394647440E+04  0.50400001928E-02 0.  1.
    10030    2    1    2    0    0  0.00000000000E+00  0.00000000000E+00 -0.16015009975E+04  0.16774284908E+04  0.49895981461E+03 0.  0.
        4    1    3    3  502    0 -0.23277257740E+02  0.12420485325E+03 -0.77601332320E+02  0.14829786234E+03  0.12699999809E+01 0. -1.
       -4    1    3    3    0  502  0.23277257740E+02 -0.12420485325E+03 -0.15238996652E+04  0.15291306284E+04  0.12699999809E+01 0.  1.
</event>
<event>
 5   0  0.2723308E-02  0.4938552E+03  0.7818609E-02  0.1015395E+00
       -1   -1    0    0    0  501  0.00000000000E+00  0.00000000000E+00  0.58218011213E+02  0.58218011431E+02  0.50400001928E-02 0.  1.
        1   -1    0    0  501    0  0.00000000000E+00  0.00000000000E+00 -0.10473259562E+04  0.10473259562E+04  0.50400001928E-02 0. -1.
    10030    2    1    2    0    0  0.00000000000E+00  0.00000000000E+00 -0.98910794499E+03  0.11055439676E+04  0.49385517873E+03 0.  0.
        4    1    3    3  502    0 -0.15011862240E+03 -0.16627018284E+03 -0.26201695390E+03  0.34472579179E+03  0.12699999809E+01 0.  1.
       -4    1    3    3    0  502  0.15011862240E+03  0.16627018284E+03 -0.72709099109E+03  0.76081817586E+03  0.12699999809E+01 0. -1.
</event>
<event>
 5   0  0.2779445E-02  0.4995873E+03  0.7818609E-02  0.1013887E+00
       -1   -1    0    0    0  501  0.00000000000E+00  0.00000000000E+00  0.39521781611E+03  0.39521781615E+03  0.50400001928E-02 0. -1.
        1   -1    0    0  501    0  0.00000000000E+00  0.00000000000E+00 -0.15787968974E+03  0.15787968982E+03  0.50400001928E-02 0.  1.
    10030    2    1    2    0    0  0.00000000000E+00  0.00000000000E+00  0.23733812637E+03  0.55309750597E+03  0.49958729455E+03 0.  0.
        3    1    3    3  502    0 -0.24677671949E+03 -0.36146202480E+01  0.16133286713E+03  0.29485609877E+03  0.10100000352E+00 0. -1.
       -3    1    3    3    0  502  0.24677671949E+03  0.36146202480E+01  0.76005259237E+02  0.25824140720E+03  0.10100000352E+00 0.  1.
</event>
<event>
 5   0  0.2779445E-02  0.4980850E+03  0.7818609E-02  0.1014280E+00
        1   -1    0    0  501    0  0.00000000000E+00  0.00000000000E+00  0.98610941627E+03  0.98610941629E+03  0.50400001928E-02 0. -1.
       -1   -1    0    0    0  501  0.00000000000E+00  0.00000000000E+00 -0.62895832703E+02  0.62895832905E+02  0.50400001928E-02 0.  1.
    10030    2    1    2    0    0  0.00000000000E+00  0.00000000000E+00  0.92321358357E+03  0.10490052492E+04  0.49808502481E+03 0.  0.
        3    1    3    3  502    0 -0.38657047085E+02 -0.16367724834E+03  0.84844643342E+03  0.86495431642E+03  0.10100000352E+00 0. -1.
       -3    1    3    3    0  502  0.38657047085E+02  0.16367724834E+03  0.74767150155E+02  0.18405093277E+03  0.10100000352E+00 0.  1.
</event>
<event>
 5   0  0.1805500E-02  0.4986066E+03  0.7818609E-02  0.1014143E+00
       -3   -1    0    0    0  501  0.00000000000E+00  0.00000000000E+00  0.10445770894E+04  0.10445770943E+04  0.10100000352E+00 0. -1.
        3   -1    0    0  501    0  0.00000000000E+00  0.00000000000E+00 -0.59499763535E+02  0.59499849258E+02  0.10100000352E+00 0.  1.
    10030    2    1    2    0    0  0.00000000000E+00  0.00000000000E+00  0.98507732584E+03  0.11040769435E+04  0.49860661781E+03 0.  0.
        1    1    3    3  502    0  0.18426429484E+03  0.16448188716E+03  0.41762644365E+03  0.48520044107E+03  0.50400001928E-02 0.  1.
       -1    1    3    3    0  502 -0.18426429484E+03 -0.16448188716E+03  0.56745088219E+03  0.61887650244E+03  0.50400001928E-02 0. -1.
</event>
<event>
 5   0  0.4519539E-02  0.5007055E+03  0.7818609E-02  0.1013595E+00
        2   -1    0    0  501    0  0.00000000000E+00  0.00000000000E+00  0.28323723963E+03  0.28323723965E+03  0.25500000920E-02 0.  1.
       -2   -1    0    0    0  501  0.00000000000E+00  0.00000000000E+00 -0.22128626823E+03  0.22128626824E+03  0.25500000920E-02 0. -1.
    10030    2    1    2    0    0  0.00000000000E+00  0.00000000000E+00  0.61950971406E+02  0.50452350789E+03  0.50070554936E+03 0.  0.
        4    1    3    3  502    0  0.22622734559E+03 -0.51567012902E+02  0.12569723583E+03  0.26389273712E+03  0.12699999809E+01 0.  1.
       -4    1    3    3    0  502 -0.22622734559E+03  0.51567012902E+02 -0.63746264422E+02  0.24063077077E+03  0.12699999809E+01 0. -1.
</event>
<event>
 5   0  0.2719671E-02  0.4941667E+03  0.7818609E-02  0.1015313E+00
        1   -1    0    0  501    0  0.00000000000E+00  0.00000000000E+00  0.25329193693E+03  0.25329193698E+03  0.50400001928E-02 0.  1.
       -1   -1    0    0    0  501  0.00000000000E+00  0.00000000000E+00 -0.24102693020E+03  0.24102693025E+03  0.50400001928E-02 0. -1.
    10030    2    1    2    0    0  0.00000000000E+00  0.00000000000E+00  0.12265006724E+02  0.49431886723E+03  0.49416668454E+03 0.  0.
        2    1    3    3  502    0  0.10975886582E+03 -0.13639653232E+03 -0.16827472581E+03  0.24283205309E+03  0.25500000920E-02 0. -1.
       -2    1    3    3    0  502 -0.10975886582E+03  0.13639653232E+03  0.18053973253E+03  0.25148681414E+03  0.25500000920E-02 0.  1.
</event>
<event>
 5   0  0.2723308E-02  0.4984538E+03  0.7818609E-02  0.1014183E+00
       -1   -1    0    0    0  501  0.00000000000E+00  0.00000000000E+00  0.55241141382E+02  0.55241141612E+02  0.50400001928E-02 0.  1.
        1   -1    0    0  501    0  0.00000000000E+00  0.00000000000E+00 -0.11244163396E+04  0.11244163396E+04  0.50400001928E-02 0. -1.
    10030    2    1    2    0    0  0.00000000000E+00  0.00000000000E+00 -0.10691751982E+04  0.11796574812E+04  0.49845377771E+03 0.  0.
        4    1    3    3  502    0 -0.24785740424E+03 -0.25959447694E+02 -0.54000686269E+03  0.59474045635E+03  0.12699999809E+01 0. -1.
       -4    1    3    3    0  502  0.24785740424E+03  0.25959447694E+02 -0.52916833548E+03  0.58491702483E+03  0.12699999809E+01 0.  1.
</event>
<event>
 5   0  0.4519539E-02  0.5001808E+03  0.7818609E-02  0.1013732E+00
       -2   -1    0    0    0  501  0.00000000000E+00  0.00000000000E+00  0.66052932758E+02  0.66052932807E+02  0.25500000920E-02 0.  1.
        2   -1    0    0  501    0  0.00000000000E+00  0.00000000000E+00 -0.94689515605E+03  0.94689515605E+03  0.25500000920E-02 0. -1.
    10030    2    1    2    0    0  0.00000000000E+00  0.00000000000E+00 -0.88084222329E+03  0.10129480889E+04  0.50018077571E+03 0.  0.
        4    1    3    3  502    0 -0.18107628046E+03 -0.14107546085E+03 -0.64144028147E+03  0.68127685459E+03  0.12699999809E+01 0. -1.
       -4    1    3    3    0  502  0.18107628046E+03  0.14107546085E+03 -0.23940194182E+03  0.33167123428E+03  0.12699999809E+01 0.  1.
</event>
<event>
 5   0  0.4631619E-02  0.5001597E+03  0.7818609E-02  0.1013737E+00
        2   -1    0    0  501    0  0.00000000000E+00  0.00000000000E+00  0.20502070753E+04  0.20502070753E+04  0.25500000920E-02 0. -1.
       -2   -1    0    0    0  501  0.00000000000E+00  0.00000000000E+00 -0.30504202384E+02  0.30504202491E+02  0.25500000920E-02 0.  1.
    10030    2    1    2    0    0  0.00000000000E+00  0.00000000000E+00  0.20197028729E+04  0.20807112777E+04  0.50015970116E+03 0.  0.
        5    1    3    3  502    0  0.42252027008E+02 -0.22885923239E+03  0.62957108238E+03  0.67122546123E+03  0.46999998093E+01 0.  1.
       -5    1    3    3    0  502 -0.42252027008E+02  0.22885923239E+03  0.13901317905E+04  0.14094858165E+04  0.46999998093E+01 0. -1.
</event>
<event>
 5   0  0.2723308E-02  0.4948751E+03  0.7818609E-02  0.1015125E+00
       -1   -1    0    0    0  501  0.00000000000E+00  0.00000000000E+00  0.42354674240E+02  0.42354674540E+02  0.50400001928E-02 0. -1.
        1   -1    0    0  501    0  0.00000000000E+00  0.00000000000E+00 -0.14455394352E+04  0.14455394352E+04  0.50400001928E-02 0.  1.
    10030    2    1    2    0    0  0.00000000000E+00  0.00000000000E+00 -0.14031847610E+04  0.14878941098E+04  0.49487514429E+03 0.  0.
        4    1    3    3  502    0  0.58174630094E+01 -0.53677850409E+02 -0.14276024315E+04  0.14286236278E+04  0.12699999809E+01 0.  1.
       -4    1    3    3    0  502 -0.58174630094E+01  0.53677850409E+02  0.24417670534E+02  0.59270481984E+02  0.12699999809E+01 0. -1.
</event>
<event>
 5   0  0.4519539E-02  0.4996355E+03  0.7818609E-02  0.1013874E+00
        2   -1    0    0  501    0  0.00000000000E+00  0.00000000000E+00  0.66802893443E+02  0.66802893492E+02  0.25500000920E-02 0. -1.
       -2   -1    0    0    0  501  0.00000000000E+00  0.00000000000E+00 -0.93422481026E+03  0.93422481027E+03  0.25500000920E-02 0.  1.
    10030    2    1    2    0    0  0.00000000000E+00  0.00000000000E+00 -0.86742191682E+03  0.10010277038E+04  0.49963554909E+03 0.  0.
        4    1    3    3  502    0  0.63313342397E+02 -0.74091306166E+02 -0.89455968372E+03  0.89985373345E+03  0.12699999809E+01 0.  1.
       -4    1    3    3    0  502 -0.63313342397E+02  0.74091306166E+02  0.27137766900E+02  0.10117397030E+03  0.12699999809E+01 0. -1.
</event>
<event>
 5   0  0.4409622E-02  0.4999947E+03  0.7818609E-02  0.1013780E+00
        2   -1    0    0  501    0  0.00000000000E+00  0.00000000000E+00  0.56073068278E+02  0.56073068336E+02  0.25500000920E-02 0.  1.
       -2   -1    0    0    0  501  0.00000000000E+00  0.00000000000E+00 -0.11145932443E+04  0.11145932443E+04  0.25500000920E-02 0. -1.
    10030    2    1    2    0    0  0.00000000000E+00  0.00000000000E+00 -0.10585201760E+04  0.11706663127E+04  0.49999465248E+03 0.  0.
        3    1    3    3  502    0 -0.33113215093E+02 -0.62983667337E+02 -0.10903816108E+04  0.10927010089E+04  0.10100000352E+00 0. -1.
       -3    1    3    3    0  502  0.33113215093E+02  0.62983667337E+02  0.31861434792E+02  0.77965303777E+02  0.10100000352E+00 0.  1.
</event>
<event>
 5   0  0.2715483E-02  0.4992383E+03  0.7818609E-02  0.1013978E+00
       -1   -1    0    0    0  501  0.00000000000E+00  0.00000000000E+00  0.33686498219E+03  0.33686498223E+03  0.50400001928E-02 0. -1.
        1   -1    0    0  501    0  0.00000000000E+00  0.00000000000E+00 -0.18496944833E+03  0.18496944839E+03  0.50400001928E-02 0.  1.
    10030    2    1    2    0    0  0.00000000000E+00  0.00000000000E+00  0.15189553387E+03  0.52183443062E+03  0.49923833965E+03 0.  0.
        5    1    3    3  502    0  0.17363142965E+03  0.14310769965E+03  0.18881638251E+03  0.29377100497E+03  0.46999998093E+01 0. -1.
       -5    1    3    3    0  502 -0.17363142965E+03 -0.14310769965E+03 -0.36920848640E+02  0.22806342566E+03  0.46999998093E+01 0.  1.
</event>
<event>
 5   0  0.4534223E-02  0.4998697E+03  0.7818609E-02  0.1013813E+00
       -2   -1    0    0    0  501  0.00000000000E+00  0.00000000000E+00  0.80622686142E+02  0.80622686183E+02  0.25500000920E-02 0. -1.
        2   -1    0    0  501    0  0.00000000000E+00  0.00000000000E+00 -0.77481211752E+03  0.77481211752E+03  0.25500000920E-02 0.  1.
    10030    2    1    2    0    0  0.00000000000E+00  0.00000000000E+00 -0.69418943137E+03  0.85543480370E+03  0.49986971978E+03 0.  0.
        2    1    3    3  502    0  0.28071838994E+02 -0.11996384046E+02  0.77420174040E+02  0.83221540058E+02  0.25500000920E-02 0. -1.
       -2    1    3    3    0  502 -0.28071838994E+02  0.11996384046E+02 -0.77160960541E+03  0.77221326364E+03  0.25500000920E-02 0.  1.
</event>
<event>
 5   0  0.2715483E-02  0.4678302E+03  0.7818609E-02  0.1022534E+00
        1   -1    0    0  501    0  0.00000000000E+00  0.00000000000E+00  0.65677384817E+03  0.65677384819E+03  0.50400001928E-02 0.  1.
       -1   -1    0    0    0  501  0.00000000000E+00  0.00000000000E+00 -0.83310662962E+02  0.83310663115E+02  0.50400001928E-02 0. -1.
    10030    2    1    2    0    0  0.00000000000E+00  0.00000000000E+00  0.57346318521E+03  0.74008451131E+03  0.46783016051E+03 0.  0.
        5    1    3    3  502    0 -0.16765382467E+03  0.15586489207E+03  0.36247559837E+03  0.42873338909E+03  0.46999998093E+01 0.  1.
       -5    1    3    3    0  502  0.16765382467E+03 -0.15586489207E+03  0.21098758684E+03  0.31135112222E+03  0.46999998093E+01 0. -1.
</event>
<event>
 5   0  0.4534223E-02  0.4976531E+03  0.7818609E-02  0.1014393E+00
       -2   -1    0    0    0  501  0.00000000000E+00  0.00000000000E+00  0.76624997945E+02  0.76624997987E+02  0.25500000920E-02 0.  1.
        2   -1    0    0  501    0  0.00000000000E+00  0.00000000000E+00 -0.80802143547E+03  0.80802143547E+03  0.25500000920E-02 0. -1.
    10030    2    1    2    0    0  0.00000000000E+00  0.00000000000E+00 -0.73139643752E+03  0.88464643346E+03  0.49765305526E+03 0.  0.
        2    1    3    3  502    0  0.17140532474E+03  0.13186862083E+03 -0.58446691778E+03  0.62319394774E+03  0.25500000920E-02 0. -1.
       -2    1    3    3    0  502 -0.17140532474E+03 -0.13186862083E+03 -0.14692951974E+03  0.26145248572E+03  0.25500000920E-02 0.  1.
</event>
<event>
 5   0  0.2779445E-02  0.5010983E+03  0.7818609E-02  0.1013493E+00
       -1   -1    0    0    0  501  0.00000000000E+00  0.00000000000E+00  0.40609717475E+03  0.40609717478E+03  0.50400001928E-02 0.  1.
        1   -1    0    0  501    0  0.00000000000E+00  0.00000000000E+00 -0.15458090141E+03  0.15458090149E+03  0.50400001928E-02 0. -1.
    10030    2    1    2    0    0  0.00000000000E+00  0.00000000000E+00  0.25151627334E+03  0.56067807627E+03  0.50109826327E+03 0.  0.
        3    1    3    3  502    0  0.12455129251E+03 -0.32432023239E+02 -0.11476598929E+03  0.17244159329E+03  0.10100000352E+00 0. -1.
       -3    1    3    3    0  502 -0.12455129251E+03  0.32432023239E+02  0.36628226263E+03  0.38823648298E+03  0.10100000352E+00 0.  1.
</event>
<event>
 5   0  0.4409622E-02  0.5032304E+03  0.7818609E-02  0.1012939E+00
        2   -1    0    0  501    0  0.00000000000E+00  0.00000000000E+00  0.16979343597E+03  0.16979343599E+03  0.25500000920E-02 0.  1.
       -2   -1    0    0    0  501  0.00000000000E+00  0.00000000000E+00 -0.37286601614E+03  0.37286601615E+03  0.25500000920E-02 0. -1.
    10030    2    1    2    0    0  0.00000000000E+00  0.00000000000E+00 -0.20307258017E+03  0.54265945214E+03  0.50323037287E+03 0.  0.
        3    1    3    3  502    0  0.91325970602E+02  0.21395898779E+03  0.18467371658E+01  0.23264200395E+03  0.10100000352E+00 0.  1.
       -3    1    3    3    0  502 -0.91325970602E+02 -0.21395898779E+03 -0.20491931734E+03  0.31001744819E+03  0.10100000352E+00 0. -1.
</event>
<event>
 5   0  0.2719671E-02  0.5028419E+03  0.7818609E-02  0.1013040E+00
        1   -1    0    0  501    0  0.00000000000E+00  0.00000000000E+00  0.37391480263E+03  0.37391480267E+03  0.50400001928E-02 0. -1.
       -1   -1    0    0    0  501  0.00000000000E+00  0.00000000000E+00 -0.16905585626E+03  0.16905585633E+03  0.50400001928E-02 0.  1.
    10030    2    1    2    0    0  0.00000000000E+00  0.00000000000E+00  0.20485894638E+03  0.54297065900E+03  0.50284187238E+03 0.  0.
        2    1    3    3  502    0 -0.48374702683E+02  0.23463054433E+03  0.20046139811E+02  0.24040268701E+03  0.25500000920E-02 0. -1.
       -2    1    3    3    0  502  0.48374702683E+02 -0.23463054433E+03  0.18481280657E+03  0.30256797199E+03  0.25500000920E-02 0.  1.
</event>
<event>
 5   0  0.2643185E-02  0.5065595E+03  0.7818609E-02  0.1012081E+00
        1   -1    0    0  501    0  0.00000000000E+00  0.00000000000E+00  0.24785607382E+03  0.24785607387E+03  0.50400001928E-02 0. -1.
       -1   -1    0    0    0  501  0.00000000000E+00  0.00000000000E+00 -0.25882214975E+03  0.25882214980E+03  0.50400001928E-02 0.  1.
    10030    2    1    2    0    0  0.00000000000E+00  0.00000000000E+00 -0.10966075931E+02  0.50667822368E+03  0.50655953996E+03 0.  0.
        1    1    3    3  502    0  0.45021821410E+01 -0.83250500117E+02 -0.24470371570E+03  0.25851658344E+03  0.50400001928E-02 0. -1.
       -1    1    3    3    0  502 -0.45021821410E+01  0.83250500117E+02  0.23373763977E+03  0.24816164023E+03  0.50400001928E-02 0.  1.
</event>
<event>
 5   0  0.4534223E-02  0.4985028E+03  0.7818609E-02  0.1014170E+00
       -2   -1    0    0    0  501  0.00000000000E+00  0.00000000000E+00  0.11505964718E+03  0.11505964721E+03  0.25500000920E-02 0.  1.
        2   -1    0    0  501    0  0.00000000000E+00  0.00000000000E+00 -0.53994819188E+03  0.53994819188E+03  0.25500000920E-02 0. -1.
    10030    2    1    2    0    0  0.00000000000E+00  0.00000000000E+00 -0.42488854470E+03  0.65500783909E+03  0.49850275210E+03 0.  0.
        2    1    3    3  502    0  0.18732603076E+03  0.57948103359E+02 -0.10261415650E+02  0.19635254300E+03  0.25500000920E-02 0.  1.
       -2    1    3    3    0  502 -0.18732603076E+03 -0.57948103359E+02 -0.41462712905E+03  0.45865529609E+03  0.25500000920E-02 0. -1.
</event>
<event>
 5   0  0.2779445E-02  0.4732456E+03  0.7818609E-02  0.1021008E+00
        1   -1    0    0  501    0  0.00000000000E+00  0.00000000000E+00  0.29417613236E+03  0.29417613240E+03  0.50400001928E-02 0.  1.
       -1   -1    0    0    0  501  0.00000000000E+00  0.00000000000E+00 -0.19032933855E+03  0.19032933861E+03  0.50400001928E-02 0. -1.
    10030    2    1    2    0    0  0.00000000000E+00  0.00000000000E+00  0.10384679381E+03  0.48450547102E+03  0.47324559677E+03 0.  0.
        3    1    3    3  502    0  0.16988721105E+03  0.46052417862E+02  0.21382467285E+03  0.27695395031E+03  0.10100000352E+00 0.  1.
       -3    1    3    3    0  502 -0.16988721105E+03 -0.46052417862E+02 -0.10997787904E+03  0.20755152071E+03  0.10100000352E+00 0. -1.
</event>
<event>
 5   0  0.4519539E-02  0.4987390E+03  0.7818609E-02  0.1014109E+00
       -2   -1    0    0    0  501  0.00000000000E+00  0.00000000000E+00  0.22310382713E+03  0.22310382714E+03  0.25500000920E-02 0. -1.
        2   -1    0    0  501    0  0.00000000000E+00  0.00000000000E+00 -0.27872743364E+03  0.27872743366E+03  0.25500000920E-02 0.  1.
    10030    2    1    2    0    0  0.00000000000E+00  0.00000000000E+00 -0.55623606516E+02  0.50183126080E+03  0.49873903869E+03 0.  0.
        4    1    3    3  502    0 -0.74452983606E+02 -0.19523927454E+03 -0.16475087734E+03  0.26609412917E+03  0.12699999809E+01 0.  1.
       -4    1    3    3    0  502  0.74452983606E+02  0.19523927454E+03  0.10912727083E+03  0.23573713163E+03  0.12699999809E+01 0. -1.
</event>
<event>
 5   0  0.4409622E-02  0.4974142E+03  0.7818609E-02  0.1014456E+00
       -2   -1    0    0    0  501  0.00000000000E+00  0.00000000000E+00  0.48146756102E+02  0.48146756169E+02  0.25500000920E-02 0.  1.
        2   -1    0    0  501    0  0.00000000000E+00  0.00000000000E+00 -0.12847222983E+04  0.12847222983E+04  0.25500000920E-02 0. -1.
    10030    2    1    2    0    0  0.00000000000E+00  0.00000000000E+00 -0.12365755422E+04  0.13328690545E+04  0.49741415823E+03 0.  0.
        3    1    3    3  502    0 -0.39741020657E+00  0.22081075854E+03 -0.92495407971E+03  0.95094563925E+03  0.10100000352E+00 0. -1.
       -3    1    3    3    0  502  0.39741020657E+00 -0.22081075854E+03 -0.31162146251E+03  0.38192341525E+03  0.10100000352E+00 0.  1.
</event>
<event>
 5   0  0.1805500E-02  0.5002056E+03  0.7818609E-02  0.1013725E+00
        4   -1    0    0  501    0  0.00000000000E+00  0.00000000000E+00  0.38917922996E+03  0.38918130214E+03  0.12699999809E+01 0.  1.
       -4   -1    0    0    0  501  0.00000000000E+00  0.00000000000E+00 -0.16072149762E+03  0.16072651523E+03  0.12699999809E+01 0. -1.
    10030    2    1    2    0    0  0.00000000000E+00  0.00000000000E+00  0.22845773234E+03  0.54990781736E+03  0.50020562985E+03 0.  0.
        2    1    3    3  502    0  0.17208355207E+03 -0.97436665588E+02 -0.54102195738E+02  0.20502121911E+03  0.25500000920E-02 0. -1.
       -2    1    3    3    0  502 -0.17208355207E+03  0.97436665588E+02  0.28255992808E+03  0.34488659826E+03  0.25500000920E-02 0.  1.
</event>
<event>
 5   0  0.2723308E-02  0.5017922E+03  0.7818609E-02  0.1013312E+00
        1   -1    0    0  501    0  0.00000000000E+00  0.00000000000E+00  0.24599774531E+03  0.24599774536E+03  0.50400001928E-02 0.  1.
       -1   -1    0    0    0  501  0.00000000000E+00  0.00000000000E+00 -0.25589202067E+03  0.25589202072E+03  0.50400001928E-02 0. -1.
    10030    2    1    2    0    0  0.00000000000E+00  0.00000000000E+00 -0.98942753655E+01  0.50188976608E+03  0.50179222853E+03 0.  0.
        4    1    3    3  502    0 -0.15265727430E+03  0.18976804902E+03  0.55323113483E+02  0.24975671285E+03  0.12699999809E+01 0.  1.
       -4    1    3    3    0  502  0.15265727430E+03 -0.18976804902E+03 -0.65217388848E+02  0.25213305324E+03  0.12699999809E+01 0. -1.
</event>
<event>
 5   0  0.2643185E-02  0.5018085E+03  0.7818609E-02  0.1013308E+00
        1   -1    0    0  501    0  0.00000000000E+00  0.00000000000E+00  0.43924599350E+03  0.43924599353E+03  0.50400001928E-02 0. -1.
       -1   -1    0    0    0  501  0.00000000000E+00  0.00000000000E+00 -0.14332048932E+03  0.14332048941E+03  0.50400001928E-02 0.  1.
    10030    2    1    2    0    0  0.00000000000E+00  0.00000000000E+00  0.29592550418E+03  0.58256648294E+03  0.50180853224E+03 0.  0.
        1    1    3    3  502    0  0.11707190765E+03 -0.17381460530E+03 -0.12210783824E+02  0.20992010823E+03  0.50400001928E-02 0.  1.
       -1    1    3    3    0  502 -0.11707190765E+03  0.17381460530E+03  0.30813628800E+03  0.37264637471E+03  0.50400001928E-02 0. -1.
</event>
<event>
 5   0  0.2715483E-02  0.4988621E+03  0.7818609E-02  0.1014076E+00
       -1   -1    0    0    0  501  0.00000000000E+00  0.00000000000E+00  0.64627585059E+02  0.64627585255E+02  0.50400001928E-02 0. -1.
        1   -1    0    0  501    0  0.00000000000E+00  0.00000000000E+00 -0.96268236298E+03  0.96268236299E+03  0.50400001928E-02 0.  1.
    10030    2    1    2    0    0  0.00000000000E+00  0.00000000000E+00 -0.89805477792E+03  0.10273099482E+04  0.49886205069E+03 0.  0.
        5    1    3    3  502    0 -0.18616332559E+02  0.58226464806E+02  0.48868749590E+02  0.78403658885E+02  0.46999998093E+01 0. -1.
       -5    1    3    3    0  502  0.18616332559E+02 -0.58226464806E+02 -0.94692352751E+03  0.94890628936E+03  0.46999998093E+01 0.  1.
</event>
<event>
 5   0  0.4519539E-02  0.4997396E+03  0.7818609E-02  0.1013847E+00
        2   -1    0    0  501    0  0.00000000000E+00  0.00000000000E+00  0.27711122672E+03  0.27711122673E+03  0.25500000920E-02 0.  1.
       -2   -1    0    0    0  501  0.00000000000E+00  0.00000000000E+00 -0.22530634495E+03  0.22530634497E+03  0.25500000920E-02 0. -1.
    10030    2    1    2    0    0  0.00000000000E+00  0.00000000000E+00  0.51804881766E+02  0.50241757170E+03  0.49973960277E+03 0.  0.
        4    1    3    3  502    0 -0.10654688686E+03 -0.13668784221E+03 -0.15505514690E+03  0.23255003072E+03  0.12699999809E+01 0. -1.
       -4    1    3    3    0  502  0.10654688686E+03  0.13668784221E+03  0.20686002867E+03  0.26986754097E+03  0.12699999809E+01 0.  1.
</event>
<event>
 5   0  0.4451135E-02  0.4986136E+03  0.7818609E-02  0.1014141E+00
        2   -1    0    0  501    0  0.00000000000E+00  0.00000000000E+00  0.77845044732E+03  0.77845044733E+03  0.25500000920E-02 0. -1.
       -2   -1    0    0    0  501  0.00000000000E+00  0.00000000000E+00 -0.79843091871E+02  0.79843091911E+02  0.25500000920E-02 0.  1.
    10030    2    1    2    0    0  0.00000000000E+00  0.00000000000E+00  0.69860735545E+03  0.85829353924E+03  0.49861364041E+03 0.  0.
        1    1    3    3  502    0 -0.16407980079E+03  0.15612464856E+03  0.16994488160E+03  0.28315781769E+03  0.50400001928E-02 0.  1.
       -1    1    3    3    0  502  0.16407980079E+03 -0.15612464856E+03  0.52866247385E+03  0.57513572155E+03  0.50400001928E-02 0. -1.
</event>
<event>
 5   0  0.4631619E-02  0.4991948E+03  0.7818609E-02  0.1013989E+00
        2   -1    0    0  501    0  0.00000000000E+00  0.00000000000E+00  0.51268562152E+03  0.51268562153E+03  0.25500000920E-02 0.  1.
       -2   -1    0    0    0  501  0.00000000000E+00  0.00000000000E+00 -0.12151474893E+03  0.12151474896E+03  0.25500000920E-02 0. -1.
    10030    2    1    2    0    0  0.00000000000E+00  0.00000000000E+00  0.39117087259E+03  0.63420037049E+03  0.49919481003E+03 0.  0.
        5    1    3    3  502    0 -0.61756617730E+02 -0.12420662017E+03 -0.67969049723E+02  0.15454140561E+03  0.46999998093E+01 0. -1.
       -5    1    3    3    0  502  0.61756617730E+02  0.12420662017E+03  0.45913992231E+03  0.47965896488E+03  0.46999998093E+01 0.  1.
</event>
<event>
 5   0  0.4519539E-02  0.5007444E+03  0.7818609E-02  0.1013585E+00
       -2   -1    0    0    0  501  0.00000000000E+00  0.00000000000E+00  0.50218248991E+02  0.50218249056E+02  0.25500000920E-02 0. -1.
        2   -1    0    0  501    0  0.00000000000E+00  0.00000000000E+00 -0.12482759467E+04  0.12482759468E+04  0.25500000920E-02 0.  1.
    10030    2    1    2    0    0  0.00000000000E+00  0.00000000000E+00 -0.11980576978E+04  0.12984941958E+04  0.50074437529E+03 0.  0.
        4    1    3    3  502    0  0.21810716600E+03  0.12293780963E+03 -0.59793311391E+03  0.64823611633E+03  0.12699999809E+01 0. -1.
       -4    1    3    3    0  502 -0.21810716600E+03 -0.12293780963E+03 -0.60012458384E+03  0.65025807948E+03  0.12699999809E+01 0.  1.
</event>
<event>
 5   0  0.4534223E-02  0.4994526E+03  0.7818609E-02  0.1013922E+00
       -2   -1    0    0    0  501  0.00000000000E+00  0.00000000000E+00  0.16197242652E+03  0.16197242655E+03  0.25500000920E-02 0. -1.
        2   -1    0    0  501    0  0.00000000000E+00  0.00000000000E+00 -0.38502368874E+03  0.38502368875E+03  0.25500000920E-02 0.  1.
    10030    2    1    2    0    0  0.00000000000E+00  0.00000000000E+00 -0.22305126221E+03  0.54699611529E+03  0.49945258491E+03 0.  0.
        2    1    3    3  502    0 -0.14855166889E+03  0.75717920633E+02  0.92081059118E+02  0.19047236883E+03  0.25500000920E-02 0. -1.
       -2    1    3    3    0  502  0.14855166889E+03 -0.75717920633E+02 -0.31513232133E+03  0.35652374646E+03  0.25500000920E-02 0.  1.
</event>
<event>
 5   0  0.4631619E-02  0.5052593E+03  0.7818609E-02  0.1012415E+00
        2   -1    0    0  501    0  0.00000000000E+00  0.00000000000E+00  0.17604794377E+04  0.17604794377E+04  0.25500000920E-02 0.  1.
       -2   -1    0    0    0  501  0.00000000000E+00  0.00000000000E+00 -0.36252480553E+02  0.36252480642E+02  0.25500000920E-02 0. -1.
    10030    2    1    2    0    0  0.00000000000E+00  0.00000000000E+00  0.17242269571E+04  0.17967319183E+04  0.50525932613E+03 0.  0.
        5    1    3    3  502    0  0.14127793548E+03  0.46274758801E+02  0.13595573227E+03  0.20151143762E+03  0.46999998093E+01 0. -1.
       -5    1    3    3    0  502 -0.14127793548E+03 -0.46274758801E+02  0.15882712248E+04  0.15952204807E+04  0.46999998093E+01 0.  1.
</event>
<event>
 5   0  0.4631619E-02  0.4937377E+03  0.7818609E-02  0.1015427E+00
       -2   -1    0    0    0  501  0.00000000000E+00  0.00000000000E+00  0.40875326505E+03  0.40875326506E+03  0.25500000920E-02 0.  1.
        2   -1    0    0  501    0  0.00000000000E+00  0.00000000000E+00 -0.14909782908E+03  0.14909782910E+03  0.25500000920E-02 0. -1.
    10030    2    1    2    0    0  0.00000000000E+00  0.00000000000E+00  0.25965543597E+03  0.55785109416E+03  0.49373768119E+03 0.  0.
        5    1    3    3  502    0  0.12966111815E+03  0.37289636843E+02  0.36335394644E+03  0.38762185564E+03  0.46999998093E+01 0.  1.
       -5    1    3    3    0  502 -0.12966111815E+03 -0.37289636843E+02 -0.10369851047E+03  0.17022923852E+03  0.46999998093E+01 0. -1.
</event>
<event>
 5   0  0.1805500E-02  0.4990453E+03  0.7818609E-02  0.1014028E+00
        4   -1    0    0  501    0  0.00000000000E+00  0.00000000000E+00  0.11588380687E+04  0.11588387646E+04  0.12699999809E+01 0.  1.
       -4   -1    0    0    0  501  0.00000000000E+00  0.00000000000E+00 -0.53719359654E+02  0.53734369835E+02  0.12699999809E+01 0. -1.
    10030    2    1    2    0    0  0.00000000000E+00  0.00000000000E+00  0.11051187091E+04  0.12125731345E+04  0.49904533392E+03 0.  0.
        5    1    3    3  502    0 -0.20460198317E+03 -0.34516989197E+02  0.88911822166E+03  0.91302064387E+03  0.46999998093E+01 0.  1.
       -5    1    3    3    0  502  0.20460198317E+03  0.34516989197E+02  0.21600048741E+03  0.29955249060E+03  0.46999998093E+01 0. -1.
</event>
<event>
 5   0  0.2719671E-02  0.5006998E+03  0.7818609E-02  0.1013596E+00
        1   -1    0    0  501    0  0.00000000000E+00  0.00000000000E+00  0.97977172759E+03  0.97977172760E+03  0.50400001928E-02 0. -1.
       -1   -1    0    0    0  501  0.00000000000E+00  0.00000000000E+00 -0.63969056561E+02  0.63969056759E+02  0.50400001928E-02 0.  1.
    10030    2    1    2    0    0  0.00000000000E+00  0.00000000000E+00  0.91580267103E+03  0.10437407844E+04  0.50069980295E+03 0.  0.
        2    1    3    3  502    0 -0.35378334543E+02  0.24759197096E+03  0.48089423005E+03  0.54204489771E+03  0.25500000920E-02 0.  1.
       -2    1    3    3    0  502  0.35378334543E+02 -0.24759197096E+03  0.43490844098E+03  0.50169588665E+03  0.25500000920E-02 0. -1.
</event>
<event>
 5   0  0.1805500E-02  0.4847986E+03  0.7818609E-02  0.1017825E+00
       -4   -1    0    0    0  501  0.00000000000E+00  0.00000000000E+00  0.36242666199E+03  0.36242888712E+03  0.12699999809E+01 0.  1.
        4   -1    0    0  501    0  0.00000000000E+00  0.00000000000E+00 -0.16211702320E+03  0.16212199762E+03  0.12699999809E+01 0. -1.
    10030    2    1    2    0    0  0.00000000000E+00  0.00000000000E+00  0.20030963878E+03  0.52455088474E+03  0.48479859663E+03 0.  0.
        4    1    3    3  502    0 -0.23762851304E+02  0.12714104295E+03 -0.12165807624E+03  0.17757200883E+03  0.12699999809E+01 0. -1.
       -4    1    3    3    0  502  0.23762851304E+02 -0.12714104295E+03  0.32196771503E+03  0.34697887591E+03  0.12699999809E+01 0.  1.
</event>
<event>
 5   0  0.2779445E-02  0.4988787E+03  0.7818609E-02  0.1014072E+00
        1   -1    0    0  501    0  0.00000000000E+00  0.00000000000E+00  0.38270194273E+03  0.38270194276E+03  0.50400001928E-02 0. -1.
       -1   -1    0    0    0  501  0.00000000000E+00  0.00000000000E+00 -0.16258078622E+03  0.16258078630E+03  0.50400001928E-02 0.  1.
    10030    2    1    2    0    0  0.00000000000E+00  0.00000000000E+00  0.22012115651E+03  0.54528272906E+03  0.49887867370E+03 0.  0.
        3    1    3    3  502    0  0.15338393367E+03 -0.11582187442E+03 -0.63720949881E+02  0.20248878328E+03  0.10100000352E+00 0. -1.
       -3    1    3    3    0  502 -0.15338393367E+03  0.11582187442E+03  0.28384210639E+03  0.34279394578E+03  0.10100000352E+00 0.  1.
</event>
<event>
 5   0  0.4409622E-02  0.5008464E+03  0.7818609E-02  0.1013558E+00
        2   -1    0    0  501    0  0.00000000000E+00  0.00000000000E+00  0.24747082014E+04  0.24747082014E+04  0.25500000920E-02 0. -1.
       -2   -1    0    0    0  501  0.00000000000E+00  0.00000000000E+00 -0.25341075410E+02  0.25341075538E+02  0.25500000920E-02 0.  1.
    10030    2    1    2    0    0  0.00000000000E+00  0.00000000000E+00  0.24493671260E+04  0.25000492770E+04  0.50084635294E+03 0.  0.
        3    1    3    3  502    0 -0.55639517543E+02  0.17426682295E+03  0.20783442413E+04  0.20863795141E+04  0.10100000352E+00 0. -1.
       -3    1    3    3    0  502  0.55639517543E+02 -0.17426682295E+03  0.37102288476E+03  0.41366976287E+03  0.10100000352E+00 0.  1.
</event>
<event>
 5   0  0.2643185E-02  0.5023911E+03  0.7818609E-02  0.1013157E+00
        1   -1    0    0  501    0  0.00000000000E+00  0.00000000000E+00  0.30361054889E+03  0.30361054893E+03  0.50400001928E-02 0.  1.
       -1   -1    0    0    0  501  0.00000000000E+00  0.00000000000E+00 -0.20782945845E+03  0.20782945851E+03  0.50400001928E-02 0. -1.
    10030    2    1    2    0    0  0.00000000000E+00  0.00000000000E+00  0.95781090439E+02  0.51144000744E+03  0.50239114635E+03 0.  0.
        1    1    3    3  502    0  0.16900967739E+03  0.18525068924E+03  0.32889909014E+02  0.25291072546E+03  0.50400001928E-02 0.  1.
       -1    1    3    3    0  502 -0.16900967739E+03 -0.18525068924E+03  0.62891181425E+02  0.25852928198E+03  0.50400001928E-02 0. -1.
</event>
<event>
 5   0  0.2719671E-02  0.5002269E+03  0.7818609E-02  0.1013720E+00
       -1   -1    0    0    0  501  0.00000000000E+00  0.00000000000E+00  0.28024726607E+03  0.28024726612E+03  0.50400001928E-02 0. -1.
        1   -1    0    0  501    0  0.00000000000E+00  0.00000000000E+00 -0.22321983902E+03  0.22321983908E+03  0.50400001928E-02 0.  1.
    10030    2    1    2    0    0  0.00000000000E+00  0.00000000000E+00  0.57027427049E+02  0.50346710520E+03  0.50022694708E+03 0.  0.
        2    1    3    3  502    0  0.24983391426E+03 -0.95875359404E+01  0.35475458759E+02  0.25252210545E+03  0.25500000920E-02 0.  1.
       -2    1    3    3    0  502 -0.24983391426E+03  0.95875359404E+01  0.21551968290E+02  0.25094499975E+03  0.25500000920E-02 0. -1.
</event>
<event>
 5   0  0.2715483E-02  0.5022499E+03  0.7818609E-02  0.1013193E+00
        1   -1    0    0  501    0  0.00000000000E+00  0.00000000000E+00  0.25148714797E+03  0.25148714802E+03  0.50400001928E-02 0.  1.
       -1   -1    0    0    0  501  0.00000000000E+00  0.00000000000E+00 -0.25076326910E+03  0.25076326915E+03  0.50400001928E-02 0. -1.
    10030    2    1    2    0    0  0.00000000000E+00  0.00000000000E+00  0.72387886824E+00  0.50225041716E+03  0.50224989551E+03 0.  0.
        5    1    3    3  502    0  0.15992239442E+02  0.13828552490E+03 -0.20859523792E+03  0.25082404470E+03  0.46999998093E+01 0. -1.
       -5    1    3    3    0  502 -0.15992239442E+02 -0.13828552490E+03  0.20931911679E+03  0.25142637246E+03  0.46999998093E+01 0.  1.
</event>
<event>
 5   0  0.4534223E-02  0.5005146E+03  0.7818609E-02  0.1013645E+00
       -2   -1    0    0    0  501  0.00000000000E+00  0.00000000000E+00  0.17152716721E+03  0.17152716722E+03  0.25500000920E-02 0.  1.
        2   -1    0    0  501    0  0.00000000000E+00  0.00000000000E+00 -0.36512415331E+03  0.36512415332E+03  0.25500000920E-02 0. -1.
    10030    2    1    2    0    0  0.00000000000E+00  0.00000000000E+00 -0.19359698610E+03  0.53665132054E+03  0.50051458202E+03 0.  0.
        2    1    3    3  502    0 -0.12320059244E+03 -0.92572588769E+02  0.11461961335E+03  0.19205656963E+03  0.25500000920E-02 0.  1.
       -2    1    3    3    0  502  0.12320059244E+03  0.92572588769E+02 -0.30821659945E+03  0.34459475091E+03  0.25500000920E-02 0. -1.
</event>
<event>
 5   0  0.4519539E-02  0.4998677E+03  0.7818609E-02  0.1013813E+00
        2   -1    0    0  501    0  0.00000000000E+00  0.00000000000E+00  0.18451386987E+04  0.18451386987E+04  0.25500000920E-02 0. -1.
       -2   -1    0    0    0  501  0.00000000000E+00  0.00000000000E+00 -0.33854873690E+02  0.33854873786E+02  0.25500000920E-02 0.  1.
    10030    2    1    2    0    0  0.00000000000E+00  0.00000000000E+00  0.18112838250E+04  0.18789935725E+04  0.49986773321E+03 0.  0.
        4    1    3    3  502    0 -0.43135851089E+01 -0.24654554629E+03  0.75239660488E+03  0.79177369074E+03  0.12699999809E+01 0.  1.
       -4    1    3    3    0  502  0.43135851089E+01  0.24654554629E+03  0.10588872201E+04  0.10872198817E+04  0.12699999809E+01 0. -1.
</event>
<event>
 5   0  0.2779445E-02  0.5023137E+03  0.7818609E-02  0.1013177E+00
       -1   -1    0    0    0  501  0.00000000000E+00  0.00000000000E+00  0.87647814582E+02  0.87647814727E+02  0.50400001928E-02 0. -1.
        1   -1    0    0  501    0  0.00000000000E+00  0.00000000000E+00 -0.71969581854E+03  0.71969581856E+03  0.50400001928E-02 0.  1.
    10030    2    1    2    0    0  0.00000000000E+00  0.00000000000E+00 -0.63204800396E+03  0.80734363329E+03  0.50231370965E+03 0.  0.
        3    1    3    3  502    0 -0.44848349671E+02  0.86822130897E+02 -0.68788722269E+03  0.69479370911E+03  0.10100000352E+00 0.  1.
       -3    1    3    3    0  502  0.44848349671E+02 -0.86822130897E+02  0.55839218732E+02  0.11254992417E+03  0.10100000352E+00 0. -1.
</event>
<event>
 5   0  0.4534223E-02  0.5015786E+03  0.7818609E-02  0.1013368E+00
        2   -1    0    0  501    0  0.00000000000E+00  0.00000000000E+00  0.24667059732E+04  0.24667059732E+04  0.25500000920E-02 0. -1.
       -2   -1    0    0    0  501  0.00000000000E+00  0.00000000000E+00 -0.25497672745E+02  0.25497672873E+02  0.25500000920E-02 0.  1.
    10030    2    1    2    0    0  0.00000000000E+00  0.00000000000E+00  0.24412083005E+04  0.24922036461E+04  0.50157855546E+03 0.  0.
        2    1    3    3  502    0 -0.44074147740E+02 -0.21011818978E+03  0.18646829196E+04  0.18770014850E+04  0.25500000920E-02 0. -1.
       -2    1    3    3    0  502  0.44074147740E+02  0.21011818978E+03  0.57652538091E+03  0.61520216109E+03  0.25500000920E-02 0.  1.
</event>
<event>
 5   0  0.2715483E-02  0.4972278E+03  0.7818609E-02  0.1014505E+00
       -1   -1    0    0    0  501  0.00000000000E+00  0.00000000000E+00  0.50118992210E+02  0.50118992463E+02  0.50400001928E-02 0.  1.
        1   -1    0    0  501    0  0.00000000000E+00  0.00000000000E+00 -0.12332427049E+04  0.12332427049E+04  0.50400001928E-02 0. -1.
    10030    2    1    2    0    0  0.00000000000E+00  0.00000000000E+00 -0.11831237127E+04  0.12833616974E+04  0.49722784190E+03 0.  0.
        5    1    3    3  502    0 -0.10129959960E+02 -0.55820330862E+02 -0.12161947041E+04  0.12175262518E+04  0.46999998093E+01 0. -1.
       -5    1    3    3    0  502  0.10129959960E+02  0.55820330862E+02  0.33070991424E+02  0.65835445607E+02  0.46999998093E+01 0.  1.
</event>
<event>
 5   0  0.2715483E-02  0.4987938E+03  0.7818609E-02  0.1014094E+00
        1   -1    0    0  501    0  0.00000000000E+00  0.00000000000E+00  0.49312499937E+03  0.49312499940E+03  0.50400001928E-02 0. -1.
       -1   -1    0    0    0  501  0.00000000000E+00  0.00000000000E+00 -0.12613193940E+03  0.12613193950E+03  0.50400001928E-02 0.  1.
    10030    2    1    2    0    0  0.00000000000E+00  0.00000000000E+00  0.36699305997E+03  0.61925693890E+03  0.49879379538E+03 0.  0.
        5    1    3    3  502    0 -0.16960061663E+02 -0.28378973443E+02 -0.12334387848E+03  0.12778424074E+03  0.46999998093E+01 0.  1.
       -5    1    3    3    0  502  0.16960061663E+02  0.28378973443E+02  0.49033693845E+03  0.49147269816E+03  0.46999998093E+01 0. -1.
</event>
<event>
 5   0  0.2723308E-02  0.5009649E+03  0.7818609E-02  0.1013527E+00
       -1   -1    0    0    0  501  0.00000000000E+00  0.00000000000E+00  0.58492802767E+03  0.58492802770E+03  0.50400001928E-02 0. -1.
        1   -1    0    0  501    0  0.00000000000E+00  0.00000000000E+00 -0.10726354378E+03  0.10726354390E+03  0.50400001928E-02 0.  1.
    10030    2    1    2    0    0  0.00000000000E+00  0.00000000000E+00  0.47766448389E+03  0.69219157160E+03  0.50096488162E+03 0.  0.
        4    1    3    3  502    0 -0.16364413667E+03  0.12384711328E+03  0.40411127956E+02  0.20917022516E+03  0.12699999809E+01 0.  1.
       -4    1    3    3    0  502  0.16364413667E+03 -0.12384711328E+03  0.43725335594E+03  0.48302134643E+03  0.12699999809E+01 0. -1.
</event>
<event>
 5   0  0.2719671E-02  0.5006833E+03  0.7818609E-02  0.1013601E+00
        1   -1    0    0  501    0  0.00000000000E+00  0.00000000000E+00  0.14984957631E+04  0.14984957631E+04  0.50400001928E-02 0. -1.
       -1   -1    0    0    0  501  0.00000000000E+00  0.00000000000E+00 -0.41822564328E+02  0.41822564632E+02  0.50400001928E-02 0.  1.
    10030    2    1    2    0    0  0.00000000000E+00  0.00000000000E+00  0.14566731988E+04  0.15403183278E+04  0.50068327589E+03 0.  0.
        2    1    3    3  502    0  0.43756304165E+02  0.10561010183E+03  0.43163006900E+02  0.12219309692E+03  0.25500000920E-02 0.  1.
       -2    1    3    3    0  502 -0.43756304165E+02 -0.10561010183E+03  0.14135101919E+04  0.14181252309E+04  0.25500000920E-02 0. -1.
</event>
<event>
 5   0  0.2715483E-02  0.5000497E+03  0.7818609E-02  0.1013766E+00
        1   -1    0    0  501    0  0.00000000000E+00  0.00000000000E+00  0.91047865528E+03  0.91047865530E+03  0.50400001928E-02 0.  1.
       -1   -1    0    0    0  501  0.00000000000E+00  0.00000000000E+00 -0.68658854202E+02  0.68658854387E+02  0.50400001928E-02 0. -1.
    10030    2    1    2    0    0  0.00000000000E+00  0.00000000000E+00  0.84181980108E+03  0.97913750969E+03  0.50004968291E+03 0.  0.
        5    1    3    3  502    0  0.10391266362E+03  0.97494356825E+02  0.82309095082E+03  0.83534651169E+03  0.46999998093E+01 0.  1.
       -5    1    3    3    0  502 -0.10391266362E+03 -0.97494356825E+02  0.18728850260E+02  0.14379099799E+03  0.46999998093E+01 0. -1.
</event>
<event>
 5   0  0.2643185E-02  0.5011782E+03  0.7818609E-02  0.1013472E+00
        1   -1    0    0  501    0  0.00000000000E+00  0.00000000000E+00  0.90852618361E+03  0.90852618362E+03  0.50400001928E-02 0. -1.
       -1   -1    0    0    0  501  0.00000000000E+00  0.00000000000E+00 -0.69117326817E+02  0.69117327000E+02  0.50400001928E-02 0.  1.
    10030    2    1    2    0    0  0.00000000000E+00  0.00000000000E+00  0.83940885679E+03  0.97764351063E+03  0.50117821681E+03 0.  0.
        1    1    3    3  502    0 -0.41645235775E+02 -0.15630183691E+03  0.46360889076E+02  0.16826741201E+03  0.50400001928E-02 0.  1.
       -1    1    3    3    0  502  0.41645235775E+02  0.15630183691E+03  0.79304796772E+03  0.80937609862E+03  0.50400001928E-02 0. -1.
</event>
<event>
 5   0  0.4409622E-02  0.5001661E+03  0.7818609E-02  0.1013736E+00
        2   -1    0    0  501    0  0.00000000000E+00  0.00000000000E+00  0.17321736844E+03  0.17321736846E+03  0.25500000920E-02 0.  1.
       -2   -1    0    0    0  501  0.00000000000E+00  0.00000000000E+00 -0.36105810741E+03  0.36105810742E+03  0.25500000920E-02 0. -1.
    10030    2    1    2    0    0  0.00000000000E+00  0.00000000000E+00 -0.18784073897E+03  0.53427547588E+03  0.50016611332E+03 0.  0.
        3    1    3    3  502    0  0.19347880723E+03 -0.91251708975E+02  0.44453708782E+02  0.21848813621E+03  0.10100000352E+00 0.  1.
       -3    1    3    3    0  502 -0.19347880723E+03  0.91251708975E+02 -0.23229444775E+03  0.31578733967E+03  0.10100000352E+00 0. -1.
</event>
<event>
 5   0  0.4409622E-02  0.4993668E+03  0.7818609E-02  0.1013944E+00
        2   -1    0    0  501    0  0.00000000000E+00  0.00000000000E+00  0.18729218258E+04  0.18729218258E+04  0.25500000920E-02 0.  1.
       -2   -1    0    0    0  501  0.00000000000E+00  0.00000000000E+00 -0.33285853617E+02  0.33285853715E+02  0.25500000920E-02 0. -1.
    10030    2    1    2    0    0  0.00000000000E+00  0.00000000000E+00  0.18396359722E+04  0.19062076796E+04  0.49936680637E+03 0.  0.
        3    1    3    3  502    0 -0.14671726915E+03 -0.17851209336E+03  0.55870402527E+03  0.60460129225E+03  0.10100000352E+00 0. -1.
       -3    1    3    3    0  502  0.14671726915E+03  0.17851209336E+03  0.12809319470E+04  0.13016063873E+04  0.10100000352E+00 0.  1.
</event>
<event>
 5   0  0.2715483E-02  0.5027712E+03  0.7818609E-02  0.1013058E+00
       -1   -1    0    0    0  501  0.00000000000E+00  0.00000000000E+00  0.79045996873E+03  0.79045996875E+03  0.50400001928E-02 0. -1.
        1   -1    0    0  501    0  0.00000000000E+00  0.00000000000E+00 -0.79946757947E+02  0.79946758105E+02  0.50400001928E-02 0.  1.
    10030    2    1    2    0    0  0.00000000000E+00  0.00000000000E+00  0.71051321079E+03  0.87040672686E+03  0.50277116808E+03 0.  0.
        5    1    3    3  502    0 -0.15363528018E+03  0.15683778715E+03  0.56707973414E+03  0.60811463201E+03  0.46999998093E+01 0. -1.
       -5    1    3    3    0  502  0.15363528018E+03 -0.15683778715E+03  0.14343347665E+03  0.26229209484E+03  0.46999998093E+01 0.  1.
</event>
<event>
 5   0  0.2643185E-02  0.4991500E+03  0.7818609E-02  0.1014001E+00
        1   -1    0    0  501    0  0.00000000000E+00  0.00000000000E+00  0.14294814160E+04  0.14294814160E+04  0.50400001928E-02 0. -1.
       -1   -1    0    0    0  501  0.00000000000E+00  0.00000000000E+00 -0.43573627430E+02  0.43573627721E+02  0.50400001928E-02 0.  1.
    10030    2    1    2    0    0  0.00000000000E+00  0.00000000000E+00  0.13859077885E+04  0.14730550437E+04  0.49915004100E+03 0.  0.
        1    1    3    3  502    0 -0.16829243952E+02  0.10106180299E+03  0.13645604489E+04  0.13684012315E+04  0.50400001928E-02 0. -1.
       -1    1    3    3    0  502  0.16829243952E+02 -0.10106180299E+03  0.21347339583E+02  0.10465381220E+03  0.50400001928E-02 0.  1.
</event>
<event>
 5   0  0.2779445E-02  0.5010797E+03  0.7818609E-02  0.1013497E+00
        1   -1    0    0  501    0  0.00000000000E+00  0.00000000000E+00  0.62648113097E+02  0.62648113300E+02  0.50400001928E-02 0. -1.
       -1   -1    0    0    0  501  0.00000000000E+00  0.00000000000E+00 -0.10019491149E+04  0.10019491149E+04  0.50400001928E-02 0.  1.
    10030    2    1    2    0    0  0.00000000000E+00  0.00000000000E+00 -0.93930100182E+03  0.10645972282E+04  0.50107972054E+03 0.  0.
        3    1    3    3  502    0 -0.72337861317E+01  0.94882433369E+02 -0.96206080655E+03  0.96675540315E+03  0.10100000352E+00 0.  1.
       -3    1    3    3    0  502  0.72337861317E+01 -0.94882433369E+02  0.22759804723E+02  0.97841825084E+02  0.10100000352E+00 0. -1.
</event>
<event>
 5   0  0.4534223E-02  0.4992745E+03  0.7818609E-02  0.1013968E+00
        2   -1    0    0  501    0  0.00000000000E+00  0.00000000000E+00  0.96418362310E+02  0.96418362344E+02  0.25500000920E-02 0. -1.
       -2   -1    0    0    0  501  0.00000000000E+00  0.00000000000E+00 -0.64633702270E+03  0.64633702270E+03  0.25500000920E-02 0.  1.
    10030    2    1    2    0    0  0.00000000000E+00  0.00000000000E+00 -0.54991866039E+03  0.74275538504E+03  0.49927450263E+03 0.  0.
        2    1    3    3  502    0  0.81088940315E+02  0.23053607765E+03 -0.19915446781E+03  0.31525355096E+03  0.25500000920E-02 0.  1.
       -2    1    3    3    0  502 -0.81088940315E+02 -0.23053607765E+03 -0.35076419258E+03  0.42750183408E+03  0.25500000920E-02 0. -1.
</event>
<event>
 5   0  0.4534223E-02  0.5006774E+03  0.7818609E-02  0.1013602E+00
       -2   -1    0    0    0  501  0.00000000000E+00  0.00000000000E+00  0.69056458120E+02  0.69056458167E+02  0.25500000920E-02 0.  1.
        2   -1    0    0  501    0  0.00000000000E+00  0.00000000000E+00 -0.90751067580E+03  0.90751067580E+03  0.25500000920E-02 0. -1.
    10030    2    1    2    0    0  0.00000000000E+00  0.00000000000E+00 -0.83845421768E+03  0.97656713397E+03  0.50067743309E+03 0.  0.
        2    1    3    3  502    0 -0.20667090502E+03  0.12962734204E+03 -0.30969763122E+03  0.39424450989E+03  0.25500000920E-02 0.  1.
       -2    1    3    3    0  502  0.20667090502E+03 -0.12962734204E+03 -0.52875658646E+03  0.58232262408E+03  0.25500000920E-02 0. -1.
</event>
<event>
 5   0  0.2723308E-02  0.4971407E+03  0.7818609E-02  0.1014528E+00
        1   -1    0    0  501    0  0.00000000000E+00  0.00000000000E+00  0.12198744447E+04  0.12198744447E+04  0.50400001928E-02 0.  1.
       -1   -1    0    0    0  501  0.00000000000E+00  0.00000000000E+00 -0.50650471753E+02  0.50650472004E+02  0.50400001928E-02 0. -1.
    10030    2    1    2    0    0  0.00000000000E+00  0.00000000000E+00  0.11692239730E+04  0.12705249167E+04  0.49714068943E+03 0.  0.
        4    1    3    3  502    0  0.11031487476E+03  0.19349457390E+03  0.86661753431E+03  0.89478326169E+03  0.12699999809E+01 0.  1.
       -4    1    3    3    0  502 -0.11031487476E+03 -0.19349457390E+03  0.30260643866E+03  0.37574165505E+03  0.12699999809E+01 0. -1.
</event>
<event>
 5   0  0.4451135E-02  0.4975945E+03  0.7818609E-02  0.1014409E+00
       -2   -1    0    0    0  501  0.00000000000E+00  0.00000000000E+00  0.55832904673E+03  0.55832904674E+03  0.25500000920E-02 0.  1.
        2   -1    0    0  501    0  0.00000000000E+00  0.00000000000E+00 -0.11086663269E+03  0.11086663272E+03  0.25500000920E-02 0. -1.
    10030    2    1    2    0    0  0.00000000000E+00  0.00000000000E+00  0.44746241404E+03  0.66919567946E+03  0.49759445880E+03 0.  0.
        1    1    3    3  502    0 -0.12821818793E+03 -0.16793694801E+03  0.47060515267E+02  0.21646573481E+03  0.50400001928E-02 0. -1.
       -1    1    3    3    0  502  0.12821818793E+03  0.16793694801E+03  0.40040189877E+03  0.45272994465E+03  0.50400001928E-02 0.  1.
</event>
<event>
 5   0  0.2715483E-02  0.5020373E+03  0.7818609E-02  0.1013249E+00
       -1   -1    0    0    0  501  0.00000000000E+00  0.00000000000E+00  0.18367145395E+03  0.18367145401E+03  0.50400001928E-02 0. -1.
        1   -1    0    0  501    0  0.00000000000E+00  0.00000000000E+00 -0.34306020381E+03  0.34306020385E+03  0.50400001928E-02 0.  1.
    10030    2    1    2    0    0  0.00000000000E+00  0.00000000000E+00 -0.15938874987E+03  0.52673165786E+03  0.50203731516E+03 0.  0.
        5    1    3    3  502    0 -0.26187443172E+02  0.20760764739E+03  0.65691317325E+02  0.21937218740E+03  0.46999998093E+01 0. -1.
       -5    1    3    3    0  502  0.26187443172E+02 -0.20760764739E+03 -0.22508006719E+03  0.30735947046E+03  0.46999998093E+01 0.  1.
</event>
<event>
 5   0  0.1805500E-02  0.5006596E+03  0.7818609E-02  0.1013607E+00
       -4   -1    0    0    0  501  0.00000000000E+00  0.00000000000E+00  0.79668900971E+02  0.79679022847E+02  0.12699999809E+01 0. -1.
        4   -1    0    0  501    0  0.00000000000E+00  0.00000000000E+00 -0.78650741537E+03  0.78650844072E+03  0.12699999809E+01 0.  1.
    10030    2    1    2    0    0  0.00000000000E+00  0.00000000000E+00 -0.70683851440E+03  0.86618746357E+03  0.50065960154E+03 0.  0.
        2    1    3    3  502    0  0.45943326785E+02  0.19956227133E+02  0.70915598875E+02  0.86822015916E+02  0.25500000920E-02 0. -1.
       -2    1    3    3    0  502 -0.45943326785E+02 -0.19956227133E+02 -0.77775411327E+03  0.77936544765E+03  0.25500000920E-02 0.  1.
</event>
<event>
 5   0  0.4631619E-02  0.5028538E+03  0.7818609E-02  0.1013037E+00
        2   -1    0    0  501    0  0.00000000000E+00  0.00000000000E+00  0.10128839572E+04  0.10128839572E+04  0.25500000920E-02 0. -1.
       -2   -1    0    0    0  501  0.00000000000E+00  0.00000000000E+00 -0.62411373944E+02  0.62411373996E+02  0.25500000920E-02 0.  1.
    10030    2    1    2    0    0  0.00000000000E+00  0.00000000000E+00  0.95047258326E+03  0.10752953312E+04  0.50285377375E+03 0.  0.
        5    1    3    3  502    0 -0.13170243092E+03  0.10648970518E+03  0.87246871895E+03  0.88876844182E+03  0.46999998093E+01 0. -1.
       -5    1    3    3    0  502  0.13170243092E+03 -0.10648970518E+03  0.78003864303E+02  0.18652688938E+03  0.46999998093E+01 0.  1.
</event>
<event>
 5   0  0.1805500E-02  0.4998161E+03  0.7818609E-02  0.1013827E+00
        3   -1    0    0  501    0  0.00000000000E+00  0.00000000000E+00  0.61889448897E+03  0.61889449721E+03  0.10100000352E+00 0.  1.
       -3   -1    0    0    0  501  0.00000000000E+00  0.00000000000E+00 -0.10091221441E+03  0.10091226495E+03  0.10100000352E+00 0. -1.
    10030    2    1    2    0    0  0.00000000000E+00  0.00000000000E+00  0.51798227456E+03  0.71980676216E+03  0.49981610428E+03 0.  0.
        4    1    3    3  502    0  0.22090289903E+03 -0.11606937395E+03  0.23955020402E+03  0.34591343356E+03  0.12699999809E+01 0.  1.
       -4    1    3    3    0  502 -0.22090289903E+03  0.11606937395E+03  0.27843207054E+03  0.37389332860E+03  0.12699999809E+01 0. -1.
</event>
<event>
 5   0  0.4534223E-02  0.5006771E+03  0.7818609E-02  0.1013602E+00
       -2   -1    0    0    0  501  0.00000000000E+00  0.00000000000E+00  0.13018685019E+03  0.13018685022E+03  0.25500000920E-02 0. -1.
        2   -1    0    0  501    0  0.00000000000E+00  0.00000000000E+00 -0.48138040364E+03  0.48138040364E+03  0.25500000920E-02 0.  1.
    10030    2    1    2    0    0  0.00000000000E+00  0.00000000000E+00 -0.35119355344E+03  0.61156725386E+03  0.50067713551E+03 0.  0.
        2    1    3    3  502    0  0.85773890918E+02  0.23224241858E+03 -0.13029159441E+03  0.27976704762E+03  0.25500000920E-02 0. -1.
       -2    1    3    3    0  502 -0.85773890918E+02 -0.23224241858E+03 -0.22090195904E+03  0.33180020625E+03  0.25500000920E-02 0.  1.
</event>
<event>
 5   0  0.2715483E-02  0.5001280E+03  0.7818609E-02  0.1013746E+00
       -1   -1    0    0    0  501  0.00000000000E+00  0.00000000000E+00  0.12188075934E+03  0.12188075944E+03  0.50400001928E-02 0.  1.
        1   -1    0    0  501    0  0.00000000000E+00  0.00000000000E+00 -0.51305876792E+03  0.51305876795E+03  0.50400001928E-02 0. -1.
    10030    2    1    2    0    0  0.00000000000E+00  0.00000000000E+00 -0.39117800858E+03  0.63493952739E+03  0.50012795267E+03 0.  0.
        5    1    3    3  502    0 -0.20150057855E+03 -0.13396882629E+03 -0.27547789007E+03  0.36668827018E+03  0.46999998093E+01 0. -1.
       -5    1    3    3    0  502  0.20150057855E+03  0.13396882629E+03 -0.11570011852E+03  0.26825125721E+03  0.46999998093E+01 0.  1.
</event>
<event>
 5   0  0.4409622E-02  0.5005891E+03  0.7818609E-02  0.1013625E+00
        2   -1    0    0  501    0  0.00000000000E+00  0.00000000000E+00  0.12228142466E+04  0.12228142466E+04  0.25500000920E-02 0.  1.
       -2   -1    0    0    0  501  0.00000000000E+00  0.00000000000E+00 -0.51232110522E+02  0.51232110586E+02  0.25500000920E-02 0. -1.
    10030    2    1    2    0    0  0.00000000000E+00  0.00000000000E+00  0.11715821361E+04  0.12740463572E+04  0.50058907168E+03 0.  0.
        3    1    3    3  502    0  0.18993174563E+03  0.10196038379E+03  0.26207992770E+03  0.33934626352E+03  0.10100000352E+00 0. -1.
       -3    1    3    3    0  502 -0.18993174563E+03 -0.10196038379E+03  0.90950220838E+03  0.93470009367E+03  0.10100000352E+00 0.  1.
</event>
<event>
 5   0  0.2779445E-02  0.5004289E+03  0.7818609E-02  0.1013667E+00
       -1   -1    0    0    0  501  0.00000000000E+00  0.00000000000E+00  0.17576953056E+03  0.17576953063E+03  0.50400001928E-02 0. -1.
        1   -1    0    0  501    0  0.00000000000E+00  0.00000000000E+00 -0.35618956660E+03  0.35618956663E+03  0.50400001928E-02 0.  1.
    10030    2    1    2    0    0  0.00000000000E+00  0.00000000000E+00 -0.18042003604E+03  0.53195909726E+03  0.50042890779E+03 0.  0.
        3    1    3    3  502    0  0.15962536319E+03  0.72738246219E+02  0.99458891597E+02  0.20165116007E+03  0.10100000352E+00 0. -1.
       -3    1    3    3    0  502 -0.15962536319E+03 -0.72738246219E+02 -0.27987892764E+03  0.33030793719E+03  0.10100000352E+00 0.  1.
</event>
<event>
 5   0  0.4519539E-02  0.4979408E+03  0.7818609E-02  0.1014318E+00
       -2   -1    0    0    0  501  0.00000000000E+00  0.00000000000E+00  0.64856215495E+02  0.64856215546E+02  0.25500000920E-02 0.  1.
        2   -1    0    0  501    0  0.00000000000E+00  0.00000000000E+00 -0.95574876540E+03  0.95574876540E+03  0.25500000920E-02 0. -1.
    10030    2    1    2    0    0  0.00000000000E+00  0.00000000000E+00 -0.89089254990E+03  0.10206049809E+04  0.49794075116E+03 0.  0.
        4    1    3    3  502    0 -0.31488172539E+02  0.19595729430E+03 -0.13735789762E+03  0.24137019521E+03  0.12699999809E+01 0.  1.
       -4    1    3    3    0  502  0.31488172539E+02 -0.19595729430E+03 -0.75353465229E+03  0.77923478573E+03  0.12699999809E+01 0. -1.
</event>
<event>
 5   0  0.2719671E-02  0.5009740E+03  0.7818609E-02  0.1013525E+00
        1   -1    0    0  501    0  0.00000000000E+00  0.00000000000E+00  0.25734558472E+03  0.25734558477E+03  0.50400001928E-02 0.  1.
       -1   -1    0    0    0  501  0.00000000000E+00  0.00000000000E+00 -0.24381118941E+03  0.24381118947E+03  0.50400001928E-02 0. -1.
    10030    2    1    2    0    0  0.00000000000E+00  0.00000000000E+00  0.13534395303E+02  0.50115677423E+03  0.50097398386E+03 0.  0.
        2    1    3    3  502    0 -0.15760961674E+03 -0.19226582629E+03  0.37385453847E+02  0.25140527324E+03  0.25500000920E-02 0.  1.
       -2    1    3    3    0  502  0.15760961674E+03  0.19226582629E+03 -0.23851058543E+02  0.24975150099E+03  0.25500000920E-02 0. -1.
</event>
<event>
 5   0  0.2643185E-02  0.4892669E+03  0.7818609E-02  0.1016619E+00
       -1   -1    0    0    0  501  0.00000000000E+00  0.00000000000E+00  0.72544660313E+02  0.72544660488E+02  0.50400001928E-02 0. -1.
        1   -1    0    0  501    0  0.00000000000E+00  0.00000000000E+00 -0.82494739319E+03  0.82494739321E+03  0.50400001928E-02 0.  1.
    10030    2    1    2    0    0  0.00000000000E+00  0.00000000000E+00 -0.75240273288E+03  0.89749205370E+03  0.48926691489E+03 0.  0.
        1    1    3    3  502    0  0.40087925053E+02 -0.21814236344E+03 -0.56552656229E+03  0.60746475218E+03  0.50400001928E-02 0.  1.
       -1    1    3    3    0  502 -0.40087925053E+02  0.21814236344E+03 -0.18687617059E+03  0.29002730152E+03  0.50400001928E-02 0. -1.
</event>
<event>
 5   0  0.4631619E-02  0.5003405E+03  0.7818609E-02  0.1013690E+00
        2   -1    0    0  501    0  0.00000000000E+00  0.00000000000E+00  0.75925249000E+03  0.75925249001E+03  0.25500000920E-02 0.  1.
       -2   -1    0    0    0  501  0.00000000000E+00  0.00000000000E+00 -0.82429947051E+02  0.82429947090E+02  0.25500000920E-02 0. -1.
    10030    2    1    2    0    0  0.00000000000E+00  0.00000000000E+00  0.67682254295E+03  0.84168243710E+03  0.50034045436E+03 0.  0.
        5    1    3    3  502    0  0.11849975460E+01  0.24358374932E+03  0.43399635681E+03  0.49770410373E+03  0.46999998093E+01 0. -1.
       -5    1    3    3    0  502 -0.11849975460E+01 -0.24358374932E+03  0.24282618614E+03  0.34397833337E+03  0.46999998093E+01 0.  1.
</event>
<event>
 5   0  0.2715483E-02  0.4962641E+03  0.7818609E-02  0.1014759E+00
        1   -1    0    0  501    0  0.00000000000E+00  0.00000000000E+00  0.54199854734E+03  0.54199854736E+03  0.50400001928E-02 0.  1.
       -1   -1    0    0    0  501  0.00000000000E+00  0.00000000000E+00 -0.11359719950E+03  0.11359719961E+03  0.50400001928E-02 0. -1.
    10030    2    1    2    0    0  0.00000000000E+00  0.00000000000E+00  0.42840134784E+03  0.65559574697E+03  0.49626411176E+03 0.  0.
        5    1    3    3  502    0 -0.32026670516E+02  0.24496613545E+03  0.18427017381E+03  0.30823968287E+03  0.46999998093E+01 0. -1.
       -5    1    3    3    0  502  0.32026670516E+02 -0.24496613545E+03  0.24413117403E+03  0.34735606411E+03  0.46999998093E+01 0.  1.
</event>
<event>
 5   0  0.4409622E-02  0.5007866E+03  0.7818609E-02  0.1013574E+00
        2   -1    0    0  501    0  0.00000000000E+00  0.00000000000E+00  0.70716612122E+02  0.70716612168E+02  0.25500000920E-02 0.  1.
       -2   -1    0    0    0  501  0.00000000000E+00  0.00000000000E+00 -0.88659238835E+03  0.88659238835E+03  0.25500000920E-02 0. -1.
    10030    2    1    2    0    0  0.00000000000E+00  0.00000000000E+00 -0.81587577622E+03  0.95730900052E+03  0.50078662147E+03 0.  0.
        3    1    3    3  502    0  0.15143132654E+03 -0.10240761993E+03 -0.80845551807E+02  0.19988691985E+03  0.10100000352E+00 0.  1.
       -3    1    3    3    0  502 -0.15143132654E+03  0.10240761993E+03 -0.73503022442E+03  0.75742208067E+03  0.10100000352E+00 0. -1.
</event>
<event>
 5   0  0.4451135E-02  0.5012267E+03  0.7818609E-02  0.1013459E+00
       -2   -1    0    0    0  501  0.00000000000E+00  0.00000000000E+00  0.89601818759E+02  0.89601818795E+02  0.25500000920E-02 0. -1.
        2   -1    0    0  501    0  0.00000000000E+00  0.00000000000E+00 -0.70095726292E+03  0.70095726293E+03  0.25500000920E-02 0.  1.
    10030    2    1    2    0    0  0.00000000000E+00  0.00000000000E+00 -0.61135544417E+03  0.79055908172E+03  0.50122667785E+03 0.  0.
        1    1    3    3  502    0 -0.16185709785E+03 -0.10207112046E+03 -0.56093294327E+03  0.59267360379E+03  0.50400001928E-02 0.  1.
       -1    1    3    3    0  502  0.16185709785E+03  0.10207112046E+03 -0.50422500894E+02  0.19788547793E+03  0.50400001928E-02 0. -1.
</event>
<event>
 5   0  0.2719671E-02  0.5035299E+03  0.7818609E-02  0.1012862E+00
       -1   -1    0    0    0  501  0.00000000000E+00  0.00000000000E+00  0.55801250737E+02  0.55801250964E+02  0.50400001928E-02 0.  1.
        1   -1    0    0  501    0  0.00000000000E+00  0.00000000000E+00 -0.11359171839E+04  0.11359171839E+04  0.50400001928E-02 0. -1.
    10030    2    1    2    0    0  0.00000000000E+00  0.00000000000E+00 -0.10801159331E+04  0.11917184348E+04  0.50352993848E+03 0.  0.
        2    1    3    3  502    0 -0.12334299428E+03 -0.25562939095E+02 -0.24140336810E+02  0.12825643828E+03  0.25500000920E-02 0.  1.
       -2    1    3    3    0  502  0.12334299428E+03  0.25562939095E+02 -0.10559755963E+04  0.10634619966E+04  0.25500000920E-02 0. -1.
</event>
<event>
 5   0  0.1805500E-02  0.5003533E+03  0.7818609E-02  0.1013687E+00
       -4   -1    0    0    0  501  0.00000000000E+00  0.00000000000E+00  0.60431862021E+02  0.60445205329E+02  0.12699999809E+01 0. -1.
        4   -1    0    0  501    0  0.00000000000E+00  0.00000000000E+00 -0.10355566615E+04  0.10355574403E+04  0.12699999809E+01 0.  1.
    10030    2    1    2    0    0  0.00000000000E+00  0.00000000000E+00 -0.97512479948E+03  0.10960026456E+04  0.50035329976E+03 0.  0.
        5    1    3    3  502    0  0.12602030525E+03 -0.89340304834E+02 -0.91849537021E+03  0.93140680827E+03  0.46999998093E+01 0.  1.
       -5    1    3    3    0  502 -0.12602030525E+03  0.89340304834E+02 -0.56629429271E+02  0.16459583732E+03  0.46999998093E+01 0. -1.
</event>
<event>
 5   0  0.4409622E-02  0.5020745E+03  0.7818609E-02  0.1013239E+00
       -2   -1    0    0    0  501  0.00000000000E+00  0.00000000000E+00  0.92656460801E+02  0.92656460836E+02  0.25500000920E-02 0. -1.
        2   -1    0    0  501    0  0.00000000000E+00  0.00000000000E+00 -0.68014366198E+03  0.68014366199E+03  0.25500000920E-02 0.  1.
    10030    2    1    2    0    0  0.00000000000E+00  0.00000000000E+00 -0.58748720118E+03  0.77280012282E+03  0.50207451467E+03 0.  0.
        3    1    3    3  502    0  0.89458721412E+01  0.24773165353E+03 -0.23278035717E+03  0.34005544500E+03  0.10100000352E+00 0. -1.
       -3    1    3    3    0  502 -0.89458721412E+01 -0.24773165353E+03 -0.35470684402E+03  0.43274467782E+03  0.10100000352E+00 0.  1.
</event>
<event>
 5   0  0.4631619E-02  0.4994858E+03  0.7818609E-02  0.1013913E+00
        2   -1    0    0  501    0  0.00000000000E+00  0.00000000000E+00  0.27645224258E+03  0.27645224259E+03  0.25500000920E-02 0. -1.
       -2   -1    0    0    0  501  0.00000000000E+00  0.00000000000E+00 -0.22561408248E+03  0.22561408249E+03  0.25500000920E-02 0.  1.
    10030    2    1    2    0    0  0.00000000000E+00  0.00000000000E+00  0.50838160105E+02  0.50206632508E+03  0.49948581187E+03 0.  0.
        5    1    3    3  502    0  0.14011474290E+03  0.17486085166E+03  0.13617441061E+03  0.26224800996E+03  0.46999998093E+01 0. -1.
       -5    1    3    3    0  502 -0.14011474290E+03 -0.17486085166E+03 -0.85336250506E+02  0.23981831513E+03  0.46999998093E+01 0.  1.
</event>
<event>
 5   0  0.2723308E-02  0.4904765E+03  0.7818609E-02  0.1016295E+00
       -1   -1    0    0    0  501  0.00000000000E+00  0.00000000000E+00  0.93741347568E+02  0.93741347703E+02  0.50400001928E-02 0. -1.
        1   -1    0    0  501    0  0.00000000000E+00  0.00000000000E+00 -0.64157179106E+03  0.64157179108E+03  0.50400001928E-02 0.  1.
    10030    2    1    2    0    0  0.00000000000E+00  0.00000000000E+00 -0.54783044349E+03  0.73531313878E+03  0.49047652059E+03 0.  0.
        4    1    3    3  502    0 -0.12217959242E+03 -0.18446573505E+02  0.43656716722E+02  0.13105590674E+03  0.12699999809E+01 0. -1.
       -4    1    3    3    0  502  0.12217959242E+03  0.18446573505E+02 -0.59148716022E+03  0.60425723204E+03  0.12699999809E+01 0.  1.
</event>
<event>
 5   0  0.2723308E-02  0.5038834E+03  0.7818609E-02  0.1012770E+00
       -1   -1    0    0    0  501  0.00000000000E+00  0.00000000000E+00  0.17567267717E+03  0.17567267725E+03  0.50400001928E-02 0.  1.
        1   -1    0    0  501    0  0.00000000000E+00  0.00000000000E+00 -0.36132330129E+03  0.36132330133E+03  0.50400001928E-02 0. -1.
    10030    2    1    2    0    0  0.00000000000E+00  0.00000000000E+00 -0.18565062412E+03  0.53699597858E+03  0.50388344562E+03 0.  0.
        4    1    3    3  502    0 -0.22335443545E+03 -0.15994331743E+02 -0.21586804180E+03  0.31103640760E+03  0.12699999809E+01 0.  1.
       -4    1    3    3    0  502  0.22335443545E+03  0.15994331743E+02  0.30217417678E+02  0.22595957097E+03  0.12699999809E+01 0. -1.
</event>
<event>
 5   0  0.2643185E-02  0.4995911E+03  0.7818609E-02  0.1013886E+00
        1   -1    0    0  501    0  0.00000000000E+00  0.00000000000E+00  0.25100198379E+03  0.25100198384E+03  0.50400001928E-02 0. -1.
       -1   -1    0    0    0  501  0.00000000000E+00  0.00000000000E+00 -0.24859491975E+03  0.24859491980E+03  0.50400001928E-02 0.  1.
    10030    2    1    2    0    0  0.00000000000E+00  0.00000000000E+00  0.24070640485E+01  0.49959690364E+03  0.49959110497E+03 0.  0.
        1    1    3    3  502    0  0.58593075398E+02 -0.12160569799E+03 -0.20898150373E+03  0.24878577772E+03  0.50400001928E-02 0.  1.
       -1    1    3    3    0  502 -0.58593075398E+02  0.12160569799E+03  0.21138856778E+03  0.25081112592E+03  0.50400001928E-02 0. -1.
</event>
<event>
 5   0  0.2643185E-02  0.5000945E+03  0.7818609E-02  0.1013754E+00
       -1   -1    0    0    0  501  0.00000000000E+00  0.00000000000E+00  0.12256593488E+03  0.12256593498E+03  0.50400001928E-02 0. -1.
        1   -1    0    0  501    0  0.00000000000E+00  0.00000000000E+00 -0.51012246820E+03  0.51012246822E+03  0.50400001928E-02 0.  1.
    10030    2    1    2    0    0  0.00000000000E+00  0.00000000000E+00 -0.38755653331E+03  0.63268840320E+03  0.50009454010E+03 0.  0.
        1    1    3    3  502    0  0.10503396297E+03  0.93575322066E+02 -0.45531364400E+03  0.47654904125E+03  0.50400001928E-02 0.  1.
       -1    1    3    3    0  502 -0.10503396297E+03 -0.93575322066E+02  0.67757110688E+02  0.15613936195E+03  0.50400001928E-02 0. -1.
</event>
<event>
 5   0  0.2719671E-02  0.5034438E+03  0.7818609E-02  0.1012884E+00
       -1   -1    0    0    0  501  0.00000000000E+00  0.00000000000E+00  0.44005049290E+03  0.44005049293E+03  0.50400001928E-02 0.  1.
        1   -1    0    0  501    0  0.00000000000E+00  0.00000000000E+00 -0.14399239223E+03  0.14399239232E+03  0.50400001928E-02 0. -1.
    10030    2    1    2    0    0  0.00000000000E+00  0.00000000000E+00  0.29605810067E+03  0.58404288525E+03  0.50344383285E+03 0.  0.
        2    1    3    3  502    0 -0.14515535325E+03 -0.20532465331E+03  0.13451837727E+03  0.28517272602E+03  0.25500000920E-02 0. -1.
       -2    1    3    3    0  502  0.14515535325E+03  0.20532465331E+03  0.16153972339E+03  0.29887015923E+03  0.25500000920E-02 0.  1.
</event>
<event>
 5   0  0.2715483E-02  0.4936901E+03  0.7818609E-02  0.1015439E+00
       -1   -1    0    0    0  501  0.00000000000E+00  0.00000000000E+00  0.74537646853E+02  0.74537647023E+02  0.50400001928E-02 0. -1.
        1   -1    0    0  501    0  0.00000000000E+00  0.00000000000E+00 -0.81747261444E+03  0.81747261446E+03  0.50400001928E-02 0.  1.
    10030    2    1    2    0    0  0.00000000000E+00  0.00000000000E+00 -0.74293496759E+03  0.89201026148E+03  0.49369012601E+03 0.  0.
        5    1    3    3  502    0  0.18884152623E+03 -0.10064766449E+02 -0.84939590340E+02  0.20736259440E+03  0.46999998093E+01 0. -1.
       -5    1    3    3    0  502 -0.18884152623E+03  0.10064766449E+02 -0.65799537725E+03  0.68464766707E+03  0.46999998093E+01 0.  1.
</event>
<event>
 5   0  0.1805500E-02  0.4982599E+03  0.7818609E-02  0.1014234E+00
        3   -1    0    0  501    0  0.00000000000E+00  0.00000000000E+00  0.18727082720E+03  0.18727085444E+03  0.10100000352E+00 0.  1.
       -3   -1    0    0    0  501  0.00000000000E+00  0.00000000000E+00 -0.33142219844E+03  0.33142221383E+03  0.10100000352E+00 0. -1.
    10030    2    1    2    0    0  0.00000000000E+00  0.00000000000E+00 -0.14415137124E+03  0.51869306827E+03  0.49825985313E+03 0.  0.
        4    1    3    3  502    0  0.21648070034E+03 -0.65884288846E+02  0.36406630507E+02  0.22919792491E+03  0.12699999809E+01 0. -1.
       -4    1    3    3    0  502 -0.21648070034E+03  0.65884288846E+02 -0.18055800175E+03  0.28949514336E+03  0.12699999809E+01 0.  1.
</event>
<event>
 5   0  0.2719671E-02  0.4996610E+03  0.7818609E-02  0.1013867E+00
        1   -1    0    0  501    0  0.00000000000E+00  0.00000000000E+00  0.12647120673E+03  0.12647120683E+03  0.50400001928E-02 0. -1.
       -1   -1    0    0    0  501  0.00000000000E+00  0.00000000000E+00 -0.49351383976E+03  0.49351383979E+03  0.50400001928E-02 0.  1.
    10030    2    1    2    0    0  0.00000000000E+00  0.00000000000E+00 -0.36704263303E+03  0.61998504662E+03  0.49966104868E+03 0.  0.
        2    1    3    3  502    0 -0.48194477804E+02 -0.10037167776E+03 -0.46102538600E+03  0.47428007330E+03  0.25500000920E-02 0.  1.
       -2    1    3    3    0  502  0.48194477804E+02  0.10037167776E+03  0.93982752967E+02  0.14570497332E+03  0.25500000920E-02 0. -1.
</event>
<event>
 5   0  0.4451135E-02  0.4996553E+03  0.7818609E-02  0.1013869E+00
       -2   -1    0    0    0  501  0.00000000000E+00  0.00000000000E+00  0.85479899364E+02  0.85479899402E+02  0.25500000920E-02 0. -1.
        2   -1    0    0  501    0  0.00000000000E+00  0.00000000000E+00 -0.73015821967E+03  0.73015821967E+03  0.25500000920E-02 0.  1.
    10030    2    1    2    0    0  0.00000000000E+00  0.00000000000E+00 -0.64467832031E+03  0.81563811908E+03  0.49965528579E+03 0.  0.
        1    1    3    3  502    0 -0.57655897291E+02 -0.76476669610E+02  0.54321270290E+02  0.11010760155E+03  0.50400001928E-02 0. -1.
       -1    1    3    3    0  502  0.57655897291E+02  0.76476669610E+02 -0.69899959060E+03  0.70553051753E+03  0.50400001928E-02 0.  1.
</event>
<event>
 5   0  0.4451135E-02  0.5039124E+03  0.7818609E-02  0.1012763E+00
        2   -1    0    0  501    0  0.00000000000E+00  0.00000000000E+00  0.16104459836E+03  0.16104459838E+03  0.25500000920E-02 0. -1.
       -2   -1    0    0    0  501  0.00000000000E+00  0.00000000000E+00 -0.39418844165E+03  0.39418844165E+03  0.25500000920E-02 0.  1.
    10030    2    1    2    0    0  0.00000000000E+00  0.00000000000E+00 -0.23314384329E+03  0.55523304003E+03  0.50391237044E+03 0.  0.
        1    1    3    3  502    0 -0.47169761814E+02  0.92159456549E+02  0.13652528799E+03  0.17134032259E+03  0.50400001928E-02 0. -1.
       -1    1    3    3    0  502  0.47169761814E+02 -0.92159456549E+02 -0.36966913127E+03  0.38389271744E+03  0.50400001928E-02 0.  1.
</event>
<event>
 5   0  0.4534223E-02  0.4998079E+03  0.7818609E-02  0.1013829E+00
       -2   -1    0    0    0  501  0.00000000000E+00  0.00000000000E+00  0.36921113748E+03  0.36921113749E+03  0.25500000920E-02 0. -1.
        2   -1    0    0  501    0  0.00000000000E+00  0.00000000000E+00 -0.16914976557E+03  0.16914976559E+03  0.25500000920E-02 0.  1.
    10030    2    1    2    0    0  0.00000000000E+00  0.00000000000E+00  0.20006137190E+03  0.53836090308E+03  0.49980787253E+03 0.  0.
        2    1    3    3  502    0  0.13361973034E+03 -0.20741626041E+02 -0.12634093293E+03  0.18505804151E+03  0.25500000920E-02 0.  1.
       -2    1    3    3    0  502 -0.13361973034E+03  0.20741626041E+02  0.32640230483E+03  0.35330286157E+03  0.25500000920E-02 0. -1.
</event>
<event>
 5   0  0.2719671E-02  0.4996805E+03  0.7818609E-02  0.1013862E+00
        1   -1    0    0  501    0  0.00000000000E+00  0.00000000000E+00  0.14094703666E+03  0.14094703675E+03  0.50400001928E-02 0. -1.
       -1   -1    0    0    0  501  0.00000000000E+00  0.00000000000E+00 -0.44286249953E+03  0.44286249956E+03  0.50400001928E-02 0.  1.
    10030    2    1    2    0    0  0.00000000000E+00  0.00000000000E+00 -0.30191546287E+03  0.58380953630E+03  0.49968052590E+03 0.  0.
        2    1    3    3  502    0  0.11894841735E+03  0.21886475915E+03 -0.17342100550E+03  0.30352158728E+03  0.25500000920E-02 0. -1.
       -2    1    3    3    0  502 -0.11894841735E+03 -0.21886475915E+03 -0.12849445737E+03  0.28028794903E+03  0.25500000920E-02 0.  1.
</event>
<event>
 5   0  0.2723308E-02  0.5006807E+03  0.7818609E-02  0.1013601E+00
       -1   -1    0    0    0  501  0.00000000000E+00  0.00000000000E+00  0.10736504103E+03  0.10736504115E+03  0.50400001928E-02 0. -1.
        1   -1    0    0  501    0  0.00000000000E+00  0.00000000000E+00 -0.58371221327E+03  0.58371221329E+03  0.50400001928E-02 0.  1.
    10030    2    1    2    0    0  0.00000000000E+00  0.00000000000E+00 -0.47634717224E+03  0.69107725444E+03  0.50068067979E+03 0.  0.
        4    1    3    3  502    0 -0.12665065062E+03 -0.13212410959E+03 -0.24271231252E+01  0.18304281320E+03  0.12699999809E+01 0. -1.
       -4    1    3    3    0  502  0.12665065062E+03  0.13212410959E+03 -0.47392004911E+03  0.50803444124E+03  0.12699999809E+01 0.  1.
</event>
<event>
 5   0  0.2643185E-02  0.5020026E+03  0.7818609E-02  0.1013258E+00
       -1   -1    0    0    0  501  0.00000000000E+00  0.00000000000E+00  0.20979312905E+03  0.20979312911E+03  0.50400001928E-02 0. -1.
        1   -1    0    0  501    0  0.00000000000E+00  0.00000000000E+00 -0.30030373396E+03  0.30030373400E+03  0.50400001928E-02 0.  1.
    10030    2    1    2    0    0  0.00000000000E+00  0.00000000000E+00 -0.90510604915E+02  0.51009686311E+03  0.50200262963E+03 0.  0.
        1    1    3    3  502    0  0.96308090327E+01 -0.26635358242E+02 -0.29867477699E+03  0.30001469502E+03  0.50400001928E-02 0.  1.
       -1    1    3    3    0  502 -0.96308090327E+01  0.26635358242E+02  0.20816417207E+03  0.21008216809E+03  0.50400001928E-02 0. -1.
</event>
<event>
 5   0  0.2719671E-02  0.4973764E+03  0.7818609E-02  0.1014466E+00
        1   -1    0    0  501    0  0.00000000000E+00  0.00000000000E+00  0.21620748082E+04  0.21620748082E+04  0.50400001928E-02 0. -1.
       -1   -1    0    0    0  501  0.00000000000E+00  0.00000000000E+00 -0.28604850986E+02  0.28604851430E+02  0.50400001928E-02 0.  1.
    10030    2    1    2    0    0  0.00000000000E+00  0.00000000000E+00  0.21334699572E+04  0.21906796596E+04  0.49737642968E+03 0.  0.
        2    1    3    3  502    0  0.10727695183E+03  0.74417775312E+02  0.19989801759E+04  0.20032393999E+04  0.25500000920E-02 0. -1.
       -2    1    3    3    0  502 -0.10727695183E+03 -0.74417775312E+02  0.13448978125E+03  0.18744025966E+03  0.25500000920E-02 0.  1.
</event>
<event>
 5   0  0.1805500E-02  0.5107007E+03  0.7818609E-02  0.1011023E+00
        4   -1    0    0  501    0  0.00000000000E+00  0.00000000000E+00  0.34779134664E+03  0.34779366541E+03  0.12699999809E+01 0.  1.
       -4   -1    0    0    0  501  0.00000000000E+00  0.00000000000E+00 -0.18747453788E+03  0.18747883948E+03  0.12699999809E+01 0. -1.
    10030    2    1    2    0    0  0.00000000000E+00  0.00000000000E+00  0.16031680876E+03  0.53527250489E+03  0.51070067096E+03 0.  0.
        3    1    3    3  502    0  0.30355728310E+02  0.20182391461E+03  0.24100009267E+03  0.31580914746E+03  0.10100000352E+00 0.  1.
       -3    1    3    3    0  502 -0.30355728310E+02 -0.20182391461E+03 -0.80683283912E+02  0.21946335743E+03  0.10100000352E+00 0. -1.
</event>
<event>
 5   0  0.4409622E-02  0.4990062E+03  0.7818609E-02  0.1014039E+00
       -2   -1    0    0    0  501  0.00000000000E+00  0.00000000000E+00  0.38851849268E+02  0.38851849351E+02  0.25500000920E-02 0. -1.
        2   -1    0    0  501    0  0.00000000000E+00  0.00000000000E+00 -0.16022867804E+04  0.16022867804E+04  0.25500000920E-02 0.  1.
    10030    2    1    2    0    0  0.00000000000E+00  0.00000000000E+00 -0.15634349311E+04  0.16411386297E+04  0.49900623060E+03 0.  0.
        3    1    3    3  502    0  0.78688958853E+02  0.20183478978E+03 -0.11888210830E+04  0.12083976217E+04  0.10100000352E+00 0.  1.
       -3    1    3    3    0  502 -0.78688958853E+02 -0.20183478978E+03 -0.37461384812E+03  0.43274100801E+03  0.10100000352E+00 0. -1.
</event>
<event>
 5   0  0.4451135E-02  0.4990135E+03  0.7818609E-02  0.1014037E+00
        2   -1    0    0  501    0  0.00000000000E+00  0.00000000000E+00  0.19065386000E+04  0.19065386000E+04  0.25500000920E-02 0.  1.
       -2   -1    0    0    0  501  0.00000000000E+00  0.00000000000E+00 -0.32652687451E+02  0.32652687550E+02  0.25500000920E-02 0. -1.
    10030    2    1    2    0    0  0.00000000000E+00  0.00000000000E+00  0.18738859125E+04  0.19391912875E+04  0.49901346321E+03 0.  0.
        1    1    3    3  502    0 -0.23315820737E+03 -0.10607835148E+02  0.59421331879E+03  0.63840797621E+03  0.50400001928E-02 0.  1.
       -1    1    3    3    0  502  0.23315820737E+03  0.10607835148E+02  0.12796725937E+04  0.13007833113E+04  0.50400001928E-02 0. -1.
</event>
<event>
 5   0  0.4409622E-02  0.5000039E+03  0.7818609E-02  0.1013778E+00
       -2   -1    0    0    0  501  0.00000000000E+00  0.00000000000E+00  0.12364987680E+03  0.12364987683E+03  0.25500000920E-02 0. -1.
        2   -1    0    0  501    0  0.00000000000E+00  0.00000000000E+00 -0.50546730483E+03  0.50546730484E+03  0.25500000920E-02 0.  1.
    10030    2    1    2    0    0  0.00000000000E+00  0.00000000000E+00 -0.38181742803E+03  0.62911718166E+03  0.50000387991E+03 0.  0.
        3    1    3    3  502    0  0.29168777830E+02  0.17984358447E+03 -0.40630569439E+03  0.44528514456E+03  0.10100000352E+00 0.  1.
       -3    1    3    3    0  502 -0.29168777830E+02 -0.17984358447E+03  0.24488266361E+02  0.18383203710E+03  0.10100000352E+00 0. -1.
</event>
<event>
 5   0  0.2723308E-02  0.4993728E+03  0.7818609E-02  0.1013943E+00
        1   -1    0    0  501    0  0.00000000000E+00  0.00000000000E+00  0.80036046982E+03  0.80036046983E+03  0.50400001928E-02 0. -1.
       -1   -1    0    0    0  501  0.00000000000E+00  0.00000000000E+00 -0.77894010183E+02  0.77894010346E+02  0.50400001928E-02 0.  1.
    10030    2    1    2    0    0  0.00000000000E+00  0.00000000000E+00  0.72246645964E+03  0.87825448018E+03  0.49937275322E+03 0.  0.
        4    1    3    3  502    0  0.60345184693E+02 -0.83760490530E+02  0.76106279424E+03  0.76803356096E+03  0.12699999809E+01 0. -1.
       -4    1    3    3    0  502 -0.60345184693E+02  0.83760490530E+02 -0.38596334601E+02  0.11022091922E+03  0.12699999809E+01 0.  1.
</event>
<event>
 5   0  0.4534223E-02  0.5005842E+03  0.7818609E-02  0.1013627E+00
       -2   -1    0    0    0  501  0.00000000000E+00  0.00000000000E+00  0.17987342380E+03  0.17987342382E+03  0.25500000920E-02 0. -1.
        2   -1    0    0  501    0  0.00000000000E+00  0.00000000000E+00 -0.34827899457E+03  0.34827899458E+03  0.25500000920E-02 0.  1.
    10030    2    1    2    0    0  0.00000000000E+00  0.00000000000E+00 -0.16840557077E+03  0.52815241839E+03  0.50058419950E+03 0.  0.
        2    1    3    3  502    0 -0.17462958117E+03  0.11520694160E+03  0.60761221899E+02  0.21785329032E+03  0.25500000920E-02 0. -1.
       -2    1    3    3    0  502  0.17462958117E+03 -0.11520694160E+03 -0.22916679267E+03  0.31029912807E+03  0.25500000920E-02 0.  1.
</event>
<event>
 5   0  0.4534223E-02  0.5000323E+03  0.7818609E-02  0.1013770E+00
       -2   -1    0    0    0  501  0.00000000000E+00  0.00000000000E+00  0.52044695265E+02  0.52044695328E+02  0.25500000920E-02 0.  1.
        2   -1    0    0  501    0  0.00000000000E+00  0.00000000000E+00 -0.12010461241E+04  0.12010461241E+04  0.25500000920E-02 0. -1.
    10030    2    1    2    0    0  0.00000000000E+00  0.00000000000E+00 -0.11490014288E+04  0.12530908194E+04  0.50003231723E+03 0.  0.
        2    1    3    3  502    0  0.12520546516E+03 -0.15827231718E+03 -0.94435343013E+03  0.96567589589E+03  0.25500000920E-02 0. -1.
       -2    1    3    3    0  502 -0.12520546516E+03  0.15827231718E+03 -0.20464799868E+03  0.28741492352E+03  0.25500000920E-02 0.  1.
</event>
<event>
 5   0  0.2723308E-02  0.5001317E+03  0.7818609E-02  0.1013745E+00
       -1   -1    0    0    0  501  0.00000000000E+00  0.00000000000E+00  0.69912959492E+02  0.69912959674E+02  0.50400001928E-02 0. -1.
        1   -1    0    0  501    0  0.00000000000E+00  0.00000000000E+00 -0.89443974524E+03  0.89443974525E+03  0.50400001928E-02 0.  1.
    10030    2    1    2    0    0  0.00000000000E+00  0.00000000000E+00 -0.82452678575E+03  0.96435270493E+03  0.50013170174E+03 0.  0.
        4    1    3    3  502    0  0.26480868876E+01 -0.15053106732E+03 -0.27276643958E+02  0.15301059701E+03  0.12699999809E+01 0. -1.
       -4    1    3    3    0  502 -0.26480868876E+01  0.15053106732E+03 -0.79725014179E+03  0.81134210791E+03  0.12699999809E+01 0.  1.
</event>
<event>
 5   0  0.2719671E-02  0.5050805E+03  0.7818609E-02  0.1012461E+00
       -1   -1    0    0    0  501  0.00000000000E+00  0.00000000000E+00  0.93570616623E+02  0.93570616759E+02  0.50400001928E-02 0. -1.
        1   -1    0    0  501    0  0.00000000000E+00  0.00000000000E+00 -0.68158769517E+03  0.68158769519E+03  0.50400001928E-02 0.  1.
    10030    2    1    2    0    0  0.00000000000E+00  0.00000000000E+00 -0.58801707855E+03  0.77515831195E+03  0.50508051231E+03 0.  0.
        2    1    3    3  502    0 -0.11706226992E+03  0.18629095685E+03 -0.48426882968E+03  0.53190619008E+03  0.25500000920E-02 0.  1.
       -2    1    3    3    0  502  0.11706226992E+03 -0.18629095685E+03 -0.10374824887E+03  0.24325212187E+03  0.25500000920E-02 0. -1.
</event>
<event>
 5   0  0.2715483E-02  0.4966457E+03  0.7818609E-02  0.1014658E+00
       -1   -1    0    0    0  501  0.00000000000E+00  0.00000000000E+00  0.40443872361E+03  0.40443872364E+03  0.50400001928E-02 0. -1.
        1   -1    0    0  501    0  0.00000000000E+00  0.00000000000E+00 -0.15246869174E+03  0.15246869182E+03  0.50400001928E-02 0.  1.
    10030    2    1    2    0    0  0.00000000000E+00  0.00000000000E+00  0.25197003188E+03  0.55690741546E+03  0.49664572125E+03 0.  0.
        5    1    3    3  502    0 -0.14586205166E+03  0.53518856586E+01  0.35119739464E+03  0.38034994517E+03  0.46999998093E+01 0. -1.
       -5    1    3    3    0  502  0.14586205166E+03 -0.53518856586E+01 -0.99227362761E+02  0.17655747029E+03  0.46999998093E+01 0.  1.
</event>
<event>
 5   0  0.4519539E-02  0.4992715E+03  0.7818609E-02  0.1013969E+00
       -2   -1    0    0    0  501  0.00000000000E+00  0.00000000000E+00  0.15472258816E+03  0.15472258818E+03  0.25500000920E-02 0. -1.
        2   -1    0    0  501    0  0.00000000000E+00  0.00000000000E+00 -0.40277259884E+03  0.40277259885E+03  0.25500000920E-02 0.  1.
    10030    2    1    2    0    0  0.00000000000E+00  0.00000000000E+00 -0.24805001068E+03  0.55749518703E+03  0.49927154512E+03 0.  0.
        4    1    3    3  502    0  0.93238955534E+02  0.14745077891E+02 -0.38207107142E+03  0.39356173171E+03  0.12699999809E+01 0.  1.
       -4    1    3    3    0  502 -0.93238955534E+02 -0.14745077891E+02  0.13402106074E+03  0.16393345532E+03  0.12699999809E+01 0. -1.
</event>
<event>
 5   0  0.2715483E-02  0.4999466E+03  0.7818609E-02  0.1013793E+00
        1   -1    0    0  501    0  0.00000000000E+00  0.00000000000E+00  0.10064368485E+04  0.10064368486E+04  0.50400001928E-02 0. -1.
       -1   -1    0    0    0  501  0.00000000000E+00  0.00000000000E+00 -0.62087007008E+02  0.62087007212E+02  0.50400001928E-02 0.  1.
    10030    2    1    2    0    0  0.00000000000E+00  0.00000000000E+00  0.94434984154E+03  0.10685238558E+04  0.49994660429E+03 0.  0.
        5    1    3    3  502    0 -0.86053806059E+02  0.23446297770E+03  0.45230672069E+03  0.51670262727E+03  0.46999998093E+01 0.  1.
       -5    1    3    3    0  502  0.86053806059E+02 -0.23446297770E+03  0.49204312084E+03  0.55182122850E+03  0.46999998093E+01 0. -1.
</event>
<event>
 5   0  0.4409622E-02  0.4993053E+03  0.7818609E-02  0.1013960E+00
        2   -1    0    0  501    0  0.00000000000E+00  0.00000000000E+00  0.30189818554E+03  0.30189818555E+03  0.25500000920E-02 0. -1.
       -2   -1    0    0    0  501  0.00000000000E+00  0.00000000000E+00 -0.20644857486E+03  0.20644857487E+03  0.25500000920E-02 0.  1.
    10030    2    1    2    0    0  0.00000000000E+00  0.00000000000E+00  0.95449610686E+02  0.50834676043E+03  0.49930531807E+03 0.  0.
        3    1    3    3  502    0 -0.55234668070E+02 -0.19733389455E+03  0.19290753161E+03  0.28143358089E+03  0.10100000352E+00 0. -1.
       -3    1    3    3    0  502  0.55234668070E+02  0.19733389455E+03 -0.97457920926E+02  0.22691317954E+03  0.10100000352E+00 0.  1.
</event>
<event>
 5   0  0.2715483E-02  0.4979545E+03  0.7818609E-02  0.1014314E+00
        1   -1    0    0  501    0  0.00000000000E+00  0.00000000000E+00  0.17345471236E+03  0.17345471243E+03  0.50400001928E-02 0. -1.
       -1   -1    0    0    0  501  0.00000000000E+00  0.00000000000E+00 -0.35738250613E+03  0.35738250616E+03  0.50400001928E-02 0.  1.
    10030    2    1    2    0    0  0.00000000000E+00  0.00000000000E+00 -0.18392779376E+03  0.53083721860E+03  0.49795453540E+03 0.  0.
        5    1    3    3  502    0 -0.94626707915E+02  0.11427154580E+03 -0.30505207618E+03  0.33925073207E+03  0.46999998093E+01 0.  1.
       -5    1    3    3    0  502  0.94626707915E+02 -0.11427154580E+03  0.12112428241E+03  0.19158648653E+03  0.46999998093E+01 0. -1.
</event>
<event>
 5   0  0.2643185E-02  0.4993255E+03  0.7818609E-02  0.1013955E+00
       -1   -1    0    0    0  501  0.00000000000E+00  0.00000000000E+00  0.24837520596E+03  0.24837520601E+03  0.50400001928E-02 0.  1.
        1   -1    0    0  501    0  0.00000000000E+00  0.00000000000E+00 -0.25095696841E+03  0.25095696846E+03  0.50400001928E-02 0. -1.
    10030    2    1    2    0    0  0.00000000000E+00  0.00000000000E+00 -0.25817624496E+01  0.49933217446E+03  0.49932550001E+03 0.  0.
        1    1    3    3  502    0  0.11861260621E+03 -0.16711464341E+03  0.14131268803E+03  0.24892876535E+03  0.50400001928E-02 0.  1.
       -1    1    3    3    0  502 -0.11861260621E+03  0.16711464341E+03 -0.14389445048E+03  0.25040340912E+03  0.50400001928E-02 0. -1.
</event>
<event>
 5   0  0.2643185E-02  0.4669043E+03  0.7818609E-02  0.1022798E+00
       -1   -1    0    0    0  501  0.00000000000E+00  0.00000000000E+00  0.96660273764E+02  0.96660273895E+02  0.50400001928E-02 0. -1.
        1   -1    0    0  501    0  0.00000000000E+00  0.00000000000E+00 -0.56382937415E+03  0.56382937417E+03  0.50400001928E-02 0.  1.
    10030    2    1    2    0    0  0.00000000000E+00  0.00000000000E+00 -0.46716910039E+03  0.66048964807E+03  0.46690428018E+03 0.  0.
        1    1    3    3  502    0 -0.54815880948E+02 -0.11642698343E+02  0.87004616802E+02  0.10348978983E+03  0.50400001928E-02 0. -1.
       -1    1    3    3    0  502  0.54815880948E+02  0.11642698343E+02 -0.55417371719E+03  0.55699985824E+03  0.50400001928E-02 0.  1.
</event>
<event>
 5   0  0.2715483E-02  0.4994114E+03  0.7818609E-02  0.1013933E+00
        1   -1    0    0  501    0  0.00000000000E+00  0.00000000000E+00  0.26950524316E+03  0.26950524320E+03  0.50400001928E-02 0. -1.
       -1   -1    0    0    0  501  0.00000000000E+00  0.00000000000E+00 -0.23136071113E+03  0.23136071118E+03  0.50400001928E-02 0.  1.
    10030    2    1    2    0    0  0.00000000000E+00  0.00000000000E+00  0.38144532028E+02  0.50086595438E+03  0.49941135243E+03 0.  0.
        5    1    3    3  502    0  0.10969680295E+03 -0.15584789060E+03 -0.14267015404E+03  0.23811513273E+03  0.46999998093E+01 0.  1.
       -5    1    3    3    0  502 -0.10969680295E+03  0.15584789060E+03  0.18081468607E+03  0.26275082165E+03  0.46999998093E+01 0. -1.
</event>
<event>
 5   0  0.4519539E-02  0.5006353E+03  0.7818609E-02  0.1013613E+00
        2   -1    0    0  501    0  0.00000000000E+00  0.00000000000E+00  0.15975876349E+04  0.15975876349E+04  0.25500000920E-02 0. -1.
       -2   -1    0    0    0  501  0.00000000000E+00  0.00000000000E+00 -0.39220964093E+02  0.39220964175E+02  0.25500000920E-02 0.  1.
    10030    2    1    2    0    0  0.00000000000E+00  0.00000000000E+00  0.15583666708E+04  0.16368085991E+04  0.50063530572E+03 0.  0.
        4    1    3    3  502    0 -0.14562039267E+02 -0.12795211162E+03  0.77401513809E+02  0.15025446115E+03  0.12699999809E+01 0.  1.
       -4    1    3    3    0  502  0.14562039267E+02  0.12795211162E+03  0.14809651570E+04  0.14865541380E+04  0.12699999809E+01 0. -1.
</event>
<event>
 5   0  0.4409622E-02  0.5015745E+03  0.7818609E-02  0.1013369E+00
        2   -1    0    0  501    0  0.00000000000E+00  0.00000000000E+00  0.14101652105E+04  0.14101652105E+04  0.25500000920E-02 0.  1.
       -2   -1    0    0    0  501  0.00000000000E+00  0.00000000000E+00 -0.44600629034E+02  0.44600629107E+02  0.25500000920E-02 0. -1.
    10030    2    1    2    0    0  0.00000000000E+00  0.00000000000E+00  0.13655645814E+04  0.14547658396E+04  0.50157454275E+03 0.  0.
        3    1    3    3  502    0 -0.10686337930E+03  0.12389571974E+03  0.13152110694E+03  0.20992318352E+03  0.10100000352E+00 0. -1.
       -3    1    3    3    0  502  0.10686337930E+03 -0.12389571974E+03  0.12340434745E+04  0.12448426561E+04  0.10100000352E+00 0.  1.
</event>
<event>
 5   0  0.4534223E-02  0.5025807E+03  0.7818609E-02  0.1013108E+00
        2   -1    0    0  501    0  0.00000000000E+00  0.00000000000E+00  0.75766498092E+03  0.75766498093E+03  0.25500000920E-02 0.  1.
       -2   -1    0    0    0  501  0.00000000000E+00  0.00000000000E+00 -0.83344009590E+02  0.83344009629E+02  0.25500000920E-02 0. -1.
    10030    2    1    2    0    0  0.00000000000E+00  0.00000000000E+00  0.67432097133E+03  0.84100899056E+03  0.50258068986E+03 0.  0.
        2    1    3    3  502    0  0.21672482235E+03  0.61278043433E+02  0.52366696671E+03  0.57004538351E+03  0.25500000920E-02 0.  1.
       -2    1    3    3    0  502 -0.21672482235E+03 -0.61278043433E+02  0.15065400462E+03  0.27096360705E+03  0.25500000920E-02 0. -1.
</event>
<event>
 5   0  0.4451135E-02  0.5022033E+03  0.7818609E-02  0.1013205E+00
        2   -1    0    0  501    0  0.00000000000E+00  0.00000000000E+00  0.13075504227E+04  0.13075504227E+04  0.25500000920E-02 0. -1.
       -2   -1    0    0    0  501  0.00000000000E+00  0.00000000000E+00 -0.48221490132E+02  0.48221490199E+02  0.25500000920E-02 0.  1.
    10030    2    1    2    0    0  0.00000000000E+00  0.00000000000E+00  0.12593289325E+04  0.13557719129E+04  0.50220326503E+03 0.  0.
        1    1    3    3  502    0 -0.14797957601E+03 -0.20157688007E+03  0.56805354033E+03  0.62065773032E+03  0.50400001928E-02 0.  1.
       -1    1    3    3    0  502  0.14797957601E+03  0.20157688007E+03  0.69127539222E+03  0.73511418256E+03  0.50400001928E-02 0. -1.
</event>
<event>
 5   0  0.4631619E-02  0.5005894E+03  0.7818609E-02  0.1013625E+00
        2   -1    0    0  501    0  0.00000000000E+00  0.00000000000E+00  0.62393694403E+03  0.62393694403E+03  0.25500000920E-02 0. -1.
       -2   -1    0    0    0  501  0.00000000000E+00  0.00000000000E+00 -0.10040666614E+03  0.10040666617E+03  0.25500000920E-02 0.  1.
    10030    2    1    2    0    0  0.00000000000E+00  0.00000000000E+00  0.52353027789E+03  0.72434361020E+03  0.50058936642E+03 0.  0.
        5    1    3    3  502    0  0.19097600609E+02 -0.15016060535E+03  0.55011925156E+03  0.57058409256E+03  0.46999998093E+01 0. -1.
       -5    1    3    3    0  502 -0.19097600609E+02  0.15016060535E+03 -0.26588973670E+02  0.15375951764E+03  0.46999998093E+01 0.  1.
</event>
<event>
 5   0  0.4409622E-02  0.4984176E+03  0.7818609E-02  0.1014193E+00
        2   -1    0    0  501    0  0.00000000000E+00  0.00000000000E+00  0.22124861028E+03  0.22124861029E+03  0.25500000920E-02 0. -1.
       -2   -1    0    0    0  501  0.00000000000E+00  0.00000000000E+00 -0.28070240125E+03  0.28070240126E+03  0.25500000920E-02 0.  1.
    10030    2    1    2    0    0  0.00000000000E+00  0.00000000000E+00 -0.59453790971E+02  0.50195101156E+03  0.49841756063E+03 0.  0.
        3    1    3    3  502    0 -0.67297039644E+02 -0.22694623475E+03 -0.10819926168E+03  0.26027019699E+03  0.10100000352E+00 0.  1.
       -3    1    3    3    0  502  0.67297039644E+02  0.22694623475E+03  0.48745470704E+02  0.24168081457E+03  0.10100000352E+00 0. -1.
</event>
<event>
 5   0  0.2643185E-02  0.4989468E+03  0.7818609E-02  0.1014054E+00
        1   -1    0    0  501    0  0.00000000000E+00  0.00000000000E+00  0.26373348747E+03  0.26373348752E+03  0.50400001928E-02 0. -1.
       -1   -1    0    0    0  501  0.00000000000E+00  0.00000000000E+00 -0.23598434157E+03  0.23598434162E+03  0.50400001928E-02 0.  1.
    10030    2    1    2    0    0  0.00000000000E+00  0.00000000000E+00  0.27749145906E+02  0.49971782914E+03  0.49894678440E+03 0.  0.
        1    1    3    3  502    0 -0.27729367008E+02 -0.20343633351E+03 -0.12805438145E+03  0.24197765232E+03  0.50400001928E-02 0.  1.
       -1    1    3    3    0  502  0.27729367008E+02  0.20343633351E+03  0.15580352736E+03  0.25774017683E+03  0.50400001928E-02 0. -1.
</event>
<event>
 5   0  0.2779445E-02  0.5029775E+03  0.7818609E-02  0.1013005E+00
        1   -1    0    0  501    0  0.00000000000E+00  0.00000000000E+00  0.48207762427E+03  0.48207762429E+03  0.50400001928E-02 0.  1.
       -1   -1    0    0    0  501  0.00000000000E+00  0.00000000000E+00 -0.13119587917E+03  0.13119587927E+03  0.50400001928E-02 0. -1.
    10030    2    1    2    0    0  0.00000000000E+00  0.00000000000E+00  0.35088174509E+03  0.61327350356E+03  0.50297752548E+03 0.  0.
        3    1    3    3  502    0 -0.18311019129E+03  0.63385081925E+01  0.38548769831E+03  0.42681412183E+03  0.10100000352E+00 0.  1.
       -3    1    3    3    0  502  0.18311019129E+03 -0.63385081925E+01 -0.34605953219E+02  0.18645938174E+03  0.10100000352E+00 0. -1.
</event>
<event>
 5   0  0.2715483E-02  0.4994986E+03  0.7818609E-02  0.1013910E+00
        1   -1    0    0  501    0  0.00000000000E+00  0.00000000000E+00  0.16270970793E+03  0.16270970800E+03  0.50400001928E-02 0.  1.
       -1   -1    0    0    0  501  0.00000000000E+00  0.00000000000E+00 -0.38334974308E+03  0.38334974311E+03  0.50400001928E-02 0. -1.
    10030    2    1    2    0    0  0.00000000000E+00  0.00000000000E+00 -0.22064003515E+03  0.54605945112E+03  0.49949864769E+03 0.  0.
        5    1    3    3  502    0  0.18516032746E+03 -0.15609272159E+03 -0.43792242321E+02  0.24614860366E+03  0.46999998093E+01 0.  1.
       -5    1    3    3    0  502 -0.18516032746E+03  0.15609272159E+03 -0.17684779283E+03  0.29991084746E+03  0.46999998093E+01 0. -1.
</event>
<event>
 5   0  0.2779445E-02  0.4999568E+03  0.7818609E-02  0.1013790E+00
        1   -1    0    0  501    0  0.00000000000E+00  0.00000000000E+00  0.21662887031E+03  0.21662887037E+03  0.50400001928E-02 0. -1.
       -1   -1    0    0    0  501  0.00000000000E+00  0.00000000000E+00 -0.28846201342E+03  0.28846201346E+03  0.50400001928E-02 0.  1.
    10030    2    1    2    0    0  0.00000000000E+00  0.00000000000E+00 -0.71833143104E+02  0.50509088383E+03  0.49995679861E+03 0.  0.
        3    1    3    3  502    0  0.11961778843E+03 -0.19445366317E+03  0.66955151070E+02  0.23791520524E+03  0.10100000352E+00 0. -1.
       -3    1    3    3    0  502 -0.11961778843E+03  0.19445366317E+03 -0.13878829417E+03  0.26717567859E+03  0.10100000352E+00 0.  1.
</event>
<event>
 5   0  0.4534223E-02  0.4969275E+03  0.7818609E-02  0.1014584E+00
       -2   -1    0    0    0  501  0.00000000000E+00  0.00000000000E+00  0.11937792114E+03  0.11937792117E+03  0.25500000920E-02 0.  1.
        2   -1    0    0  501    0  0.00000000000E+00  0.00000000000E+00 -0.51713283058E+03  0.51713283059E+03  0.25500000920E-02 0. -1.
    10030    2    1    2    0    0  0.00000000000E+00  0.00000000000E+00 -0.39775490944E+03  0.63651075176E+03  0.49692752904E+03 0.  0.
        2    1    3    3  502    0 -0.14071847611E+01  0.12593936392E+03 -0.47321442720E+03  0.48968826581E+03  0.25500000920E-02 0. -1.
       -2    1    3    3    0  502  0.14071847611E+01 -0.12593936392E+03  0.75459517755E+02  0.14682248595E+03  0.25500000920E-02 0.  1.
</event>
<event>
 5   0  0.4409622E-02  0.5012162E+03  0.7818609E-02  0.1013462E+00
       -2   -1    0    0    0  501  0.00000000000E+00  0.00000000000E+00  0.12015535336E+03  0.12015535339E+03  0.25500000920E-02 0. -1.
        2   -1    0    0  501    0  0.00000000000E+00  0.00000000000E+00 -0.52269358106E+03  0.52269358107E+03  0.25500000920E-02 0.  1.
    10030    2    1    2    0    0  0.00000000000E+00  0.00000000000E+00 -0.40253822770E+03  0.64284893445E+03  0.50121624851E+03 0.  0.
        3    1    3    3  502    0  0.18973323973E+03 -0.15939245711E+03 -0.24925474512E+03  0.35147204129E+03  0.10100000352E+00 0. -1.
       -3    1    3    3    0  502 -0.18973323973E+03  0.15939245711E+03 -0.15328348258E+03  0.29137689317E+03  0.10100000352E+00 0.  1.
</event>
<event>
 5   0  0.2779445E-02  0.5139909E+03  0.7818609E-02  0.1010190E+00
        1   -1    0    0  501    0  0.00000000000E+00  0.00000000000E+00  0.43351052291E+03  0.43351052294E+03  0.50400001928E-02 0.  1.
       -1   -1    0    0    0  501  0.00000000000E+00  0.00000000000E+00 -0.15235305907E+03  0.15235305916E+03  0.50400001928E-02 0. -1.
    10030    2    1    2    0    0  0.00000000000E+00  0.00000000000E+00  0.28115746384E+03  0.58586358210E+03  0.51399087284E+03 0.  0.
        3    1    3    3  502    0  0.17921743313E+03  0.15196796870E+02  0.34981429906E+03  0.39334448643E+03  0.10100000352E+00 0.  1.
       -3    1    3    3    0  502 -0.17921743313E+03 -0.15196796870E+02 -0.68656835223E+02  0.19251909567E+03  0.10100000352E+00 0. -1.
</event>
<event>
 5   0  0.2719671E-02  0.5065082E+03  0.7818609E-02  0.1012094E+00
       -1   -1    0    0    0  501  0.00000000000E+00  0.00000000000E+00  0.69399451226E+02  0.69399451409E+02  0.50400001928E-02 0.  1.
        1   -1    0    0  501    0  0.00000000000E+00  0.00000000000E+00 -0.92418096067E+03  0.92418096068E+03  0.50400001928E-02 0. -1.
    10030    2    1    2    0    0  0.00000000000E+00  0.00000000000E+00 -0.85478150944E+03  0.99358041209E+03  0.50650824910E+03 0.  0.
        2    1    3    3  502    0 -0.11346118771E+03  0.19721984440E+03 -0.20923042674E+03  0.30910593592E+03  0.25500000920E-02 0.  1.
       -2    1    3    3    0  502  0.11346118771E+03 -0.19721984440E+03 -0.64555108270E+03  0.68447447617E+03  0.25500000920E-02 0. -1.
</event>
<event>
 5   0  0.4534223E-02  0.4956976E+03  0.7818609E-02  0.1014908E+00
       -2   -1    0    0    0  501  0.00000000000E+00  0.00000000000E+00  0.29014428602E+03  0.29014428603E+03  0.25500000920E-02 0. -1.
        2   -1    0    0  501    0  0.00000000000E+00  0.00000000000E+00 -0.21171888034E+03  0.21171888035E+03  0.25500000920E-02 0.  1.
    10030    2    1    2    0    0  0.00000000000E+00  0.00000000000E+00  0.78425405684E+02  0.50186316639E+03  0.49569758273E+03 0.  0.
        2    1    3    3  502    0 -0.87076021004E+02 -0.22815688926E+03 -0.36365693592E+01  0.24423559158E+03  0.25500000920E-02 0.  1.
       -2    1    3    3    0  502  0.87076021004E+02  0.22815688926E+03  0.82061975044E+02  0.25762757481E+03  0.25500000920E-02 0. -1.
</event>
<event>
 5   0  0.2719671E-02  0.4999504E+03  0.7818609E-02  0.1013792E+00
       -1   -1    0    0    0  501  0.00000000000E+00  0.00000000000E+00  0.10357993476E+04  0.10357993477E+04  0.50400001928E-02 0. -1.
        1   -1    0    0  501    0  0.00000000000E+00  0.00000000000E+00 -0.60327911838E+02  0.60327912049E+02  0.50400001928E-02 0.  1.
    10030    2    1    2    0    0  0.00000000000E+00  0.00000000000E+00  0.97547143581E+03  0.10961272597E+04  0.49995044494E+03 0.  0.
        2    1    3    3  502    0  0.28706390390E+02 -0.14240534556E+03  0.93375299493E+03  0.94498571145E+03  0.25500000920E-02 0. -1.
       -2    1    3    3    0  502 -0.28706390390E+02  0.14240534556E+03  0.41718440874E+02  0.15114154825E+03  0.25500000920E-02 0.  1.
</event>
<event>
 5   0  0.1805500E-02  0.4998924E+03  0.7818609E-02  0.1013807E+00
        3   -1    0    0  501    0  0.00000000000E+00  0.00000000000E+00  0.80112133863E+02  0.80112197530E+02  0.10100000352E+00 0. -1.
       -3   -1    0    0    0  501  0.00000000000E+00  0.00000000000E+00 -0.77982033367E+03  0.77982034022E+03  0.10100000352E+00 0.  1.
    10030    2    1    2    0    0  0.00000000000E+00  0.00000000000E+00 -0.69970819981E+03  0.85993253775E+03  0.49989239301E+03 0.  0.
        2    1    3    3  502    0  0.88173346469E+02  0.21621104663E+03 -0.50324802635E+03  0.55477953436E+03  0.25500000920E-02 0.  1.
       -2    1    3    3    0  502 -0.88173346469E+02 -0.21621104663E+03 -0.19646017346E+03  0.30515300339E+03  0.25500000920E-02 0. -1.
</event>
<event>
 5   0  0.4451135E-02  0.4989145E+03  0.7818609E-02  0.1014063E+00
       -2   -1    0    0    0  501  0.00000000000E+00  0.00000000000E+00  0.18147388151E+03  0.18147388152E+03  0.25500000920E-02 0.  1.
        2   -1    0    0  501    0  0.00000000000E+00  0.00000000000E+00 -0.34290835317E+03  0.34290835318E+03  0.25500000920E-02 0. -1.
    10030    2    1    2    0    0  0.00000000000E+00  0.00000000000E+00 -0.16143447167E+03  0.52438223471E+03  0.49891446104E+03 0.  0.
        1    1    3    3  502    0 -0.89826099343E+02  0.14967970530E+03 -0.26801643483E+03  0.31985239043E+03  0.50400001928E-02 0. -1.
       -1    1    3    3    0  502  0.89826099343E+02 -0.14967970530E+03  0.10658196316E+03  0.20452984427E+03  0.50400001928E-02 0.  1.
</event>
<event>
 5   0  0.2719671E-02  0.4997863E+03  0.7818609E-02  0.1013835E+00
       -1   -1    0    0    0  501  0.00000000000E+00  0.00000000000E+00  0.27208713275E+03  0.27208713279E+03  0.50400001928E-02 0.  1.
        1   -1    0    0  501    0  0.00000000000E+00  0.00000000000E+00 -0.22950947549E+03  0.22950947555E+03  0.50400001928E-02 0. -1.
    10030    2    1    2    0    0  0.00000000000E+00  0.00000000000E+00  0.42577657253E+02  0.50159660834E+03  0.49978625492E+03 0.  0.
        2    1    3    3  502    0 -0.67733567628E+02  0.18169373735E+03  0.17948632792E+03  0.26422678194E+03  0.25500000920E-02 0.  1.
       -2    1    3    3    0  502  0.67733567628E+02 -0.18169373735E+03 -0.13690867067E+03  0.23736982640E+03  0.25500000920E-02 0. -1.
</event>
<event>
 5   0  0.2643185E-02  0.5036304E+03  0.7818609E-02  0.1012836E+00
       -1   -1    0    0    0  501  0.00000000000E+00  0.00000000000E+00  0.13490284109E+03  0.13490284119E+03  0.50400001928E-02 0.  1.
        1   -1    0    0  501    0  0.00000000000E+00  0.00000000000E+00 -0.47004861333E+03  0.47004861336E+03  0.50400001928E-02 0. -1.
    10030    2    1    2    0    0  0.00000000000E+00  0.00000000000E+00 -0.33514577224E+03  0.60495145455E+03  0.50363039395E+03 0.  0.
        1    1    3    3  502    0  0.87216032130E+02 -0.62416513270E+02  0.10609734910E+03  0.15086121072E+03  0.50400001928E-02 0.  1.
       -1    1    3    3    0  502 -0.87216032130E+02  0.62416513270E+02 -0.44124312134E+03  0.45409024383E+03  0.50400001928E-02 0. -1.
</event>
<event>
 5   0  0.2719671E-02  0.5000574E+03  0.7818609E-02  0.1013764E+00
       -1   -1    0    0    0  501  0.00000000000E+00  0.00000000000E+00  0.88886447900E+02  0.88886448043E+02  0.50400001928E-02 0.  1.
        1   -1    0    0  501    0  0.00000000000E+00  0.00000000000E+00 -0.70330571252E+03  0.70330571253E+03  0.50400001928E-02 0. -1.
    10030    2    1    2    0    0  0.00000000000E+00  0.00000000000E+00 -0.61441926462E+03  0.79219216058E+03  0.50005738326E+03 0.  0.
        2    1    3    3  502    0  0.80463748945E+02  0.14185029193E+03 -0.69690819888E+01  0.16323139503E+03  0.25500000920E-02 0.  1.
       -2    1    3    3    0  502 -0.80463748945E+02 -0.14185029193E+03 -0.60745018263E+03  0.62896076554E+03  0.25500000920E-02 0. -1.
</event>
<event>
 5   0  0.4451135E-02  0.5003424E+03  0.7818609E-02  0.1013690E+00
       -2   -1    0    0    0  501  0.00000000000E+00  0.00000000000E+00  0.23091799439E+03  0.23091799441E+03  0.25500000920E-02 0.  1.
        2   -1    0    0  501    0  0.00000000000E+00  0.00000000000E+00 -0.27102967090E+03  0.27102967092E+03  0.25500000920E-02 0. -1.
    10030    2    1    2    0    0  0.00000000000E+00  0.00000000000E+00 -0.40111676512E+02  0.50194766532E+03  0.50034239490E+03 0.  0.
        1    1    3    3  502    0  0.16771433868E+03 -0.16123811446E+03 -0.11232809856E+03  0.25834749990E+03  0.50400001928E-02 0. -1.
       -1    1    3    3    0  502 -0.16771433868E+03  0.16123811446E+03  0.72216422045E+02  0.24360016542E+03  0.50400001928E-02 0.  1.
</event>
<event>
 5   0  0.4631619E-02  0.5006181E+03  0.7818609E-02  0.1013618E+00
       -2   -1    0    0    0  501  0.00000000000E+00  0.00000000000E+00  0.29522808825E+03  0.29522808826E+03  0.25500000920E-02 0.  1.
        2   -1    0    0  501    0  0.00000000000E+00  0.00000000000E+00 -0.21222442806E+03  0.21222442807E+03  0.25500000920E-02 0. -1.
    10030    2    1    2    0    0  0.00000000000E+00  0.00000000000E+00  0.83003660191E+02  0.50745251634E+03  0.50061806672E+03 0.  0.
        5    1    3    3  502    0 -0.86156056158E+01 -0.21472382766E+03  0.17151814845E+03  0.27499293822E+03  0.46999998093E+01 0.  1.
       -5    1    3    3    0  502  0.86156056158E+01  0.21472382766E+03 -0.88514488261E+02  0.23245957811E+03  0.46999998093E+01 0. -1.
</event>
<event>
 5   0  0.2779445E-02  0.5026654E+03  0.7818609E-02  0.1013086E+00
        1   -1    0    0  501    0  0.00000000000E+00  0.00000000000E+00  0.92795168069E+03  0.92795168071E+03  0.50400001928E-02 0.  1.
       -1   -1    0    0    0  501  0.00000000000E+00  0.00000000000E+00 -0.68072637788E+02  0.68072637974E+02  0.50400001928E-02 0. -1.
    10030    2    1    2    0    0  0.00000000000E+00  0.00000000000E+00  0.85987904290E+03  0.99602431868E+03  0.50266537078E+03 0.  0.
        3    1    3    3  502    0  0.24397615152E+03 -0.59986591391E+02  0.44328404315E+03  0.50953263563E+03  0.10100000352E+00 0.  1.
       -3    1    3    3    0  502 -0.24397615152E+03  0.59986591391E+02  0.41659499976E+03  0.48649168305E+03  0.10100000352E+00 0. -1.
</event>
<event>
 5   0  0.4519539E-02  0.4901106E+03  0.7818609E-02  0.1016393E+00
        2   -1    0    0  501    0  0.00000000000E+00  0.00000000000E+00  0.10666251328E+04  0.10666251328E+04  0.25500000920E-02 0.  1.
       -2   -1    0    0    0  501  0.00000000000E+00  0.00000000000E+00 -0.56301036739E+02  0.56301036797E+02  0.25500000920E-02 0. -1.
    10030    2    1    2    0    0  0.00000000000E+00  0.00000000000E+00  0.10103240961E+04  0.11229261696E+04  0.49011060312E+03 0.  0.
        4    1    3    3  502    0  0.76772532962E+02  0.35539157877E+02 -0.21774094957E+02  0.87365769448E+02  0.12699999809E+01 0. -1.
       -4    1    3    3    0  502 -0.76772532962E+02 -0.35539157877E+02  0.10320981910E+04  0.10355604002E+04  0.12699999809E+01 0.  1.
</event>
<event>
 5   0  0.2723308E-02  0.5033109E+03  0.7818609E-02  0.1012918E+00
       -1   -1    0    0    0  501  0.00000000000E+00  0.00000000000E+00  0.20579847708E+03  0.20579847714E+03  0.50400001928E-02 0.  1.
        1   -1    0    0  501    0  0.00000000000E+00  0.00000000000E+00 -0.30773047477E+03  0.30773047481E+03  0.50400001928E-02 0. -1.
    10030    2    1    2    0    0  0.00000000000E+00  0.00000000000E+00 -0.10193199769E+03  0.51352895196E+03  0.50331089035E+03 0.  0.
        4    1    3    3  502    0  0.24253309118E+03 -0.56075837102E+02 -0.88621218838E+02  0.26423878056E+03  0.12699999809E+01 0. -1.
       -4    1    3    3    0  502 -0.24253309118E+03  0.56075837102E+02 -0.13310778854E+02  0.24929017140E+03  0.12699999809E+01 0.  1.
</event>
<event>
 5   0  0.2715483E-02  0.4997149E+03  0.7818609E-02  0.1013853E+00
       -1   -1    0    0    0  501  0.00000000000E+00  0.00000000000E+00  0.18002893959E+03  0.18002893966E+03  0.50400001928E-02 0. -1.
        1   -1    0    0  501    0  0.00000000000E+00  0.00000000000E+00 -0.34677056756E+03  0.34677056759E+03  0.50400001928E-02 0.  1.
    10030    2    1    2    0    0  0.00000000000E+00  0.00000000000E+00 -0.16674162797E+03  0.52679950725E+03  0.49971486905E+03 0.  0.
        5    1    3    3  502    0  0.12244645465E+02 -0.15577314591E+03  0.12210749555E+03  0.19836213045E+03  0.46999998093E+01 0. -1.
       -5    1    3    3    0  502 -0.12244645465E+02  0.15577314591E+03 -0.28884912351E+03  0.32843737680E+03  0.46999998093E+01 0.  1.
</event>
<event>
 5   0  0.2719671E-02  0.5029859E+03  0.7818609E-02  0.1013002E+00
       -1   -1    0    0    0  501  0.00000000000E+00  0.00000000000E+00  0.76144089641E+02  0.76144089808E+02  0.50400001928E-02 0. -1.
        1   -1    0    0  501    0  0.00000000000E+00  0.00000000000E+00 -0.83064502397E+03  0.83064502398E+03  0.50400001928E-02 0.  1.
    10030    2    1    2    0    0  0.00000000000E+00  0.00000000000E+00 -0.75450093433E+03  0.90678911379E+03  0.50298592126E+03 0.  0.
        2    1    3    3  502    0  0.12578470229E+03 -0.16354786161E+03 -0.11800248111E+03  0.23768525390E+03  0.25500000920E-02 0. -1.
       -2    1    3    3    0  502 -0.12578470229E+03  0.16354786161E+03 -0.63649845321E+03  0.66910385989E+03  0.25500000920E-02 0.  1.
</event>
<event>
 5   0  0.2719671E-02  0.4973766E+03  0.7818609E-02  0.1014466E+00
        1   -1    0    0  501    0  0.00000000000E+00  0.00000000000E+00  0.55357356604E+02  0.55357356833E+02  0.50400001928E-02 0. -1.
       -1   -1    0    0    0  501  0.00000000000E+00  0.00000000000E+00 -0.11172113477E+04  0.11172113477E+04  0.50400001928E-02 0.  1.
    10030    2    1    2    0    0  0.00000000000E+00  0.00000000000E+00 -0.10618539911E+04  0.11725687045E+04  0.49737658617E+03 0.  0.
        2    1    3    3  502    0  0.90426566024E+02 -0.21777735351E+03 -0.71718387563E+03  0.75495473441E+03  0.25500000920E-02 0.  1.
       -2    1    3    3    0  502 -0.90426566024E+02  0.21777735351E+03 -0.34467011547E+03  0.41761397013E+03  0.25500000920E-02 0. -1.
</event>
<event>
 5   0  0.2715483E-02  0.5001924E+03  0.7818609E-02  0.1013729E+00
        1   -1    0    0  501    0  0.00000000000E+00  0.00000000000E+00  0.10801237295E+03  0.10801237306E+03  0.50400001928E-02 0. -1.
       -1   -1    0    0    0  501  0.00000000000E+00  0.00000000000E+00 -0.57908273055E+03  0.57908273058E+03  0.50400001928E-02 0.  1.
    10030    2    1    2    0    0  0.00000000000E+00  0.00000000000E+00 -0.47107035761E+03  0.68709510364E+03  0.50019236263E+03 0.  0.
        5    1    3    3  502    0  0.15698144194E+03 -0.14223336827E+03 -0.41804362942E+03  0.46867480224E+03  0.46999998093E+01 0.  1.
       -5    1    3    3    0  502 -0.15698144194E+03  0.14223336827E+03 -0.53026728186E+02  0.21842030140E+03  0.46999998093E+01 0. -1.
</event>
<event>
 5   0  0.2715483E-02  0.4997044E+03  0.7818609E-02  0.1013856E+00
        1   -1    0    0  501    0  0.00000000000E+00  0.00000000000E+00  0.18258185517E+04  0.18258185517E+04  0.50400001928E-02 0.  1.
       -1   -1    0    0    0  501  0.00000000000E+00  0.00000000000E+00 -0.34190764250E+02  0.34190764622E+02  0.50400001928E-02 0. -1.
    10030    2    1    2    0    0  0.00000000000E+00  0.00000000000E+00  0.17916277875E+04  0.18600093163E+04  0.49970444072E+03 0.  0.
        5    1    3    3  502    0  0.22445444678E+03 -0.10936118102E+03  0.86594893143E+03  0.90123765369E+03  0.46999998093E+01 0.  1.
       -5    1    3    3    0  502 -0.22445444678E+03  0.10936118102E+03  0.92567885604E+03  0.95877166265E+03  0.46999998093E+01 0. -1.
</event>
<event>
 5   0  0.2719671E-02  0.4990113E+03  0.7818609E-02  0.1014037E+00
       -1   -1    0    0    0  501  0.00000000000E+00  0.00000000000E+00  0.96636989211E+02  0.96636989342E+02  0.50400001928E-02 0. -1.
        1   -1    0    0  501    0  0.00000000000E+00  0.00000000000E+00 -0.64419495065E+03  0.64419495067E+03  0.50400001928E-02 0.  1.
    10030    2    1    2    0    0  0.00000000000E+00  0.00000000000E+00 -0.54755796144E+03  0.74083194002E+03  0.49901126461E+03 0.  0.
        2    1    3    3  502    0 -0.21653596144E+03  0.12353675422E+03 -0.28891230989E+03  0.38160119897E+03  0.25500000920E-02 0.  1.
       -2    1    3    3    0  502  0.21653596144E+03 -0.12353675422E+03 -0.25864565155E+03  0.35923074105E+03  0.25500000920E-02 0. -1.
</event>
<event>
 5   0  0.1805500E-02  0.4996186E+03  0.7818609E-02  0.1013879E+00
       -4   -1    0    0    0  501  0.00000000000E+00  0.00000000000E+00  0.13734642968E+03  0.13735230120E+03  0.12699999809E+01 0.  1.
        4   -1    0    0  501    0  0.00000000000E+00  0.00000000000E+00 -0.45434318966E+03  0.45434496463E+03  0.12699999809E+01 0. -1.
    10030    2    1    2    0    0  0.00000000000E+00  0.00000000000E+00 -0.31699675998E+03  0.59169726583E+03  0.49961856306E+03 0.  0.
        5    1    3    3  502    0  0.24858484257E+03  0.23582554420E+02 -0.16520053489E+03  0.29943925520E+03  0.46999998093E+01 0. -1.
       -5    1    3    3    0  502 -0.24858484257E+03 -0.23582554420E+02 -0.15179622509E+03  0.29225801063E+03  0.46999998093E+01 0.  1.
</event>
<event>
 5   0  0.1805500E-02  0.5006453E+03  0.7818609E-02  0.1013611E+00
       -3   -1    0    0    0  501  0.00000000000E+00  0.00000000000E+00  0.15710764869E+04  0.15710764901E+04  0.10100000352E+00 0. -1.
        3   -1    0    0  501    0  0.00000000000E+00  0.00000000000E+00 -0.39884325361E+02  0.39884453244E+02  0.10100000352E+00 0.  1.
    10030    2    1    2    0    0  0.00000000000E+00  0.00000000000E+00  0.15311921615E+04  0.16109609434E+04  0.50064530914E+03 0.  0.
        1    1    3    3  502    0 -0.89736185588E+02  0.25047008352E+02  0.15132098940E+04  0.15160752353E+04  0.50400001928E-02 0. -1.
       -1    1    3    3    0  502  0.89736185588E+02 -0.25047008352E+02  0.17982267502E+02  0.94885708097E+02  0.50400001928E-02 0.  1.
</event>
<event>
 5   0  0.1805500E-02  0.4983100E+03  0.7818609E-02  0.1014221E+00
       -4   -1    0    0    0  501  0.00000000000E+00  0.00000000000E+00  0.16733906633E+03  0.16734388552E+03  0.12699999809E+01 0. -1.
        4   -1    0    0  501    0  0.00000000000E+00  0.00000000000E+00 -0.37096135002E+03  0.37096352396E+03  0.12699999809E+01 0.  1.
    10030    2    1    2    0    0  0.00000000000E+00  0.00000000000E+00 -0.20362228369E+03  0.53830740948E+03  0.49830997650E+03 0.  0.
        4    1    3    3  502    0  0.12706018504E+03  0.61799745370E+02 -0.32349770032E+03  0.35300973664E+03  0.12699999809E+01 0.  1.
       -4    1    3    3    0  502 -0.12706018504E+03 -0.61799745370E+02  0.11987541662E+03  0.18529767284E+03  0.12699999809E+01 0. -1.
</event>
<event>
 5   0  0.4451135E-02  0.5037101E+03  0.7818609E-02  0.1012815E+00
       -2   -1    0    0    0  501  0.00000000000E+00  0.00000000000E+00  0.11617087384E+03  0.11617087387E+03  0.25500000920E-02 0. -1.
        2   -1    0    0  501    0  0.00000000000E+00  0.00000000000E+00 -0.54601426029E+03  0.54601426030E+03  0.25500000920E-02 0.  1.
    10030    2    1    2    0    0  0.00000000000E+00  0.00000000000E+00 -0.42984338645E+03  0.66218513417E+03  0.50371005057E+03 0.  0.
        1    1    3    3  502    0  0.38086703145E+02 -0.17782572703E+03  0.14132379334E+02  0.18240699088E+03  0.50400001928E-02 0. -1.
       -1    1    3    3    0  502 -0.38086703145E+02  0.17782572703E+03 -0.44397576578E+03  0.47977814329E+03  0.50400001928E-02 0.  1.
</event>
<event>
 5   0  0.2715483E-02  0.5008071E+03  0.7818609E-02  0.1013568E+00
       -1   -1    0    0    0  501  0.00000000000E+00  0.00000000000E+00  0.34103091221E+03  0.34103091225E+03  0.50400001928E-02 0.  1.
        1   -1    0    0  501    0  0.00000000000E+00  0.00000000000E+00 -0.18385995720E+03  0.18385995726E+03  0.50400001928E-02 0. -1.
    10030    2    1    2    0    0  0.00000000000E+00  0.00000000000E+00  0.15717095502E+03  0.52489086952E+03  0.50080706445E+03 0.  0.
        5    1    3    3  502    0  0.11166561880E+03  0.10288465661E+03  0.28721956645E+03  0.32491788553E+03  0.46999998093E+01 0.  1.
       -5    1    3    3    0  502 -0.11166561880E+03 -0.10288465661E+03 -0.13004861143E+03  0.19997298398E+03  0.46999998093E+01 0. -1.
</event>
<event>
 5   0  0.2719671E-02  0.4995663E+03  0.7818609E-02  0.1013892E+00
        1   -1    0    0  501    0  0.00000000000E+00  0.00000000000E+00  0.14299264786E+03  0.14299264795E+03  0.50400001928E-02 0. -1.
       -1   -1    0    0    0  501  0.00000000000E+00  0.00000000000E+00 -0.43632742219E+03  0.43632742222E+03  0.50400001928E-02 0.  1.
    10030    2    1    2    0    0  0.00000000000E+00  0.00000000000E+00 -0.29333477433E+03  0.57932007016E+03  0.49956626574E+03 0.  0.
        2    1    3    3  502    0 -0.23786355900E+03 -0.11893794162E+02 -0.59338425406E+02  0.24544160971E+03  0.25500000920E-02 0. -1.
       -2    1    3    3    0  502  0.23786355900E+03  0.11893794162E+02 -0.23399634892E+03  0.33387846046E+03  0.25500000920E-02 0.  1.
</event>
<event>
 5   0  0.2643185E-02  0.5004909E+03  0.7818609E-02  0.1013651E+00
       -1   -1    0    0    0  501  0.00000000000E+00  0.00000000000E+00  0.17110473566E+03  0.17110473573E+03  0.50400001928E-02 0. -1.
        1   -1    0    0  501    0  0.00000000000E+00  0.00000000000E+00 -0.36599089873E+03  0.36599089876E+03  0.50400001928E-02 0.  1.
    10030    2    1    2    0    0  0.00000000000E+00  0.00000000000E+00 -0.19488616307E+03  0.53709563450E+03  0.50049086309E+03 0.  0.
        1    1    3    3  502    0  0.60673537146E+02  0.14549986007E+03  0.11111948842E+03  0.19287049573E+03  0.50400001928E-02 0. -1.
       -1    1    3    3    0  502 -0.60673537146E+02 -0.14549986007E+03 -0.30600565149E+03  0.34422513877E+03  0.50400001928E-02 0.  1.
</event>
<event>
 5   0  0.4631619E-02  0.5005276E+03  0.7818609E-02  0.1013641E+00
        2   -1    0    0  501    0  0.00000000000E+00  0.00000000000E+00  0.31664251833E+03  0.31664251834E+03  0.25500000920E-02 0. -1.
       -2   -1    0    0    0  501  0.00000000000E+00  0.00000000000E+00 -0.19780026640E+03  0.19780026642E+03  0.25500000920E-02 0.  1.
    10030    2    1    2    0    0  0.00000000000E+00  0.00000000000E+00  0.11884225193E+03  0.51444278476E+03  0.50052761956E+03 0.  0.
        5    1    3    3  502    0 -0.16392575580E+03  0.13026431070E+03  0.20023151420E+03  0.28975022577E+03  0.46999998093E+01 0. -1.
       -5    1    3    3    0  502  0.16392575580E+03 -0.13026431070E+03 -0.81389262266E+02  0.22469255899E+03  0.46999998093E+01 0.  1.
</event>
<event>
 5   0  0.4631619E-02  0.4984381E+03  0.7818609E-02  0.1014187E+00
        2   -1    0    0  501    0  0.00000000000E+00  0.00000000000E+00  0.15761318444E+04  0.15761318444E+04  0.25500000920E-02 0. -1.
       -2   -1    0    0    0  501  0.00000000000E+00  0.00000000000E+00 -0.39406693128E+02  0.39406693211E+02  0.25500000920E-02 0.  1.
    10030    2    1    2    0    0  0.00000000000E+00  0.00000000000E+00  0.15367251513E+04  0.16155385377E+04  0.49843813655E+03 0.  0.
        5    1    3    3  502    0  0.37195843617E+02 -0.30678044457E+02 -0.23999420301E+02  0.54062328539E+02  0.46999998093E+01 0.  1.
       -5    1    3    3    0  502 -0.37195843617E+02  0.30678044457E+02  0.15607245716E+04  0.15614762091E+04  0.46999998093E+01 0. -1.
</event>
<event>
 5   0  0.4519539E-02  0.4984900E+03  0.7818609E-02  0.1014174E+00
       -2   -1    0    0    0  501  0.00000000000E+00  0.00000000000E+00  0.42868301705E+02  0.42868301781E+02  0.25500000920E-02 0. -1.
        2   -1    0    0  501    0  0.00000000000E+00  0.00000000000E+00 -0.14491611537E+04  0.14491611537E+04  0.25500000920E-02 0.  1.
    10030    2    1    2    0    0  0.00000000000E+00  0.00000000000E+00 -0.14062928519E+04  0.14920294554E+04  0.49849003044E+03 0.  0.
        4    1    3    3  502    0 -0.17597448803E+03 -0.28662546463E+02 -0.18185821187E+03  0.25468133840E+03  0.12699999809E+01 0. -1.
       -4    1    3    3    0  502  0.17597448803E+03  0.28662546463E+02 -0.12244346401E+04  0.12373481170E+04  0.12699999809E+01 0.  1.
</event>
<event>
 5   0  0.2715483E-02  0.5005756E+03  0.7818609E-02  0.1013629E+00
       -1   -1    0    0    0  501  0.00000000000E+00  0.00000000000E+00  0.17822427911E+03  0.17822427918E+03  0.50400001928E-02 0.  1.
        1   -1    0    0  501    0  0.00000000000E+00  0.00000000000E+00 -0.35148963783E+03  0.35148963787E+03  0.50400001928E-02 0. -1.
    10030    2    1    2    0    0  0.00000000000E+00  0.00000000000E+00 -0.17326535872E+03  0.52971391705E+03  0.50057561805E+03 0.  0.
        5    1    3    3  502    0  0.14490073943E+03 -0.80366508862E+02  0.11181166113E+03  0.19994733706E+03  0.46999998093E+01 0.  1.
       -5    1    3    3    0  502 -0.14490073943E+03  0.80366508862E+02 -0.28507701986E+03  0.32976657999E+03  0.46999998093E+01 0. -1.
</event>
<event>
 5   0  0.4534223E-02  0.5225958E+03  0.7818609E-02  0.1008044E+00
        2   -1    0    0  501    0  0.00000000000E+00  0.00000000000E+00  0.10318045651E+03  0.10318045654E+03  0.25500000920E-02 0.  1.
       -2   -1    0    0    0  501  0.00000000000E+00  0.00000000000E+00 -0.66172012516E+03  0.66172012517E+03  0.25500000920E-02 0. -1.
    10030    2    1    2    0    0  0.00000000000E+00  0.00000000000E+00 -0.55853966865E+03  0.76490058171E+03  0.52259576963E+03 0.  0.
        2    1    3    3  502    0  0.19004853394E+03 -0.52030577892E+02 -0.28087659224E+02  0.19903402447E+03  0.25500000920E-02 0.  1.
       -2    1    3    3    0  502 -0.19004853394E+03  0.52030577892E+02 -0.53045200943E+03  0.56586655724E+03  0.25500000920E-02 0. -1.
</event>
<event>
 5   0  0.2719671E-02  0.5007603E+03  0.7818609E-02  0.1013581E+00
       -1   -1    0    0    0  501  0.00000000000E+00  0.00000000000E+00  0.39031818794E+02  0.39031819119E+02  0.50400001928E-02 0. -1.
        1   -1    0    0  501    0  0.00000000000E+00  0.00000000000E+00 -0.16061314324E+04  0.16061314324E+04  0.50400001928E-02 0.  1.
    10030    2    1    2    0    0  0.00000000000E+00  0.00000000000E+00 -0.15670996136E+04  0.16451632515E+04  0.50076034708E+03 0.  0.
        2    1    3    3  502    0 -0.80491962534E+02  0.20709461474E+03 -0.40433818073E+03  0.46136373924E+03  0.25500000920E-02 0. -1.
       -2    1    3    3    0  502  0.80491962534E+02 -0.20709461474E+03 -0.11627614328E+04  0.11837995122E+04  0.25500000920E-02 0.  1.
</event>
<event>
 5   0  0.4534223E-02  0.5011531E+03  0.7818609E-02  0.1013478E+00
       -2   -1    0    0    0  501  0.00000000000E+00  0.00000000000E+00  0.36374315304E+03  0.36374315305E+03  0.25500000920E-02 0.  1.
        2   -1    0    0  501    0  0.00000000000E+00  0.00000000000E+00 -0.17261800724E+03  0.17261800726E+03  0.25500000920E-02 0. -1.
    10030    2    1    2    0    0  0.00000000000E+00  0.00000000000E+00  0.19112514581E+03  0.53636116031E+03  0.50115314319E+03 0.  0.
        2    1    3    3  502    0  0.27539010341E+02 -0.27072365718E+02 -0.16941405233E+03  0.17375969386E+03  0.25500000920E-02 0. -1.
       -2    1    3    3    0  502 -0.27539010341E+02  0.27072365718E+02  0.36053919813E+03  0.36260146645E+03  0.25500000920E-02 0.  1.
</event>
<event>
 5   0  0.2715483E-02  0.5015434E+03  0.7818609E-02  0.1013377E+00
        1   -1    0    0  501    0  0.00000000000E+00  0.00000000000E+00  0.10346254494E+04  0.10346254494E+04  0.50400001928E-02 0. -1.
       -1   -1    0    0    0  501  0.00000000000E+00  0.00000000000E+00 -0.60781836250E+02  0.60781836459E+02  0.50400001928E-02 0.  1.
    10030    2    1    2    0    0  0.00000000000E+00  0.00000000000E+00  0.97384361318E+03  0.10954072859E+04  0.50154335712E+03 0.  0.
        5    1    3    3  502    0 -0.11004324569E+03  0.22269973644E+03  0.56129762823E+03  0.61382555013E+03  0.46999998093E+01 0. -1.
       -5    1    3    3    0  502  0.11004324569E+03 -0.22269973644E+03  0.41254598495E+03  0.48158173577E+03  0.46999998093E+01 0.  1.
</event>
<event>
 5   0  0.4519539E-02  0.5027620E+03  0.7818609E-02  0.1013060E+00
        2   -1    0    0  501    0  0.00000000000E+00  0.00000000000E+00  0.15547601217E+04  0.15547601217E+04  0.25500000920E-02 0.  1.
       -2   -1    0    0    0  501  0.00000000000E+00  0.00000000000E+00 -0.40644475840E+02  0.40644475920E+02  0.25500000920E-02 0. -1.
    10030    2    1    2    0    0  0.00000000000E+00  0.00000000000E+00  0.15141156458E+04  0.15954045976E+04  0.50276201236E+03 0.  0.
        4    1    3    3  502    0 -0.77011279311E+02 -0.69639066423E+02  0.14835272998E+04  0.14871567499E+04  0.12699999809E+01 0.  1.
       -4    1    3    3    0  502  0.77011279311E+02  0.69639066423E+02  0.30588346049E+02  0.10824784768E+03  0.12699999809E+01 0. -1.
</event>
<event>
 5   0  0.2643185E-02  0.5001012E+03  0.7818609E-02  0.1013753E+00
        1   -1    0    0  501    0  0.00000000000E+00  0.00000000000E+00  0.69238423585E+03  0.69238423587E+03  0.50400001928E-02 0. -1.
       -1   -1    0    0    0  501  0.00000000000E+00  0.00000000000E+00 -0.90304328089E+02  0.90304328229E+02  0.50400001928E-02 0.  1.
    10030    2    1    2    0    0  0.00000000000E+00  0.00000000000E+00  0.60207990776E+03  0.78268856410E+03  0.50010116281E+03 0.  0.
        1    1    3    3  502    0  0.16592477658E+03 -0.17307999018E+03  0.18995837395E+03  0.30589524080E+03  0.50400001928E-02 0.  1.
       -1    1    3    3    0  502 -0.16592477658E+03  0.17307999018E+03  0.41212153381E+03  0.47679332330E+03  0.50400001928E-02 0. -1.
</event>
<event>
 5   0  0.2715483E-02  0.5026190E+03  0.7818609E-02  0.1013098E+00
       -1   -1    0    0    0  501  0.00000000000E+00  0.00000000000E+00  0.12534745324E+03  0.12534745334E+03  0.50400001928E-02 0. -1.
        1   -1    0    0  501    0  0.00000000000E+00  0.00000000000E+00 -0.50385114744E+03  0.50385114746E+03  0.50400001928E-02 0.  1.
    10030    2    1    2    0    0  0.00000000000E+00  0.00000000000E+00 -0.37850369420E+03  0.62919860080E+03  0.50261897370E+03 0.  0.
        5    1    3    3  502    0 -0.19907249469E+03 -0.12438497022E+03 -0.30144975479E+03  0.38209360584E+03  0.46999998093E+01 0.  1.
       -5    1    3    3    0  502  0.19907249469E+03  0.12438497022E+03 -0.77053939413E+02  0.24710499497E+03  0.46999998093E+01 0. -1.
</event>
<event>
 5   0  0.2723308E-02  0.4921044E+03  0.7818609E-02  0.1015861E+00
       -1   -1    0    0    0  501  0.00000000000E+00  0.00000000000E+00  0.12710875515E+03  0.12710875525E+03  0.50400001928E-02 0.  1.
        1   -1    0    0  501    0  0.00000000000E+00  0.00000000000E+00 -0.47629827014E+03  0.47629827016E+03  0.50400001928E-02 0. -1.
    10030    2    1    2    0    0  0.00000000000E+00  0.00000000000E+00 -0.34918951498E+03  0.60340702542E+03  0.49210438013E+03 0.  0.
        4    1    3    3  502    0 -0.19054332111E+03  0.53991540120E+02  0.44364081873E+01  0.19809880929E+03  0.12699999809E+01 0.  1.
       -4    1    3    3    0  502  0.19054332111E+03 -0.53991540120E+02 -0.35362592317E+03  0.40530821613E+03  0.12699999809E+01 0. -1.
</event>
<event>
 5   0  0.4534223E-02  0.5008104E+03  0.7818609E-02  0.1013568E+00
       -2   -1    0    0    0  501  0.00000000000E+00  0.00000000000E+00  0.15291970252E+03  0.15291970255E+03  0.25500000920E-02 0.  1.
        2   -1    0    0  501    0  0.00000000000E+00  0.00000000000E+00 -0.41003723728E+03  0.41003723729E+03  0.25500000920E-02 0. -1.
    10030    2    1    2    0    0  0.00000000000E+00  0.00000000000E+00 -0.25711753475E+03  0.56295693983E+03  0.50081043263E+03 0.  0.
        2    1    3    3  502    0  0.13611365254E+03  0.30549157233E+02  0.10519449657E+03  0.17471708425E+03  0.25500000920E-02 0.  1.
       -2    1    3    3    0  502 -0.13611365254E+03 -0.30549157233E+02 -0.36231203132E+03  0.38823985558E+03  0.25500000920E-02 0. -1.
</event>
<event>
 5   0  0.4409622E-02  0.4999714E+03  0.7818609E-02  0.1013786E+00
        2   -1    0    0  501    0  0.00000000000E+00  0.00000000000E+00  0.23575057724E+04  0.23575057724E+04  0.25500000920E-02 0. -1.
       -2   -1    0    0    0  501  0.00000000000E+00  0.00000000000E+00 -0.26508037686E+02  0.26508037808E+02  0.25500000920E-02 0.  1.
    10030    2    1    2    0    0  0.00000000000E+00  0.00000000000E+00  0.23309977347E+04  0.23840138102E+04  0.49997140721E+03 0.  0.
        3    1    3    3  502    0 -0.16106245195E+03 -0.12364633044E+03  0.47018791835E+03  0.51215839076E+03  0.10100000352E+00 0.  1.
       -3    1    3    3    0  502  0.16106245195E+03  0.12364633044E+03  0.18608098163E+04  0.18718554194E+04  0.10100000352E+00 0. -1.
</event>
<event>
 5   0  0.2779445E-02  0.5048330E+03  0.7818609E-02  0.1012525E+00
       -1   -1    0    0    0  501  0.00000000000E+00  0.00000000000E+00  0.31923315308E+03  0.31923315312E+03  0.50400001928E-02 0.  1.
        1   -1    0    0  501    0  0.00000000000E+00  0.00000000000E+00 -0.19958479461E+03  0.19958479467E+03  0.50400001928E-02 0. -1.
    10030    2    1    2    0    0  0.00000000000E+00  0.00000000000E+00  0.11964835847E+03  0.51881794779E+03  0.50483297561E+03 0.  0.
        3    1    3    3  502    0 -0.14072175294E+03  0.12130390274E+03  0.23542845501E+03  0.29990634571E+03  0.10100000352E+00 0.  1.
       -3    1    3    3    0  502  0.14072175294E+03 -0.12130390274E+03 -0.11578009654E+03  0.21891160208E+03  0.10100000352E+00 0. -1.
</event>
<event>
 5   0  0.4631619E-02  0.4994553E+03  0.7818609E-02  0.1013921E+00
       -2   -1    0    0    0  501  0.00000000000E+00  0.00000000000E+00  0.35194971608E+03  0.35194971609E+03  0.25500000920E-02 0. -1.
        2   -1    0    0  501    0  0.00000000000E+00  0.00000000000E+00 -0.17719548405E+03  0.17719548407E+03  0.25500000920E-02 0.  1.
    10030    2    1    2    0    0  0.00000000000E+00  0.00000000000E+00  0.17475423202E+03  0.52914520016E+03  0.49945530455E+03 0.  0.
        5    1    3    3  502    0 -0.20700335153E+03  0.48646962726E+02 -0.51264049173E+02  0.21878529946E+03  0.46999998093E+01 0.  1.
       -5    1    3    3    0  502  0.20700335153E+03 -0.48646962726E+02  0.22601828120E+03  0.31035990069E+03  0.46999998093E+01 0. -1.
</event>
<event>
 5   0  0.4631619E-02  0.5147449E+03  0.7818609E-02  0.1010000E+00
       -2   -1    0    0    0  501  0.00000000000E+00  0.00000000000E+00  0.18396019229E+03  0.18396019231E+03  0.25500000920E-02 0.  1.
        2   -1    0    0  501    0  0.00000000000E+00  0.00000000000E+00 -0.36008100905E+03  0.36008100906E+03  0.25500000920E-02 0. -1.
    10030    2    1    2    0    0  0.00000000000E+00  0.00000000000E+00 -0.17612081676E+03  0.54404120136E+03  0.51474487534E+03 0.  0.
        5    1    3    3  502    0  0.12997583566E+03  0.27343085147E+02  0.14488579616E+03  0.19660962868E+03  0.46999998093E+01 0.  1.
       -5    1    3    3    0  502 -0.12997583566E+03 -0.27343085147E+02 -0.32100661292E+03  0.34743157269E+03  0.46999998093E+01 0. -1.
</event>
<event>
 5   0  0.4631619E-02  0.4996667E+03  0.7818609E-02  0.1013866E+00
        2   -1    0    0  501    0  0.00000000000E+00  0.00000000000E+00  0.17075118952E+04  0.17075118952E+04  0.25500000920E-02 0.  1.
       -2   -1    0    0    0  501  0.00000000000E+00  0.00000000000E+00 -0.36554184611E+02  0.36554184700E+02  0.25500000920E-02 0. -1.
    10030    2    1    2    0    0  0.00000000000E+00  0.00000000000E+00  0.16709577106E+04  0.17440660799E+04  0.49966670940E+03 0.  0.
        5    1    3    3  502    0  0.85280185954E+02 -0.44382572345E+02  0.16401949782E+04  0.16430167922E+04  0.46999998093E+01 0.  1.
       -5    1    3    3    0  502 -0.85280185954E+02  0.44382572345E+02  0.30762732357E+02  0.10104928770E+03  0.46999998093E+01 0. -1.
</event>
<event>
 5   0  0.2723308E-02  0.5005212E+03  0.7818609E-02  0.1013643E+00
       -1   -1    0    0    0  501  0.00000000000E+00  0.00000000000E+00  0.77223516879E+02  0.77223517043E+02  0.50400001928E-02 0.  1.
        1   -1    0    0  501    0  0.00000000000E+00  0.00000000000E+00 -0.81102713217E+03  0.81102713218E+03  0.50400001928E-02 0. -1.
    10030    2    1    2    0    0  0.00000000000E+00  0.00000000000E+00 -0.73380361529E+03  0.88825064923E+03  0.50052119839E+03 0.  0.
        4    1    3    3  502    0 -0.22261185549E+03 -0.10627232593E+03 -0.44175148657E+03  0.50596030897E+03  0.12699999809E+01 0.  1.
       -4    1    3    3    0  502  0.22261185549E+03  0.10627232593E+03 -0.29205212871E+03  0.38229034025E+03  0.12699999809E+01 0. -1.
</event>
<event>
 5   0  0.4519539E-02  0.4999062E+03  0.7818609E-02  0.1013803E+00
        2   -1    0    0  501    0  0.00000000000E+00  0.00000000000E+00  0.12910392815E+04  0.12910392815E+04  0.25500000920E-02 0. -1.
       -2   -1    0    0    0  501  0.00000000000E+00  0.00000000000E+00 -0.48392452108E+02  0.48392452175E+02  0.25500000920E-02 0.  1.
    10030    2    1    2    0    0  0.00000000000E+00  0.00000000000E+00  0.12426468294E+04  0.13394317337E+04  0.49990621779E+03 0.  0.
        4    1    3    3  502    0  0.44241900639E+02 -0.19657698847E+03  0.10176077686E+04  0.10373654331E+04  0.12699999809E+01 0. -1.
       -4    1    3    3    0  502 -0.44241900639E+02  0.19657698847E+03  0.22503906080E+03  0.30206630059E+03  0.12699999809E+01 0.  1.
</event>
<event>
 5   0  0.2723308E-02  0.5001312E+03  0.7818609E-02  0.1013745E+00
       -1   -1    0    0    0  501  0.00000000000E+00  0.00000000000E+00  0.38024091838E+03  0.38024091842E+03  0.50400001928E-02 0.  1.
        1   -1    0    0  501    0  0.00000000000E+00  0.00000000000E+00 -0.16445571480E+03  0.16445571488E+03  0.50400001928E-02 0. -1.
    10030    2    1    2    0    0  0.00000000000E+00  0.00000000000E+00  0.21578520358E+03  0.54469663330E+03  0.50013115104E+03 0.  0.
        4    1    3    3  502    0  0.20608535068E+03  0.84350448150E+02  0.23180705604E+03  0.32143785402E+03  0.12699999809E+01 0.  1.
       -4    1    3    3    0  502 -0.20608535068E+03 -0.84350448150E+02 -0.16021852457E+02  0.22325877928E+03  0.12699999809E+01 0. -1.
</event>
<event>
 5   0  0.1805500E-02  0.5004676E+03  0.7818609E-02  0.1013657E+00
       -3   -1    0    0    0  501  0.00000000000E+00  0.00000000000E+00  0.10460433246E+03  0.10460438122E+03  0.10100000352E+00 0. -1.
        3   -1    0    0  501    0  0.00000000000E+00  0.00000000000E+00 -0.59860747951E+03  0.59860748803E+03  0.10100000352E+00 0.  1.
    10030    2    1    2    0    0  0.00000000000E+00  0.00000000000E+00 -0.49400314705E+03  0.70321186924E+03  0.50046760509E+03 0.  0.
        4    1    3    3  502    0  0.10687109441E+03  0.20506574390E+03 -0.11265403590E+03  0.25722739909E+03  0.12699999809E+01 0. -1.
       -4    1    3    3    0  502 -0.10687109441E+03 -0.20506574390E+03 -0.38134911116E+03  0.44598447015E+03  0.12699999809E+01 0.  1.
</event>
<event>
 5   0  0.2643185E-02  0.5000650E+03  0.7818609E-02  0.1013762E+00
       -1   -1    0    0    0  501  0.00000000000E+00  0.00000000000E+00  0.31884717063E+02  0.31884717461E+02  0.50400001928E-02 0. -1.
        1   -1    0    0  501    0  0.00000000000E+00  0.00000000000E+00 -0.19606965569E+04  0.19606965569E+04  0.50400001928E-02 0.  1.
    10030    2    1    2    0    0  0.00000000000E+00  0.00000000000E+00 -0.19288118398E+04  0.19925812743E+04  0.50006501723E+03 0.  0.
        1    1    3    3  502    0  0.17979538002E+03  0.13392055795E+02 -0.16546876832E+04  0.16644810166E+04  0.50400001928E-02 0.  1.
       -1    1    3    3    0  502 -0.17979538002E+03 -0.13392055795E+02 -0.27412415661E+03  0.32810025769E+03  0.50400001928E-02 0. -1.
</event>
<event>
 5   0  0.2719671E-02  0.5000078E+03  0.7818609E-02  0.1013777E+00
        1   -1    0    0  501    0  0.00000000000E+00  0.00000000000E+00  0.86751133186E+03  0.86751133187E+03  0.50400001928E-02 0. -1.
       -1   -1    0    0    0  501  0.00000000000E+00  0.00000000000E+00 -0.72047425253E+02  0.72047425430E+02  0.50400001928E-02 0.  1.
    10030    2    1    2    0    0  0.00000000000E+00  0.00000000000E+00  0.79546390660E+03  0.93955875730E+03  0.50000783165E+03 0.  0.
        2    1    3    3  502    0 -0.84274115065E+02  0.15958066933E+03  0.72623422944E+02  0.19453091801E+03  0.25500000920E-02 0. -1.
       -2    1    3    3    0  502  0.84274115065E+02 -0.15958066933E+03  0.72284048366E+03  0.74502783929E+03  0.25500000920E-02 0.  1.
</event>
<event>
 5   0  0.4519539E-02  0.5053813E+03  0.7818609E-02  0.1012384E+00
       -2   -1    0    0    0  501  0.00000000000E+00  0.00000000000E+00  0.89817824258E+02  0.89817824294E+02  0.25500000920E-02 0. -1.
        2   -1    0    0  501    0  0.00000000000E+00  0.00000000000E+00 -0.71091205590E+03  0.71091205591E+03  0.25500000920E-02 0.  1.
    10030    2    1    2    0    0  0.00000000000E+00  0.00000000000E+00 -0.62109423164E+03  0.80072988020E+03  0.50538133767E+03 0.  0.
        4    1    3    3  502    0  0.18555986971E+03  0.21245674316E+02 -0.40885288344E+02  0.19119901576E+03  0.12699999809E+01 0. -1.
       -4    1    3    3    0  502 -0.18555986971E+03 -0.21245674316E+02 -0.58020894330E+03  0.60953086444E+03  0.12699999809E+01 0.  1.
</event>
<event>
 5   0  0.2723308E-02  0.5012562E+03  0.7818609E-02  0.1013452E+00
       -1   -1    0    0    0  501  0.00000000000E+00  0.00000000000E+00  0.13823866278E+03  0.13823866287E+03  0.50400001928E-02 0.  1.
        1   -1    0    0  501    0  0.00000000000E+00  0.00000000000E+00 -0.45439133027E+03  0.45439133030E+03  0.50400001928E-02 0. -1.
    10030    2    1    2    0    0  0.00000000000E+00  0.00000000000E+00 -0.31615266749E+03  0.59262999317E+03  0.50125622156E+03 0.  0.
        4    1    3    3  502    0  0.50678604716E+01  0.82361937316E+02  0.12171359408E+03  0.14705435666E+03  0.12699999809E+01 0.  1.
       -4    1    3    3    0  502 -0.50678604716E+01 -0.82361937316E+02 -0.43786626158E+03  0.44557563651E+03  0.12699999809E+01 0. -1.
</event>
<event>
 5   0  0.2643185E-02  0.4968913E+03  0.7818609E-02  0.1014594E+00
        1   -1    0    0  501    0  0.00000000000E+00  0.00000000000E+00  0.10732400137E+03  0.10732400149E+03  0.50400001928E-02 0.  1.
       -1   -1    0    0    0  501  0.00000000000E+00  0.00000000000E+00 -0.57512985625E+03  0.57512985627E+03  0.50400001928E-02 0. -1.
    10030    2    1    2    0    0  0.00000000000E+00  0.00000000000E+00 -0.46780585488E+03  0.68245385776E+03  0.49689128601E+03 0.  0.
        1    1    3    3  502    0  0.87904037533E+02 -0.22917604758E+03 -0.28667720536E+03  0.37740243865E+03  0.50400001928E-02 0. -1.
       -1    1    3    3    0  502 -0.87904037533E+02  0.22917604758E+03 -0.18112864952E+03  0.30505141911E+03  0.50400001928E-02 0.  1.
</event>
<event>
 5   0  0.4451135E-02  0.5022686E+03  0.7818609E-02  0.1013188E+00
       -2   -1    0    0    0  501  0.00000000000E+00  0.00000000000E+00  0.91724505718E+02  0.91724505754E+02  0.25500000920E-02 0.  1.
        2   -1    0    0  501    0  0.00000000000E+00  0.00000000000E+00 -0.68758535100E+03  0.68758535100E+03  0.25500000920E-02 0. -1.
    10030    2    1    2    0    0  0.00000000000E+00  0.00000000000E+00 -0.59586084528E+03  0.77930985676E+03  0.50226855954E+03 0.  0.
        1    1    3    3  502    0 -0.18613198243E+02  0.21058814779E+03 -0.87609146140E+02  0.22884313765E+03  0.50400001928E-02 0.  1.
       -1    1    3    3    0  502  0.18613198243E+02 -0.21058814779E+03 -0.50825169914E+03  0.55046671911E+03  0.50400001928E-02 0. -1.
</event>
<event>
 5   0  0.1805500E-02  0.5019552E+03  0.7818609E-02  0.1013270E+00
       -3   -1    0    0    0  501  0.00000000000E+00  0.00000000000E+00  0.28978019810E+03  0.28978021570E+03  0.10100000352E+00 0.  1.
        3   -1    0    0  501    0  0.00000000000E+00  0.00000000000E+00 -0.21737081151E+03  0.21737083497E+03  0.10100000352E+00 0. -1.
    10030    2    1    2    0    0  0.00000000000E+00  0.00000000000E+00  0.72409386587E+02  0.50715105067E+03  0.50195524594E+03 0.  0.
        3    1    3    3  502    0 -0.21250147011E+03 -0.11852126078E+03 -0.25959355211E+02  0.24469994357E+03  0.10100000352E+00 0. -1.
       -3    1    3    3    0  502  0.21250147011E+03  0.11852126078E+03  0.98368741798E+02  0.26245110711E+03  0.10100000352E+00 0.  1.
</event>
<event>
 5   0  0.4631619E-02  0.4985246E+03  0.7818609E-02  0.1014165E+00
       -2   -1    0    0    0  501  0.00000000000E+00  0.00000000000E+00  0.86862019691E+02  0.86862019729E+02  0.25500000920E-02 0.  1.
        2   -1    0    0  501    0  0.00000000000E+00  0.00000000000E+00 -0.71529193613E+03  0.71529193614E+03  0.25500000920E-02 0. -1.
    10030    2    1    2    0    0  0.00000000000E+00  0.00000000000E+00 -0.62842991644E+03  0.80215395587E+03  0.49852463232E+03 0.  0.
        5    1    3    3  502    0  0.23070103537E+03 -0.49310458388E+02 -0.44349258670E+03  0.50235669945E+03  0.46999998093E+01 0. -1.
       -5    1    3    3    0  502 -0.23070103537E+03  0.49310458388E+02 -0.18493732974E+03  0.29979725642E+03  0.46999998093E+01 0.  1.
</event>
<event>
 5   0  0.2723308E-02  0.4996712E+03  0.7818609E-02  0.1013865E+00
       -1   -1    0    0    0  501  0.00000000000E+00  0.00000000000E+00  0.94805692758E+02  0.94805692892E+02  0.50400001928E-02 0.  1.
        1   -1    0    0  501    0  0.00000000000E+00  0.00000000000E+00 -0.65837624658E+03  0.65837624660E+03  0.50400001928E-02 0. -1.
    10030    2    1    2    0    0  0.00000000000E+00  0.00000000000E+00 -0.56357055382E+03  0.75318193949E+03  0.49967115670E+03 0.  0.
        4    1    3    3  502    0  0.18911884947E+02  0.12540606005E+03 -0.60624104802E+03  0.61936593423E+03  0.12699999809E+01 0. -1.
       -4    1    3    3    0  502 -0.18911884947E+02 -0.12540606005E+03  0.42670494193E+02  0.13381600526E+03  0.12699999809E+01 0.  1.
</event>
<event>
 5   0  0.4519539E-02  0.5016723E+03  0.7818609E-02  0.1013343E+00
       -2   -1    0    0    0  501  0.00000000000E+00  0.00000000000E+00  0.74939071907E+02  0.74939071951E+02  0.25500000920E-02 0.  1.
        2   -1    0    0  501    0  0.00000000000E+00  0.00000000000E+00 -0.83959897345E+03  0.83959897345E+03  0.25500000920E-02 0. -1.
    10030    2    1    2    0    0  0.00000000000E+00  0.00000000000E+00 -0.76465990154E+03  0.91453804540E+03  0.50167227496E+03 0.  0.
        4    1    3    3  502    0  0.16956583616E+03  0.17507719157E+03 -0.27428773035E+03  0.36693319245E+03  0.12699999809E+01 0.  1.
       -4    1    3    3    0  502 -0.16956583616E+03 -0.17507719157E+03 -0.49037217119E+03  0.54760485295E+03  0.12699999809E+01 0. -1.
</event>
<event>
 5   0  0.4534223E-02  0.5012424E+03  0.7818609E-02  0.1013455E+00
       -2   -1    0    0    0  501  0.00000000000E+00  0.00000000000E+00  0.12219761520E+03  0.12219761523E+03  0.25500000920E-02 0.  1.
        2   -1    0    0  501    0  0.00000000000E+00  0.00000000000E+00 -0.51401163401E+03  0.51401163402E+03  0.25500000920E-02 0. -1.
    10030    2    1    2    0    0  0.00000000000E+00  0.00000000000E+00 -0.39181401882E+03  0.63620924925E+03  0.50124243983E+03 0.  0.
        2    1    3    3  502    0 -0.66277877337E+02  0.14006254853E+02  0.11035698381E+03  0.12948975280E+03  0.25500000920E-02 0.  1.
       -2    1    3    3    0  502  0.66277877337E+02 -0.14006254853E+02 -0.50217100262E+03  0.50671949645E+03  0.25500000920E-02 0. -1.
</event>
<event>
 5   0  0.2643185E-02  0.5003065E+03  0.7818609E-02  0.1013699E+00
        1   -1    0    0  501    0  0.00000000000E+00  0.00000000000E+00  0.55961548028E+03  0.55961548030E+03  0.50400001928E-02 0. -1.
       -1   -1    0    0    0  501  0.00000000000E+00  0.00000000000E+00 -0.11182080409E+03  0.11182080420E+03  0.50400001928E-02 0.  1.
    10030    2    1    2    0    0  0.00000000000E+00  0.00000000000E+00  0.44779467619E+03  0.67143628450E+03  0.50030651816E+03 0.  0.
        1    1    3    3  502    0  0.38428379720E+02 -0.24174740874E+03  0.15470555084E+03  0.28957271537E+03  0.50400001928E-02 0.  1.
       -1    1    3    3    0  502 -0.38428379720E+02  0.24174740874E+03  0.29308912536E+03  0.38186356913E+03  0.50400001928E-02 0. -1.
</event>
<event>
 5   0  0.4534223E-02  0.4981474E+03  0.7818609E-02  0.1014264E+00
        2   -1    0    0  501    0  0.00000000000E+00  0.00000000000E+00  0.64583249392E+03  0.64583249393E+03  0.25500000920E-02 0. -1.
       -2   -1    0    0    0  501  0.00000000000E+00  0.00000000000E+00 -0.96058523526E+02  0.96058523560E+02  0.25500000920E-02 0.  1.
    10030    2    1    2    0    0  0.00000000000E+00  0.00000000000E+00  0.54977397039E+03  0.74189101749E+03  0.49814743129E+03 0.  0.
        2    1    3    3  502    0 -0.16218904130E+03 -0.13888742501E+03  0.46585866466E+03  0.51246394740E+03  0.25500000920E-02 0. -1.
       -2    1    3    3    0  502  0.16218904130E+03  0.13888742501E+03  0.83915305735E+02  0.22942707008E+03  0.25500000920E-02 0.  1.
</event>
<event>
 5   0  0.2719671E-02  0.4982010E+03  0.7818609E-02  0.1014250E+00
       -1   -1    0    0    0  501  0.00000000000E+00  0.00000000000E+00  0.19293947523E+03  0.19293947530E+03  0.50400001928E-02 0. -1.
        1   -1    0    0  501    0  0.00000000000E+00  0.00000000000E+00 -0.32160890697E+03  0.32160890700E+03  0.50400001928E-02 0.  1.
    10030    2    1    2    0    0  0.00000000000E+00  0.00000000000E+00 -0.12866943173E+03  0.51454838230E+03  0.49820097859E+03 0.  0.
        2    1    3    3  502    0  0.11297434191E+03 -0.15049991412E+03 -0.23290049532E+03  0.29942622932E+03  0.25500000920E-02 0.  1.
       -2    1    3    3    0  502 -0.11297434191E+03  0.15049991412E+03  0.10423106358E+03  0.21512215298E+03  0.25500000920E-02 0. -1.
</event>
<event>
 5   0  0.2723308E-02  0.5009769E+03  0.7818609E-02  0.1013524E+00
       -1   -1    0    0    0  501  0.00000000000E+00  0.00000000000E+00  0.97893572926E+02  0.97893573056E+02  0.50400001928E-02 0. -1.
        1   -1    0    0  501    0  0.00000000000E+00  0.00000000000E+00 -0.64094564169E+03  0.64094564171E+03  0.50400001928E-02 0.  1.
    10030    2    1    2    0    0  0.00000000000E+00  0.00000000000E+00 -0.54305206877E+03  0.73883921477E+03  0.50097688159E+03 0.  0.
        4    1    3    3  502    0 -0.33818333588E+02  0.10435206932E+03 -0.60363320546E+03  0.61352073616E+03  0.12699999809E+01 0.  1.
       -4    1    3    3    0  502  0.33818333588E+02 -0.10435206932E+03  0.60581136697E+02  0.12531847861E+03  0.12699999809E+01 0. -1.
</event>
<event>
 5   0  0.4451135E-02  0.5004543E+03  0.7818609E-02  0.1013660E+00
        2   -1    0    0  501    0  0.00000000000E+00  0.00000000000E+00  0.16181943566E+03  0.16181943568E+03  0.25500000920E-02 0. -1.
       -2   -1    0    0    0  501  0.00000000000E+00  0.00000000000E+00 -0.38693507648E+03  0.38693507649E+03  0.25500000920E-02 0.  1.
    10030    2    1    2    0    0  0.00000000000E+00  0.00000000000E+00 -0.22511564082E+03  0.54875451217E+03  0.50045425654E+03 0.  0.
        1    1    3    3  502    0  0.21818664927E+03 -0.87428596135E+02 -0.18459114605E+02  0.23577513075E+03  0.50400001928E-02 0.  1.
       -1    1    3    3    0  502 -0.21818664927E+03  0.87428596135E+02 -0.20665652622E+03  0.31297938142E+03  0.50400001928E-02 0. -1.
</event>
<event>
 5   0  0.4534223E-02  0.5009196E+03  0.7818609E-02  0.1013539E+00
       -2   -1    0    0    0  501  0.00000000000E+00  0.00000000000E+00  0.22463569300E+03  0.22463569302E+03  0.25500000920E-02 0. -1.
        2   -1    0    0  501    0  0.00000000000E+00  0.00000000000E+00 -0.27925260562E+03  0.27925260563E+03  0.25500000920E-02 0.  1.
    10030    2    1    2    0    0  0.00000000000E+00  0.00000000000E+00 -0.54616912618E+02  0.50388829865E+03  0.50091956477E+03 0.  0.
        2    1    3    3  502    0 -0.96476806969E+02  0.14571137499E+02  0.20473159348E+03  0.22679311653E+03  0.25500000920E-02 0. -1.
       -2    1    3    3    0  502  0.96476806969E+02 -0.14571137499E+02 -0.25934850610E+03  0.27709518212E+03  0.25500000920E-02 0.  1.
</event>
<event>
 5   0  0.2643185E-02  0.4963339E+03  0.7818609E-02  0.1014740E+00
        1   -1    0    0  501    0  0.00000000000E+00  0.00000000000E+00  0.22252561434E+03  0.22252561440E+03  0.50400001928E-02 0. -1.
       -1   -1    0    0    0  501  0.00000000000E+00  0.00000000000E+00 -0.27676288866E+03  0.27676288870E+03  0.50400001928E-02 0.  1.
    10030    2    1    2    0    0  0.00000000000E+00  0.00000000000E+00 -0.54237274316E+02  0.49928850310E+03  0.49633388702E+03 0.  0.
        1    1    3    3  502    0  0.83129351256E+02 -0.20600534152E+03 -0.13840331767E+03  0.26173300927E+03  0.50400001928E-02 0.  1.
       -1    1    3    3    0  502 -0.83129351256E+02  0.20600534152E+03  0.84166043350E+02  0.23755549384E+03  0.50400001928E-02 0. -1.
</event>
<event>
 5   0  0.2719671E-02  0.5008397E+03  0.7818609E-02  0.1013560E+00
       -1   -1    0    0    0  501  0.00000000000E+00  0.00000000000E+00  0.47024110401E+02  0.47024110671E+02  0.50400001928E-02 0. -1.
        1   -1    0    0  501    0  0.00000000000E+00  0.00000000000E+00 -0.13335732972E+04  0.13335732972E+04  0.50400001928E-02 0.  1.
    10030    2    1    2    0    0  0.00000000000E+00  0.00000000000E+00 -0.12865491868E+04  0.13805974079E+04  0.50083968752E+03 0.  0.
        2    1    3    3  502    0 -0.21908721684E+03  0.10560802978E+03 -0.47885213624E+03  0.53707693390E+03  0.25500000920E-02 0. -1.
       -2    1    3    3    0  502  0.21908721684E+03 -0.10560802978E+03 -0.80769705057E+03  0.84352047399E+03  0.25500000920E-02 0.  1.
</event>
<event>
 5   0  0.4451135E-02  0.5002575E+03  0.7818609E-02  0.1013712E+00
       -2   -1    0    0    0  501  0.00000000000E+00  0.00000000000E+00  0.79683411233E+02  0.79683411273E+02  0.25500000920E-02 0. -1.
        2   -1    0    0  501    0  0.00000000000E+00  0.00000000000E+00 -0.78516199635E+03  0.78516199635E+03  0.25500000920E-02 0.  1.
    10030    2    1    2    0    0  0.00000000000E+00  0.00000000000E+00 -0.70547858511E+03  0.86484540762E+03  0.50025747874E+03 0.  0.
        1    1    3    3  502    0 -0.13577281324E+03  0.15523829894E+03 -0.10805934609E+03  0.23283042881E+03  0.50400001928E-02 0. -1.
       -1    1    3    3    0  502  0.13577281324E+03 -0.15523829894E+03 -0.59741923902E+03  0.63201497882E+03  0.50400001928E-02 0.  1.
</event>
<event>
 5   0  0.2719671E-02  0.4996924E+03  0.7818609E-02  0.1013859E+00
       -1   -1    0    0    0  501  0.00000000000E+00  0.00000000000E+00  0.11612594843E+03  0.11612594854E+03  0.50400001928E-02 0. -1.
        1   -1    0    0  501    0  0.00000000000E+00  0.00000000000E+00 -0.53754675773E+03  0.53754675775E+03  0.50400001928E-02 0.  1.
    10030    2    1    2    0    0  0.00000000000E+00  0.00000000000E+00 -0.42142080930E+03  0.65367270629E+03  0.49969241383E+03 0.  0.
        2    1    3    3  502    0  0.77069892976E+02 -0.12453932759E+03  0.54083598025E+02  0.15612446350E+03  0.25500000920E-02 0. -1.
       -2    1    3    3    0  502 -0.77069892976E+02  0.12453932759E+03 -0.47550440732E+03  0.49754824280E+03  0.25500000920E-02 0.  1.
</event>
<event>
 5   0  0.2643185E-02  0.5155272E+03  0.7818609E-02  0.1009804E+00
       -1   -1    0    0    0  501  0.00000000000E+00  0.00000000000E+00  0.84143179530E+03  0.84143179532E+03  0.50400001928E-02 0. -1.
        1   -1    0    0  501    0  0.00000000000E+00  0.00000000000E+00 -0.78963120885E+02  0.78963121046E+02  0.50400001928E-02 0.  1.
    10030    2    1    2    0    0  0.00000000000E+00  0.00000000000E+00  0.76246867442E+03  0.92039491636E+03  0.51552722780E+03 0.  0.
        1    1    3    3  502    0  0.92018386373E+02  0.20603398663E+03  0.60368521389E+03  0.64447903346E+03  0.50400001928E-02 0. -1.
       -1    1    3    3    0  502 -0.92018386373E+02 -0.20603398663E+03  0.15878346053E+03  0.27591588291E+03  0.50400001928E-02 0.  1.
</event>
<event>
 5   0  0.1805500E-02  0.4981117E+03  0.7818609E-02  0.1014273E+00
        3   -1    0    0  501    0  0.00000000000E+00  0.00000000000E+00  0.83635370277E+02  0.83635431262E+02  0.10100000352E+00 0. -1.
       -3   -1    0    0    0  501  0.00000000000E+00  0.00000000000E+00 -0.74165741576E+03  0.74165742264E+03  0.10100000352E+00 0.  1.
    10030    2    1    2    0    0  0.00000000000E+00  0.00000000000E+00 -0.65802204549E+03  0.82529285390E+03  0.49811171674E+03 0.  0.
        3    1    3    3  502    0  0.20232129665E+03 -0.10142101717E+03 -0.15675767601E+03  0.27530548304E+03  0.10100000352E+00 0.  1.
       -3    1    3    3    0  502 -0.20232129665E+03  0.10142101717E+03 -0.50126436947E+03  0.54998737086E+03  0.10100000352E+00 0. -1.
</event>
<event>
 5   0  0.4451135E-02  0.5007643E+03  0.7818609E-02  0.1013580E+00
       -2   -1    0    0    0  501  0.00000000000E+00  0.00000000000E+00  0.89252248784E+03  0.89252248784E+03  0.25500000920E-02 0.  1.
        2   -1    0    0  501    0  0.00000000000E+00  0.00000000000E+00 -0.70240502374E+02  0.70240502420E+02  0.25500000920E-02 0. -1.
    10030    2    1    2    0    0  0.00000000000E+00  0.00000000000E+00  0.82228198546E+03  0.96276299026E+03  0.50076432760E+03 0.  0.
        1    1    3    3  502    0 -0.14378876210E+03 -0.55998413330E+02  0.79023789396E+03  0.80516269131E+03  0.50400001928E-02 0.  1.
       -1    1    3    3    0  502  0.14378876210E+03  0.55998413330E+02  0.32044091500E+02  0.15760029895E+03  0.50400001928E-02 0. -1.
</event>
<event>
 5   0  0.4519539E-02  0.4985503E+03  0.7818609E-02  0.1014158E+00
        2   -1    0    0  501    0  0.00000000000E+00  0.00000000000E+00  0.10035492876E+04  0.10035492876E+04  0.25500000920E-02 0.  1.
       -2   -1    0    0    0  501  0.00000000000E+00  0.00000000000E+00 -0.61918332256E+02  0.61918332308E+02  0.25500000920E-02 0. -1.
    10030    2    1    2    0    0  0.00000000000E+00  0.00000000000E+00  0.94163095531E+03  0.10654676199E+04  0.49855029135E+03 0.  0.
        4    1    3    3  502    0  0.67476545289E+02  0.22764918928E+03  0.30862917841E+03  0.38939802287E+03  0.12699999809E+01 0. -1.
       -4    1    3    3    0  502 -0.67476545289E+02 -0.22764918928E+03  0.63300177690E+03  0.67606959701E+03  0.12699999809E+01 0.  1.
</event>
<event>
 5   0  0.4519539E-02  0.5002085E+03  0.7818609E-02  0.1013725E+00
       -2   -1    0    0    0  501  0.00000000000E+00  0.00000000000E+00  0.26639376294E+02  0.26639376416E+02  0.25500000920E-02 0.  1.
        2   -1    0    0  501    0  0.00000000000E+00  0.00000000000E+00 -0.23481079124E+04  0.23481079124E+04  0.25500000920E-02 0. -1.
    10030    2    1    2    0    0  0.00000000000E+00  0.00000000000E+00 -0.23214685361E+04  0.23747472888E+04  0.50020847816E+03 0.  0.
        4    1    3    3  502    0 -0.25222267181E+02 -0.62483936349E+02 -0.23041869718E+04  0.23051723621E+04  0.12699999809E+01 0. -1.
       -4    1    3    3    0  502  0.25222267181E+02  0.62483936349E+02 -0.17281564306E+02  0.69574926722E+02  0.12699999809E+01 0.  1.
</event>
<event>
 5   0  0.4409622E-02  0.4999742E+03  0.7818609E-02  0.1013786E+00
       -2   -1    0    0    0  501  0.00000000000E+00  0.00000000000E+00  0.10123566354E+03  0.10123566357E+03  0.25500000920E-02 0. -1.
        2   -1    0    0  501    0  0.00000000000E+00  0.00000000000E+00 -0.61730767958E+03  0.61730767958E+03  0.25500000920E-02 0.  1.
    10030    2    1    2    0    0  0.00000000000E+00  0.00000000000E+00 -0.51607201604E+03  0.71854334315E+03  0.49997420958E+03 0.  0.
        3    1    3    3  502    0 -0.67781691014E+02 -0.82199540362E+02 -0.58304547113E+03  0.59269988500E+03  0.10100000352E+00 0.  1.
       -3    1    3    3    0  502  0.67781691014E+02  0.82199540362E+02  0.66973455089E+02  0.12584345815E+03  0.10100000352E+00 0. -1.
</event>
<event>
 5   0  0.2643185E-02  0.5001961E+03  0.7818609E-02  0.1013728E+00
       -1   -1    0    0    0  501  0.00000000000E+00  0.00000000000E+00  0.25115203427E+03  0.25115203432E+03  0.50400001928E-02 0. -1.
        1   -1    0    0  501    0  0.00000000000E+00  0.00000000000E+00 -0.24904844899E+03  0.24904844904E+03  0.50400001928E-02 0.  1.
    10030    2    1    2    0    0  0.00000000000E+00  0.00000000000E+00  0.21035852831E+01  0.50020048336E+03  0.50019606005E+03 0.  0.
        1    1    3    3  502    0  0.20637184679E+03 -0.59163961035E+02 -0.12724318883E+03  0.24956069915E+03  0.50400001928E-02 0.  1.
       -1    1    3    3    0  502 -0.20637184679E+03  0.59163961035E+02  0.12934677411E+03  0.25063978421E+03  0.50400001928E-02 0. -1.
</event>
<event>
 5   0  0.4534223E-02  0.4961682E+03  0.7818609E-02  0.1014784E+00
       -2   -1    0    0    0  501  0.00000000000E+00  0.00000000000E+00  0.31261123631E+02  0.31261123735E+02  0.25500000920E-02 0. -1.
        2   -1    0    0  501    0  0.00000000000E+00  0.00000000000E+00 -0.19687624024E+04  0.19687624024E+04  0.25500000920E-02 0.  1.
    10030    2    1    2    0    0  0.00000000000E+00  0.00000000000E+00 -0.19375012788E+04  0.20000235262E+04  0.49616821732E+03 0.  0.
        2    1    3    3  502    0  0.20694817302E+03 -0.91130835099E+02 -0.55741022057E+03  0.60153015671E+03  0.25500000920E-02 0. -1.
       -2    1    3    3    0  502 -0.20694817302E+03  0.91130835099E+02 -0.13800910582E+04  0.13984933694E+04  0.25500000920E-02 0.  1.
</event>
<event>
 5   0  0.4451135E-02  0.5009185E+03  0.7818609E-02  0.1013539E+00
        2   -1    0    0  501    0  0.00000000000E+00  0.00000000000E+00  0.26110721582E+04  0.26110721582E+04  0.25500000920E-02 0.  1.
       -2   -1    0    0    0  501  0.00000000000E+00  0.00000000000E+00 -0.24024554175E+02  0.24024554311E+02  0.25500000920E-02 0. -1.
    10030    2    1    2    0    0  0.00000000000E+00  0.00000000000E+00  0.25870476041E+04  0.26350967126E+04  0.50091853510E+03 0.  0.
        1    1    3    3  502    0  0.11076872952E+03 -0.17968605799E+03  0.20026824666E+04  0.20137760185E+04  0.50400001928E-02 0.  1.
       -1    1    3    3    0  502 -0.11076872952E+03  0.17968605799E+03  0.58436513749E+03  0.62132069401E+03  0.50400001928E-02 0. -1.
</event>
<event>
 5   0  0.2719671E-02  0.5082131E+03  0.7818609E-02  0.1011657E+00
        1   -1    0    0  501    0  0.00000000000E+00  0.00000000000E+00  0.84202493896E+03  0.84202493898E+03  0.50400001928E-02 0.  1.
       -1   -1    0    0    0  501  0.00000000000E+00  0.00000000000E+00 -0.76684352123E+02  0.76684352288E+02  0.50400001928E-02 0. -1.
    10030    2    1    2    0    0  0.00000000000E+00  0.00000000000E+00  0.76534058684E+03  0.91870929126E+03  0.50821309310E+03 0.  0.
        2    1    3    3  502    0 -0.21534344987E+03  0.44636570986E+01  0.62639428196E+03  0.66239151724E+03  0.25500000920E-02 0.  1.
       -2    1    3    3    0  502  0.21534344987E+03 -0.44636570986E+01  0.13894630488E+03  0.25631777403E+03  0.25500000920E-02 0. -1.
</event>
<event>
 5   0  0.2719671E-02  0.4985679E+03  0.7818609E-02  0.1014153E+00
        1   -1    0    0  501    0  0.00000000000E+00  0.00000000000E+00  0.50062525303E+03  0.50062525306E+03  0.50400001928E-02 0.  1.
       -1   -1    0    0    0  501  0.00000000000E+00  0.00000000000E+00 -0.12412977526E+03  0.12412977537E+03  0.50400001928E-02 0. -1.
    10030    2    1    2    0    0  0.00000000000E+00  0.00000000000E+00  0.37649547777E+03  0.62475502842E+03  0.49856795000E+03 0.  0.
        2    1    3    3  502    0  0.11976235065E+03 -0.20893150971E+03  0.26894482562E+03  0.36100791628E+03  0.25500000920E-02 0. -1.
       -2    1    3    3    0  502 -0.11976235065E+03  0.20893150971E+03  0.10755065215E+03  0.26374711215E+03  0.25500000920E-02 0.  1.
</event>
<event>
 5   0  0.4451135E-02  0.4946709E+03  0.7818609E-02  0.1015179E+00
       -2   -1    0    0    0  501  0.00000000000E+00  0.00000000000E+00  0.46356396213E+02  0.46356396283E+02  0.25500000920E-02 0.  1.
        2   -1    0    0  501    0  0.00000000000E+00  0.00000000000E+00 -0.13196629255E+04  0.13196629255E+04  0.25500000920E-02 0. -1.
    10030    2    1    2    0    0  0.00000000000E+00  0.00000000000E+00 -0.12733065293E+04  0.13660193218E+04  0.49467087034E+03 0.  0.
        1    1    3    3  502    0 -0.13752568347E+03  0.12508725887E+03 -0.18614668079E+03  0.26307930884E+03  0.50400001928E-02 0.  1.
       -1    1    3    3    0  502  0.13752568347E+03 -0.12508725887E+03 -0.10871598485E+04  0.11029400129E+04  0.50400001928E-02 0. -1.
</event>
<event>
 5   0  0.4519539E-02  0.5005822E+03  0.7818609E-02  0.1013627E+00
        2   -1    0    0  501    0  0.00000000000E+00  0.00000000000E+00  0.40111200697E+03  0.40111200698E+03  0.25500000920E-02 0.  1.
       -2   -1    0    0    0  501  0.00000000000E+00  0.00000000000E+00 -0.15617991438E+03  0.15617991440E+03  0.25500000920E-02 0. -1.
    10030    2    1    2    0    0  0.00000000000E+00  0.00000000000E+00  0.24493209259E+03  0.55729192137E+03  0.50058221667E+03 0.  0.
        4    1    3    3  502    0 -0.12199983020E+03 -0.24653813151E+01  0.36574926860E+03  0.38556993795E+03  0.12699999809E+01 0.  1.
       -4    1    3    3    0  502  0.12199983020E+03  0.24653813151E+01 -0.12081717600E+03  0.17172198342E+03  0.12699999809E+01 0. -1.
</event>
<event>
 5   0  0.4519539E-02  0.4997501E+03  0.7818609E-02  0.1013844E+00
       -2   -1    0    0    0  501  0.00000000000E+00  0.00000000000E+00  0.75794639695E+02  0.75794639738E+02  0.25500000920E-02 0. -1.
        2   -1    0    0  501    0  0.00000000000E+00  0.00000000000E+00 -0.82377266772E+03  0.82377266772E+03  0.25500000920E-02 0.  1.
    10030    2    1    2    0    0  0.00000000000E+00  0.00000000000E+00 -0.74797802802E+03  0.89956730746E+03  0.49975014782E+03 0.  0.
        4    1    3    3  502    0 -0.27053168911E+02  0.86295033382E+02 -0.79327423355E+03  0.79841363293E+03  0.12699999809E+01 0.  1.
       -4    1    3    3    0  502  0.27053168911E+02 -0.86295033382E+02  0.45296205531E+02  0.10115367453E+03  0.12699999809E+01 0. -1.
</event>
<event>
 5   0  0.2779445E-02  0.5166675E+03  0.7818609E-02  0.1009518E+00
        1   -1    0    0  501    0  0.00000000000E+00  0.00000000000E+00  0.13713660486E+03  0.13713660496E+03  0.50400001928E-02 0. -1.
       -1   -1    0    0    0  501  0.00000000000E+00  0.00000000000E+00 -0.48664131242E+03  0.48664131245E+03  0.50400001928E-02 0.  1.
    10030    2    1    2    0    0  0.00000000000E+00  0.00000000000E+00 -0.34950470756E+03  0.62377791740E+03  0.51666754265E+03 0.  0.
        3    1    3    3  502    0 -0.22145640179E+03 -0.93779825862E+02 -0.60863055147E+02  0.24807643039E+03  0.10100000352E+00 0. -1.
       -3    1    3    3    0  502  0.22145640179E+03  0.93779825862E+02 -0.28864165241E+03  0.37570148701E+03  0.10100000352E+00 0.  1.
</event>
<event>
 5   0  0.1805500E-02  0.4964528E+03  0.7818609E-02  0.1014709E+00
        3   -1    0    0  501    0  0.00000000000E+00  0.00000000000E+00  0.52754866177E+03  0.52754867144E+03  0.10100000352E+00 0.  1.
       -3   -1    0    0    0  501  0.00000000000E+00  0.00000000000E+00 -0.11679744372E+03  0.11679748739E+03  0.10100000352E+00 0. -1.
    10030    2    1    2    0    0  0.00000000000E+00  0.00000000000E+00  0.41075121805E+03  0.64434615883E+03  0.49645282684E+03 0.  0.
        2    1    3    3  502    0  0.87963600540E+02  0.39894541655E+02  0.50215851133E+03  0.51136321727E+03  0.25500000920E-02 0.  1.
       -2    1    3    3    0  502 -0.87963600540E+02 -0.39894541655E+02 -0.91407293282E+02  0.13298294156E+03  0.25500000920E-02 0. -1.
</event>
<event>
 5   0  0.2779445E-02  0.5000844E+03  0.7818609E-02  0.1013757E+00
        1   -1    0    0  501    0  0.00000000000E+00  0.00000000000E+00  0.13217298005E+03  0.13217298015E+03  0.50400001928E-02 0.  1.
       -1   -1    0    0    0  501  0.00000000000E+00  0.00000000000E+00 -0.47302478509E+03  0.47302478511E+03  0.50400001928E-02 0. -1.
    10030    2    1    2    0    0  0.00000000000E+00  0.00000000000E+00 -0.34085180503E+03  0.60519776526E+03  0.50008437497E+03 0.  0.
        3    1    3    3  502    0 -0.23895423318E+02 -0.77017202922E+02  0.11600479006E+03  0.14127902293E+03  0.10100000352E+00 0.  1.
       -3    1    3    3    0  502  0.23895423318E+02  0.77017202922E+02 -0.45685659510E+03  0.46391874233E+03  0.10100000352E+00 0. -1.
</event>
<event>
 5   0  0.4534223E-02  0.5005367E+03  0.7818609E-02  0.1013639E+00
        2   -1    0    0  501    0  0.00000000000E+00  0.00000000000E+00  0.13477835394E+04  0.13477835394E+04  0.25500000920E-02 0. -1.
       -2   -1    0    0    0  501  0.00000000000E+00  0.00000000000E+00 -0.46472029466E+02  0.46472029536E+02  0.25500000920E-02 0.  1.
    10030    2    1    2    0    0  0.00000000000E+00  0.00000000000E+00  0.13013115100E+04  0.13942555690E+04  0.50053665763E+03 0.  0.
        2    1    3    3  502    0 -0.18825893592E+03 -0.83535653468E+02  0.25461569456E+03  0.32748860175E+03  0.25500000920E-02 0.  1.
       -2    1    3    3    0  502  0.18825893592E+03  0.83535653468E+02  0.10466958154E+04  0.10667669672E+04  0.25500000920E-02 0. -1.
</event>
<event>
 5   0  0.2719671E-02  0.4978420E+03  0.7818609E-02  0.1014344E+00
        1   -1    0    0  501    0  0.00000000000E+00  0.00000000000E+00  0.12857543917E+03  0.12857543927E+03  0.50400001928E-02 0.  1.
       -1   -1    0    0    0  501  0.00000000000E+00  0.00000000000E+00 -0.48190900261E+03  0.48190900264E+03  0.50400001928E-02 0. -1.
    10030    2    1    2    0    0  0.00000000000E+00  0.00000000000E+00 -0.35333356344E+03  0.61048444191E+03  0.49784198976E+03 0.  0.
        2    1    3    3  502    0  0.19795975248E+03 -0.93411178603E+02 -0.32200825226E+03  0.38936233308E+03  0.25500000920E-02 0. -1.
       -2    1    3    3    0  502 -0.19795975248E+03  0.93411178603E+02 -0.31325311178E+02  0.22112210883E+03  0.25500000920E-02 0.  1.
</event>
<event>
 5   0  0.2719671E-02  0.5008166E+03  0.7818609E-02  0.1013566E+00
        1   -1    0    0  501    0  0.00000000000E+00  0.00000000000E+00  0.24336243402E+03  0.24336243407E+03  0.50400001928E-02 0. -1.
       -1   -1    0    0    0  501  0.00000000000E+00  0.00000000000E+00 -0.25765816626E+03  0.25765816630E+03  0.50400001928E-02 0.  1.
    10030    2    1    2    0    0  0.00000000000E+00  0.00000000000E+00 -0.14295732238E+02  0.50102060037E+03  0.50081660719E+03 0.  0.
        2    1    3    3  502    0  0.13255857936E+03  0.15329395093E+03  0.13999537466E+03  0.24631182937E+03  0.25500000920E-02 0. -1.
       -2    1    3    3    0  502 -0.13255857936E+03 -0.15329395093E+03 -0.15429110690E+03  0.25470877101E+03  0.25500000920E-02 0.  1.
</event>
<event>
 5   0  0.2643185E-02  0.5010569E+03  0.7818609E-02  0.1013503E+00
       -1   -1    0    0    0  501  0.00000000000E+00  0.00000000000E+00  0.60032213173E+02  0.60032213385E+02  0.50400001928E-02 0. -1.
        1   -1    0    0  501    0  0.00000000000E+00  0.00000000000E+00 -0.10455136267E+04  0.10455136267E+04  0.50400001928E-02 0.  1.
    10030    2    1    2    0    0  0.00000000000E+00  0.00000000000E+00 -0.98548141356E+03  0.11055458401E+04  0.50105687118E+03 0.  0.
        1    1    3    3  502    0  0.83270846623E+02 -0.19981090468E+03 -0.77101373603E+03  0.80082495759E+03  0.50400001928E-02 0.  1.
       -1    1    3    3    0  502 -0.83270846623E+02  0.19981090468E+03 -0.21446767753E+03  0.30472088254E+03  0.50400001928E-02 0. -1.
</event>
<event>
 5   0  0.4534223E-02  0.4955261E+03  0.7818609E-02  0.1014953E+00
       -2   -1    0    0    0  501  0.00000000000E+00  0.00000000000E+00  0.16224824013E+03  0.16224824015E+03  0.25500000920E-02 0. -1.
        2   -1    0    0  501    0  0.00000000000E+00  0.00000000000E+00 -0.37834949841E+03  0.37834949842E+03  0.25500000920E-02 0.  1.
    10030    2    1    2    0    0  0.00000000000E+00  0.00000000000E+00 -0.21610125828E+03  0.54059773856E+03  0.49552614573E+03 0.  0.
        2    1    3    3  502    0 -0.15228527642E+03 -0.81709158524E+02 -0.30173575258E+03  0.34772353442E+03  0.25500000920E-02 0.  1.
       -2    1    3    3    0  502  0.15228527642E+03  0.81709158524E+02  0.85634494294E+02  0.19287420414E+03  0.25500000920E-02 0. -1.
</event>
<event>
 5   0  0.4519539E-02  0.5002204E+03  0.7818609E-02  0.1013721E+00
       -2   -1    0    0    0  501  0.00000000000E+00  0.00000000000E+00  0.71943615883E+02  0.71943615929E+02  0.25500000920E-02 0.  1.
        2   -1    0    0  501    0  0.00000000000E+00  0.00000000000E+00 -0.86950198172E+03  0.86950198172E+03  0.25500000920E-02 0. -1.
    10030    2    1    2    0    0  0.00000000000E+00  0.00000000000E+00 -0.79755836583E+03  0.94144559765E+03  0.50022041784E+03 0.  0.
        4    1    3    3  502    0 -0.19198601796E+03 -0.41910950215E+02 -0.68997214483E+03  0.71741085327E+03  0.12699999809E+01 0. -1.
       -4    1    3    3    0  502  0.19198601796E+03  0.41910950215E+02 -0.10758622100E+03  0.22403474438E+03  0.12699999809E+01 0.  1.
</event>
<event>
 5   0  0.2643185E-02  0.5005643E+03  0.7818609E-02  0.1013632E+00
        1   -1    0    0  501    0  0.00000000000E+00  0.00000000000E+00  0.42296563138E+03  0.42296563141E+03  0.50400001928E-02 0. -1.
       -1   -1    0    0    0  501  0.00000000000E+00  0.00000000000E+00 -0.14809986892E+03  0.14809986900E+03  0.50400001928E-02 0.  1.
    10030    2    1    2    0    0  0.00000000000E+00  0.00000000000E+00  0.27486576246E+03  0.57106550041E+03  0.50056429995E+03 0.  0.
        1    1    3    3  502    0 -0.17766888768E+02 -0.22045587957E+03  0.27108549006E+03  0.34986254460E+03  0.50400001928E-02 0. -1.
       -1    1    3    3    0  502  0.17766888768E+02  0.22045587957E+03  0.37802724042E+01  0.22120295580E+03  0.50400001928E-02 0.  1.
</event>
<event>
 5   0  0.4451135E-02  0.5011932E+03  0.7818609E-02  0.1013468E+00
       -2   -1    0    0    0  501  0.00000000000E+00  0.00000000000E+00  0.13763132769E+03  0.13763132771E+03  0.25500000920E-02 0. -1.
        2   -1    0    0  501    0  0.00000000000E+00  0.00000000000E+00 -0.45628174408E+03  0.45628174409E+03  0.25500000920E-02 0.  1.
    10030    2    1    2    0    0  0.00000000000E+00  0.00000000000E+00 -0.31865041639E+03  0.59391307180E+03  0.50119322520E+03 0.  0.
        1    1    3    3  502    0 -0.15661929834E+03 -0.15103701601E+03 -0.11999487820E+02  0.21791230473E+03  0.50400001928E-02 0. -1.
       -1    1    3    3    0  502  0.15661929834E+03  0.15103701601E+03 -0.30665092857E+03  0.37600076707E+03  0.50400001928E-02 0.  1.
</event>
<event>
 5   0  0.2719671E-02  0.4988554E+03  0.7818609E-02  0.1014078E+00
        1   -1    0    0  501    0  0.00000000000E+00  0.00000000000E+00  0.79711928358E+03  0.79711928360E+03  0.50400001928E-02 0.  1.
       -1   -1    0    0    0  501  0.00000000000E+00  0.00000000000E+00 -0.78048763720E+02  0.78048763883E+02  0.50400001928E-02 0. -1.
    10030    2    1    2    0    0  0.00000000000E+00  0.00000000000E+00  0.71907051986E+03  0.87516804748E+03  0.49885538866E+03 0.  0.
        2    1    3    3  502    0 -0.12688254947E+03 -0.65203633166E+02  0.58485583582E+00  0.14265706152E+03  0.25500000920E-02 0. -1.
       -2    1    3    3    0  502  0.12688254947E+03  0.65203633166E+02  0.71848566402E+03  0.73251098596E+03  0.25500000920E-02 0.  1.
</event>
<event>
 5   0  0.2723308E-02  0.5006152E+03  0.7818609E-02  0.1013618E+00
       -1   -1    0    0    0  501  0.00000000000E+00  0.00000000000E+00  0.17354388890E+04  0.17354388890E+04  0.50400001928E-02 0. -1.
        1   -1    0    0  501    0  0.00000000000E+00  0.00000000000E+00 -0.36102625839E+02  0.36102626191E+02  0.50400001928E-02 0.  1.
    10030    2    1    2    0    0  0.00000000000E+00  0.00000000000E+00  0.16993362631E+04  0.17715415152E+04  0.50061522627E+03 0.  0.
        4    1    3    3  502    0  0.63169834226E+02  0.16517454130E+03  0.22281120436E+03  0.28446353499E+03  0.12699999809E+01 0.  1.
       -4    1    3    3    0  502 -0.63169834226E+02 -0.16517454130E+03  0.14765250588E+04  0.14870779802E+04  0.12699999809E+01 0. -1.
</event>
<event>
 5   0  0.2643185E-02  0.5003493E+03  0.7818609E-02  0.1013688E+00
        1   -1    0    0  501    0  0.00000000000E+00  0.00000000000E+00  0.65877689190E+03  0.65877689192E+03  0.50400001928E-02 0.  1.
       -1   -1    0    0    0  501  0.00000000000E+00  0.00000000000E+00 -0.95005396159E+02  0.95005396292E+02  0.50400001928E-02 0. -1.
    10030    2    1    2    0    0  0.00000000000E+00  0.00000000000E+00  0.56377149575E+03  0.75378228822E+03  0.50034931659E+03 0.  0.
        1    1    3    3  502    0 -0.13414658177E+02 -0.11716859307E+03 -0.50500554053E+02  0.12829161407E+03  0.50400001928E-02 0. -1.
       -1    1    3    3    0  502  0.13414658177E+02  0.11716859307E+03  0.61427204980E+03  0.62549067415E+03  0.50400001928E-02 0.  1.
</event>
<event>
 5   0  0.2643185E-02  0.5005207E+03  0.7818609E-02  0.1013643E+00
       -1   -1    0    0    0  501  0.00000000000E+00  0.00000000000E+00  0.59512018742E+02  0.59512018956E+02  0.50400001928E-02 0. -1.
        1   -1    0    0  501    0  0.00000000000E+00  0.00000000000E+00 -0.10523963891E+04  0.10523963891E+04  0.50400001928E-02 0.  1.
    10030    2    1    2    0    0  0.00000000000E+00  0.00000000000E+00 -0.99288437038E+03  0.11119084081E+04  0.50052066395E+03 0.  0.
        1    1    3    3  502    0 -0.88601942584E+02 -0.23374021048E+03 -0.46965086127E+03  0.53203075262E+03  0.50400001928E-02 0.  1.
       -1    1    3    3    0  502  0.88601942584E+02  0.23374021048E+03 -0.52323350911E+03  0.57987765547E+03  0.50400001928E-02 0. -1.
</event>
<event>
 5   0  0.2643185E-02  0.5030931E+03  0.7818609E-02  0.1012975E+00
       -1   -1    0    0    0  501  0.00000000000E+00  0.00000000000E+00  0.78081975274E+02  0.78081975437E+02  0.50400001928E-02 0.  1.
        1   -1    0    0  501    0  0.00000000000E+00  0.00000000000E+00 -0.81037467599E+03  0.81037467600E+03  0.50400001928E-02 0. -1.
    10030    2    1    2    0    0  0.00000000000E+00  0.00000000000E+00 -0.73229270071E+03  0.88845665144E+03  0.50309305498E+03 0.  0.
        1    1    3    3  502    0 -0.44622019996E+02 -0.20829137062E+03 -0.12987820908E+03  0.24948901572E+03  0.50400001928E-02 0. -1.
       -1    1    3    3    0  502  0.44622019996E+02  0.20829137062E+03 -0.60241449163E+03  0.63896763572E+03  0.50400001928E-02 0.  1.
</event>
<event>
 5   0  0.1805500E-02  0.4983339E+03  0.7818609E-02  0.1014215E+00
        3   -1    0    0  501    0  0.00000000000E+00  0.00000000000E+00  0.81189074569E+02  0.81189137391E+02  0.10100000352E+00 0.  1.
       -3   -1    0    0    0  501  0.00000000000E+00  0.00000000000E+00 -0.76468582167E+03  0.76468582834E+03  0.10100000352E+00 0. -1.
    10030    2    1    2    0    0  0.00000000000E+00  0.00000000000E+00 -0.68349674710E+03  0.84587496573E+03  0.49833387839E+03 0.  0.
        3    1    3    3  502    0  0.56561179366E+02 -0.21970560199E+03 -0.51662597836E+03  0.56424474324E+03  0.10100000352E+00 0. -1.
       -3    1    3    3    0  502 -0.56561179366E+02  0.21970560199E+03 -0.16687076874E+03  0.28163022249E+03  0.10100000352E+00 0.  1.
</event>
<event>
 5   0  0.2719671E-02  0.5002826E+03  0.7818609E-02  0.1013705E+00
        1   -1    0    0  501    0  0.00000000000E+00  0.00000000000E+00  0.14167267217E+03  0.14167267226E+03  0.50400001928E-02 0.  1.
       -1   -1    0    0    0  501  0.00000000000E+00  0.00000000000E+00 -0.44165661800E+03  0.44165661803E+03  0.50400001928E-02 0. -1.
    10030    2    1    2    0    0  0.00000000000E+00  0.00000000000E+00 -0.29998394583E+03  0.58332929029E+03  0.50028261328E+03 0.  0.
        2    1    3    3  502    0  0.20149109884E+03  0.14333043982E+03 -0.19405989714E+03  0.31432709329E+03  0.25500000920E-02 0. -1.
       -2    1    3    3    0  502 -0.20149109884E+03 -0.14333043982E+03 -0.10592404869E+03  0.26900219700E+03  0.25500000920E-02 0.  1.
</event>
<event>
 5   0  0.2723308E-02  0.5000806E+03  0.7818609E-02  0.1013758E+00
        1   -1    0    0  501    0  0.00000000000E+00  0.00000000000E+00  0.88409742902E+03  0.88409742903E+03  0.50400001928E-02 0.  1.
       -1   -1    0    0    0  501  0.00000000000E+00  0.00000000000E+00 -0.70716359044E+02  0.70716359224E+02  0.50400001928E-02 0. -1.
    10030    2    1    2    0    0  0.00000000000E+00  0.00000000000E+00  0.81338106997E+03  0.95481378826E+03  0.50008059876E+03 0.  0.
        4    1    3    3  502    0  0.12728571948E+03 -0.17399891458E+03  0.64851372107E+03  0.68340978627E+03  0.12699999809E+01 0.  1.
       -4    1    3    3    0  502 -0.12728571948E+03  0.17399891458E+03  0.16486734891E+03  0.27140400199E+03  0.12699999809E+01 0. -1.
</event>
<event>
 5   0  0.4534223E-02  0.4996332E+03  0.7818609E-02  0.1013875E+00
        2   -1    0    0  501    0  0.00000000000E+00  0.00000000000E+00  0.24135047723E+03  0.24135047724E+03  0.25500000920E-02 0. -1.
       -2   -1    0    0    0  501  0.00000000000E+00  0.00000000000E+00 -0.25857974623E+03  0.25857974624E+03  0.25500000920E-02 0.  1.
    10030    2    1    2    0    0  0.00000000000E+00  0.00000000000E+00 -0.17229269001E+02  0.49993022348E+03  0.49963324613E+03 0.  0.
        2    1    3    3  502    0  0.16922551687E+02  0.65818195789E+02 -0.24915290073E+03  0.25825486559E+03  0.25500000920E-02 0.  1.
       -2    1    3    3    0  502 -0.16922551687E+02 -0.65818195789E+02  0.23192363173E+03  0.24167535789E+03  0.25500000920E-02 0. -1.
</event>
<event>
 5   0  0.1805500E-02  0.5032303E+03  0.7818609E-02  0.1012939E+00
        4   -1    0    0  501    0  0.00000000000E+00  0.00000000000E+00  0.41851791571E+03  0.41851984262E+03  0.12699999809E+01 0. -1.
       -4   -1    0    0    0  501  0.00000000000E+00  0.00000000000E+00 -0.15126737781E+03  0.15127270900E+03  0.12699999809E+01 0.  1.
    10030    2    1    2    0    0  0.00000000000E+00  0.00000000000E+00  0.26725053790E+03  0.56979255162E+03  0.50323026725E+03 0.  0.
        5    1    3    3  502    0 -0.21297249981E+03  0.10760837567E+03  0.22386113328E+03  0.32721972004E+03  0.46999998093E+01 0. -1.
       -5    1    3    3    0  502  0.21297249981E+03 -0.10760837567E+03  0.43389404618E+02  0.24257283158E+03  0.46999998093E+01 0.  1.
</event>
<event>
 5   0  0.2715483E-02  0.5007338E+03  0.7818609E-02  0.1013588E+00
       -1   -1    0    0    0  501  0.00000000000E+00  0.00000000000E+00  0.20439217508E+03  0.20439217514E+03  0.50400001928E-02 0. -1.
        1   -1    0    0  501    0  0.00000000000E+00  0.00000000000E+00 -0.30668288045E+03  0.30668288049E+03  0.50400001928E-02 0.  1.
    10030    2    1    2    0    0  0.00000000000E+00  0.00000000000E+00 -0.10229070538E+03  0.51107505563E+03  0.50073378564E+03 0.  0.
        5    1    3    3  502    0  0.14866715769E+03 -0.18524448882E+03  0.29505851753E+02  0.23939534185E+03  0.46999998093E+01 0. -1.
       -5    1    3    3    0  502 -0.14866715769E+03  0.18524448882E+03 -0.13179655713E+03  0.27167971378E+03  0.46999998093E+01 0.  1.
</event>
<event>
 5   0  0.4451135E-02  0.5023051E+03  0.7818609E-02  0.1013179E+00
        2   -1    0    0  501    0  0.00000000000E+00  0.00000000000E+00  0.31387504693E+03  0.31387504694E+03  0.25500000920E-02 0. -1.
       -2   -1    0    0    0  501  0.00000000000E+00  0.00000000000E+00 -0.20096409221E+03  0.20096409223E+03  0.25500000920E-02 0.  1.
    10030    2    1    2    0    0  0.00000000000E+00  0.00000000000E+00  0.11291095472E+03  0.51483913917E+03  0.50230514185E+03 0.  0.
        1    1    3    3  502    0  0.11752364447E+03  0.21326528306E+03 -0.65914266484E+01  0.24359255920E+03  0.50400001928E-02 0.  1.
       -1    1    3    3    0  502 -0.11752364447E+03 -0.21326528306E+03  0.11950238137E+03  0.27124657997E+03  0.50400001928E-02 0. -1.
</event>
<event>
 5   0  0.4451135E-02  0.4833769E+03  0.7818609E-02  0.1018211E+00
        2   -1    0    0  501    0  0.00000000000E+00  0.00000000000E+00  0.20119133669E+04  0.20119133669E+04  0.25500000920E-02 0. -1.
       -2   -1    0    0    0  501  0.00000000000E+00  0.00000000000E+00 -0.29033704794E+02  0.29033704906E+02  0.25500000920E-02 0.  1.
    10030    2    1    2    0    0  0.00000000000E+00  0.00000000000E+00  0.19828796621E+04  0.20409470718E+04  0.48337686697E+03 0.  0.
        1    1    3    3  502    0 -0.46889470230E+02  0.22848541479E+03  0.72409679676E+03  0.76073673389E+03  0.50400001928E-02 0.  1.
       -1    1    3    3    0  502  0.46889470230E+02 -0.22848541479E+03  0.12587828653E+04  0.12802103379E+04  0.50400001928E-02 0. -1.
</event>
<event>
 5   0  0.4534223E-02  0.5006894E+03  0.7818609E-02  0.1013599E+00
        2   -1    0    0  501    0  0.00000000000E+00  0.00000000000E+00  0.17811334946E+03  0.17811334948E+03  0.25500000920E-02 0.  1.
       -2   -1    0    0    0  501  0.00000000000E+00  0.00000000000E+00 -0.35186848525E+03  0.35186848526E+03  0.25500000920E-02 0. -1.
    10030    2    1    2    0    0  0.00000000000E+00  0.00000000000E+00 -0.17375513579E+03  0.52998183473E+03  0.50068942263E+03 0.  0.
        2    1    3    3  502    0  0.74202408094E+02  0.23749168472E+02 -0.33870915248E+03  0.34755418333E+03  0.25500000920E-02 0. -1.
       -2    1    3    3    0  502 -0.74202408094E+02 -0.23749168472E+02  0.16495401669E+03  0.18242765141E+03  0.25500000920E-02 0.  1.
</event>
<event>
 5   0  0.4631619E-02  0.5009649E+03  0.7818609E-02  0.1013527E+00
        2   -1    0    0  501    0  0.00000000000E+00  0.00000000000E+00  0.51868734608E+03  0.51868734608E+03  0.25500000920E-02 0.  1.
       -2   -1    0    0    0  501  0.00000000000E+00  0.00000000000E+00 -0.12096201537E+03  0.12096201540E+03  0.25500000920E-02 0. -1.
    10030    2    1    2    0    0  0.00000000000E+00  0.00000000000E+00  0.39772533070E+03  0.63964936148E+03  0.50096493586E+03 0.  0.
        5    1    3    3  502    0 -0.24372276294E+03  0.56082402388E+02  0.18205127178E+03  0.30937158335E+03  0.46999998093E+01 0.  1.
       -5    1    3    3    0  502  0.24372276294E+03 -0.56082402388E+02  0.21567405892E+03  0.33027777813E+03  0.46999998093E+01 0. -1.
</event>
<event>
 5   0  0.2719671E-02  0.5002642E+03  0.7818609E-02  0.1013710E+00
        1   -1    0    0  501    0  0.00000000000E+00  0.00000000000E+00  0.13218307050E+04  0.13218307050E+04  0.50400001928E-02 0. -1.
       -1   -1    0    0    0  501  0.00000000000E+00  0.00000000000E+00 -0.47332891473E+02  0.47332891742E+02  0.50400001928E-02 0.  1.
    10030    2    1    2    0    0  0.00000000000E+00  0.00000000000E+00  0.12744978135E+04  0.13691635968E+04  0.50026420818E+03 0.  0.
        2    1    3    3  502    0 -0.18224230989E+03 -0.14573554635E+03  0.39070225049E+03  0.45508170423E+03  0.25500000920E-02 0.  1.
       -2    1    3    3    0  502  0.18224230989E+03  0.14573554635E+03  0.88379556304E+03  0.91408189252E+03  0.25500000920E-02 0. -1.
</event>
<event>
 5   0  0.4451135E-02  0.5075745E+03  0.7818609E-02  0.1011821E+00
       -2   -1    0    0    0  501  0.00000000000E+00  0.00000000000E+00  0.12523599249E+03  0.12523599251E+03  0.25500000920E-02 0. -1.
        2   -1    0    0  501    0  0.00000000000E+00  0.00000000000E+00 -0.51429277296E+03  0.51429277297E+03  0.25500000920E-02 0.  1.
    10030    2    1    2    0    0  0.00000000000E+00  0.00000000000E+00 -0.38905678047E+03  0.63952876548E+03  0.50757449054E+03 0.  0.
        1    1    3    3  502    0  0.13551708445E+03 -0.21374035183E+03 -0.17068371816E+03  0.30525849676E+03  0.50400001928E-02 0. -1.
       -1    1    3    3    0  502 -0.13551708445E+03  0.21374035183E+03 -0.21837306231E+03  0.33427026872E+03  0.50400001928E-02 0.  1.
</event>
<event>
 5   0  0.2643185E-02  0.5006259E+03  0.7818609E-02  0.1013616E+00
        1   -1    0    0  501    0  0.00000000000E+00  0.00000000000E+00  0.11429764457E+03  0.11429764468E+03  0.50400001928E-02 0. -1.
       -1   -1    0    0    0  501  0.00000000000E+00  0.00000000000E+00 -0.54818785556E+03  0.54818785558E+03  0.50400001928E-02 0.  1.
    10030    2    1    2    0    0  0.00000000000E+00  0.00000000000E+00 -0.43389021099E+03  0.66248550027E+03  0.50062593108E+03 0.  0.
        1    1    3    3  502    0 -0.23583095221E+02 -0.13840029420E+03  0.57290138190E+02  0.15163430935E+03  0.50400001928E-02 0. -1.
       -1    1    3    3    0  502  0.23583095221E+02  0.13840029420E+03 -0.49118034918E+03  0.51085119091E+03  0.50400001928E-02 0.  1.
</event>
<event>
 5   0  0.1805500E-02  0.4999204E+03  0.7818609E-02  0.1013800E+00
        4   -1    0    0  501    0  0.00000000000E+00  0.00000000000E+00  0.85647356279E+03  0.85647450438E+03  0.12699999809E+01 0.  1.
       -4   -1    0    0    0  501  0.00000000000E+00  0.00000000000E+00 -0.72943899642E+02  0.72954954561E+02  0.12699999809E+01 0. -1.
    10030    2    1    2    0    0  0.00000000000E+00  0.00000000000E+00  0.78352966314E+03  0.92942945894E+03  0.49992037978E+03 0.  0.
        1    1    3    3  502    0 -0.86006966870E+02 -0.10987915417E+03  0.61998031106E+01  0.13967485262E+03  0.50400001928E-02 0. -1.
       -1    1    3    3    0  502  0.86006966870E+02  0.10987915417E+03  0.77732986003E+03  0.78975460632E+03  0.50400001928E-02 0.  1.
</event>
<event>
 5   0  0.1805500E-02  0.4991055E+03  0.7818609E-02  0.1014013E+00
       -3   -1    0    0    0  501  0.00000000000E+00  0.00000000000E+00  0.27539580837E+03  0.27539582689E+03  0.10100000352E+00 0.  1.
        3   -1    0    0  501    0  0.00000000000E+00  0.00000000000E+00 -0.22613471731E+03  0.22613473987E+03  0.10100000352E+00 0. -1.
    10030    2    1    2    0    0  0.00000000000E+00  0.00000000000E+00  0.49261091059E+02  0.50153056676E+03  0.49910545409E+03 0.  0.
        5    1    3    3  502    0 -0.10756738445E+02  0.20279636758E+03 -0.12103032981E+03  0.23645825182E+03  0.46999998093E+01 0. -1.
       -5    1    3    3    0  502  0.10756738445E+02 -0.20279636758E+03  0.17029142087E+03  0.26507231493E+03  0.46999998093E+01 0.  1.
</event>
<event>
 5   0  0.2643185E-02  0.5003723E+03  0.7818609E-02  0.1013682E+00
       -1   -1    0    0    0  501  0.00000000000E+00  0.00000000000E+00  0.48573554221E+02  0.48573554482E+02  0.50400001928E-02 0.  1.
        1   -1    0    0  501    0  0.00000000000E+00  0.00000000000E+00 -0.12886255088E+04  0.12886255088E+04  0.50400001928E-02 0. -1.
    10030    2    1    2    0    0  0.00000000000E+00  0.00000000000E+00 -0.12400519546E+04  0.13371990633E+04  0.50037234617E+03 0.  0.
        1    1    3    3  502    0  0.57818105123E+01  0.79025127192E+02 -0.12542077167E+04  0.12567081589E+04  0.50400001928E-02 0. -1.
       -1    1    3    3    0  502 -0.57818105123E+01 -0.79025127192E+02  0.14155762112E+02  0.80490904373E+02  0.50400001928E-02 0.  1.
</event>
<event>
 5   0  0.2715483E-02  0.4999025E+03  0.7818609E-02  0.1013804E+00
        1   -1    0    0  501    0  0.00000000000E+00  0.00000000000E+00  0.14467954025E+03  0.14467954033E+03  0.50400001928E-02 0.  1.
       -1   -1    0    0    0  501  0.00000000000E+00  0.00000000000E+00 -0.43182081078E+03  0.43182081081E+03  0.50400001928E-02 0. -1.
    10030    2    1    2    0    0  0.00000000000E+00  0.00000000000E+00 -0.28714127054E+03  0.57650035114E+03  0.49990253613E+03 0.  0.
        5    1    3    3  502    0 -0.56055883682E+02 -0.22931521458E+03 -0.23814789985E+03  0.33535688741E+03  0.46999998093E+01 0.  1.
       -5    1    3    3    0  502  0.56055883682E+02  0.22931521458E+03 -0.48993370687E+02  0.24114346373E+03  0.46999998093E+01 0. -1.
</event>
<event>
 5   0  0.1805500E-02  0.5029554E+03  0.7818609E-02  0.1013010E+00
       -4   -1    0    0    0  501  0.00000000000E+00  0.00000000000E+00  0.69016961299E+02  0.69028645119E+02  0.12699999809E+01 0.  1.
        4   -1    0    0  501    0  0.00000000000E+00  0.00000000000E+00 -0.91622180910E+03  0.91622268929E+03  0.12699999809E+01 0. -1.
    10030    2    1    2    0    0  0.00000000000E+00  0.00000000000E+00 -0.84720484780E+03  0.98525133441E+03  0.50295540341E+03 0.  0.
        3    1    3    3  502    0  0.15584747532E+03 -0.56404774982E+02 -0.79409852388E+03  0.81121045976E+03  0.10100000352E+00 0. -1.
       -3    1    3    3    0  502 -0.15584747532E+03  0.56404774982E+02 -0.53106323921E+02  0.17404087464E+03  0.10100000352E+00 0.  1.
</event>
<event>
 5   0  0.4451135E-02  0.5007244E+03  0.7818609E-02  0.1013590E+00
        2   -1    0    0  501    0  0.00000000000E+00  0.00000000000E+00  0.18097688200E+04  0.18097688200E+04  0.25500000920E-02 0. -1.
       -2   -1    0    0    0  501  0.00000000000E+00  0.00000000000E+00 -0.34634939952E+02  0.34634940046E+02  0.25500000920E-02 0.  1.
    10030    2    1    2    0    0  0.00000000000E+00  0.00000000000E+00  0.17751338800E+04  0.18444037600E+04  0.50072441321E+03 0.  0.
        1    1    3    3  502    0 -0.10244212039E+02  0.11531646930E+03  0.17052510211E+04  0.17091763739E+04  0.50400001928E-02 0. -1.
       -1    1    3    3    0  502  0.10244212039E+02 -0.11531646930E+03  0.69882858925E+02  0.13522738617E+03  0.50400001928E-02 0.  1.
</event>
<event>
 5   0  0.4409622E-02  0.5037117E+03  0.7818609E-02  0.1012815E+00
        2   -1    0    0  501    0  0.00000000000E+00  0.00000000000E+00  0.11458930549E+04  0.11458930549E+04  0.25500000920E-02 0.  1.
       -2   -1    0    0    0  501  0.00000000000E+00  0.00000000000E+00 -0.55355392276E+02  0.55355392335E+02  0.25500000920E-02 0. -1.
    10030    2    1    2    0    0  0.00000000000E+00  0.00000000000E+00  0.10905376627E+04  0.12012484473E+04  0.50371166196E+03 0.  0.
        3    1    3    3  502    0  0.19511543624E+03  0.15504751936E+03  0.45857304250E+03  0.52191858774E+03  0.10100000352E+00 0. -1.
       -3    1    3    3    0  502 -0.19511543624E+03 -0.15504751936E+03  0.63196462017E+03  0.67932985954E+03  0.10100000352E+00 0.  1.
</event>
<event>
 5   0  0.2643185E-02  0.4902498E+03  0.7818609E-02  0.1016356E+00
       -1   -1    0    0    0  501  0.00000000000E+00  0.00000000000E+00  0.10326455863E+03  0.10326455875E+03  0.50400001928E-02 0. -1.
        1   -1    0    0  501    0  0.00000000000E+00  0.00000000000E+00 -0.58186687570E+03  0.58186687572E+03  0.50400001928E-02 0.  1.
    10030    2    1    2    0    0  0.00000000000E+00  0.00000000000E+00 -0.47860231707E+03  0.68513143448E+03  0.49024983896E+03 0.  0.
        1    1    3    3  502    0 -0.39304448697E+02  0.38587755628E+02 -0.57310650247E+03  0.57574726901E+03  0.50400001928E-02 0.  1.
       -1    1    3    3    0  502  0.39304448697E+02 -0.38587755628E+02  0.94504185399E+02  0.10938416547E+03  0.50400001928E-02 0. -1.
</event>
<event>
 5   0  0.2719671E-02  0.4998610E+03  0.7818609E-02  0.1013815E+00
        1   -1    0    0  501    0  0.00000000000E+00  0.00000000000E+00  0.20846487191E+03  0.20846487197E+03  0.50400001928E-02 0.  1.
       -1   -1    0    0    0  501  0.00000000000E+00  0.00000000000E+00 -0.29964400082E+03  0.29964400086E+03  0.50400001928E-02 0. -1.
    10030    2    1    2    0    0  0.00000000000E+00  0.00000000000E+00 -0.91179128907E+02  0.50810887284E+03  0.49986097378E+03 0.  0.
        2    1    3    3  502    0  0.18814753246E+03  0.59568388638E+01  0.12153209632E+03  0.22406478604E+03  0.25500000920E-02 0.  1.
       -2    1    3    3    0  502 -0.18814753246E+03 -0.59568388638E+01 -0.21271122523E+03  0.28404408680E+03  0.25500000920E-02 0. -1.
</event>
<event>
 5   0  0.1805500E-02  0.4985631E+03  0.7818609E-02  0.1014155E+00
       -3   -1    0    0    0  501  0.00000000000E+00  0.00000000000E+00  0.53959604901E+03  0.53959605847E+03  0.10100000352E+00 0. -1.
        3   -1    0    0  501    0  0.00000000000E+00  0.00000000000E+00 -0.11516256892E+03  0.11516261321E+03  0.10100000352E+00 0.  1.
    10030    2    1    2    0    0  0.00000000000E+00  0.00000000000E+00  0.42443348010E+03  0.65475867167E+03  0.49856307434E+03 0.  0.
        2    1    3    3  502    0 -0.13074032215E+03  0.14022378510E+03  0.29720825852E+01  0.19174090598E+03  0.25500000920E-02 0.  1.
       -2    1    3    3    0  502  0.13074032215E+03 -0.14022378510E+03  0.42146139751E+03  0.46301776569E+03  0.25500000920E-02 0. -1.
</event>
<event>
 5   0  0.2723308E-02  0.4998764E+03  0.7818609E-02  0.1013811E+00
       -1   -1    0    0    0  501  0.00000000000E+00  0.00000000000E+00  0.33317707484E+02  0.33317707865E+02  0.50400001928E-02 0.  1.
        1   -1    0    0  501    0  0.00000000000E+00  0.00000000000E+00 -0.18749517117E+04  0.18749517117E+04  0.50400001928E-02 0. -1.
    10030    2    1    2    0    0  0.00000000000E+00  0.00000000000E+00 -0.18416340043E+04  0.19082694196E+04  0.49987635691E+03 0.  0.
        4    1    3    3  502    0  0.21031678372E+03  0.64934704280E+02 -0.46883904610E+03  0.51793950359E+03  0.12699999809E+01 0.  1.
       -4    1    3    3    0  502 -0.21031678372E+03 -0.64934704280E+02 -0.13727949582E+04  0.13903299160E+04  0.12699999809E+01 0. -1.
</event>
<event>
 5   0  0.2719671E-02  0.4902084E+03  0.7818609E-02  0.1016367E+00
       -1   -1    0    0    0  501  0.00000000000E+00  0.00000000000E+00  0.54588958339E+02  0.54588958571E+02  0.50400001928E-02 0. -1.
        1   -1    0    0  501    0  0.00000000000E+00  0.00000000000E+00 -0.11005168867E+04  0.11005168867E+04  0.50400001928E-02 0.  1.
    10030    2    1    2    0    0  0.00000000000E+00  0.00000000000E+00 -0.10459279284E+04  0.11551058453E+04  0.49020840719E+03 0.  0.
        2    1    3    3  502    0 -0.89355794996E+02  0.17405618883E+03 -0.17508354852E+03  0.26255335446E+03  0.25500000920E-02 0. -1.
       -2    1    3    3    0  502  0.89355794996E+02 -0.17405618883E+03 -0.87084437985E+03  0.89255249084E+03  0.25500000920E-02 0.  1.
</event>
<event>
 5   0  0.2779445E-02  0.4995223E+03  0.7818609E-02  0.1013904E+00
       -1   -1    0    0    0  501  0.00000000000E+00  0.00000000000E+00  0.13161454640E+03  0.13161454650E+03  0.50400001928E-02 0.  1.
        1   -1    0    0  501    0  0.00000000000E+00  0.00000000000E+00 -0.47396450083E+03  0.47396450085E+03  0.50400001928E-02 0. -1.
    10030    2    1    2    0    0  0.00000000000E+00  0.00000000000E+00 -0.34234995443E+03  0.60557904735E+03  0.49952226306E+03 0.  0.
        3    1    3    3  502    0  0.16946012748E+03 -0.86790082366E+02 -0.36714831666E+03  0.41357846877E+03  0.10100000352E+00 0. -1.
       -3    1    3    3    0  502 -0.16946012748E+03  0.86790082366E+02  0.24798362234E+02  0.19200057858E+03  0.10100000352E+00 0.  1.
</event>
<event>
 5   0  0.4451135E-02  0.4997989E+03  0.7818609E-02  0.1013831E+00
       -2   -1    0    0    0  501  0.00000000000E+00  0.00000000000E+00  0.11103281892E+03  0.11103281895E+03  0.25500000920E-02 0.  1.
        2   -1    0    0  501    0  0.00000000000E+00  0.00000000000E+00 -0.56244401376E+03  0.56244401376E+03  0.25500000920E-02 0. -1.
    10030    2    1    2    0    0  0.00000000000E+00  0.00000000000E+00 -0.45141119483E+03  0.67347683272E+03  0.49979893696E+03 0.  0.
        1    1    3    3  502    0 -0.20716104097E+03 -0.11092002943E+03 -0.11112255693E+03  0.25993686254E+03  0.50400001928E-02 0.  1.
       -1    1    3    3    0  502  0.20716104097E+03  0.11092002943E+03 -0.34028863790E+03  0.41353997017E+03  0.50400001928E-02 0. -1.
</event>
<event>
 5   0  0.2715483E-02  0.5003271E+03  0.7818609E-02  0.1013694E+00
        1   -1    0    0  501    0  0.00000000000E+00  0.00000000000E+00  0.21620226263E+03  0.21620226269E+03  0.50400001928E-02 0. -1.
       -1   -1    0    0    0  501  0.00000000000E+00  0.00000000000E+00 -0.28945954810E+03  0.28945954814E+03  0.50400001928E-02 0.  1.
    10030    2    1    2    0    0  0.00000000000E+00  0.00000000000E+00 -0.73257285464E+02  0.50566181083E+03  0.50032713004E+03 0.  0.
        5    1    3    3  502    0  0.34298621824E+02  0.38481403048E+02  0.21073085831E+03  0.21699492731E+03  0.46999998093E+01 0. -1.
       -5    1    3    3    0  502 -0.34298621824E+02 -0.38481403048E+02 -0.28398814377E+03  0.28866688352E+03  0.46999998093E+01 0.  1.
</event>
<event>
 5   0  0.4534223E-02  0.5045285E+03  0.7818609E-02  0.1012604E+00
        2   -1    0    0  501    0  0.00000000000E+00  0.00000000000E+00  0.45738213797E+03  0.45738213797E+03  0.25500000920E-02 0. -1.
       -2   -1    0    0    0  501  0.00000000000E+00  0.00000000000E+00 -0.13913367866E+03  0.13913367868E+03  0.25500000920E-02 0.  1.
    10030    2    1    2    0    0  0.00000000000E+00  0.00000000000E+00  0.31824845931E+03  0.59651581665E+03  0.50452853008E+03 0.  0.
        2    1    3    3  502    0  0.24376767329E+03  0.29346059171E+02  0.22759074828E+03  0.33478563057E+03  0.25500000920E-02 0. -1.
       -2    1    3    3    0  502 -0.24376767329E+03 -0.29346059171E+02  0.90657711035E+02  0.26173018608E+03  0.25500000920E-02 0.  1.
</event>
<event>
 5   0  0.2719671E-02  0.5000206E+03  0.7818609E-02  0.1013774E+00
       -1   -1    0    0    0  501  0.00000000000E+00  0.00000000000E+00  0.82007359952E+02  0.82007360107E+02  0.50400001928E-02 0. -1.
        1   -1    0    0  501    0  0.00000000000E+00  0.00000000000E+00 -0.76218966171E+03  0.76218966173E+03  0.50400001928E-02 0.  1.
    10030    2    1    2    0    0  0.00000000000E+00  0.00000000000E+00 -0.68018230176E+03  0.84419702183E+03  0.50002064762E+03 0.  0.
        2    1    3    3  502    0  0.80651396873E+02 -0.21996729590E+03 -0.48742009046E+03  0.54080366463E+03  0.25500000920E-02 0.  1.
       -2    1    3    3    0  502 -0.80651396873E+02  0.21996729590E+03 -0.19276221129E+03  0.30339335720E+03  0.25500000920E-02 0. -1.
</event>
<event>
 5   0  0.4409622E-02  0.4976392E+03  0.7818609E-02  0.1014397E+00
        2   -1    0    0  501    0  0.00000000000E+00  0.00000000000E+00  0.13618768010E+03  0.13618768012E+03  0.25500000920E-02 0.  1.
       -2   -1    0    0    0  501  0.00000000000E+00  0.00000000000E+00 -0.45460199954E+03  0.45460199955E+03  0.25500000920E-02 0. -1.
    10030    2    1    2    0    0  0.00000000000E+00  0.00000000000E+00 -0.31841431944E+03  0.59078967967E+03  0.49763919337E+03 0.  0.
        3    1    3    3  502    0 -0.32999421689E+02  0.24657990051E+03 -0.16459184099E+03  0.29829698874E+03  0.10100000352E+00 0. -1.
       -3    1    3    3    0  502  0.32999421689E+02 -0.24657990051E+03 -0.15382247845E+03  0.29249269093E+03  0.10100000352E+00 0.  1.
</event>
<event>
 5   0  0.2643185E-02  0.5020464E+03  0.7818609E-02  0.1013246E+00
        1   -1    0    0  501    0  0.00000000000E+00  0.00000000000E+00  0.15247648715E+04  0.15247648715E+04  0.50400001928E-02 0.  1.
       -1   -1    0    0    0  501  0.00000000000E+00  0.00000000000E+00 -0.41326139976E+02  0.41326140283E+02  0.50400001928E-02 0. -1.
    10030    2    1    2    0    0  0.00000000000E+00  0.00000000000E+00  0.14834387315E+04  0.15660910118E+04  0.50204639928E+03 0.  0.
        1    1    3    3  502    0  0.10137350373E+03  0.14942211196E+03  0.19774946947E+03  0.26778425552E+03  0.50400001928E-02 0. -1.
       -1    1    3    3    0  502 -0.10137350373E+03 -0.14942211196E+03  0.12856892621E+04  0.12983067563E+04  0.50400001928E-02 0.  1.
</event>
<event>
 5   0  0.4409622E-02  0.4997014E+03  0.7818609E-02  0.1013857E+00
        2   -1    0    0  501    0  0.00000000000E+00  0.00000000000E+00  0.30250060395E+03  0.30250060396E+03  0.25500000920E-02 0.  1.
       -2   -1    0    0    0  501  0.00000000000E+00  0.00000000000E+00 -0.20636449493E+03  0.20636449495E+03  0.25500000920E-02 0. -1.
    10030    2    1    2    0    0  0.00000000000E+00  0.00000000000E+00  0.96136109019E+02  0.50886509891E+03  0.49970144830E+03 0.  0.
        3    1    3    3  502    0  0.12083600320E+03  0.16454140892E+03  0.19475881972E+03  0.28214574776E+03  0.10100000352E+00 0.  1.
       -3    1    3    3    0  502 -0.12083600320E+03 -0.16454140892E+03 -0.98622710704E+02  0.22671935115E+03  0.10100000352E+00 0. -1.
</event>
<event>
 5   0  0.2779445E-02  0.5052716E+03  0.7818609E-02  0.1012412E+00
        1   -1    0    0  501    0  0.00000000000E+00  0.00000000000E+00  0.41179628195E+03  0.41179628198E+03  0.50400001928E-02 0.  1.
       -1   -1    0    0    0  501  0.00000000000E+00  0.00000000000E+00 -0.15499131838E+03  0.15499131846E+03  0.50400001928E-02 0. -1.
    10030    2    1    2    0    0  0.00000000000E+00  0.00000000000E+00  0.25680496357E+03  0.56678760043E+03  0.50527160487E+03 0.  0.
        3    1    3    3  502    0 -0.19639780023E+03  0.63698797682E+02 -0.34908077492E+02  0.20939965815E+03  0.10100000352E+00 0. -1.
       -3    1    3    3    0  502  0.19639780023E+03 -0.63698797682E+02  0.29171304106E+03  0.35738794228E+03  0.10100000352E+00 0.  1.
</event>
<event>
 5   0  0.2715483E-02  0.4927895E+03  0.7818609E-02  0.1015678E+00
        1   -1    0    0  501    0  0.00000000000E+00  0.00000000000E+00  0.15791906008E+03  0.15791906016E+03  0.50400001928E-02 0.  1.
       -1   -1    0    0    0  501  0.00000000000E+00  0.00000000000E+00 -0.38443980367E+03  0.38443980371E+03  0.50400001928E-02 0. -1.
    10030    2    1    2    0    0  0.00000000000E+00  0.00000000000E+00 -0.22652074360E+03  0.54235886386E+03  0.49278949860E+03 0.  0.
        5    1    3    3  502    0  0.23841431272E+03 -0.24208078715E+02 -0.50412317899E+02  0.24493041334E+03  0.46999998093E+01 0. -1.
       -5    1    3    3    0  502 -0.23841431272E+03  0.24208078715E+02 -0.17610842570E+03  0.29742845053E+03  0.46999998093E+01 0.  1.
</event>
<event>
 5   0  0.2779445E-02  0.5010857E+03  0.7818609E-02  0.1013496E+00
        1   -1    0    0  501    0  0.00000000000E+00  0.00000000000E+00  0.22217425543E+03  0.22217425549E+03  0.50400001928E-02 0. -1.
       -1   -1    0    0    0  501  0.00000000000E+00  0.00000000000E+00 -0.28253369625E+03  0.28253369630E+03  0.50400001928E-02 0.  1.
    10030    2    1    2    0    0  0.00000000000E+00  0.00000000000E+00 -0.60359440817E+02  0.50470795179E+03  0.50108567581E+03 0.  0.
        3    1    3    3  502    0 -0.39299134816E+02  0.66362350198E+02  0.20991989314E+03  0.22363978908E+03  0.10100000352E+00 0. -1.
       -3    1    3    3    0  502  0.39299134816E+02 -0.66362350198E+02 -0.27027933396E+03  0.28106816271E+03  0.10100000352E+00 0.  1.
</event>
<event>
 5   0  0.4631619E-02  0.4894812E+03  0.7818609E-02  0.1016562E+00
        2   -1    0    0  501    0  0.00000000000E+00  0.00000000000E+00  0.12999204064E+03  0.12999204067E+03  0.25500000920E-02 0.  1.
       -2   -1    0    0    0  501  0.00000000000E+00  0.00000000000E+00 -0.46078173728E+03  0.46078173729E+03  0.25500000920E-02 0. -1.
    10030    2    1    2    0    0  0.00000000000E+00  0.00000000000E+00 -0.33078969664E+03  0.59077377796E+03  0.48948118791E+03 0.  0.
        5    1    3    3  502    0  0.24717644859E+02  0.15360782187E+03  0.62552203896E+02  0.16775336991E+03  0.46999998093E+01 0.  1.
       -5    1    3    3    0  502 -0.24717644859E+02 -0.15360782187E+03 -0.39334190053E+03  0.42302040804E+03  0.46999998093E+01 0. -1.
</event>
<event>
 5   0  0.4451135E-02  0.4999897E+03  0.7818609E-02  0.1013782E+00
        2   -1    0    0  501    0  0.00000000000E+00  0.00000000000E+00  0.98825169826E+03  0.98825169826E+03  0.25500000920E-02 0.  1.
       -2   -1    0    0    0  501  0.00000000000E+00  0.00000000000E+00 -0.63240381215E+02  0.63240381267E+02  0.25500000920E-02 0. -1.
    10030    2    1    2    0    0  0.00000000000E+00  0.00000000000E+00  0.92501131705E+03  0.10514920795E+04  0.49998965655E+03 0.  0.
        1    1    3    3  502    0 -0.19418881916E+03 -0.14181369559E+03  0.60632864992E+03  0.65226900393E+03  0.50400001928E-02 0.  1.
       -1    1    3    3    0  502  0.19418881916E+03  0.14181369559E+03  0.31868266712E+03  0.39922307560E+03  0.50400001928E-02 0. -1.
</event>
<event>
 5   0  0.4451135E-02  0.4999937E+03  0.7818609E-02  0.1013781E+00
       -2   -1    0    0    0  501  0.00000000000E+00  0.00000000000E+00  0.23335255903E+03  0.23335255905E+03  0.25500000920E-02 0.  1.
        2   -1    0    0  501    0  0.00000000000E+00  0.00000000000E+00 -0.26782837183E+03  0.26782837185E+03  0.25500000920E-02 0. -1.
    10030    2    1    2    0    0  0.00000000000E+00  0.00000000000E+00 -0.34475812800E+02  0.50118093090E+03  0.49999374379E+03 0.  0.
        1    1    3    3  502    0 -0.95444824704E+02 -0.16081302970E+03  0.14907135584E+03  0.23915019181E+03  0.50400001928E-02 0.  1.
       -1    1    3    3    0  502  0.95444824704E+02  0.16081302970E+03 -0.18354716864E+03  0.26203073909E+03  0.50400001928E-02 0. -1.
</event>
<event>
 5   0  0.2719671E-02  0.4982255E+03  0.7818609E-02  0.1014243E+00
       -1   -1    0    0    0  501  0.00000000000E+00  0.00000000000E+00  0.97466792587E+02  0.97466792718E+02  0.50400001928E-02 0. -1.
        1   -1    0    0  501    0  0.00000000000E+00  0.00000000000E+00 -0.63670063577E+03  0.63670063579E+03  0.50400001928E-02 0.  1.
    10030    2    1    2    0    0  0.00000000000E+00  0.00000000000E+00 -0.53923384318E+03  0.73416742850E+03  0.49822552669E+03 0.  0.
        2    1    3    3  502    0  0.23092333094E+02 -0.15279553405E+03 -0.55753738134E+03  0.57855653368E+03  0.25500000920E-02 0.  1.
       -2    1    3    3    0  502 -0.23092333094E+02  0.15279553405E+03  0.18303538157E+02  0.15561089482E+03  0.25500000920E-02 0. -1.
</event>
<event>
 5   0  0.1805500E-02  0.5117681E+03  0.7818609E-02  0.1010752E+00
        4   -1    0    0  501    0  0.00000000000E+00  0.00000000000E+00  0.35700390900E+03  0.35700616793E+03  0.12699999809E+01 0.  1.
       -4   -1    0    0    0  501  0.00000000000E+00  0.00000000000E+00 -0.18340090788E+03  0.18340530502E+03  0.12699999809E+01 0. -1.
    10030    2    1    2    0    0  0.00000000000E+00  0.00000000000E+00  0.17360300112E+03  0.54041147296E+03  0.51176807062E+03 0.  0.
        4    1    3    3  502    0 -0.35526002568E+02  0.49409330044E+02  0.34925113215E+03  0.35451564840E+03  0.12699999809E+01 0.  1.
       -4    1    3    3    0  502  0.35526002568E+02 -0.49409330044E+02 -0.17564813103E+03  0.18589582456E+03  0.12699999809E+01 0. -1.
</event>
<event>
 5   0  0.4534223E-02  0.5050453E+03  0.7818609E-02  0.1012470E+00
       -2   -1    0    0    0  501  0.00000000000E+00  0.00000000000E+00  0.55789580845E+02  0.55789580903E+02  0.25500000920E-02 0. -1.
        2   -1    0    0  501    0  0.00000000000E+00  0.00000000000E+00 -0.11430034999E+04  0.11430034999E+04  0.25500000920E-02 0.  1.
    10030    2    1    2    0    0  0.00000000000E+00  0.00000000000E+00 -0.10872139191E+04  0.11987930808E+04  0.50504528985E+03 0.  0.
        2    1    3    3  502    0 -0.93023781403E+02  0.22341086440E+03 -0.37241130787E+03  0.44413513763E+03  0.25500000920E-02 0. -1.
       -2    1    3    3    0  502  0.93023781403E+02 -0.22341086440E+03 -0.71480261120E+03  0.75465794320E+03  0.25500000920E-02 0.  1.
</event>
<event>
 5   0  0.2715483E-02  0.4945719E+03  0.7818609E-02  0.1015206E+00
        1   -1    0    0  501    0  0.00000000000E+00  0.00000000000E+00  0.89033933509E+03  0.89033933510E+03  0.50400001928E-02 0. -1.
       -1   -1    0    0    0  501  0.00000000000E+00  0.00000000000E+00 -0.68682054365E+02  0.68682054550E+02  0.50400001928E-02 0.  1.
    10030    2    1    2    0    0  0.00000000000E+00  0.00000000000E+00  0.82165728072E+03  0.95902138965E+03  0.49457187429E+03 0.  0.
        5    1    3    3  502    0  0.11652965191E+03  0.69007845260E+02  0.97266578392E+01  0.13586000277E+03  0.46999998093E+01 0.  1.
       -5    1    3    3    0  502 -0.11652965191E+03 -0.69007845260E+02  0.81193062288E+03  0.82316138688E+03  0.46999998093E+01 0. -1.
</event>
<event>
 5   0  0.2723308E-02  0.5007938E+03  0.7818609E-02  0.1013572E+00
       -1   -1    0    0    0  501  0.00000000000E+00  0.00000000000E+00  0.90757309537E+02  0.90757309677E+02  0.50400001928E-02 0.  1.
        1   -1    0    0  501    0  0.00000000000E+00  0.00000000000E+00 -0.69083799826E+03  0.69083799828E+03  0.50400001928E-02 0. -1.
    10030    2    1    2    0    0  0.00000000000E+00  0.00000000000E+00 -0.60008068873E+03  0.78159530796E+03  0.50079376238E+03 0.  0.
        4    1    3    3  502    0  0.76255925609E+02 -0.73862593970E+02  0.53888391704E+02  0.11906393509E+03  0.12699999809E+01 0.  1.
       -4    1    3    3    0  502 -0.76255925609E+02  0.73862593970E+02 -0.65396908043E+03  0.66253137287E+03  0.12699999809E+01 0. -1.
</event>
<event>
 5   0  0.2779445E-02  0.5001418E+03  0.7818609E-02  0.1013742E+00
       -1   -1    0    0    0  501  0.00000000000E+00  0.00000000000E+00  0.37597460635E+03  0.37597460638E+03  0.50400001928E-02 0. -1.
        1   -1    0    0  501    0  0.00000000000E+00  0.00000000000E+00 -0.16632892083E+03  0.16632892091E+03  0.50400001928E-02 0.  1.
    10030    2    1    2    0    0  0.00000000000E+00  0.00000000000E+00  0.20964568551E+03  0.54230352729E+03  0.50014178216E+03 0.  0.
        3    1    3    3  502    0 -0.22032981101E+03  0.37358153792E+02 -0.16863318204E+02  0.22410988147E+03  0.10100000352E+00 0. -1.
       -3    1    3    3    0  502  0.22032981101E+03 -0.37358153792E+02  0.22650900372E+03  0.31819364582E+03  0.10100000352E+00 0.  1.
</event>
<event>
 5   0  0.2779445E-02  0.4969534E+03  0.7818609E-02  0.1014577E+00
       -1   -1    0    0    0  501  0.00000000000E+00  0.00000000000E+00  0.10462290165E+03  0.10462290177E+03  0.50400001928E-02 0. -1.
        1   -1    0    0  501    0  0.00000000000E+00  0.00000000000E+00 -0.59012583794E+03  0.59012583796E+03  0.50400001928E-02 0.  1.
    10030    2    1    2    0    0  0.00000000000E+00  0.00000000000E+00 -0.48550293629E+03  0.69474873974E+03  0.49695342863E+03 0.  0.
        3    1    3    3  502    0  0.21590275379E+03  0.37804340231E+02 -0.40637009096E+03  0.46171401133E+03  0.10100000352E+00 0.  1.
       -3    1    3    3    0  502 -0.21590275379E+03 -0.37804340231E+02 -0.79132845333E+02  0.23303472841E+03  0.10100000352E+00 0. -1.
</event>
<event>
 5   0  0.4534223E-02  0.4983670E+03  0.7818609E-02  0.1014206E+00
        2   -1    0    0  501    0  0.00000000000E+00  0.00000000000E+00  0.59964461395E+03  0.59964461395E+03  0.25500000920E-02 0. -1.
       -2   -1    0    0    0  501  0.00000000000E+00  0.00000000000E+00 -0.10354867817E+03  0.10354867820E+03  0.25500000920E-02 0.  1.
    10030    2    1    2    0    0  0.00000000000E+00  0.00000000000E+00  0.49609593578E+03  0.70319329216E+03  0.49836696182E+03 0.  0.
        2    1    3    3  502    0  0.21670945577E+03  0.10006659175E+03  0.34897205371E+03  0.42279759375E+03  0.25500000920E-02 0. -1.
       -2    1    3    3    0  502 -0.21670945577E+03 -0.10006659175E+03  0.14712388207E+03  0.28039569841E+03  0.25500000920E-02 0.  1.
</event>
<event>
 5   0  0.4534223E-02  0.5125517E+03  0.7818609E-02  0.1010554E+00
       -2   -1    0    0    0  501  0.00000000000E+00  0.00000000000E+00  0.98872991096E+02  0.98872991129E+02  0.25500000920E-02 0. -1.
        2   -1    0    0  501    0  0.00000000000E+00  0.00000000000E+00 -0.66425948070E+03  0.66425948071E+03  0.25500000920E-02 0.  1.
    10030    2    1    2    0    0  0.00000000000E+00  0.00000000000E+00 -0.56538648961E+03  0.76313247184E+03  0.51255174075E+03 0.  0.
        2    1    3    3  502    0  0.19045617147E+03 -0.11734609606E+03 -0.96530581796E+02  0.24364279744E+03  0.25500000920E-02 0. -1.
       -2    1    3    3    0  502 -0.19045617147E+03  0.11734609606E+03 -0.46885590781E+03  0.51948967440E+03  0.25500000920E-02 0.  1.
</event>
<event>
 5   0  0.2723308E-02  0.5000085E+03  0.7818609E-02  0.1013777E+00
        1   -1    0    0  501    0  0.00000000000E+00  0.00000000000E+00  0.13955357949E+03  0.13955357958E+03  0.50400001928E-02 0. -1.
       -1   -1    0    0    0  501  0.00000000000E+00  0.00000000000E+00 -0.44787195247E+03  0.44787195250E+03  0.50400001928E-02 0.  1.
    10030    2    1    2    0    0  0.00000000000E+00  0.00000000000E+00 -0.30831837298E+03  0.58742553208E+03  0.50000853655E+03 0.  0.
        4    1    3    3  502    0 -0.11300758014E+03  0.13451764343E+03 -0.36311671684E+03  0.40338700092E+03  0.12699999809E+01 0. -1.
       -4    1    3    3    0  502  0.11300758014E+03 -0.13451764343E+03  0.54798343860E+02  0.18403853116E+03  0.12699999809E+01 0.  1.
</event>
<event>
 5   0  0.2643185E-02  0.5003331E+03  0.7818609E-02  0.1013692E+00
        1   -1    0    0  501    0  0.00000000000E+00  0.00000000000E+00  0.28224793993E+03  0.28224793997E+03  0.50400001928E-02 0. -1.
       -1   -1    0    0    0  501  0.00000000000E+00  0.00000000000E+00 -0.22173169881E+03  0.22173169886E+03  0.50400001928E-02 0.  1.
    10030    2    1    2    0    0  0.00000000000E+00  0.00000000000E+00  0.60516241120E+02  0.50397963883E+03  0.50033314993E+03 0.  0.
        1    1    3    3  502    0  0.36558946433E+02 -0.12248645093E+03 -0.18635292624E+03  0.22597986717E+03  0.50400001928E-02 0.  1.
       -1    1    3    3    0  502 -0.36558946433E+02  0.12248645093E+03  0.24686916736E+03  0.27799977166E+03  0.50400001928E-02 0. -1.
</event>
<event>
 5   0  0.1805500E-02  0.5048491E+03  0.7818609E-02  0.1012521E+00
        3   -1    0    0  501    0  0.00000000000E+00  0.00000000000E+00  0.68145680692E+02  0.68145755539E+02  0.10100000352E+00 0.  1.
       -3   -1    0    0    0  501  0.00000000000E+00  0.00000000000E+00 -0.93502776787E+03  0.93502777333E+03  0.10100000352E+00 0. -1.
    10030    2    1    2    0    0  0.00000000000E+00  0.00000000000E+00 -0.86688208718E+03  0.10031735289E+04  0.50484906254E+03 0.  0.
        5    1    3    3  502    0 -0.11236406227E+02  0.13967036678E+02 -0.93367426784E+03  0.93385816020E+03  0.46999998093E+01 0. -1.
       -5    1    3    3    0  502  0.11236406227E+02 -0.13967036678E+02  0.66792180660E+02  0.69315368671E+02  0.46999998093E+01 0.  1.
</event>
<event>
 5   0  0.2723308E-02  0.4949734E+03  0.7818609E-02  0.1015099E+00
        1   -1    0    0  501    0  0.00000000000E+00  0.00000000000E+00  0.50766093364E+03  0.50766093367E+03  0.50400001928E-02 0. -1.
       -1   -1    0    0    0  501  0.00000000000E+00  0.00000000000E+00 -0.12065072014E+03  0.12065072025E+03  0.50400001928E-02 0.  1.
    10030    2    1    2    0    0  0.00000000000E+00  0.00000000000E+00  0.38701021350E+03  0.62831165391E+03  0.49497336200E+03 0.  0.
        4    1    3    3  502    0  0.17431521694E+02  0.20810469174E+03  0.24927062015E+02  0.21031973753E+03  0.12699999809E+01 0.  1.
       -4    1    3    3    0  502 -0.17431521694E+02 -0.20810469174E+03  0.36208315149E+03  0.41799191639E+03  0.12699999809E+01 0. -1.
</event>
<event>
 5   0  0.1805500E-02  0.5022463E+03  0.7818609E-02  0.1013194E+00
       -3   -1    0    0    0  501  0.00000000000E+00  0.00000000000E+00  0.28132332540E+03  0.28132334353E+03  0.10100000352E+00 0.  1.
        3   -1    0    0  501    0  0.00000000000E+00  0.00000000000E+00 -0.22416497245E+03  0.22416499520E+03  0.10100000352E+00 0. -1.
    10030    2    1    2    0    0  0.00000000000E+00  0.00000000000E+00  0.57158352949E+02  0.50548833873E+03  0.50224633725E+03 0.  0.
        1    1    3    3  502    0  0.12436799698E+03  0.10524975105E+03  0.22090937531E+03  0.27449200516E+03  0.50400001928E-02 0.  1.
       -1    1    3    3    0  502 -0.12436799698E+03 -0.10524975105E+03 -0.16375102236E+03  0.23099633357E+03  0.50400001928E-02 0. -1.
</event>
<event>
 5   0  0.1805500E-02  0.5030617E+03  0.7818609E-02  0.1012983E+00
       -3   -1    0    0    0  501  0.00000000000E+00  0.00000000000E+00  0.12470531050E+03  0.12470535140E+03  0.10100000352E+00 0. -1.
        3   -1    0    0  501    0  0.00000000000E+00  0.00000000000E+00 -0.50733813009E+03  0.50733814015E+03  0.10100000352E+00 0.  1.
    10030    2    1    2    0    0  0.00000000000E+00  0.00000000000E+00 -0.38263281959E+03  0.63204349155E+03  0.50306172641E+03 0.  0.
        2    1    3    3  502    0  0.24056093520E+03 -0.31026268012E+02 -0.10764039136E+03  0.26536511962E+03  0.25500000920E-02 0. -1.
       -2    1    3    3    0  502 -0.24056093520E+03  0.31026268012E+02 -0.27499242824E+03  0.36667837193E+03  0.25500000920E-02 0.  1.
</event>
<event>
 5   0  0.2779445E-02  0.5002685E+03  0.7818609E-02  0.1013709E+00
       -1   -1    0    0    0  501  0.00000000000E+00  0.00000000000E+00  0.67355437667E+02  0.67355437855E+02  0.50400001928E-02 0.  1.
        1   -1    0    0  501    0  0.00000000000E+00  0.00000000000E+00 -0.92891007115E+03  0.92891007116E+03  0.50400001928E-02 0. -1.
    10030    2    1    2    0    0  0.00000000000E+00  0.00000000000E+00 -0.86155463348E+03  0.99626550901E+03  0.50026850589E+03 0.  0.
        3    1    3    3  502    0  0.20143189689E+03 -0.68226043278E+02 -0.16855746176E+03  0.27136917692E+03  0.10100000352E+00 0.  1.
       -3    1    3    3    0  502 -0.20143189689E+03  0.68226043278E+02 -0.69299717172E+03  0.72489633209E+03  0.10100000352E+00 0. -1.
</event>
<event>
 5   0  0.4451135E-02  0.4941035E+03  0.7818609E-02  0.1015330E+00
        2   -1    0    0  501    0  0.00000000000E+00  0.00000000000E+00  0.62453193650E+03  0.62453193650E+03  0.25500000920E-02 0.  1.
       -2   -1    0    0    0  501  0.00000000000E+00  0.00000000000E+00 -0.97728492831E+02  0.97728492864E+02  0.25500000920E-02 0. -1.
    10030    2    1    2    0    0  0.00000000000E+00  0.00000000000E+00  0.52680344367E+03  0.72226042937E+03  0.49410349075E+03 0.  0.
        1    1    3    3  502    0 -0.23221065100E+03 -0.56545818284E+02  0.17193541753E+03  0.29441637834E+03  0.50400001928E-02 0. -1.
       -1    1    3    3    0  502  0.23221065100E+03  0.56545818284E+02  0.35486802613E+03  0.42784405103E+03  0.50400001928E-02 0.  1.
</event>
<event>
 5   0  0.4409622E-02  0.4989194E+03  0.7818609E-02  0.1014061E+00
       -2   -1    0    0    0  501  0.00000000000E+00  0.00000000000E+00  0.27110445006E+03  0.27110445007E+03  0.25500000920E-02 0. -1.
        2   -1    0    0  501    0  0.00000000000E+00  0.00000000000E+00 -0.22954302134E+03  0.22954302136E+03  0.25500000920E-02 0.  1.
    10030    2    1    2    0    0  0.00000000000E+00  0.00000000000E+00  0.41561428713E+02  0.50064747143E+03  0.49891937053E+03 0.  0.
        3    1    3    3  502    0 -0.15862636825E+03 -0.58304310365E+02 -0.16334436455E+03  0.23503852650E+03  0.10100000352E+00 0.  1.
       -3    1    3    3    0  502  0.15862636825E+03  0.58304310365E+02  0.20490579326E+03  0.26560894492E+03  0.10100000352E+00 0. -1.
</event>
<event>
 5   0  0.4451135E-02  0.5029597E+03  0.7818609E-02  0.1013009E+00
        2   -1    0    0  501    0  0.00000000000E+00  0.00000000000E+00  0.16582131806E+04  0.16582131806E+04  0.25500000920E-02 0. -1.
       -2   -1    0    0    0  501  0.00000000000E+00  0.00000000000E+00 -0.38138710151E+02  0.38138710236E+02  0.25500000920E-02 0.  1.
    10030    2    1    2    0    0  0.00000000000E+00  0.00000000000E+00  0.16200744704E+04  0.16963518908E+04  0.50295968799E+03 0.  0.
        1    1    3    3  502    0 -0.10214342374E+03 -0.48009230934E+02  0.52078734566E+02  0.12429947662E+03  0.50400001928E-02 0.  1.
       -1    1    3    3    0  502  0.10214342374E+03  0.48009230934E+02  0.15679957358E+04  0.15720524142E+04  0.50400001928E-02 0. -1.
</event>
<event>
 5   0  0.1805500E-02  0.5048099E+03  0.7818609E-02  0.1012531E+00
        3   -1    0    0  501    0  0.00000000000E+00  0.00000000000E+00  0.10850676110E+04  0.10850676157E+04  0.10100000352E+00 0.  1.
       -3   -1    0    0    0  501  0.00000000000E+00  0.00000000000E+00 -0.58713570858E+02  0.58713657728E+02  0.10100000352E+00 0. -1.
    10030    2    1    2    0    0  0.00000000000E+00  0.00000000000E+00  0.10263540402E+04  0.11437812734E+04  0.50480985107E+03 0.  0.
        4    1    3    3  502    0  0.96008635453E+02 -0.10837655865E+03  0.44741104440E+02  0.15154707477E+03  0.12699999809E+01 0. -1.
       -4    1    3    3    0  502 -0.96008635453E+02  0.10837655865E+03  0.98161293571E+03  0.99223419867E+03  0.12699999809E+01 0.  1.
</event>
<event>
 5   0  0.4409622E-02  0.5001951E+03  0.7818609E-02  0.1013728E+00
        2   -1    0    0  501    0  0.00000000000E+00  0.00000000000E+00  0.17934483471E+04  0.17934483471E+04  0.25500000920E-02 0.  1.
       -2   -1    0    0    0  501  0.00000000000E+00  0.00000000000E+00 -0.34876263273E+02  0.34876263366E+02  0.25500000920E-02 0. -1.
    10030    2    1    2    0    0  0.00000000000E+00  0.00000000000E+00  0.17585720838E+04  0.18283246105E+04  0.50019506917E+03 0.  0.
        3    1    3    3  502    0  0.53376256265E+02 -0.70530756755E+02  0.17343673167E+04  0.17366213208E+04  0.10100000352E+00 0.  1.
       -3    1    3    3    0  502 -0.53376256265E+02  0.70530756755E+02  0.24204767098E+02  0.91703289650E+02  0.10100000352E+00 0. -1.
</event>
<event>
 5   0  0.4631619E-02  0.4996020E+03  0.7818609E-02  0.1013883E+00
        2   -1    0    0  501    0  0.00000000000E+00  0.00000000000E+00  0.11061535589E+04  0.11061535589E+04  0.25500000920E-02 0.  1.
       -2   -1    0    0    0  501  0.00000000000E+00  0.00000000000E+00 -0.56412181684E+02  0.56412181742E+02  0.25500000920E-02 0. -1.
    10030    2    1    2    0    0  0.00000000000E+00  0.00000000000E+00  0.10497413772E+04  0.11625657406E+04  0.49960198386E+03 0.  0.
        5    1    3    3  502    0 -0.20687151186E+02 -0.14749619878E+03  0.58338814477E+02  0.16002685447E+03  0.46999998093E+01 0. -1.
       -5    1    3    3    0  502  0.20687151186E+02  0.14749619878E+03  0.99140256272E+03  0.10025388862E+04  0.46999998093E+01 0.  1.
</event>
<event>
 5   0  0.1805500E-02  0.4984237E+03  0.7818609E-02  0.1014191E+00
        4   -1    0    0  501    0  0.00000000000E+00  0.00000000000E+00  0.36993291464E+03  0.36993509462E+03  0.12699999809E+01 0.  1.
       -4   -1    0    0    0  501  0.00000000000E+00  0.00000000000E+00 -0.16788086189E+03  0.16788566553E+03  0.12699999809E+01 0. -1.
    10030    2    1    2    0    0  0.00000000000E+00  0.00000000000E+00  0.20205205275E+03  0.53782076015E+03  0.49842365316E+03 0.  0.
        4    1    3    3  502    0 -0.20247977953E+03  0.14381521020E+03  0.78805962511E+02  0.26056259983E+03  0.12699999809E+01 0. -1.
       -4    1    3    3    0  502  0.20247977953E+03 -0.14381521020E+03  0.12324609023E+03  0.27725816032E+03  0.12699999809E+01 0.  1.
</event>
<event>
 5   0  0.2643185E-02  0.5003615E+03  0.7818609E-02  0.1013685E+00
       -1   -1    0    0    0  501  0.00000000000E+00  0.00000000000E+00  0.52180186965E+02  0.52180187208E+02  0.50400001928E-02 0. -1.
        1   -1    0    0  501    0  0.00000000000E+00  0.00000000000E+00 -0.11995053948E+04  0.11995053948E+04  0.50400001928E-02 0.  1.
    10030    2    1    2    0    0  0.00000000000E+00  0.00000000000E+00 -0.11473252078E+04  0.12516855820E+04  0.50036153299E+03 0.  0.
        1    1    3    3  502    0  0.11782883107E+03  0.58631959239E+01 -0.21772330447E+02  0.11996684915E+03  0.50400001928E-02 0. -1.
       -1    1    3    3    0  502 -0.11782883107E+03 -0.58631959239E+01 -0.11255528774E+04  0.11317187328E+04  0.50400001928E-02 0.  1.
</event>
<event>
 5   0  0.4451135E-02  0.5054036E+03  0.7818609E-02  0.1012378E+00
        2   -1    0    0  501    0  0.00000000000E+00  0.00000000000E+00  0.42111460771E+03  0.42111460772E+03  0.25500000920E-02 0. -1.
       -2   -1    0    0    0  501  0.00000000000E+00  0.00000000000E+00 -0.15164092965E+03  0.15164092967E+03  0.25500000920E-02 0.  1.
    10030    2    1    2    0    0  0.00000000000E+00  0.00000000000E+00  0.26947367806E+03  0.57275553739E+03  0.50540364308E+03 0.  0.
        1    1    3    3  502    0 -0.28094535607E+02  0.22777655276E+03  0.14874461372E+02  0.22998415281E+03  0.50400001928E-02 0. -1.
       -1    1    3    3    0  502  0.28094535607E+02 -0.22777655276E+03  0.25459921669E+03  0.34277138457E+03  0.50400001928E-02 0.  1.
</event>
<event>
 5   0  0.2779445E-02  0.4962938E+03  0.7818609E-02  0.1014751E+00
       -1   -1    0    0    0  501  0.00000000000E+00  0.00000000000E+00  0.97316926630E+02  0.97316926761E+02  0.50400001928E-02 0.  1.
        1   -1    0    0  501    0  0.00000000000E+00  0.00000000000E+00 -0.63274581092E+03  0.63274581094E+03  0.50400001928E-02 0. -1.
    10030    2    1    2    0    0  0.00000000000E+00  0.00000000000E+00 -0.53542888429E+03  0.73006273770E+03  0.49629377474E+03 0.  0.
        3    1    3    3  502    0 -0.75869769781E+02  0.21715699766E+03 -0.13079420534E+03  0.26461390355E+03  0.10100000352E+00 0.  1.
       -3    1    3    3    0  502  0.75869769781E+02 -0.21715699766E+03 -0.40463467895E+03  0.46544883415E+03  0.10100000352E+00 0. -1.
</event>
<event>
 5   0  0.1805500E-02  0.5003507E+03  0.7818609E-02  0.1013687E+00
       -3   -1    0    0    0  501  0.00000000000E+00  0.00000000000E+00  0.25952861782E+03  0.25952863747E+03  0.10100000352E+00 0. -1.
        3   -1    0    0  501    0  0.00000000000E+00  0.00000000000E+00 -0.24115909328E+03  0.24115911443E+03  0.10100000352E+00 0.  1.
    10030    2    1    2    0    0  0.00000000000E+00  0.00000000000E+00  0.18369524534E+02  0.50068775191E+03  0.50035066251E+03 0.  0.
        5    1    3    3  502    0  0.18932061582E+03 -0.16074066202E+03  0.38966371373E+02  0.25143652101E+03  0.46999998093E+01 0. -1.
       -5    1    3    3    0  502 -0.18932061582E+03  0.16074066202E+03 -0.20596846839E+02  0.24925123089E+03  0.46999998093E+01 0.  1.
</event>
<event>
 5   0  0.2719671E-02  0.4993218E+03  0.7818609E-02  0.1013956E+00
       -1   -1    0    0    0  501  0.00000000000E+00  0.00000000000E+00  0.15450441181E+03  0.15450441190E+03  0.50400001928E-02 0.  1.
        1   -1    0    0  501    0  0.00000000000E+00  0.00000000000E+00 -0.40342249906E+03  0.40342249910E+03  0.50400001928E-02 0. -1.
    10030    2    1    2    0    0  0.00000000000E+00  0.00000000000E+00 -0.24891808725E+03  0.55792691099E+03  0.49932176385E+03 0.  0.
        2    1    3    3  502    0 -0.90866489237E+02  0.27798753523E+01  0.13535305625E+03  0.16304875472E+03  0.25500000920E-02 0.  1.
       -2    1    3    3    0  502  0.90866489237E+02 -0.27798753523E+01 -0.38427114350E+03  0.39487815628E+03  0.25500000920E-02 0. -1.
</event>
<event>
 5   0  0.2723308E-02  0.5011597E+03  0.7818609E-02  0.1013477E+00
       -1   -1    0    0    0  501  0.00000000000E+00  0.00000000000E+00  0.56854300738E+02  0.56854300961E+02  0.50400001928E-02 0.  1.
        1   -1    0    0  501    0  0.00000000000E+00  0.00000000000E+00 -0.11044064590E+04  0.11044064590E+04  0.50400001928E-02 0. -1.
    10030    2    1    2    0    0  0.00000000000E+00  0.00000000000E+00 -0.10475521583E+04  0.11612607600E+04  0.50115968351E+03 0.  0.
        4    1    3    3  502    0  0.13716406634E+03  0.19945254299E+03 -0.67382538265E+03  0.71598712084E+03  0.12699999809E+01 0. -1.
       -4    1    3    3    0  502 -0.13716406634E+03 -0.19945254299E+03 -0.37372677560E+03  0.44527363913E+03  0.12699999809E+01 0.  1.
</event>
<event>
 5   0  0.4519539E-02  0.4993342E+03  0.7818609E-02  0.1013953E+00
       -2   -1    0    0    0  501  0.00000000000E+00  0.00000000000E+00  0.27442462734E+03  0.27442462735E+03  0.25500000920E-02 0. -1.
        2   -1    0    0  501    0  0.00000000000E+00  0.00000000000E+00 -0.22714312892E+03  0.22714312894E+03  0.25500000920E-02 0.  1.
    10030    2    1    2    0    0  0.00000000000E+00  0.00000000000E+00  0.47281498421E+02  0.50156775629E+03  0.49933423081E+03 0.  0.
        4    1    3    3  502    0 -0.33652706870E+02 -0.99594412460E+02  0.25110566090E+03  0.27222640855E+03  0.12699999809E+01 0. -1.
       -4    1    3    3    0  502  0.33652706870E+02  0.99594412460E+02 -0.20382416248E+03  0.22934134774E+03  0.12699999809E+01 0.  1.
</event>
<event>
 5   0  0.2715483E-02  0.4887873E+03  0.7818609E-02  0.1016748E+00
        1   -1    0    0  501    0  0.00000000000E+00  0.00000000000E+00  0.23999783336E+03  0.23999783341E+03  0.50400001928E-02 0.  1.
       -1   -1    0    0    0  501  0.00000000000E+00  0.00000000000E+00 -0.24886998027E+03  0.24886998032E+03  0.50400001928E-02 0. -1.
    10030    2    1    2    0    0  0.00000000000E+00  0.00000000000E+00 -0.88721469081E+01  0.48886781374E+03  0.48878729967E+03 0.  0.
        5    1    3    3  502    0 -0.19375149227E+03  0.57311201237E+02  0.13299817482E+03  0.24193970126E+03  0.46999998093E+01 0.  1.
       -5    1    3    3    0  502  0.19375149227E+03 -0.57311201237E+02 -0.14187032173E+03  0.24692811247E+03  0.46999998093E+01 0. -1.
</event>
<event>
 5   0  0.1805500E-02  0.4965649E+03  0.7818609E-02  0.1014679E+00
        3   -1    0    0  501    0  0.00000000000E+00  0.00000000000E+00  0.21952190949E+03  0.21952193273E+03  0.10100000352E+00 0. -1.
       -3   -1    0    0    0  501  0.00000000000E+00  0.00000000000E+00 -0.28081096814E+03  0.28081098630E+03  0.10100000352E+00 0.  1.
    10030    2    1    2    0    0  0.00000000000E+00  0.00000000000E+00 -0.61289058646E+02  0.50033291903E+03  0.49656488111E+03 0.  0.
        5    1    3    3  502    0 -0.93509920493E+02  0.17815032054E+03 -0.17714535441E+03  0.26811230581E+03  0.46999998093E+01 0.  1.
       -5    1    3    3    0  502  0.93509920493E+02 -0.17815032054E+03  0.11585629576E+03  0.23222061322E+03  0.46999998093E+01 0. -1.
</event>
<event>
 5   0  0.2779445E-02  0.4970230E+03  0.7818609E-02  0.1014559E+00
        1   -1    0    0  501    0  0.00000000000E+00  0.00000000000E+00  0.30072022764E+03  0.30072022769E+03  0.50400001928E-02 0.  1.
       -1   -1    0    0    0  501  0.00000000000E+00  0.00000000000E+00 -0.20536686799E+03  0.20536686805E+03  0.50400001928E-02 0. -1.
    10030    2    1    2    0    0  0.00000000000E+00  0.00000000000E+00  0.95353359655E+02  0.50608709574E+03  0.49702302288E+03 0.  0.
        3    1    3    3  502    0  0.23986999645E+03 -0.64695417814E+02  0.53687626721E+02  0.25417608807E+03  0.10100000352E+00 0.  1.
       -3    1    3    3    0  502 -0.23986999645E+03  0.64695417814E+02  0.41665732935E+02  0.25191100767E+03  0.10100000352E+00 0. -1.
</event>
<event>
 5   0  0.2715483E-02  0.4999763E+03  0.7818609E-02  0.1013785E+00
        1   -1    0    0  501    0  0.00000000000E+00  0.00000000000E+00  0.24893666005E+03  0.24893666011E+03  0.50400001928E-02 0.  1.
       -1   -1    0    0    0  501  0.00000000000E+00  0.00000000000E+00 -0.25104404648E+03  0.25104404653E+03  0.50400001928E-02 0. -1.
    10030    2    1    2    0    0  0.00000000000E+00  0.00000000000E+00 -0.21073864208E+01  0.49998070663E+03  0.49997626536E+03 0.  0.
        5    1    3    3  502    0  0.16465764445E+03 -0.16512507252E+03 -0.91018635400E+02  0.25036954974E+03  0.46999998093E+01 0. -1.
       -5    1    3    3    0  502 -0.16465764445E+03  0.16512507252E+03  0.88911248980E+02  0.24961115689E+03  0.46999998093E+01 0.  1.
</event>
<event>
 5   0  0.4631619E-02  0.4992707E+03  0.7818609E-02  0.1013969E+00
        2   -1    0    0  501    0  0.00000000000E+00  0.00000000000E+00  0.10815199968E+04  0.10815199968E+04  0.25500000920E-02 0.  1.
       -2   -1    0    0    0  501  0.00000000000E+00  0.00000000000E+00 -0.57620588341E+02  0.57620588398E+02  0.25500000920E-02 0. -1.
    10030    2    1    2    0    0  0.00000000000E+00  0.00000000000E+00  0.10238994085E+04  0.11391405852E+04  0.49927074240E+03 0.  0.
        5    1    3    3  502    0  0.17866981115E+03 -0.15899622992E+03  0.67477772932E+03  0.71592581776E+03  0.46999998093E+01 0.  1.
       -5    1    3    3    0  502 -0.17866981115E+03  0.15899622992E+03  0.34912167916E+03  0.42321476747E+03  0.46999998093E+01 0. -1.
</event>
<event>
 5   0  0.4451135E-02  0.4982591E+03  0.7818609E-02  0.1014234E+00
       -2   -1    0    0    0  501  0.00000000000E+00  0.00000000000E+00  0.16726988754E+03  0.16726988756E+03  0.25500000920E-02 0.  1.
        2   -1    0    0  501    0  0.00000000000E+00  0.00000000000E+00 -0.37105019459E+03  0.37105019460E+03  0.25500000920E-02 0. -1.
    10030    2    1    2    0    0  0.00000000000E+00  0.00000000000E+00 -0.20378030705E+03  0.53832008216E+03  0.49825906647E+03 0.  0.
        1    1    3    3  502    0  0.58420119492E+02 -0.19456322328E+03 -0.25769957545E+03  0.32814147776E+03  0.50400001928E-02 0. -1.
       -1    1    3    3    0  502 -0.58420119492E+02  0.19456322328E+03  0.53919268405E+02  0.21017860440E+03  0.50400001928E-02 0.  1.
</event>
<event>
 5   0  0.2719671E-02  0.4985969E+03  0.7818609E-02  0.1014146E+00
       -1   -1    0    0    0  501  0.00000000000E+00  0.00000000000E+00  0.48542032706E+03  0.48542032709E+03  0.50400001928E-02 0.  1.
        1   -1    0    0  501    0  0.00000000000E+00  0.00000000000E+00 -0.12803279661E+03  0.12803279671E+03  0.50400001928E-02 0. -1.
    10030    2    1    2    0    0  0.00000000000E+00  0.00000000000E+00  0.35738753046E+03  0.61345312379E+03  0.49859691953E+03 0.  0.
        2    1    3    3  502    0 -0.21348657427E+03 -0.11751830237E+03  0.24336259180E+03  0.34440153873E+03  0.25500000920E-02 0. -1.
       -2    1    3    3    0  502  0.21348657427E+03  0.11751830237E+03  0.11402493865E+03  0.26905158506E+03  0.25500000920E-02 0.  1.
</event>
<event>
 5   0  0.1805500E-02  0.5009148E+03  0.7818609E-02  0.1013540E+00
        4   -1    0    0  501    0  0.00000000000E+00  0.00000000000E+00  0.81749877217E+02  0.81759741468E+02  0.12699999809E+01 0. -1.
       -4   -1    0    0    0  501  0.00000000000E+00  0.00000000000E+00 -0.76727047289E+03  0.76727152396E+03  0.12699999809E+01 0.  1.
    10030    2    1    2    0    0  0.00000000000E+00  0.00000000000E+00 -0.68552059568E+03  0.84903126542E+03  0.50091476577E+03 0.  0.
        2    1    3    3  502    0  0.18309177933E+03  0.14646609619E+03 -0.49201302995E+03  0.54502453031E+03  0.25500000920E-02 0.  1.
       -2    1    3    3    0  502 -0.18309177933E+03 -0.14646609619E+03 -0.19350756573E+03  0.30400673511E+03  0.25500000920E-02 0. -1.
</event>
<event>
 5   0  0.4451135E-02  0.5008787E+03  0.7818609E-02  0.1013550E+00
       -2   -1    0    0    0  501  0.00000000000E+00  0.00000000000E+00  0.11142240733E+03  0.11142240736E+03  0.25500000920E-02 0.  1.
        2   -1    0    0  501    0  0.00000000000E+00  0.00000000000E+00 -0.56290168410E+03  0.56290168411E+03  0.25500000920E-02 0. -1.
    10030    2    1    2    0    0  0.00000000000E+00  0.00000000000E+00 -0.45147927678E+03  0.67432409146E+03  0.50087867091E+03 0.  0.
        1    1    3    3  502    0  0.61702439538E+02  0.10610452184E+03 -0.51963186328E+03  0.53393130079E+03  0.50400001928E-02 0. -1.
       -1    1    3    3    0  502 -0.61702439538E+02 -0.10610452184E+03  0.68152586508E+02  0.14039279067E+03  0.50400001928E-02 0.  1.
</event>
<event>
 5   0  0.2715483E-02  0.5024661E+03  0.7818609E-02  0.1013137E+00
        1   -1    0    0  501    0  0.00000000000E+00  0.00000000000E+00  0.28112550347E+03  0.28112550351E+03  0.50400001928E-02 0.  1.
       -1   -1    0    0    0  501  0.00000000000E+00  0.00000000000E+00 -0.22451912159E+03  0.22451912164E+03  0.50400001928E-02 0. -1.
    10030    2    1    2    0    0  0.00000000000E+00  0.00000000000E+00  0.56606381882E+02  0.50564462515E+03  0.50246612272E+03 0.  0.
        5    1    3    3  502    0  0.26137772693E+02  0.22957699822E+03  0.12745146240E+03  0.26392185688E+03  0.46999998093E+01 0. -1.
       -5    1    3    3    0  502 -0.26137772693E+02 -0.22957699822E+03 -0.70845080522E+02  0.24172276828E+03  0.46999998093E+01 0.  1.
</event>
<event>
 5   0  0.4451135E-02  0.4991033E+03  0.7818609E-02  0.1014013E+00
       -2   -1    0    0    0  501  0.00000000000E+00  0.00000000000E+00  0.15838696146E+03  0.15838696148E+03  0.25500000920E-02 0. -1.
        2   -1    0    0  501    0  0.00000000000E+00  0.00000000000E+00 -0.39318912630E+03  0.39318912631E+03  0.25500000920E-02 0.  1.
    10030    2    1    2    0    0  0.00000000000E+00  0.00000000000E+00 -0.23480216484E+03  0.55157608779E+03  0.49910331997E+03 0.  0.
        1    1    3    3  502    0  0.18007928294E+03  0.17180739943E+02  0.72580128550E+02  0.19491434287E+03  0.50400001928E-02 0. -1.
       -1    1    3    3    0  502 -0.18007928294E+03 -0.17180739943E+02 -0.30738229339E+03  0.35666174492E+03  0.50400001928E-02 0.  1.
</event>
<event>
 5   0  0.4409622E-02  0.5025162E+03  0.7818609E-02  0.1013124E+00
       -2   -1    0    0    0  501  0.00000000000E+00  0.00000000000E+00  0.99877526100E+03  0.99877526100E+03  0.25500000920E-02 0.  1.
        2   -1    0    0  501    0  0.00000000000E+00  0.00000000000E+00 -0.63208056303E+02  0.63208056354E+02  0.25500000920E-02 0. -1.
    10030    2    1    2    0    0  0.00000000000E+00  0.00000000000E+00  0.93556720469E+03  0.10619833174E+04  0.50251624037E+03 0.  0.
        3    1    3    3  502    0  0.96718373673E+02 -0.80910929011E+02  0.92706068443E+03  0.93559742681E+03  0.10100000352E+00 0.  1.
       -3    1    3    3    0  502 -0.96718373673E+02  0.80910929011E+02  0.85065202597E+01  0.12638589054E+03  0.10100000352E+00 0. -1.
</event>
<event>
 5   0  0.2723308E-02  0.4714399E+03  0.7818609E-02  0.1021515E+00
        1   -1    0    0  501    0  0.00000000000E+00  0.00000000000E+00  0.10158556912E+04  0.10158556912E+04  0.50400001928E-02 0.  1.
       -1   -1    0    0    0  501  0.00000000000E+00  0.00000000000E+00 -0.54696649654E+02  0.54696649886E+02  0.50400001928E-02 0. -1.
    10030    2    1    2    0    0  0.00000000000E+00  0.00000000000E+00  0.96115904153E+03  0.10705523411E+04  0.47143993454E+03 0.  0.
        4    1    3    3  502    0 -0.20740879338E+03 -0.11129357374E+03  0.50908912922E+03  0.56087255372E+03  0.12699999809E+01 0. -1.
       -4    1    3    3    0  502  0.20740879338E+03  0.11129357374E+03  0.45206991231E+03  0.50967978736E+03  0.12699999809E+01 0.  1.
</event>
<event>
 5   0  0.2723308E-02  0.5000960E+03  0.7818609E-02  0.1013754E+00
       -1   -1    0    0    0  501  0.00000000000E+00  0.00000000000E+00  0.97157315427E+02  0.97157315558E+02  0.50400001928E-02 0. -1.
        1   -1    0    0  501    0  0.00000000000E+00  0.00000000000E+00 -0.64353354280E+03  0.64353354282E+03  0.50400001928E-02 0.  1.
    10030    2    1    2    0    0  0.00000000000E+00  0.00000000000E+00 -0.54637622737E+03  0.74069085837E+03  0.50009595664E+03 0.  0.
        4    1    3    3  502    0 -0.21836483793E+03 -0.11967721726E+03 -0.30684977381E+03  0.39517620799E+03  0.12699999809E+01 0.  1.
       -4    1    3    3    0  502  0.21836483793E+03  0.11967721726E+03 -0.23952645356E+03  0.34551465038E+03  0.12699999809E+01 0. -1.
</event>
<event>
 5   0  0.2643185E-02  0.4994508E+03  0.7818609E-02  0.1013922E+00
        1   -1    0    0  501    0  0.00000000000E+00  0.00000000000E+00  0.15022760388E+03  0.15022760396E+03  0.50400001928E-02 0.  1.
       -1   -1    0    0    0  501  0.00000000000E+00  0.00000000000E+00 -0.41512196936E+03  0.41512196939E+03  0.50400001928E-02 0. -1.
    10030    2    1    2    0    0  0.00000000000E+00  0.00000000000E+00 -0.26489436548E+03  0.56534957335E+03  0.49945081362E+03 0.  0.
        1    1    3    3  502    0 -0.14125760497E+03  0.13713798742E+02  0.10014151073E+03  0.17369542722E+03  0.50400001928E-02 0.  1.
       -1    1    3    3    0  502  0.14125760497E+03 -0.13713798742E+02 -0.36503587621E+03  0.39165414614E+03  0.50400001928E-02 0. -1.
</event>
<event>
 5   0  0.4631619E-02  0.5012773E+03  0.7818609E-02  0.1013446E+00
        2   -1    0    0  501    0  0.00000000000E+00  0.00000000000E+00  0.29031618114E+03  0.29031618115E+03  0.25500000920E-02 0. -1.
       -2   -1    0    0    0  501  0.00000000000E+00  0.00000000000E+00 -0.21638386378E+03  0.21638386379E+03  0.25500000920E-02 0.  1.
    10030    2    1    2    0    0  0.00000000000E+00  0.00000000000E+00  0.73932317360E+02  0.50670004494E+03  0.50127731646E+03 0.  0.
        5    1    3    3  502    0 -0.18621676737E+03 -0.15184337290E+03  0.10890168669E+03  0.26384609473E+03  0.46999998093E+01 0. -1.
       -5    1    3    3    0  502  0.18621676737E+03  0.15184337290E+03 -0.34969369334E+02  0.24285395021E+03  0.46999998093E+01 0.  1.
</event>
<event>
 5   0  0.2643185E-02  0.5109081E+03  0.7818609E-02  0.1010970E+00
        1   -1    0    0  501    0  0.00000000000E+00  0.00000000000E+00  0.21065042839E+04  0.21065042839E+04  0.50400001928E-02 0. -1.
       -1   -1    0    0    0  501  0.00000000000E+00  0.00000000000E+00 -0.30978697834E+02  0.30978698244E+02  0.50400001928E-02 0.  1.
    10030    2    1    2    0    0  0.00000000000E+00  0.00000000000E+00  0.20755255861E+04  0.21374829822E+04  0.51090805491E+03 0.  0.
        1    1    3    3  502    0  0.25479769775E+03  0.16250286042E+02  0.10025546913E+04  0.10345539365E+04  0.50400001928E-02 0. -1.
       -1    1    3    3    0  502 -0.25479769775E+03 -0.16250286042E+02  0.10729708948E+04  0.11029290456E+04  0.50400001928E-02 0.  1.
</event>
<event>
 5   0  0.1805500E-02  0.4971749E+03  0.7818609E-02  0.1014519E+00
       -3   -1    0    0    0  501  0.00000000000E+00  0.00000000000E+00  0.36313726731E+03  0.36313728135E+03  0.10100000352E+00 0. -1.
        3   -1    0    0  501    0  0.00000000000E+00  0.00000000000E+00 -0.17017178725E+03  0.17017181722E+03  0.10100000352E+00 0.  1.
    10030    2    1    2    0    0  0.00000000000E+00  0.00000000000E+00  0.19296548006E+03  0.53330909858E+03  0.49717493715E+03 0.  0.
        2    1    3    3  502    0  0.61594040873E+00 -0.64300423683E+02 -0.16109606180E+03  0.17345565716E+03  0.25500000920E-02 0.  1.
       -2    1    3    3    0  502 -0.61594040873E+00  0.64300423683E+02  0.35406154185E+03  0.35985344141E+03  0.25500000920E-02 0. -1.
</event>
<event>
 5   0  0.4631619E-02  0.4983893E+03  0.7818609E-02  0.1014200E+00
       -2   -1    0    0    0  501  0.00000000000E+00  0.00000000000E+00  0.35662034665E+03  0.35662034666E+03  0.25500000920E-02 0.  1.
        2   -1    0    0  501    0  0.00000000000E+00  0.00000000000E+00 -0.17412905901E+03  0.17412905903E+03  0.25500000920E-02 0. -1.
    10030    2    1    2    0    0  0.00000000000E+00  0.00000000000E+00  0.18249128764E+03  0.53074940568E+03  0.49838926711E+03 0.  0.
        5    1    3    3  502    0  0.21210281467E+03 -0.10390570184E+03  0.67740028221E+01  0.23633022654E+03  0.46999998093E+01 0.  1.
       -5    1    3    3    0  502 -0.21210281467E+03  0.10390570184E+03  0.17571728481E+03  0.29441917914E+03  0.46999998093E+01 0. -1.
</event>
<event>
 5   0  0.4451135E-02  0.5040692E+03  0.7818609E-02  0.1012722E+00
        2   -1    0    0  501    0  0.00000000000E+00  0.00000000000E+00  0.44172581318E+03  0.44172581319E+03  0.25500000920E-02 0. -1.
       -2   -1    0    0    0  501  0.00000000000E+00  0.00000000000E+00 -0.14380289435E+03  0.14380289437E+03  0.25500000920E-02 0.  1.
    10030    2    1    2    0    0  0.00000000000E+00  0.00000000000E+00  0.29792291883E+03  0.58552870756E+03  0.50406924307E+03 0.  0.
        1    1    3    3  502    0 -0.24163008222E+03  0.16772022356E+01  0.65734025940E+02  0.25041739523E+03  0.50400001928E-02 0. -1.
       -1    1    3    3    0  502  0.24163008222E+03 -0.16772022356E+01  0.23218889289E+03  0.33511131233E+03  0.50400001928E-02 0.  1.
</event>
<event>
 5   0  0.4519539E-02  0.4997278E+03  0.7818609E-02  0.1013850E+00
        2   -1    0    0  501    0  0.00000000000E+00  0.00000000000E+00  0.81993862061E+03  0.81993862061E+03  0.25500000920E-02 0.  1.
       -2   -1    0    0    0  501  0.00000000000E+00  0.00000000000E+00 -0.76142256784E+02  0.76142256827E+02  0.25500000920E-02 0. -1.
    10030    2    1    2    0    0  0.00000000000E+00  0.00000000000E+00  0.74379636382E+03  0.89608087744E+03  0.49972783400E+03 0.  0.
        4    1    3    3  502    0  0.43719214006E+02  0.17517841725E+03  0.68160540640E+03  0.70511445204E+03  0.12699999809E+01 0.  1.
       -4    1    3    3    0  502 -0.43719214006E+02 -0.17517841725E+03  0.62190957425E+02  0.19096642540E+03  0.12699999809E+01 0. -1.
</event>
<event>
 5   0  0.4631619E-02  0.5062532E+03  0.7818609E-02  0.1012160E+00
        2   -1    0    0  501    0  0.00000000000E+00  0.00000000000E+00  0.15498839356E+04  0.15498839356E+04  0.25500000920E-02 0. -1.
       -2   -1    0    0    0  501  0.00000000000E+00  0.00000000000E+00 -0.41340564374E+02  0.41340564453E+02  0.25500000920E-02 0.  1.
    10030    2    1    2    0    0  0.00000000000E+00  0.00000000000E+00  0.15085433712E+04  0.15912245000E+04  0.50625320414E+03 0.  0.
        5    1    3    3  502    0  0.17743337547E+03 -0.10465532261E+03  0.12163842702E+04  0.12337131441E+04  0.46999998093E+01 0. -1.
       -5    1    3    3    0  502 -0.17743337547E+03  0.10465532261E+03  0.29215910100E+03  0.35751135587E+03  0.46999998093E+01 0.  1.
</event>
<event>
 5   0  0.2723308E-02  0.4854517E+03  0.7818609E-02  0.1017648E+00
       -1   -1    0    0    0  501  0.00000000000E+00  0.00000000000E+00  0.20119242804E+03  0.20119242810E+03  0.50400001928E-02 0.  1.
        1   -1    0    0  501    0  0.00000000000E+00  0.00000000000E+00 -0.29283329655E+03  0.29283329660E+03  0.50400001928E-02 0. -1.
    10030    2    1    2    0    0  0.00000000000E+00  0.00000000000E+00 -0.91640868515E+02  0.49402572470E+03  0.48545171529E+03 0.  0.
        4    1    3    3  502    0 -0.88468952303E+02 -0.55718262883E+02 -0.26873938524E+03  0.28836392011E+03  0.12699999809E+01 0. -1.
       -4    1    3    3    0  502  0.88468952303E+02  0.55718262883E+02  0.17709851673E+03  0.20566180459E+03  0.12699999809E+01 0.  1.
</event>
<event>
 5   0  0.4451135E-02  0.4977443E+03  0.7818609E-02  0.1014369E+00
       -2   -1    0    0    0  501  0.00000000000E+00  0.00000000000E+00  0.26892072310E+03  0.26892072312E+03  0.25500000920E-02 0. -1.
        2   -1    0    0  501    0  0.00000000000E+00  0.00000000000E+00 -0.23031825336E+03  0.23031825338E+03  0.25500000920E-02 0.  1.
    10030    2    1    2    0    0  0.00000000000E+00  0.00000000000E+00  0.38602469741E+02  0.49923897649E+03  0.49774431688E+03 0.  0.
        1    1    3    3  502    0 -0.20630194468E+03 -0.54766928547E+01 -0.12020945011E+03  0.23883215543E+03  0.50400001928E-02 0.  1.
       -1    1    3    3    0  502  0.20630194468E+03  0.54766928547E+01  0.15881191986E+03  0.26040682107E+03  0.50400001928E-02 0. -1.
</event>
<event>
 5   0  0.1805500E-02  0.5002732E+03  0.7818609E-02  0.1013708E+00
       -3   -1    0    0    0  501  0.00000000000E+00  0.00000000000E+00  0.24030305990E+03  0.24030308113E+03  0.10100000352E+00 0. -1.
        3   -1    0    0  501    0  0.00000000000E+00  0.00000000000E+00 -0.26037254102E+03  0.26037256061E+03  0.10100000352E+00 0.  1.
    10030    2    1    2    0    0  0.00000000000E+00  0.00000000000E+00 -0.20069481120E+02  0.50067564174E+03  0.50027323950E+03 0.  0.
        5    1    3    3  502    0  0.24436841342E+03 -0.73877860399E+01 -0.62762388802E+02  0.25245139791E+03  0.46999998093E+01 0. -1.
       -5    1    3    3    0  502 -0.24436841342E+03  0.73877860399E+01  0.42692907682E+02  0.24822424383E+03  0.46999998093E+01 0.  1.
</event>
<event>
 5   0  0.2723308E-02  0.5008589E+03  0.7818609E-02  0.1013555E+00
        1   -1    0    0  501    0  0.00000000000E+00  0.00000000000E+00  0.39767820557E+03  0.39767820560E+03  0.50400001928E-02 0.  1.
       -1   -1    0    0    0  501  0.00000000000E+00  0.00000000000E+00 -0.15770266230E+03  0.15770266238E+03  0.50400001928E-02 0. -1.
    10030    2    1    2    0    0  0.00000000000E+00  0.00000000000E+00  0.23997554327E+03  0.55538086797E+03  0.50085890942E+03 0.  0.
        4    1    3    3  502    0 -0.56514888895E+02 -0.10218078452E+03  0.36564013458E+03  0.38383481643E+03  0.12699999809E+01 0.  1.
       -4    1    3    3    0  502  0.56514888895E+02  0.10218078452E+03 -0.12566459131E+03  0.17154605154E+03  0.12699999809E+01 0. -1.
</event>
<event>
 5   0  0.2719671E-02  0.4987292E+03  0.7818609E-02  0.1014111E+00
        1   -1    0    0  501    0  0.00000000000E+00  0.00000000000E+00  0.86261673372E+03  0.86261673374E+03  0.50400001928E-02 0. -1.
       -1   -1    0    0    0  501  0.00000000000E+00  0.00000000000E+00 -0.72086143829E+02  0.72086144005E+02  0.50400001928E-02 0.  1.
    10030    2    1    2    0    0  0.00000000000E+00  0.00000000000E+00  0.79053058989E+03  0.93470287774E+03  0.49872924127E+03 0.  0.
        2    1    3    3  502    0  0.18593725614E+03 -0.90062456432E+02  0.65697073030E+03  0.68869038745E+03  0.25500000920E-02 0. -1.
       -2    1    3    3    0  502 -0.18593725614E+03  0.90062456432E+02  0.13355985959E+03  0.24601249029E+03  0.25500000920E-02 0.  1.
</event>
<event>
 5   0  0.1805500E-02  0.4973590E+03  0.7818609E-02  0.1014471E+00
       -4   -1    0    0    0  501  0.00000000000E+00  0.00000000000E+00  0.47435243344E+03  0.47435413354E+03  0.12699999809E+01 0.  1.
        4   -1    0    0  501    0  0.00000000000E+00  0.00000000000E+00 -0.13036530167E+03  0.13037148760E+03  0.12699999809E+01 0. -1.
    10030    2    1    2    0    0  0.00000000000E+00  0.00000000000E+00  0.34398713177E+03  0.60472562114E+03  0.49735895492E+03 0.  0.
        1    1    3    3  502    0 -0.92279052601E+02  0.10359411166E+03 -0.78943182909E+02  0.15962202126E+03  0.50400001928E-02 0. -1.
       -1    1    3    3    0  502  0.92279052601E+02 -0.10359411166E+03  0.42293031468E+03  0.44510359987E+03  0.50400001928E-02 0.  1.
</event>
<event>
 5   0  0.2723308E-02  0.4998504E+03  0.7818609E-02  0.1013818E+00
        1   -1    0    0  501    0  0.00000000000E+00  0.00000000000E+00  0.37969361462E+03  0.37969361465E+03  0.50400001928E-02 0.  1.
       -1   -1    0    0    0  501  0.00000000000E+00  0.00000000000E+00 -0.16450794704E+03  0.16450794712E+03  0.50400001928E-02 0. -1.
    10030    2    1    2    0    0  0.00000000000E+00  0.00000000000E+00  0.21518566758E+03  0.54420156177E+03  0.49985044594E+03 0.  0.
        4    1    3    3  502    0 -0.22076750476E+03 -0.75072657446E+02  0.96870618299E+01  0.23338733282E+03  0.12699999809E+01 0. -1.
       -4    1    3    3    0  502  0.22076750476E+03  0.75072657446E+02  0.20549860575E+03  0.31081422895E+03  0.12699999809E+01 0.  1.
</event>
<event>
 5   0  0.2723308E-02  0.5141037E+03  0.7818609E-02  0.1010162E+00
       -1   -1    0    0    0  501  0.00000000000E+00  0.00000000000E+00  0.36711198769E+03  0.36711198772E+03  0.50400001928E-02 0.  1.
        1   -1    0    0  501    0  0.00000000000E+00  0.00000000000E+00 -0.17998771489E+03  0.17998771497E+03  0.50400001928E-02 0. -1.
    10030    2    1    2    0    0  0.00000000000E+00  0.00000000000E+00  0.18712427279E+03  0.54709970269E+03  0.51410367749E+03 0.  0.
        4    1    3    3  502    0  0.44341798057E+02  0.23301902759E+03  0.19896433406E+03  0.30960051906E+03  0.12699999809E+01 0.  1.
       -4    1    3    3    0  502 -0.44341798057E+02 -0.23301902759E+03 -0.11840061268E+02  0.23749918363E+03  0.12699999809E+01 0. -1.
</event>
<event>
 5   0  0.4519539E-02  0.5016690E+03  0.7818609E-02  0.1013344E+00
       -2   -1    0    0    0  501  0.00000000000E+00  0.00000000000E+00  0.37160433907E+02  0.37160433995E+02  0.25500000920E-02 0.  1.
        2   -1    0    0  501    0  0.00000000000E+00  0.00000000000E+00 -0.16931435904E+04  0.16931435904E+04  0.25500000920E-02 0. -1.
    10030    2    1    2    0    0  0.00000000000E+00  0.00000000000E+00 -0.16559831565E+04  0.17303040244E+04  0.50166901664E+03 0.  0.
        4    1    3    3  502    0  0.43733450094E+02 -0.45147589581E+02  0.95450893625E+01  0.63589630703E+02  0.12699999809E+01 0.  1.
       -4    1    3    3    0  502 -0.43733450094E+02  0.45147589581E+02 -0.16655282459E+04  0.16667143937E+04  0.12699999809E+01 0. -1.
</event>
<event>
 5   0  0.4519539E-02  0.4996645E+03  0.7818609E-02  0.1013867E+00
        2   -1    0    0  501    0  0.00000000000E+00  0.00000000000E+00  0.10374629211E+03  0.10374629214E+03  0.25500000920E-02 0.  1.
       -2   -1    0    0    0  501  0.00000000000E+00  0.00000000000E+00 -0.60162307742E+03  0.60162307742E+03  0.25500000920E-02 0. -1.
    10030    2    1    2    0    0  0.00000000000E+00  0.00000000000E+00 -0.49787678530E+03  0.70536936957E+03  0.49966454165E+03 0.  0.
        4    1    3    3  502    0 -0.12993347608E+03 -0.82244071973E+02  0.29015904108E+02  0.15649386944E+03  0.12699999809E+01 0.  1.
       -4    1    3    3    0  502  0.12993347608E+03  0.82244071973E+02 -0.52689268941E+03  0.54887550012E+03  0.12699999809E+01 0. -1.
</event>
<event>
 5   0  0.2779445E-02  0.4982035E+03  0.7818609E-02  0.1014249E+00
        1   -1    0    0  501    0  0.00000000000E+00  0.00000000000E+00  0.29212885024E+03  0.29212885029E+03  0.50400001928E-02 0. -1.
       -1   -1    0    0    0  501  0.00000000000E+00  0.00000000000E+00 -0.21241205123E+03  0.21241205129E+03  0.50400001928E-02 0.  1.
    10030    2    1    2    0    0  0.00000000000E+00  0.00000000000E+00  0.79716799015E+02  0.50454090157E+03  0.49820352600E+03 0.  0.
        3    1    3    3  502    0 -0.14169716785E+03 -0.20194274042E+03  0.74833493864E+02  0.25779646971E+03  0.10100000352E+00 0.  1.
       -3    1    3    3    0  502  0.14169716785E+03  0.20194274042E+03  0.48833051508E+01  0.24674443187E+03  0.10100000352E+00 0. -1.
</event>
<event>
 5   0  0.4534223E-02  0.5008751E+03  0.7818609E-02  0.1013551E+00
       -2   -1    0    0    0  501  0.00000000000E+00  0.00000000000E+00  0.83846733304E+02  0.83846733343E+02  0.25500000920E-02 0.  1.
        2   -1    0    0  501    0  0.00000000000E+00  0.00000000000E+00 -0.74801920748E+03  0.74801920748E+03  0.25500000920E-02 0. -1.
    10030    2    1    2    0    0  0.00000000000E+00  0.00000000000E+00 -0.66417247417E+03  0.83186594082E+03  0.50087510225E+03 0.  0.
        2    1    3    3  502    0 -0.10676439458E+03  0.10589476698E+03 -0.66469369394E+03  0.68149104498E+03  0.25500000920E-02 0. -1.
       -2    1    3    3    0  502  0.10676439458E+03 -0.10589476698E+03  0.52121976393E+00  0.15037489584E+03  0.25500000920E-02 0.  1.
</event>
<event>
 5   0  0.2715483E-02  0.5029833E+03  0.7818609E-02  0.1013003E+00
        1   -1    0    0  501    0  0.00000000000E+00  0.00000000000E+00  0.24558218639E+03  0.24558218644E+03  0.50400001928E-02 0.  1.
       -1   -1    0    0    0  501  0.00000000000E+00  0.00000000000E+00 -0.25754327549E+03  0.25754327554E+03  0.50400001928E-02 0. -1.
    10030    2    1    2    0    0  0.00000000000E+00  0.00000000000E+00 -0.11961089104E+02  0.50312546199E+03  0.50298326299E+03 0.  0.
        5    1    3    3  502    0  0.23012787155E+03 -0.27701200987E+02 -0.10347479590E+03  0.25388051754E+03  0.46999998093E+01 0.  1.
       -5    1    3    3    0  502 -0.23012787155E+03  0.27701200987E+02  0.91513706798E+02  0.24924494445E+03  0.46999998093E+01 0. -1.
</event>
<event>
 5   0  0.4451135E-02  0.4999192E+03  0.7818609E-02  0.1013800E+00
       -2   -1    0    0    0  501  0.00000000000E+00  0.00000000000E+00  0.98441608664E+02  0.98441608697E+02  0.25500000920E-02 0. -1.
        2   -1    0    0  501    0  0.00000000000E+00  0.00000000000E+00 -0.63468894858E+03  0.63468894858E+03  0.25500000920E-02 0.  1.
    10030    2    1    2    0    0  0.00000000000E+00  0.00000000000E+00 -0.53624733991E+03  0.73313055728E+03  0.49991919792E+03 0.  0.
        1    1    3    3  502    0  0.84660975473E+02 -0.23041554853E+03 -0.19901137286E+03  0.31601318379E+03  0.50400001928E-02 0.  1.
       -1    1    3    3    0  502 -0.84660975473E+02  0.23041554853E+03 -0.33723596705E+03  0.41711737349E+03  0.50400001928E-02 0. -1.
</event>
<event>
 5   0  0.4519539E-02  0.4991201E+03  0.7818609E-02  0.1014009E+00
       -2   -1    0    0    0  501  0.00000000000E+00  0.00000000000E+00  0.31472218175E+03  0.31472218176E+03  0.25500000920E-02 0. -1.
        2   -1    0    0  501    0  0.00000000000E+00  0.00000000000E+00 -0.19788947197E+03  0.19788947199E+03  0.25500000920E-02 0.  1.
    10030    2    1    2    0    0  0.00000000000E+00  0.00000000000E+00  0.11683270978E+03  0.51261165375E+03  0.49912005117E+03 0.  0.
        4    1    3    3  502    0 -0.24404721910E+03  0.49137099397E+02  0.76355433673E+02  0.26039444087E+03  0.12699999809E+01 0.  1.
       -4    1    3    3    0  502  0.24404721910E+03 -0.49137099397E+02  0.40477276107E+02  0.25221721287E+03  0.12699999809E+01 0. -1.
</event>
<event>
 5   0  0.2779445E-02  0.5026612E+03  0.7818609E-02  0.1013087E+00
       -1   -1    0    0    0  501  0.00000000000E+00  0.00000000000E+00  0.34737766851E+02  0.34737767217E+02  0.50400001928E-02 0.  1.
        1   -1    0    0  501    0  0.00000000000E+00  0.00000000000E+00 -0.18183978000E+04  0.18183978000E+04  0.50400001928E-02 0. -1.
    10030    2    1    2    0    0  0.00000000000E+00  0.00000000000E+00 -0.17836600332E+04  0.18531355672E+04  0.50266123449E+03 0.  0.
        3    1    3    3  502    0 -0.40748858899E+02  0.10353293825E+02  0.21681217781E+02  0.47304815823E+02  0.10100000352E+00 0.  1.
       -3    1    3    3    0  502  0.40748858899E+02 -0.10353293825E+02 -0.18053412510E+04  0.18058307514E+04  0.10100000352E+00 0. -1.
</event>
<event>
 5   0  0.4519539E-02  0.5012612E+03  0.7818609E-02  0.1013450E+00
       -2   -1    0    0    0  501  0.00000000000E+00  0.00000000000E+00  0.13302808471E+03  0.13302808473E+03  0.25500000920E-02 0. -1.
        2   -1    0    0  501    0  0.00000000000E+00  0.00000000000E+00 -0.47219882968E+03  0.47219882969E+03  0.25500000920E-02 0.  1.
    10030    2    1    2    0    0  0.00000000000E+00  0.00000000000E+00 -0.33917074497E+03  0.60522691442E+03  0.50126123298E+03 0.  0.
        4    1    3    3  502    0  0.83941929929E+02 -0.38026980235E+02 -0.45099643617E+03  0.46031695294E+03  0.12699999809E+01 0.  1.
       -4    1    3    3    0  502 -0.83941929929E+02  0.38026980235E+02  0.11182569119E+03  0.14490996148E+03  0.12699999809E+01 0. -1.
</event>
<event>
 5   0  0.4631619E-02  0.5007986E+03  0.7818609E-02  0.1013571E+00
        2   -1    0    0  501    0  0.00000000000E+00  0.00000000000E+00  0.20513537075E+03  0.20513537076E+03  0.25500000920E-02 0.  1.
       -2   -1    0    0    0  501  0.00000000000E+00  0.00000000000E+00 -0.30565087040E+03  0.30565087041E+03  0.25500000920E-02 0. -1.
    10030    2    1    2    0    0  0.00000000000E+00  0.00000000000E+00 -0.10051549966E+03  0.51078624117E+03  0.50079858077E+03 0.  0.
        5    1    3    3  502    0 -0.10130923234E+03  0.37753665574E+02  0.18005265544E+03  0.21007129397E+03  0.46999998093E+01 0.  1.
       -5    1    3    3    0  502  0.10130923234E+03 -0.37753665574E+02 -0.28056815509E+03  0.30071494721E+03  0.46999998093E+01 0. -1.
</event>
<event>
 5   0  0.4451135E-02  0.5003042E+03  0.7818609E-02  0.1013700E+00
        2   -1    0    0  501    0  0.00000000000E+00  0.00000000000E+00  0.11190286281E+04  0.11190286281E+04  0.25500000920E-02 0.  1.
       -2   -1    0    0    0  501  0.00000000000E+00  0.00000000000E+00 -0.55919984236E+02  0.55919984294E+02  0.25500000920E-02 0. -1.
    10030    2    1    2    0    0  0.00000000000E+00  0.00000000000E+00  0.10631086439E+04  0.11749486124E+04  0.50030416060E+03 0.  0.
        1    1    3    3  502    0  0.17478467821E+03  0.15353396723E+03  0.31562670838E+03  0.39210021920E+03  0.50400001928E-02 0. -1.
       -1    1    3    3    0  502 -0.17478467821E+03 -0.15353396723E+03  0.74748193548E+03  0.78284839319E+03  0.50400001928E-02 0.  1.
</event>
<event>
 5   0  0.2723308E-02  0.4995493E+03  0.7818609E-02  0.1013897E+00
       -1   -1    0    0    0  501  0.00000000000E+00  0.00000000000E+00  0.93253537238E+03  0.93253537239E+03  0.50400001928E-02 0.  1.
        1   -1    0    0  501    0  0.00000000000E+00  0.00000000000E+00 -0.66900812751E+02  0.66900812941E+02  0.50400001928E-02 0. -1.
    10030    2    1    2    0    0  0.00000000000E+00  0.00000000000E+00  0.86563455962E+03  0.99943618533E+03  0.49954929460E+03 0.  0.
        4    1    3    3  502    0 -0.13611306272E+03  0.17742360975E+03  0.65542209675E+03  0.69252122058E+03  0.12699999809E+01 0.  1.
       -4    1    3    3    0  502  0.13611306272E+03 -0.17742360975E+03  0.21021246287E+03  0.30691496475E+03  0.12699999809E+01 0. -1.
</event>
<event>
 5   0  0.4451135E-02  0.5010050E+03  0.7818609E-02  0.1013517E+00
        2   -1    0    0  501    0  0.00000000000E+00  0.00000000000E+00  0.20732789158E+04  0.20732789158E+04  0.25500000920E-02 0. -1.
       -2   -1    0    0    0  501  0.00000000000E+00  0.00000000000E+00 -0.30266793019E+02  0.30266793127E+02  0.25500000920E-02 0.  1.
    10030    2    1    2    0    0  0.00000000000E+00  0.00000000000E+00  0.20430121228E+04  0.21035457089E+04  0.50100500568E+03 0.  0.
        1    1    3    3  502    0 -0.66393704700E+02  0.23307033811E+03  0.75524406572E+03  0.79317306142E+03  0.50400001928E-02 0.  1.
       -1    1    3    3    0  502  0.66393704700E+02 -0.23307033811E+03  0.12877680570E+04  0.13103726475E+04  0.50400001928E-02 0. -1.
</event>
<event>
 5   0  0.2719671E-02  0.5002650E+03  0.7818609E-02  0.1013710E+00
       -1   -1    0    0    0  501  0.00000000000E+00  0.00000000000E+00  0.20248518627E+03  0.20248518633E+03  0.50400001928E-02 0. -1.
        1   -1    0    0  501    0  0.00000000000E+00  0.00000000000E+00 -0.30899186234E+03  0.30899186238E+03  0.50400001928E-02 0.  1.
    10030    2    1    2    0    0  0.00000000000E+00  0.00000000000E+00 -0.10650667607E+03  0.51147704871E+03  0.50026502907E+03 0.  0.
        2    1    3    3  502    0 -0.21761392449E+03  0.77888684699E+02 -0.15101971982E+03  0.27609676405E+03  0.25500000920E-02 0.  1.
       -2    1    3    3    0  502  0.21761392449E+03 -0.77888684699E+02  0.44513043753E+02  0.23538028466E+03  0.25500000920E-02 0. -1.
</event>
<event>
 5   0  0.4409622E-02  0.4984972E+03  0.7818609E-02  0.1014172E+00
       -2   -1    0    0    0  501  0.00000000000E+00  0.00000000000E+00  0.17030483915E+03  0.17030483917E+03  0.25500000920E-02 0. -1.
        2   -1    0    0  501    0  0.00000000000E+00  0.00000000000E+00 -0.36478629297E+03  0.36478629298E+03  0.25500000920E-02 0.  1.
    10030    2    1    2    0    0  0.00000000000E+00  0.00000000000E+00 -0.19448145382E+03  0.53509113215E+03  0.49849722549E+03 0.  0.
        3    1    3    3  502    0  0.47884293562E+02  0.15154428905E+03 -0.30334153198E+03  0.34245389812E+03  0.10100000352E+00 0.  1.
       -3    1    3    3    0  502 -0.47884293562E+02 -0.15154428905E+03  0.10886007816E+03  0.19263723402E+03  0.10100000352E+00 0. -1.
</event>
<event>
 5   0  0.1805500E-02  0.4992249E+03  0.7818609E-02  0.1013981E+00
       -3   -1    0    0    0  501  0.00000000000E+00  0.00000000000E+00  0.19753384215E+03  0.19753386797E+03  0.10100000352E+00 0.  1.
        3   -1    0    0  501    0  0.00000000000E+00  0.00000000000E+00 -0.31542122004E+03  0.31542123621E+03  0.10100000352E+00 0. -1.
    10030    2    1    2    0    0  0.00000000000E+00  0.00000000000E+00 -0.11788737789E+03  0.51295510418E+03  0.49922490426E+03 0.  0.
        5    1    3    3  502    0 -0.16395829982E+03 -0.15308295649E+03 -0.17134881387E+03  0.28231050575E+03  0.46999998093E+01 0. -1.
       -5    1    3    3    0  502  0.16395829982E+03  0.15308295649E+03  0.53461435979E+02  0.23064459842E+03  0.46999998093E+01 0.  1.
</event>
<event>
 5   0  0.2723308E-02  0.4992851E+03  0.7818609E-02  0.1013966E+00
       -1   -1    0    0    0  501  0.00000000000E+00  0.00000000000E+00  0.34063498210E+03  0.34063498214E+03  0.50400001928E-02 0. -1.
        1   -1    0    0  501    0  0.00000000000E+00  0.00000000000E+00 -0.18295653618E+03  0.18295653625E+03  0.50400001928E-02 0.  1.
    10030    2    1    2    0    0  0.00000000000E+00  0.00000000000E+00  0.15767844592E+03  0.52359151839E+03  0.49928507470E+03 0.  0.
        4    1    3    3  502    0 -0.11314675007E+03  0.11327569073E+03 -0.12202170694E+03  0.20130692742E+03  0.12699999809E+01 0.  1.
       -4    1    3    3    0  502  0.11314675007E+03 -0.11327569073E+03  0.27970015286E+03  0.32228459097E+03  0.12699999809E+01 0. -1.
</event>
<event>
 5   0  0.2723308E-02  0.5002249E+03  0.7818609E-02  0.1013720E+00
        1   -1    0    0  501    0  0.00000000000E+00  0.00000000000E+00  0.52162792549E+03  0.52162792551E+03  0.50400001928E-02 0.  1.
       -1   -1    0    0    0  501  0.00000000000E+00  0.00000000000E+00 -0.11992500047E+03  0.11992500058E+03  0.50400001928E-02 0. -1.
    10030    2    1    2    0    0  0.00000000000E+00  0.00000000000E+00  0.40170292502E+03  0.64155292609E+03  0.50022486644E+03 0.  0.
        4    1    3    3  502    0  0.23701307238E+03  0.38219015537E+02  0.29079988692E+03  0.37709690633E+03  0.12699999809E+01 0.  1.
       -4    1    3    3    0  502 -0.23701307238E+03 -0.38219015537E+02  0.11090303810E+03  0.26445601976E+03  0.12699999809E+01 0. -1.
</event>
<event>
 5   0  0.4451135E-02  0.4664096E+03  0.7818609E-02  0.1022938E+00
        2   -1    0    0  501    0  0.00000000000E+00  0.00000000000E+00  0.44966316705E+03  0.44966316706E+03  0.25500000920E-02 0. -1.
       -2   -1    0    0    0  501  0.00000000000E+00  0.00000000000E+00 -0.12094491290E+03  0.12094491292E+03  0.25500000920E-02 0.  1.
    10030    2    1    2    0    0  0.00000000000E+00  0.00000000000E+00  0.32871825415E+03  0.57060807998E+03  0.46640957358E+03 0.  0.
        1    1    3    3  502    0 -0.18786676856E+03 -0.12741889967E+03  0.98990174369E+02  0.24764602433E+03  0.50400001928E-02 0.  1.
       -1    1    3    3    0  502  0.18786676856E+03  0.12741889967E+03  0.22972807978E+03  0.32296205565E+03  0.50400001928E-02 0. -1.
</event>
<event>
 5   0  0.4519539E-02  0.4964388E+03  0.7818609E-02  0.1014713E+00
        2   -1    0    0  501    0  0.00000000000E+00  0.00000000000E+00  0.37164556133E+03  0.37164556134E+03  0.25500000920E-02 0.  1.
       -2   -1    0    0    0  501  0.00000000000E+00  0.00000000000E+00 -0.16578397773E+03  0.16578397775E+03  0.25500000920E-02 0. -1.
    10030    2    1    2    0    0  0.00000000000E+00  0.00000000000E+00  0.20586158360E+03  0.53742953910E+03  0.49643883600E+03 0.  0.
        4    1    3    3  502    0 -0.26879623346E+02  0.13197109965E+03  0.32864687195E+03  0.35517497749E+03  0.12699999809E+01 0.  1.
       -4    1    3    3    0  502  0.26879623346E+02 -0.13197109965E+03 -0.12278528835E+03  0.18225456161E+03  0.12699999809E+01 0. -1.
</event>
<event>
 5   0  0.2715483E-02  0.4997749E+03  0.7818609E-02  0.1013838E+00
       -1   -1    0    0    0  501  0.00000000000E+00  0.00000000000E+00  0.74719489351E+02  0.74719489521E+02  0.50400001928E-02 0. -1.
        1   -1    0    0  501    0  0.00000000000E+00  0.00000000000E+00 -0.83570874521E+03  0.83570874522E+03  0.50400001928E-02 0.  1.
    10030    2    1    2    0    0  0.00000000000E+00  0.00000000000E+00 -0.76098925586E+03  0.91042823474E+03  0.49977487241E+03 0.  0.
        5    1    3    3  502    0 -0.33505130536E+02 -0.24538114187E+03 -0.32043059603E+03  0.40500908067E+03  0.46999998093E+01 0. -1.
       -5    1    3    3    0  502  0.33505130536E+02  0.24538114187E+03 -0.44055865983E+03  0.50541915408E+03  0.46999998093E+01 0.  1.
</event>
<event>
 5   0  0.4451135E-02  0.5000201E+03  0.7818609E-02  0.1013774E+00
        2   -1    0    0  501    0  0.00000000000E+00  0.00000000000E+00  0.81542701035E+02  0.81542701075E+02  0.25500000920E-02 0.  1.
       -2   -1    0    0    0  501  0.00000000000E+00  0.00000000000E+00 -0.76653105928E+03  0.76653105928E+03  0.25500000920E-02 0. -1.
    10030    2    1    2    0    0  0.00000000000E+00  0.00000000000E+00 -0.68498835824E+03  0.84807376035E+03  0.50002005168E+03 0.  0.
        1    1    3    3  502    0  0.23156973428E+03 -0.65600884670E+02 -0.22774847670E+03  0.33135688701E+03  0.50400001928E-02 0. -1.
       -1    1    3    3    0  502 -0.23156973428E+03  0.65600884670E+02 -0.45723988155E+03  0.51671687335E+03  0.50400001928E-02 0.  1.
</event>
<event>
 5   0  0.4409622E-02  0.5002810E+03  0.7818609E-02  0.1013706E+00
       -2   -1    0    0    0  501  0.00000000000E+00  0.00000000000E+00  0.36670015234E+03  0.36670015235E+03  0.25500000920E-02 0. -1.
        2   -1    0    0  501    0  0.00000000000E+00  0.00000000000E+00 -0.17063064146E+03  0.17063064148E+03  0.25500000920E-02 0.  1.
    10030    2    1    2    0    0  0.00000000000E+00  0.00000000000E+00  0.19606951088E+03  0.53733079383E+03  0.50028104991E+03 0.  0.
        3    1    3    3  502    0 -0.67577331877E+01  0.13001716423E+03  0.32744140086E+03  0.35237481628E+03  0.10100000352E+00 0. -1.
       -3    1    3    3    0  502  0.67577331877E+01 -0.13001716423E+03 -0.13137188999E+03  0.18495597755E+03  0.10100000352E+00 0.  1.
</event>
<event>
 5   0  0.2643185E-02  0.5018582E+03  0.7818609E-02  0.1013295E+00
        1   -1    0    0  501    0  0.00000000000E+00  0.00000000000E+00  0.82277041446E+03  0.82277041447E+03  0.50400001928E-02 0. -1.
       -1   -1    0    0    0  501  0.00000000000E+00  0.00000000000E+00 -0.76528538750E+02  0.76528538916E+02  0.50400001928E-02 0.  1.
    10030    2    1    2    0    0  0.00000000000E+00  0.00000000000E+00  0.74624187571E+03  0.89929895339E+03  0.50185821754E+03 0.  0.
        1    1    3    3  502    0 -0.12805002270E+03  0.58702429459E+02  0.10072129054E+01  0.14086801639E+03  0.50400001928E-02 0.  1.
       -1    1    3    3    0  502  0.12805002270E+03 -0.58702429459E+02  0.74523466280E+03  0.75843093700E+03  0.50400001928E-02 0. -1.
</event>
<event>
 5   0  0.2723308E-02  0.5048493E+03  0.7818609E-02  0.1012521E+00
       -1   -1    0    0    0  501  0.00000000000E+00  0.00000000000E+00  0.10819950614E+03  0.10819950625E+03  0.50400001928E-02 0.  1.
        1   -1    0    0  501    0  0.00000000000E+00  0.00000000000E+00 -0.58889549172E+03  0.58889549174E+03  0.50400001928E-02 0. -1.
    10030    2    1    2    0    0  0.00000000000E+00  0.00000000000E+00 -0.48069598558E+03  0.69709499799E+03  0.50484929006E+03 0.  0.
        4    1    3    3  502    0  0.37941675104E+02  0.22097415668E+03 -0.80226355446E+02  0.23813237839E+03  0.12699999809E+01 0.  1.
       -4    1    3    3    0  502 -0.37941675104E+02 -0.22097415668E+03 -0.40046963014E+03  0.45896261960E+03  0.12699999809E+01 0. -1.
</event>
<event>
 5   0  0.2643185E-02  0.5060761E+03  0.7818609E-02  0.1012205E+00
       -1   -1    0    0    0  501  0.00000000000E+00  0.00000000000E+00  0.90622148702E+02  0.90622148843E+02  0.50400001928E-02 0. -1.
        1   -1    0    0  501    0  0.00000000000E+00  0.00000000000E+00 -0.70654078035E+03  0.70654078037E+03  0.50400001928E-02 0.  1.
    10030    2    1    2    0    0  0.00000000000E+00  0.00000000000E+00 -0.61591863165E+03  0.79716292921E+03  0.50607605644E+03 0.  0.
        1    1    3    3  502    0  0.38527312103E+02  0.10571130375E+03 -0.66497056668E+03  0.67442204004E+03  0.50400001928E-02 0.  1.
       -1    1    3    3    0  502 -0.38527312103E+02 -0.10571130375E+03  0.49051935030E+02  0.12274088917E+03  0.50400001928E-02 0. -1.
</event>
<event>
 5   0  0.2779445E-02  0.5002607E+03  0.7818609E-02  0.1013711E+00
       -1   -1    0    0    0  501  0.00000000000E+00  0.00000000000E+00  0.22938989032E+03  0.22938989038E+03  0.50400001928E-02 0. -1.
        1   -1    0    0  501    0  0.00000000000E+00  0.00000000000E+00 -0.27274609072E+03  0.27274609077E+03  0.50400001928E-02 0.  1.
    10030    2    1    2    0    0  0.00000000000E+00  0.00000000000E+00 -0.43356200400E+02  0.50213598115E+03  0.50026071548E+03 0.  0.
        3    1    3    3  502    0 -0.29086509188E+02  0.98773491852E+02  0.20713025278E+03  0.23131186638E+03  0.10100000352E+00 0. -1.
       -3    1    3    3    0  502  0.29086509188E+02 -0.98773491852E+02 -0.25048645318E+03  0.27082411477E+03  0.10100000352E+00 0.  1.
</event>
<event>
 5   0  0.1805500E-02  0.4971768E+03  0.7818609E-02  0.1014518E+00
        3   -1    0    0  501    0  0.00000000000E+00  0.00000000000E+00  0.17747781696E+03  0.17747784570E+03  0.10100000352E+00 0. -1.
       -3   -1    0    0    0  501  0.00000000000E+00  0.00000000000E+00 -0.34819098876E+03  0.34819100341E+03  0.10100000352E+00 0.  1.
    10030    2    1    2    0    0  0.00000000000E+00  0.00000000000E+00 -0.17071317180E+03  0.52566884910E+03  0.49717678133E+03 0.  0.
        3    1    3    3  502    0 -0.23676215065E+03 -0.62411416512E+02 -0.39945534665E+02  0.24808699448E+03  0.10100000352E+00 0. -1.
       -3    1    3    3    0  502  0.23676215065E+03  0.62411416512E+02 -0.13076763714E+03  0.27758185462E+03  0.10100000352E+00 0.  1.
</event>
<event>
 5   0  0.1805500E-02  0.5028205E+03  0.7818609E-02  0.1013045E+00
       -3   -1    0    0    0  501  0.00000000000E+00  0.00000000000E+00  0.61127666579E+03  0.61127667414E+03  0.10100000352E+00 0. -1.
        3   -1    0    0  501    0  0.00000000000E+00  0.00000000000E+00 -0.10340179405E+03  0.10340184338E+03  0.10100000352E+00 0.  1.
    10030    2    1    2    0    0  0.00000000000E+00  0.00000000000E+00  0.50787487174E+03  0.71467851752E+03  0.50282054259E+03 0.  0.
        4    1    3    3  502    0  0.88661975046E+02  0.21467185731E+03  0.11715941098E+03  0.26014014035E+03  0.12699999809E+01 0.  1.
       -4    1    3    3    0  502 -0.88661975046E+02 -0.21467185731E+03  0.39071546076E+03  0.45453837717E+03  0.12699999809E+01 0. -1.
</event>
<event>
 5   0  0.2779445E-02  0.4985977E+03  0.7818609E-02  0.1014146E+00
       -1   -1    0    0    0  501  0.00000000000E+00  0.00000000000E+00  0.36513639547E+03  0.36513639551E+03  0.50400001928E-02 0. -1.
        1   -1    0    0  501    0  0.00000000000E+00  0.00000000000E+00 -0.17021015551E+03  0.17021015558E+03  0.50400001928E-02 0.  1.
    10030    2    1    2    0    0  0.00000000000E+00  0.00000000000E+00  0.19492623997E+03  0.53534655109E+03  0.49859772436E+03 0.  0.
        3    1    3    3  502    0 -0.21104883859E+03  0.45591136982E+02  0.23126645170E+03  0.31639270840E+03  0.10100000352E+00 0. -1.
       -3    1    3    3    0  502  0.21104883859E+03 -0.45591136982E+02 -0.36340211737E+02  0.21895384269E+03  0.10100000352E+00 0.  1.
</event>
<event>
 5   0  0.4519539E-02  0.5047482E+03  0.7818609E-02  0.1012547E+00
       -2   -1    0    0    0  501  0.00000000000E+00  0.00000000000E+00  0.58671034817E+02  0.58671034873E+02  0.25500000920E-02 0.  1.
        2   -1    0    0  501    0  0.00000000000E+00  0.00000000000E+00 -0.10855899267E+04  0.10855899267E+04  0.25500000920E-02 0. -1.
    10030    2    1    2    0    0  0.00000000000E+00  0.00000000000E+00 -0.10269188919E+04  0.11442609616E+04  0.50474819236E+03 0.  0.
        4    1    3    3  502    0 -0.13000607157E+03 -0.20305784838E+03 -0.34446570174E+03  0.42046676564E+03  0.12699999809E+01 0.  1.
       -4    1    3    3    0  502  0.13000607157E+03  0.20305784838E+03 -0.68245319017E+03  0.72379419596E+03  0.12699999809E+01 0. -1.
</event>
<event>
 5   0  0.4451135E-02  0.4966838E+03  0.7818609E-02  0.1014648E+00
       -2   -1    0    0    0  501  0.00000000000E+00  0.00000000000E+00  0.51511204680E+02  0.51511204743E+02  0.25500000920E-02 0. -1.
        2   -1    0    0  501    0  0.00000000000E+00  0.00000000000E+00 -0.11972870178E+04  0.11972870178E+04  0.25500000920E-02 0.  1.
    10030    2    1    2    0    0  0.00000000000E+00  0.00000000000E+00 -0.11457758131E+04  0.12487982225E+04  0.49668378945E+03 0.  0.
        1    1    3    3  502    0  0.16485106943E+03  0.10423030152E+03 -0.18636105556E+03  0.26975965952E+03  0.50400001928E-02 0.  1.
       -1    1    3    3    0  502 -0.16485106943E+03 -0.10423030152E+03 -0.95941475754E+03  0.97903856301E+03  0.50400001928E-02 0. -1.
</event>
<event>
 5   0  0.2719671E-02  0.4861346E+03  0.7818609E-02  0.1017463E+00
        1   -1    0    0  501    0  0.00000000000E+00  0.00000000000E+00  0.15311567865E+03  0.15311567874E+03  0.50400001928E-02 0. -1.
       -1   -1    0    0    0  501  0.00000000000E+00  0.00000000000E+00 -0.38586332197E+03  0.38586332200E+03  0.50400001928E-02 0.  1.
    10030    2    1    2    0    0  0.00000000000E+00  0.00000000000E+00 -0.23274764331E+03  0.53897900074E+03  0.48613464983E+03 0.  0.
        2    1    3    3  502    0 -0.52137590556E+02  0.12902936855E+03 -0.33732257573E+03  0.36490194080E+03  0.25500000920E-02 0.  1.
       -2    1    3    3    0  502  0.52137590556E+02 -0.12902936855E+03  0.10457493242E+03  0.17407705993E+03  0.25500000920E-02 0. -1.
</event>
<event>
 5   0  0.4631619E-02  0.5021479E+03  0.7818609E-02  0.1013220E+00
       -2   -1    0    0    0  501  0.00000000000E+00  0.00000000000E+00  0.20704352127E+03  0.20704352129E+03  0.25500000920E-02 0.  1.
        2   -1    0    0  501    0  0.00000000000E+00  0.00000000000E+00 -0.30446801795E+03  0.30446801796E+03  0.25500000920E-02 0. -1.
    10030    2    1    2    0    0  0.00000000000E+00  0.00000000000E+00 -0.97424496679E+02  0.51151153925E+03  0.50214790872E+03 0.  0.
        5    1    3    3  502    0 -0.38166596570E+02 -0.58544904637E+02  0.19688914869E+03  0.20897756297E+03  0.46999998093E+01 0.  1.
       -5    1    3    3    0  502  0.38166596570E+02  0.58544904637E+02 -0.29431364537E+03  0.30253397628E+03  0.46999998093E+01 0. -1.
</event>
<event>
 5   0  0.1805500E-02  0.4993504E+03  0.7818609E-02  0.1013949E+00
       -3   -1    0    0    0  501  0.00000000000E+00  0.00000000000E+00  0.71836676943E+02  0.71836747945E+02  0.10100000352E+00 0. -1.
        3   -1    0    0  501    0  0.00000000000E+00  0.00000000000E+00 -0.86776951908E+03  0.86776952496E+03  0.10100000352E+00 0.  1.
    10030    2    1    2    0    0  0.00000000000E+00  0.00000000000E+00 -0.79593284214E+03  0.93960627290E+03  0.49935043695E+03 0.  0.
        1    1    3    3  502    0 -0.36692970348E+02  0.10005769942E+03  0.26887397385E+02  0.10991291757E+03  0.50400001928E-02 0. -1.
       -1    1    3    3    0  502  0.36692970348E+02 -0.10005769942E+03 -0.82282023952E+03  0.82969335533E+03  0.50400001928E-02 0.  1.
</event>
<event>
 5   0  0.1805500E-02  0.5012988E+03  0.7818609E-02  0.1013440E+00
        3   -1    0    0  501    0  0.00000000000E+00  0.00000000000E+00  0.86457610873E+02  0.86457669867E+02  0.10100000352E+00 0. -1.
       -3   -1    0    0    0  501  0.00000000000E+00  0.00000000000E+00 -0.72665778790E+03  0.72665779492E+03  0.10100000352E+00 0.  1.
    10030    2    1    2    0    0  0.00000000000E+00  0.00000000000E+00 -0.64020017703E+03  0.81311546478E+03  0.50129880551E+03 0.  0.
        1    1    3    3  502    0 -0.14610900522E+02  0.12197070934E+03 -0.67448323738E+03  0.68557856580E+03  0.50400001928E-02 0.  1.
       -1    1    3    3    0  502  0.14610900522E+02 -0.12197070934E+03  0.34283060353E+02  0.12753689899E+03  0.50400001928E-02 0. -1.
</event>
<event>
 5   0  0.2719671E-02  0.4988737E+03  0.7818609E-02  0.1014073E+00
       -1   -1    0    0    0  501  0.00000000000E+00  0.00000000000E+00  0.17946587876E+03  0.17946587883E+03  0.50400001928E-02 0.  1.
        1   -1    0    0  501    0  0.00000000000E+00  0.00000000000E+00 -0.34668842206E+03  0.34668842210E+03  0.50400001928E-02 0. -1.
    10030    2    1    2    0    0  0.00000000000E+00  0.00000000000E+00 -0.16722254331E+03  0.52615430093E+03  0.49887370085E+03 0.  0.
        2    1    3    3  502    0 -0.59809931379E+02 -0.24164671234E+03 -0.10023320675E+03  0.26835993967E+03  0.25500000920E-02 0.  1.
       -2    1    3    3    0  502  0.59809931379E+02  0.24164671234E+03 -0.66989336554E+02  0.25779436126E+03  0.25500000920E-02 0. -1.
</event>
<event>
 5   0  0.4534223E-02  0.4994432E+03  0.7818609E-02  0.1013924E+00
        2   -1    0    0  501    0  0.00000000000E+00  0.00000000000E+00  0.12485849800E+04  0.12485849800E+04  0.25500000920E-02 0. -1.
       -2   -1    0    0    0  501  0.00000000000E+00  0.00000000000E+00 -0.49945247324E+02  0.49945247389E+02  0.25500000920E-02 0.  1.
    10030    2    1    2    0    0  0.00000000000E+00  0.00000000000E+00  0.11986397327E+04  0.12985302274E+04  0.49944323271E+03 0.  0.
        2    1    3    3  502    0  0.14708568106E+03  0.38732968579E+02  0.11142584183E+04  0.11245915984E+04  0.25500000920E-02 0. -1.
       -2    1    3    3    0  502 -0.14708568106E+03 -0.38732968579E+02  0.84381314350E+02  0.17393862897E+03  0.25500000920E-02 0.  1.
</event>
<event>
 5   0  0.4409622E-02  0.4978923E+03  0.7818609E-02  0.1014331E+00
        2   -1    0    0  501    0  0.00000000000E+00  0.00000000000E+00  0.21146239507E+04  0.21146239507E+04  0.25500000920E-02 0.  1.
       -2   -1    0    0    0  501  0.00000000000E+00  0.00000000000E+00 -0.29307431163E+02  0.29307431274E+02  0.25500000920E-02 0. -1.
    10030    2    1    2    0    0  0.00000000000E+00  0.00000000000E+00  0.20853165195E+04  0.21439313820E+04  0.49789234174E+03 0.  0.
        3    1    3    3  502    0 -0.47231504939E+02  0.24079978909E+03  0.12232457457E+04  0.12476159338E+04  0.10100000352E+00 0.  1.
       -3    1    3    3    0  502  0.47231504939E+02 -0.24079978909E+03  0.86207077378E+03  0.89631544821E+03  0.10100000352E+00 0. -1.
</event>
<event>
 5   0  0.2715483E-02  0.4997660E+03  0.7818609E-02  0.1013840E+00
        1   -1    0    0  501    0  0.00000000000E+00  0.00000000000E+00  0.88403599750E+03  0.88403599751E+03  0.50400001928E-02 0. -1.
       -1   -1    0    0    0  501  0.00000000000E+00  0.00000000000E+00 -0.70632333420E+02  0.70632333599E+02  0.50400001928E-02 0.  1.
    10030    2    1    2    0    0  0.00000000000E+00  0.00000000000E+00  0.81340366408E+03  0.95466833111E+03  0.49976604696E+03 0.  0.
        5    1    3    3  502    0  0.12063585368E+03  0.94586970625E+02  0.78355371061E+03  0.79842232660E+03  0.46999998093E+01 0. -1.
       -5    1    3    3    0  502 -0.12063585368E+03 -0.94586970625E+02  0.29849953471E+02  0.15624600451E+03  0.46999998093E+01 0.  1.
</event>
<event>
 5   0  0.4451135E-02  0.5013532E+03  0.7818609E-02  0.1013426E+00
       -2   -1    0    0    0  501  0.00000000000E+00  0.00000000000E+00  0.51809098624E+02  0.51809098687E+02  0.25500000920E-02 0.  1.
        2   -1    0    0  501    0  0.00000000000E+00  0.00000000000E+00 -0.12128903343E+04  0.12128903344E+04  0.25500000920E-02 0. -1.
    10030    2    1    2    0    0  0.00000000000E+00  0.00000000000E+00 -0.11610812357E+04  0.12646994330E+04  0.50135318886E+03 0.  0.
        1    1    3    3  502    0 -0.21866306137E+02 -0.21794032786E+03 -0.88807340267E+03  0.91468600646E+03  0.50400001928E-02 0. -1.
       -1    1    3    3    0  502  0.21866306137E+02  0.21794032786E+03 -0.27300783305E+03  0.35001342658E+03  0.50400001928E-02 0.  1.
</event>
<event>
 5   0  0.4519539E-02  0.5003267E+03  0.7818609E-02  0.1013694E+00
        2   -1    0    0  501    0  0.00000000000E+00  0.00000000000E+00  0.99406507592E+02  0.99406507624E+02  0.25500000920E-02 0. -1.
       -2   -1    0    0    0  501  0.00000000000E+00  0.00000000000E+00 -0.62955349107E+03  0.62955349108E+03  0.25500000920E-02 0.  1.
    10030    2    1    2    0    0  0.00000000000E+00  0.00000000000E+00 -0.53014698348E+03  0.72895999870E+03  0.50032674885E+03 0.  0.
        4    1    3    3  502    0  0.49028102339E+01  0.59088641552E+02 -0.61916343618E+03  0.62199716937E+03  0.12699999809E+01 0.  1.
       -4    1    3    3    0  502 -0.49028102339E+01 -0.59088641552E+02  0.89016452693E+02  0.10696282933E+03  0.12699999809E+01 0. -1.
</event>
<event>
 5   0  0.2715483E-02  0.5113475E+03  0.7818609E-02  0.1010859E+00
        1   -1    0    0  501    0  0.00000000000E+00  0.00000000000E+00  0.31562202870E+03  0.31562202874E+03  0.50400001928E-02 0. -1.
       -1   -1    0    0    0  501  0.00000000000E+00  0.00000000000E+00 -0.20711185549E+03  0.20711185555E+03  0.50400001928E-02 0.  1.
    10030    2    1    2    0    0  0.00000000000E+00  0.00000000000E+00  0.10851017321E+03  0.52273388430E+03  0.51134749056E+03 0.  0.
        5    1    3    3  502    0  0.38040589295E+02 -0.25248001861E+03  0.66929875180E+02  0.26399800079E+03  0.46999998093E+01 0. -1.
       -5    1    3    3    0  502 -0.38040589295E+02  0.25248001861E+03  0.41580298034E+02  0.25873588351E+03  0.46999998093E+01 0.  1.
</event>
<event>
 5   0  0.2719671E-02  0.5005468E+03  0.7818609E-02  0.1013636E+00
        1   -1    0    0  501    0  0.00000000000E+00  0.00000000000E+00  0.10614874264E+03  0.10614874276E+03  0.50400001928E-02 0.  1.
       -1   -1    0    0    0  501  0.00000000000E+00  0.00000000000E+00 -0.59008491773E+03  0.59008491775E+03  0.50400001928E-02 0. -1.
    10030    2    1    2    0    0  0.00000000000E+00  0.00000000000E+00 -0.48393617509E+03  0.69623366052E+03  0.50054678950E+03 0.  0.
        2    1    3    3  502    0 -0.10344737396E+02  0.14808560904E+03 -0.52223740152E+03  0.54292565306E+03  0.25500000920E-02 0. -1.
       -2    1    3    3    0  502  0.10344737396E+02 -0.14808560904E+03  0.38301226434E+02  0.15330800746E+03  0.25500000920E-02 0.  1.
</event>
<event>
 5   0  0.2715483E-02  0.5034436E+03  0.7818609E-02  0.1012884E+00
       -1   -1    0    0    0  501  0.00000000000E+00  0.00000000000E+00  0.78224896533E+03  0.78224896535E+03  0.50400001928E-02 0. -1.
        1   -1    0    0  501    0  0.00000000000E+00  0.00000000000E+00 -0.81002184049E+02  0.81002184206E+02  0.50400001928E-02 0.  1.
    10030    2    1    2    0    0  0.00000000000E+00  0.00000000000E+00  0.70124678128E+03  0.86325114956E+03  0.50344364029E+03 0.  0.
        5    1    3    3  502    0  0.52151253917E+02  0.13932565940E+03  0.25348873629E+01  0.14886204454E+03  0.46999998093E+01 0.  1.
       -5    1    3    3    0  502 -0.52151253917E+02 -0.13932565940E+03  0.69871189392E+03  0.71438910501E+03  0.46999998093E+01 0. -1.
</event>
<event>
 5   0  0.4409622E-02  0.4966018E+03  0.7818609E-02  0.1014670E+00
       -2   -1    0    0    0  501  0.00000000000E+00  0.00000000000E+00  0.17128881656E+03  0.17128881658E+03  0.25500000920E-02 0. -1.
        2   -1    0    0  501    0  0.00000000000E+00  0.00000000000E+00 -0.35993786342E+03  0.35993786343E+03  0.25500000920E-02 0.  1.
    10030    2    1    2    0    0  0.00000000000E+00  0.00000000000E+00 -0.18864904686E+03  0.53122668001E+03  0.49660177474E+03 0.  0.
        3    1    3    3  502    0 -0.10260118726E+03  0.17587844250E+03  0.57685772710E+02  0.21163149278E+03  0.10100000352E+00 0. -1.
       -3    1    3    3    0  502  0.10260118726E+03 -0.17587844250E+03 -0.24633481957E+03  0.31959518723E+03  0.10100000352E+00 0.  1.
</event>
<event>
 5   0  0.4534223E-02  0.4997997E+03  0.7818609E-02  0.1013831E+00
       -2   -1    0    0    0  501  0.00000000000E+00  0.00000000000E+00  0.27588870315E+02  0.27588870432E+02  0.25500000920E-02 0. -1.
        2   -1    0    0  501    0  0.00000000000E+00  0.00000000000E+00 -0.22635912531E+04  0.22635912531E+04  0.25500000920E-02 0.  1.
    10030    2    1    2    0    0  0.00000000000E+00  0.00000000000E+00 -0.22360023828E+04  0.22911801235E+04  0.49979966252E+03 0.  0.
        2    1    3    3  502    0 -0.65037656392E+02 -0.19437380259E+03 -0.46262366814E+03  0.50599578082E+03  0.25500000920E-02 0. -1.
       -2    1    3    3    0  502  0.65037656392E+02  0.19437380259E+03 -0.17733787146E+04  0.17851843427E+04  0.25500000920E-02 0.  1.
</event>
<event>
 5   0  0.4631619E-02  0.4973554E+03  0.7818609E-02  0.1014472E+00
        2   -1    0    0  501    0  0.00000000000E+00  0.00000000000E+00  0.56274302721E+03  0.56274302721E+03  0.25500000920E-02 0. -1.
       -2   -1    0    0    0  501  0.00000000000E+00  0.00000000000E+00 -0.10989136306E+03  0.10989136309E+03  0.25500000920E-02 0.  1.
    10030    2    1    2    0    0  0.00000000000E+00  0.00000000000E+00  0.45285166415E+03  0.67263439031E+03  0.49735539939E+03 0.  0.
        5    1    3    3  502    0 -0.22660332954E+03  0.50823004181E+02  0.10632297801E+03  0.25545784851E+03  0.46999998093E+01 0.  1.
       -5    1    3    3    0  502  0.22660332954E+03 -0.50823004181E+02  0.34652868614E+03  0.41717654180E+03  0.46999998093E+01 0. -1.
</event>
<event>
 5   0  0.1805500E-02  0.5009411E+03  0.7818609E-02  0.1013534E+00
        3   -1    0    0  501    0  0.00000000000E+00  0.00000000000E+00  0.27891613890E+02  0.27891796758E+02  0.10100000352E+00 0. -1.
       -3   -1    0    0    0  501  0.00000000000E+00  0.00000000000E+00 -0.22492524383E+04  0.22492524406E+04  0.10100000352E+00 0.  1.
    10030    2    1    2    0    0  0.00000000000E+00  0.00000000000E+00 -0.22213608244E+04  0.22771442373E+04  0.50094107973E+03 0.  0.
        5    1    3    3  502    0 -0.16812985740E+03  0.18039477431E+03 -0.91235525817E+03  0.94510535426E+03  0.46999998093E+01 0. -1.
       -5    1    3    3    0  502  0.16812985740E+03 -0.18039477431E+03 -0.13090055662E+04  0.13320388830E+04  0.46999998093E+01 0.  1.
</event>
<event>
 5   0  0.2723308E-02  0.5007827E+03  0.7818609E-02  0.1013575E+00
       -1   -1    0    0    0  501  0.00000000000E+00  0.00000000000E+00  0.89369311757E+02  0.89369311899E+02  0.50400001928E-02 0. -1.
        1   -1    0    0  501    0  0.00000000000E+00  0.00000000000E+00 -0.70153639424E+03  0.70153639426E+03  0.50400001928E-02 0.  1.
    10030    2    1    2    0    0  0.00000000000E+00  0.00000000000E+00 -0.61216708248E+03  0.79090570616E+03  0.50078268656E+03 0.  0.
        4    1    3    3  502    0  0.52132907327E+02 -0.11900945015E+03  0.31958215803E+02  0.13380594049E+03  0.12699999809E+01 0. -1.
       -4    1    3    3    0  502 -0.52132907327E+02  0.11900945015E+03 -0.64412529829E+03  0.65709976567E+03  0.12699999809E+01 0.  1.
</event>
<event>
 5   0  0.2643185E-02  0.4956670E+03  0.7818609E-02  0.1014916E+00
        1   -1    0    0  501    0  0.00000000000E+00  0.00000000000E+00  0.16955395663E+03  0.16955395671E+03  0.50400001928E-02 0. -1.
       -1   -1    0    0    0  501  0.00000000000E+00  0.00000000000E+00 -0.36225315541E+03  0.36225315544E+03  0.50400001928E-02 0.  1.
    10030    2    1    2    0    0  0.00000000000E+00  0.00000000000E+00 -0.19269919877E+03  0.53180711215E+03  0.49566704886E+03 0.  0.
        1    1    3    3  502    0 -0.63728667278E+02 -0.16947105033E+03 -0.27792129184E+03  0.33169568043E+03  0.50400001928E-02 0.  1.
       -1    1    3    3    0  502  0.63728667278E+02  0.16947105033E+03  0.85222093062E+02  0.20011143172E+03  0.50400001928E-02 0. -1.
</event>
<event>
 5   0  0.4534223E-02  0.5005962E+03  0.7818609E-02  0.1013623E+00
        2   -1    0    0  501    0  0.00000000000E+00  0.00000000000E+00  0.15959929872E+04  0.15959929872E+04  0.25500000920E-02 0.  1.
       -2   -1    0    0    0  501  0.00000000000E+00  0.00000000000E+00 -0.39254016456E+02  0.39254016539E+02  0.25500000920E-02 0. -1.
    10030    2    1    2    0    0  0.00000000000E+00  0.00000000000E+00  0.15567389707E+04  0.16352470037E+04  0.50059618477E+03 0.  0.
        2    1    3    3  502    0 -0.24984533493E+03 -0.86047090757E+01  0.81869612814E+03  0.85601406685E+03  0.25500000920E-02 0. -1.
       -2    1    3    3    0  502  0.24984533493E+03  0.86047090757E+01  0.73804284257E+03  0.77923293686E+03  0.25500000920E-02 0.  1.
</event>
<event>
 5   0  0.2715483E-02  0.5000330E+03  0.7818609E-02  0.1013770E+00
        1   -1    0    0  501    0  0.00000000000E+00  0.00000000000E+00  0.54366971134E+03  0.54366971136E+03  0.50400001928E-02 0. -1.
       -1   -1    0    0    0  501  0.00000000000E+00  0.00000000000E+00 -0.11497468492E+03  0.11497468503E+03  0.50400001928E-02 0.  1.
    10030    2    1    2    0    0  0.00000000000E+00  0.00000000000E+00  0.42869502642E+03  0.65864439640E+03  0.50003301414E+03 0.  0.
        5    1    3    3  502    0 -0.65972582321E+02  0.20929943917E+02 -0.10204348561E+03  0.12339127653E+03  0.46999998093E+01 0.  1.
       -5    1    3    3    0  502  0.65972582321E+02 -0.20929943917E+02  0.53073851203E+03  0.53525311986E+03  0.46999998093E+01 0. -1.
</event>
<event>
 5   0  0.2723308E-02  0.4909210E+03  0.7818609E-02  0.1016176E+00
        1   -1    0    0  501    0  0.00000000000E+00  0.00000000000E+00  0.13203682329E+04  0.13203682330E+04  0.50400001928E-02 0.  1.
       -1   -1    0    0    0  501  0.00000000000E+00  0.00000000000E+00 -0.45631854630E+02  0.45631854908E+02  0.50400001928E-02 0. -1.
    10030    2    1    2    0    0  0.00000000000E+00  0.00000000000E+00  0.12747363783E+04  0.13660000879E+04  0.49092097719E+03 0.  0.
        4    1    3    3  502    0  0.16160846991E+03  0.26701694297E+02  0.12869879689E+03  0.20831531688E+03  0.12699999809E+01 0. -1.
       -4    1    3    3    0  502 -0.16160846991E+03 -0.26701694297E+02  0.11460375814E+04  0.11576847710E+04  0.12699999809E+01 0.  1.
</event>
<event>
 5   0  0.4519539E-02  0.4983007E+03  0.7818609E-02  0.1014223E+00
        2   -1    0    0  501    0  0.00000000000E+00  0.00000000000E+00  0.88555199844E+02  0.88555199881E+02  0.25500000920E-02 0. -1.
       -2   -1    0    0    0  501  0.00000000000E+00  0.00000000000E+00 -0.70098523133E+03  0.70098523134E+03  0.25500000920E-02 0.  1.
    10030    2    1    2    0    0  0.00000000000E+00  0.00000000000E+00 -0.61243003149E+03  0.78954043122E+03  0.49830066131E+03 0.  0.
        4    1    3    3  502    0  0.79581137649E+02  0.62589123081E+02 -0.66691589176E+03  0.67455835580E+03  0.12699999809E+01 0.  1.
       -4    1    3    3    0  502 -0.79581137649E+02 -0.62589123081E+02  0.54485860272E+02  0.11498207542E+03  0.12699999809E+01 0. -1.
</event>
<event>
 5   0  0.2715483E-02  0.5011726E+03  0.7818609E-02  0.1013473E+00
        1   -1    0    0  501    0  0.00000000000E+00  0.00000000000E+00  0.10631548078E+03  0.10631548090E+03  0.50400001928E-02 0.  1.
       -1   -1    0    0    0  501  0.00000000000E+00  0.00000000000E+00 -0.59063349124E+03  0.59063349126E+03  0.50400001928E-02 0. -1.
    10030    2    1    2    0    0  0.00000000000E+00  0.00000000000E+00 -0.48431801046E+03  0.69694897216E+03  0.50117255964E+03 0.  0.
        5    1    3    3  502    0  0.10082550112E+03 -0.11810770772E+03 -0.51557453126E+03  0.53847414012E+03  0.46999998093E+01 0. -1.
       -5    1    3    3    0  502 -0.10082550112E+03  0.11810770772E+03  0.31256520796E+02  0.15847483204E+03  0.46999998093E+01 0.  1.
</event>
<event>
 5   0  0.4631619E-02  0.5024001E+03  0.7818609E-02  0.1013154E+00
       -2   -1    0    0    0  501  0.00000000000E+00  0.00000000000E+00  0.72749608089E+03  0.72749608089E+03  0.25500000920E-02 0.  1.
        2   -1    0    0  501    0  0.00000000000E+00  0.00000000000E+00 -0.86737883930E+02  0.86737883968E+02  0.25500000920E-02 0. -1.
    10030    2    1    2    0    0  0.00000000000E+00  0.00000000000E+00  0.64075819696E+03  0.81423396486E+03  0.50240012198E+03 0.  0.
        5    1    3    3  502    0 -0.61517779213E+02  0.62558145052E+02  0.70177983695E+03  0.70725878448E+03  0.46999998093E+01 0.  1.
       -5    1    3    3    0  502  0.61517779213E+02 -0.62558145052E+02 -0.61021639995E+02  0.10697518038E+03  0.46999998093E+01 0. -1.
</event>
<event>
 5   0  0.4451135E-02  0.4980936E+03  0.7818609E-02  0.1014278E+00
       -2   -1    0    0    0  501  0.00000000000E+00  0.00000000000E+00  0.10747227232E+03  0.10747227235E+03  0.25500000920E-02 0.  1.
        2   -1    0    0  501    0  0.00000000000E+00  0.00000000000E+00 -0.57711906794E+03  0.57711906795E+03  0.25500000920E-02 0. -1.
    10030    2    1    2    0    0  0.00000000000E+00  0.00000000000E+00 -0.46964679562E+03  0.68459134030E+03  0.49809355606E+03 0.  0.
        1    1    3    3  502    0 -0.57378174644E+01 -0.96864625614E+02 -0.55006892281E+03  0.55856199129E+03  0.50400001928E-02 0. -1.
       -1    1    3    3    0  502  0.57378174644E+01  0.96864625614E+02  0.80422127195E+02  0.12602934901E+03  0.50400001928E-02 0.  1.
</event>
<event>
 5   0  0.2643185E-02  0.4993165E+03  0.7818609E-02  0.1013957E+00
       -1   -1    0    0    0  501  0.00000000000E+00  0.00000000000E+00  0.12965982911E+03  0.12965982921E+03  0.50400001928E-02 0.  1.
        1   -1    0    0  501    0  0.00000000000E+00  0.00000000000E+00 -0.48071350930E+03  0.48071350932E+03  0.50400001928E-02 0. -1.
    10030    2    1    2    0    0  0.00000000000E+00  0.00000000000E+00 -0.35105368018E+03  0.61037333853E+03  0.49931645879E+03 0.  0.
        1    1    3    3  502    0 -0.68901722288E+02  0.19123498135E+03  0.16645780004E+01  0.20327576410E+03  0.50400001928E-02 0.  1.
       -1    1    3    3    0  502  0.68901722288E+02 -0.19123498135E+03 -0.35271825818E+03  0.40709757443E+03  0.50400001928E-02 0. -1.
</event>
<event>
 5   0  0.1805500E-02  0.5007416E+03  0.7818609E-02  0.1013586E+00
        3   -1    0    0  501    0  0.00000000000E+00  0.00000000000E+00  0.45504607526E+03  0.45504608647E+03  0.10100000352E+00 0. -1.
       -3   -1    0    0    0  501  0.00000000000E+00  0.00000000000E+00 -0.13775642850E+03  0.13775646552E+03  0.10100000352E+00 0.  1.
    10030    2    1    2    0    0  0.00000000000E+00  0.00000000000E+00  0.31728964676E+03  0.59280255199E+03  0.50074159574E+03 0.  0.
        4    1    3    3  502    0 -0.25740293169E+02 -0.99051725423E+02 -0.11185919864E+03  0.15161761185E+03  0.12699999809E+01 0.  1.
       -4    1    3    3    0  502  0.25740293169E+02  0.99051725423E+02  0.42914884540E+03  0.44118494015E+03  0.12699999809E+01 0. -1.
</event>
<event>
 5   0  0.2719671E-02  0.5003079E+03  0.7818609E-02  0.1013699E+00
        1   -1    0    0  501    0  0.00000000000E+00  0.00000000000E+00  0.29422113725E+03  0.29422113729E+03  0.50400001928E-02 0. -1.
       -1   -1    0    0    0  501  0.00000000000E+00  0.00000000000E+00 -0.21268694364E+03  0.21268694370E+03  0.50400001928E-02 0.  1.
    10030    2    1    2    0    0  0.00000000000E+00  0.00000000000E+00  0.81534193608E+02  0.50690808100E+03  0.50030788306E+03 0.  0.
        2    1    3    3  502    0  0.21266793559E+03 -0.10381197419E+03  0.12290704890E+03  0.26666593238E+03  0.25500000920E-02 0. -1.
       -2    1    3    3    0  502 -0.21266793559E+03  0.10381197419E+03 -0.41372855295E+02  0.24024214862E+03  0.25500000920E-02 0.  1.
</event>
<event>
 5   0  0.2723308E-02  0.4988417E+03  0.7818609E-02  0.1014082E+00
        1   -1    0    0  501    0  0.00000000000E+00  0.00000000000E+00  0.27077129915E+03  0.27077129920E+03  0.50400001928E-02 0.  1.
       -1   -1    0    0    0  501  0.00000000000E+00  0.00000000000E+00 -0.22975389621E+03  0.22975389627E+03  0.50400001928E-02 0. -1.
    10030    2    1    2    0    0  0.00000000000E+00  0.00000000000E+00  0.41017402944E+02  0.50052519547E+03  0.49884170230E+03 0.  0.
        4    1    3    3  502    0  0.59539869123E+02 -0.16138349735E+03  0.20172696590E+03  0.26511320394E+03  0.12699999809E+01 0.  1.
       -4    1    3    3    0  502 -0.59539869123E+02  0.16138349735E+03 -0.16070956295E+03  0.23541199153E+03  0.12699999809E+01 0. -1.
</event>
<event>
 5   0  0.2723308E-02  0.5005337E+03  0.7818609E-02  0.1013640E+00
       -1   -1    0    0    0  501  0.00000000000E+00  0.00000000000E+00  0.12733123415E+03  0.12733123425E+03  0.50400001928E-02 0.  1.
        1   -1    0    0  501    0  0.00000000000E+00  0.00000000000E+00 -0.49189413068E+03  0.49189413070E+03  0.50400001928E-02 0. -1.
    10030    2    1    2    0    0  0.00000000000E+00  0.00000000000E+00 -0.36456289653E+03  0.61922536495E+03  0.50053366228E+03 0.  0.
        4    1    3    3  502    0 -0.78832084272E+02  0.31263853055E+02 -0.47357230577E+03  0.48110733491E+03  0.12699999809E+01 0. -1.
       -4    1    3    3    0  502  0.78832084272E+02 -0.31263853055E+02  0.10900940924E+03  0.13811803004E+03  0.12699999809E+01 0.  1.
</event>
<event>
 5   0  0.2643185E-02  0.5038500E+03  0.7818609E-02  0.1012779E+00
       -1   -1    0    0    0  501  0.00000000000E+00  0.00000000000E+00  0.19915664510E+03  0.19915664516E+03  0.50400001928E-02 0.  1.
        1   -1    0    0  501    0  0.00000000000E+00  0.00000000000E+00 -0.31867475076E+03  0.31867475080E+03  0.50400001928E-02 0. -1.
    10030    2    1    2    0    0  0.00000000000E+00  0.00000000000E+00 -0.11951810566E+03  0.51783139596E+03  0.50384995491E+03 0.  0.
        1    1    3    3  502    0 -0.62753863655E+02  0.22978298265E+02 -0.30939877593E+03  0.31653380888E+03  0.50400001928E-02 0. -1.
       -1    1    3    3    0  502  0.62753863655E+02 -0.22978298265E+02  0.18988067027E+03  0.20129758708E+03  0.50400001928E-02 0.  1.
</event>
<event>
 5   0  0.4631619E-02  0.5012340E+03  0.7818609E-02  0.1013457E+00
        2   -1    0    0  501    0  0.00000000000E+00  0.00000000000E+00  0.60980656577E+03  0.60980656577E+03  0.25500000920E-02 0. -1.
       -2   -1    0    0    0  501  0.00000000000E+00  0.00000000000E+00 -0.10299805348E+03  0.10299805352E+03  0.25500000920E-02 0.  1.
    10030    2    1    2    0    0  0.00000000000E+00  0.00000000000E+00  0.50680851228E+03  0.71280461929E+03  0.50123403431E+03 0.  0.
        5    1    3    3  502    0 -0.19547145535E+03 -0.88232291799E+02  0.43768974979E+03  0.48743044042E+03  0.46999998093E+01 0. -1.
       -5    1    3    3    0  502  0.19547145535E+03  0.88232291799E+02  0.69118762488E+02  0.22537417887E+03  0.46999998093E+01 0.  1.
</event>
<event>
 5   0  0.4534223E-02  0.5067889E+03  0.7818609E-02  0.1012022E+00
       -2   -1    0    0    0  501  0.00000000000E+00  0.00000000000E+00  0.26924510445E+03  0.26924510447E+03  0.25500000920E-02 0.  1.
        2   -1    0    0  501    0  0.00000000000E+00  0.00000000000E+00 -0.23847693340E+03  0.23847693341E+03  0.25500000920E-02 0. -1.
    10030    2    1    2    0    0  0.00000000000E+00  0.00000000000E+00  0.30768171055E+02  0.50772203788E+03  0.50678889826E+03 0.  0.
        2    1    3    3  502    0  0.27757680026E+01 -0.78497001015E+02  0.25674106694E+03  0.26848735448E+03  0.25500000920E-02 0.  1.
       -2    1    3    3    0  502 -0.27757680026E+01  0.78497001015E+02 -0.22597289589E+03  0.23923468339E+03  0.25500000920E-02 0. -1.
</event>
<event>
 5   0  0.2719671E-02  0.4998114E+03  0.7818609E-02  0.1013828E+00
        1   -1    0    0  501    0  0.00000000000E+00  0.00000000000E+00  0.61758038137E+03  0.61758038139E+03  0.50400001928E-02 0. -1.
       -1   -1    0    0    0  501  0.00000000000E+00  0.00000000000E+00 -0.10112505025E+03  0.10112505038E+03  0.50400001928E-02 0.  1.
    10030    2    1    2    0    0  0.00000000000E+00  0.00000000000E+00  0.51645533112E+03  0.71870543177E+03  0.49981135302E+03 0.  0.
        2    1    3    3  502    0 -0.94238916525E+02 -0.73254011920E+02  0.57394186362E+03  0.58622213065E+03  0.25500000920E-02 0. -1.
       -2    1    3    3    0  502  0.94238916525E+02  0.73254011920E+02 -0.57486532492E+02  0.13248330112E+03  0.25500000920E-02 0.  1.
</event>
<event>
 5   0  0.2723308E-02  0.5052245E+03  0.7818609E-02  0.1012424E+00
        1   -1    0    0  501    0  0.00000000000E+00  0.00000000000E+00  0.70798853695E+03  0.70798853697E+03  0.50400001928E-02 0. -1.
       -1   -1    0    0    0  501  0.00000000000E+00  0.00000000000E+00 -0.90132736192E+02  0.90132736333E+02  0.50400001928E-02 0.  1.
    10030    2    1    2    0    0  0.00000000000E+00  0.00000000000E+00  0.61785580076E+03  0.79812127330E+03  0.50522448116E+03 0.  0.
        4    1    3    3  502    0  0.66151906437E+02 -0.16653356845E+03  0.27655806443E+02  0.18131729282E+03  0.12699999809E+01 0.  1.
       -4    1    3    3    0  502 -0.66151906437E+02  0.16653356845E+03  0.59019999431E+03  0.61680398048E+03  0.12699999809E+01 0. -1.
</event>
<event>
 5   0  0.2643185E-02  0.5034524E+03  0.7818609E-02  0.1012882E+00
       -1   -1    0    0    0  501  0.00000000000E+00  0.00000000000E+00  0.67823264104E+02  0.67823264291E+02  0.50400001928E-02 0. -1.
        1   -1    0    0  501    0  0.00000000000E+00  0.00000000000E+00 -0.93428230905E+03  0.93428230906E+03  0.50400001928E-02 0.  1.
    10030    2    1    2    0    0  0.00000000000E+00  0.00000000000E+00 -0.86645904495E+03  0.10021055734E+04  0.50345238462E+03 0.  0.
        1    1    3    3  502    0 -0.10866885891E+03  0.21959813422E+03 -0.54815750572E+03  0.60042394402E+03  0.50400001928E-02 0.  1.
       -1    1    3    3    0  502  0.10866885891E+03 -0.21959813422E+03 -0.31830153922E+03  0.40168162933E+03  0.50400001928E-02 0. -1.
</event>
<event>
 5   0  0.2643185E-02  0.5025090E+03  0.7818609E-02  0.1013126E+00
        1   -1    0    0  501    0  0.00000000000E+00  0.00000000000E+00  0.99969660632E+03  0.99969660633E+03  0.50400001928E-02 0.  1.
       -1   -1    0    0    0  501  0.00000000000E+00  0.00000000000E+00 -0.63147979572E+02  0.63147979773E+02  0.50400001928E-02 0. -1.
    10030    2    1    2    0    0  0.00000000000E+00  0.00000000000E+00  0.93654862675E+03  0.10628445861E+04  0.50250898893E+03 0.  0.
        1    1    3    3  502    0 -0.15003069920E+03  0.34551796065E+02  0.88824221375E+03  0.90148614389E+03  0.50400001928E-02 0.  1.
       -1    1    3    3    0  502  0.15003069920E+03 -0.34551796065E+02  0.48306413000E+02  0.16135844222E+03  0.50400001928E-02 0. -1.
</event>
<event>
 5   0  0.1805500E-02  0.5001143E+03  0.7818609E-02  0.1013749E+00
       -3   -1    0    0    0  501  0.00000000000E+00  0.00000000000E+00  0.44524807000E+03  0.44524808145E+03  0.10100000352E+00 0. -1.
        3   -1    0    0  501    0  0.00000000000E+00  0.00000000000E+00 -0.14043533767E+03  0.14043537399E+03  0.10100000352E+00 0.  1.
    10030    2    1    2    0    0  0.00000000000E+00  0.00000000000E+00  0.30481273232E+03  0.58568345545E+03  0.50011429513E+03 0.  0.
        3    1    3    3  502    0 -0.65444357395E+01 -0.22744482002E+03  0.30958290426E+02  0.22963536692E+03  0.10100000352E+00 0. -1.
       -3    1    3    3    0  502  0.65444357395E+01  0.22744482002E+03  0.27385444190E+03  0.35604808852E+03  0.10100000352E+00 0.  1.
</event>
<event>
 5   0  0.2719671E-02  0.4976042E+03  0.7818609E-02  0.1014406E+00
       -1   -1    0    0    0  501  0.00000000000E+00  0.00000000000E+00  0.89584134343E+02  0.89584134484E+02  0.50400001928E-02 0.  1.
        1   -1    0    0  501    0  0.00000000000E+00  0.00000000000E+00 -0.69099823981E+03  0.69099823983E+03  0.50400001928E-02 0. -1.
    10030    2    1    2    0    0  0.00000000000E+00  0.00000000000E+00 -0.60141410547E+03  0.78058237432E+03  0.49760417687E+03 0.  0.
        2    1    3    3  502    0 -0.58503194579E+02 -0.87569621110E+02  0.52895487439E+02  0.11785158003E+03  0.25500000920E-02 0.  1.
       -2    1    3    3    0  502  0.58503194579E+02  0.87569621110E+02 -0.65430959291E+03  0.66273079429E+03  0.25500000920E-02 0. -1.
</event>
<event>
 5   0  0.2723308E-02  0.5003263E+03  0.7818609E-02  0.1013694E+00
        1   -1    0    0  501    0  0.00000000000E+00  0.00000000000E+00  0.51139737897E+02  0.51139738145E+02  0.50400001928E-02 0. -1.
       -1   -1    0    0    0  501  0.00000000000E+00  0.00000000000E+00 -0.12237372244E+04  0.12237372244E+04  0.50400001928E-02 0.  1.
    10030    2    1    2    0    0  0.00000000000E+00  0.00000000000E+00 -0.11725974865E+04  0.12748769626E+04  0.50032629784E+03 0.  0.
        4    1    3    3  502    0  0.19251414781E+03  0.16604196898E+02 -0.99113734314E+03  0.10097981196E+04  0.12699999809E+01 0.  1.
       -4    1    3    3    0  502 -0.19251414781E+03 -0.16604196898E+02 -0.18146014338E+03  0.26507884298E+03  0.12699999809E+01 0. -1.
</event>
<event>
 5   0  0.2779445E-02  0.4973257E+03  0.7818609E-02  0.1014479E+00
        1   -1    0    0  501    0  0.00000000000E+00  0.00000000000E+00  0.20397209970E+03  0.20397209976E+03  0.50400001928E-02 0. -1.
       -1   -1    0    0    0  501  0.00000000000E+00  0.00000000000E+00 -0.30314549546E+03  0.30314549550E+03  0.50400001928E-02 0.  1.
    10030    2    1    2    0    0  0.00000000000E+00  0.00000000000E+00 -0.99173395761E+02  0.50711759527E+03  0.49732574134E+03 0.  0.
        3    1    3    3  502    0  0.50882851820E+02 -0.22744759813E+03  0.38790041093E+02  0.23627558484E+03  0.10100000352E+00 0. -1.
       -3    1    3    3    0  502 -0.50882851820E+02  0.22744759813E+03 -0.13796343685E+03  0.27084201043E+03  0.10100000352E+00 0.  1.
</event>
<event>
 5   0  0.4534223E-02  0.4982470E+03  0.7818609E-02  0.1014237E+00
        2   -1    0    0  501    0  0.00000000000E+00  0.00000000000E+00  0.64379044140E+03  0.64379044141E+03  0.25500000920E-02 0.  1.
       -2   -1    0    0    0  501  0.00000000000E+00  0.00000000000E+00 -0.96401749012E+02  0.96401749046E+02  0.25500000920E-02 0. -1.
    10030    2    1    2    0    0  0.00000000000E+00  0.00000000000E+00  0.54738869239E+03  0.74019219045E+03  0.49824702533E+03 0.  0.
        2    1    3    3  502    0  0.72660902514E+02 -0.21556626114E+03  0.12281994641E+03  0.25852109959E+03  0.25500000920E-02 0. -1.
       -2    1    3    3    0  502 -0.72660902514E+02  0.21556626114E+03  0.42456874598E+03  0.48167109086E+03  0.25500000920E-02 0.  1.
</event>
<event>
 5   0  0.2715483E-02  0.5010360E+03  0.7818609E-02  0.1013509E+00
        1   -1    0    0  501    0  0.00000000000E+00  0.00000000000E+00  0.31968528832E+03  0.31968528836E+03  0.50400001928E-02 0.  1.
       -1   -1    0    0    0  501  0.00000000000E+00  0.00000000000E+00 -0.19631577337E+03  0.19631577344E+03  0.50400001928E-02 0. -1.
    10030    2    1    2    0    0  0.00000000000E+00  0.00000000000E+00  0.12336951495E+03  0.51600106180E+03  0.50103598530E+03 0.  0.
        5    1    3    3  502    0  0.84819809728E+02 -0.20194360039E+03 -0.63441298950E+02  0.22808442795E+03  0.46999998093E+01 0. -1.
       -5    1    3    3    0  502 -0.84819809728E+02  0.20194360039E+03  0.18681081390E+03  0.28791663385E+03  0.46999998093E+01 0.  1.
</event>
<event>
 5   0  0.4451135E-02  0.5001966E+03  0.7818609E-02  0.1013728E+00
       -2   -1    0    0    0  501  0.00000000000E+00  0.00000000000E+00  0.59180659643E+02  0.59180659698E+02  0.25500000920E-02 0. -1.
        2   -1    0    0  501    0  0.00000000000E+00  0.00000000000E+00 -0.10569187577E+04  0.10569187577E+04  0.25500000920E-02 0.  1.
    10030    2    1    2    0    0  0.00000000000E+00  0.00000000000E+00 -0.99773809809E+03  0.11160994174E+04  0.50019655858E+03 0.  0.
        1    1    3    3  502    0  0.10103469398E+03  0.15865047938E+03 -0.13106516239E+03  0.22925108683E+03  0.50400001928E-02 0. -1.
       -1    1    3    3    0  502 -0.10103469398E+03 -0.15865047938E+03 -0.86667293570E+03  0.88684833061E+03  0.50400001928E-02 0.  1.
</event>
<event>
 5   0  0.2779445E-02  0.5005482E+03  0.7818609E-02  0.1013636E+00
       -1   -1    0    0    0  501  0.00000000000E+00  0.00000000000E+00  0.75740624456E+02  0.75740624623E+02  0.50400001928E-02 0.  1.
        1   -1    0    0  501    0  0.00000000000E+00  0.00000000000E+00 -0.82699525827E+03  0.82699525829E+03  0.50400001928E-02 0. -1.
    10030    2    1    2    0    0  0.00000000000E+00  0.00000000000E+00 -0.75125463382E+03  0.90273588291E+03  0.50054824889E+03 0.  0.
        3    1    3    3  502    0 -0.10153682956E+03  0.72916273256E+01  0.36715646688E+02  0.10821711740E+03  0.10100000352E+00 0.  1.
       -3    1    3    3    0  502  0.10153682956E+03 -0.72916273256E+01 -0.78797028050E+03  0.79451876551E+03  0.10100000352E+00 0. -1.
</event>
<event>
 5   0  0.4451135E-02  0.4993121E+03  0.7818609E-02  0.1013959E+00
       -2   -1    0    0    0  501  0.00000000000E+00  0.00000000000E+00  0.42568536080E+02  0.42568536156E+02  0.25500000920E-02 0. -1.
        2   -1    0    0  501    0  0.00000000000E+00  0.00000000000E+00 -0.14641831209E+04  0.14641831209E+04  0.25500000920E-02 0.  1.
    10030    2    1    2    0    0  0.00000000000E+00  0.00000000000E+00 -0.14216145848E+04  0.15067516571E+04  0.49931205501E+03 0.  0.
        1    1    3    3  502    0  0.23346545665E+03 -0.87781643911E+02 -0.74336380585E+03  0.78409277788E+03  0.50400001928E-02 0.  1.
       -1    1    3    3    0  502 -0.23346545665E+03  0.87781643911E+02 -0.67825077899E+03  0.72265887920E+03  0.50400001928E-02 0. -1.
</event>
<event>
 5   0  0.2643185E-02  0.4944819E+03  0.7818609E-02  0.1015229E+00
       -1   -1    0    0    0  501  0.00000000000E+00  0.00000000000E+00  0.11074728496E+03  0.11074728508E+03  0.50400001928E-02 0.  1.
        1   -1    0    0  501    0  0.00000000000E+00  0.00000000000E+00 -0.55196021552E+03  0.55196021555E+03  0.50400001928E-02 0. -1.
    10030    2    1    2    0    0  0.00000000000E+00  0.00000000000E+00 -0.44121293056E+03  0.66270750062E+03  0.49448193222E+03 0.  0.
        1    1    3    3  502    0  0.28464289514E+02  0.28889290794E+02  0.10625892865E+03  0.11373551268E+03  0.50400001928E-02 0.  1.
       -1    1    3    3    0  502 -0.28464289514E+02 -0.28889290794E+02 -0.54747185921E+03  0.54897198795E+03  0.50400001928E-02 0. -1.
</event>
<event>
 5   0  0.4631619E-02  0.5010710E+03  0.7818609E-02  0.1013500E+00
       -2   -1    0    0    0  501  0.00000000000E+00  0.00000000000E+00  0.82292645917E+02  0.82292645956E+02  0.25500000920E-02 0.  1.
        2   -1    0    0  501    0  0.00000000000E+00  0.00000000000E+00 -0.76274181969E+03  0.76274181969E+03  0.25500000920E-02 0. -1.
    10030    2    1    2    0    0  0.00000000000E+00  0.00000000000E+00 -0.68044917377E+03  0.84503446565E+03  0.50107102296E+03 0.  0.
        5    1    3    3  502    0  0.17934974985E+03  0.20068610603E+02 -0.47261950828E+02  0.18661421140E+03  0.46999998093E+01 0.  1.
       -5    1    3    3    0  502 -0.17934974985E+03 -0.20068610603E+02 -0.63318722295E+03  0.65842025425E+03  0.46999998093E+01 0. -1.
</event>
<event>
 5   0  0.2719671E-02  0.4998918E+03  0.7818609E-02  0.1013807E+00
       -1   -1    0    0    0  501  0.00000000000E+00  0.00000000000E+00  0.56100115054E+02  0.56100115280E+02  0.50400001928E-02 0.  1.
        1   -1    0    0  501    0  0.00000000000E+00  0.00000000000E+00 -0.11135976566E+04  0.11135976566E+04  0.50400001928E-02 0. -1.
    10030    2    1    2    0    0  0.00000000000E+00  0.00000000000E+00 -0.10574975416E+04  0.11696977719E+04  0.49989181549E+03 0.  0.
        2    1    3    3  502    0 -0.11397677960E+03 -0.11838219990E+03 -0.96942071961E+03  0.98325051902E+03  0.25500000920E-02 0. -1.
       -2    1    3    3    0  502  0.11397677960E+03  0.11838219990E+03 -0.88076821969E+02  0.18644725290E+03  0.25500000920E-02 0.  1.
</event>
<event>
 5   0  0.4409622E-02  0.5011672E+03  0.7818609E-02  0.1013475E+00
       -2   -1    0    0    0  501  0.00000000000E+00  0.00000000000E+00  0.73179379195E+02  0.73179379240E+02  0.25500000920E-02 0. -1.
        2   -1    0    0  501    0  0.00000000000E+00  0.00000000000E+00 -0.85805769667E+03  0.85805769668E+03  0.25500000920E-02 0.  1.
    10030    2    1    2    0    0  0.00000000000E+00  0.00000000000E+00 -0.78487831748E+03  0.93123707592E+03  0.50116715606E+03 0.  0.
        3    1    3    3  502    0  0.84654289257E+02  0.91739210661E+02 -0.79617120359E+03  0.80589765299E+03  0.10100000352E+00 0.  1.
       -3    1    3    3    0  502 -0.84654289257E+02 -0.91739210661E+02  0.11292886114E+02  0.12533942293E+03  0.10100000352E+00 0. -1.
</event>
<event>
 5   0  0.4534223E-02  0.4979390E+03  0.7818609E-02  0.1014318E+00
        2   -1    0    0  501    0  0.00000000000E+00  0.00000000000E+00  0.20580385921E+04  0.20580385921E+04  0.25500000920E-02 0.  1.
       -2   -1    0    0    0  501  0.00000000000E+00  0.00000000000E+00 -0.30118882770E+02  0.30118882878E+02  0.25500000920E-02 0. -1.
    10030    2    1    2    0    0  0.00000000000E+00  0.00000000000E+00  0.20279197093E+04  0.20881574750E+04  0.49793904528E+03 0.  0.
        2    1    3    3  502    0 -0.14524697213E+03  0.18474279893E+03  0.66918470854E+03  0.70924943343E+03  0.25500000920E-02 0. -1.
       -2    1    3    3    0  502  0.14524697213E+03 -0.18474279893E+03  0.13587350008E+04  0.13789080415E+04  0.25500000920E-02 0.  1.
</event>
<event>
 5   0  0.1805500E-02  0.4936837E+03  0.7818609E-02  0.1015441E+00
       -4   -1    0    0    0  501  0.00000000000E+00  0.00000000000E+00  0.14752904785E+03  0.14753451413E+03  0.12699999809E+01 0.  1.
        4   -1    0    0  501    0  0.00000000000E+00  0.00000000000E+00 -0.41299546401E+03  0.41299741669E+03  0.12699999809E+01 0. -1.
    10030    2    1    2    0    0  0.00000000000E+00  0.00000000000E+00 -0.26546641615E+03  0.56053193082E+03  0.49368373213E+03 0.  0.
        1    1    3    3  502    0  0.48787515129E+02  0.88619012740E+02  0.12291584880E+03  0.15919125907E+03  0.50400001928E-02 0.  1.
       -1    1    3    3    0  502 -0.48787515129E+02 -0.88619012740E+02 -0.38838226495E+03  0.40134067176E+03  0.50400001928E-02 0. -1.
</event>
<event>
 5   0  0.4631619E-02  0.4827676E+03  0.7818609E-02  0.1018377E+00
        2   -1    0    0  501    0  0.00000000000E+00  0.00000000000E+00  0.89923150577E+03  0.89923150577E+03  0.25500000920E-02 0.  1.
       -2   -1    0    0    0  501  0.00000000000E+00  0.00000000000E+00 -0.64795475625E+02  0.64795475676E+02  0.25500000920E-02 0. -1.
    10030    2    1    2    0    0  0.00000000000E+00  0.00000000000E+00  0.83443603014E+03  0.96402698145E+03  0.48276757613E+03 0.  0.
        5    1    3    3  502    0  0.21422055216E+03 -0.10853745934E+03  0.36940886309E+03  0.44063116456E+03  0.46999998093E+01 0. -1.
       -5    1    3    3    0  502 -0.21422055216E+03  0.10853745934E+03  0.46502716705E+03  0.52339581689E+03  0.46999998093E+01 0.  1.
</event>
<event>
 5   0  0.4631619E-02  0.5011594E+03  0.7818609E-02  0.1013477E+00
        2   -1    0    0  501    0  0.00000000000E+00  0.00000000000E+00  0.79332058946E+03  0.79332058947E+03  0.25500000920E-02 0. -1.
       -2   -1    0    0    0  501  0.00000000000E+00  0.00000000000E+00 -0.79148577494E+02  0.79148577535E+02  0.25500000920E-02 0.  1.
    10030    2    1    2    0    0  0.00000000000E+00  0.00000000000E+00  0.71417201197E+03  0.87246916700E+03  0.50115944039E+03 0.  0.
        5    1    3    3  502    0 -0.17873495922E+03  0.95587115471E+02  0.10072372637E+03  0.22638560321E+03  0.46999998093E+01 0.  1.
       -5    1    3    3    0  502  0.17873495922E+03 -0.95587115471E+02  0.61344828560E+03  0.64608356379E+03  0.46999998093E+01 0. -1.
</event>
<event>
 5   0  0.4409622E-02  0.4996610E+03  0.7818609E-02  0.1013867E+00
       -2   -1    0    0    0  501  0.00000000000E+00  0.00000000000E+00  0.18709478216E+03  0.18709478218E+03  0.25500000920E-02 0.  1.
        2   -1    0    0  501    0  0.00000000000E+00  0.00000000000E+00 -0.33360243564E+03  0.33360243565E+03  0.25500000920E-02 0. -1.
    10030    2    1    2    0    0  0.00000000000E+00  0.00000000000E+00 -0.14650765348E+03  0.52069721783E+03  0.49966098519E+03 0.  0.
        3    1    3    3  502    0  0.11612894491E+03  0.28972041278E+02 -0.30178055245E+03  0.32464876877E+03  0.10100000352E+00 0. -1.
       -3    1    3    3    0  502 -0.11612894491E+03 -0.28972041278E+02  0.15527289897E+03  0.19604844906E+03  0.10100000352E+00 0.  1.
</event>
<event>
 5   0  0.4451135E-02  0.5004975E+03  0.7818609E-02  0.1013649E+00
        2   -1    0    0  501    0  0.00000000000E+00  0.00000000000E+00  0.86146221429E+03  0.86146221429E+03  0.25500000920E-02 0. -1.
       -2   -1    0    0    0  501  0.00000000000E+00  0.00000000000E+00 -0.72695502364E+02  0.72695502409E+02  0.25500000920E-02 0.  1.
    10030    2    1    2    0    0  0.00000000000E+00  0.00000000000E+00  0.78876671192E+03  0.93415771670E+03  0.50049746636E+03 0.  0.
        1    1    3    3  502    0  0.19681394978E+03 -0.13631220207E+03  0.53036200935E+03  0.58189398368E+03  0.50400001928E-02 0. -1.
       -1    1    3    3    0  502 -0.19681394978E+03  0.13631220207E+03  0.25840470258E+03  0.35226373302E+03  0.50400001928E-02 0.  1.
</event>
<event>
 5   0  0.2715483E-02  0.5002150E+03  0.7818609E-02  0.1013723E+00
       -1   -1    0    0    0  501  0.00000000000E+00  0.00000000000E+00  0.10782169693E+03  0.10782169705E+03  0.50400001928E-02 0.  1.
        1   -1    0    0  501    0  0.00000000000E+00  0.00000000000E+00 -0.58015938242E+03  0.58015938244E+03  0.50400001928E-02 0. -1.
    10030    2    1    2    0    0  0.00000000000E+00  0.00000000000E+00 -0.47233768548E+03  0.68798107949E+03  0.50021503037E+03 0.  0.
        5    1    3    3  502    0  0.19479992521E+03 -0.36124354181E+02 -0.44601858535E+03  0.48806418461E+03  0.46999998093E+01 0. -1.
       -5    1    3    3    0  502 -0.19479992521E+03  0.36124354181E+02 -0.26319100135E+02  0.19991689488E+03  0.46999998093E+01 0.  1.
</event>
<event>
 5   0  0.2643185E-02  0.5032506E+03  0.7818609E-02  0.1012934E+00
        1   -1    0    0  501    0  0.00000000000E+00  0.00000000000E+00  0.13602457164E+04  0.13602457164E+04  0.50400001928E-02 0.  1.
       -1   -1    0    0    0  501  0.00000000000E+00  0.00000000000E+00 -0.46546958298E+02  0.46546958571E+02  0.50400001928E-02 0. -1.
    10030    2    1    2    0    0  0.00000000000E+00  0.00000000000E+00  0.13136987581E+04  0.14067926750E+04  0.50325063671E+03 0.  0.
        1    1    3    3  502    0 -0.12816805758E+02 -0.52986559779E+02  0.13435395810E+04  0.13446451026E+04  0.50400001928E-02 0.  1.
       -1    1    3    3    0  502  0.12816805758E+02  0.52986559779E+02 -0.29840822884E+02  0.62147572461E+02  0.50400001928E-02 0. -1.
</event>
<event>
 5   0  0.1805500E-02  0.5017651E+03  0.7818609E-02  0.1013319E+00
        3   -1    0    0  501    0  0.00000000000E+00  0.00000000000E+00  0.37529075446E+03  0.37529076805E+03  0.10100000352E+00 0.  1.
       -3   -1    0    0    0  501  0.00000000000E+00  0.00000000000E+00 -0.16771539502E+03  0.16771542543E+03  0.10100000352E+00 0. -1.
    10030    2    1    2    0    0  0.00000000000E+00  0.00000000000E+00  0.20757535944E+03  0.54300619348E+03  0.50176508080E+03 0.  0.
        2    1    3    3  502    0 -0.54891893970E+02 -0.18197987238E+03  0.28099065935E+03  0.33924260438E+03  0.25500000920E-02 0.  1.
       -2    1    3    3    0  502  0.54891893970E+02  0.18197987238E+03 -0.73415299913E+02  0.20376358910E+03  0.25500000920E-02 0. -1.
</event>
<event>
 5   0  0.4534223E-02  0.4973617E+03  0.7818609E-02  0.1014470E+00
        2   -1    0    0  501    0  0.00000000000E+00  0.00000000000E+00  0.25767636695E+03  0.25767636697E+03  0.25500000920E-02 0.  1.
       -2   -1    0    0    0  501  0.00000000000E+00  0.00000000000E+00 -0.23999935932E+03  0.23999935933E+03  0.25500000920E-02 0. -1.
    10030    2    1    2    0    0  0.00000000000E+00  0.00000000000E+00  0.17677007635E+02  0.49767572630E+03  0.49736169128E+03 0.  0.
        2    1    3    3  502    0  0.23086406819E+03 -0.80284648763E+02  0.54674851552E+02  0.25046593023E+03  0.25500000920E-02 0.  1.
       -2    1    3    3    0  502 -0.23086406819E+03  0.80284648763E+02 -0.36997843917E+02  0.24720979606E+03  0.25500000920E-02 0. -1.
</event>
<event>
 5   0  0.2719671E-02  0.4999368E+03  0.7818609E-02  0.1013795E+00
        1   -1    0    0  501    0  0.00000000000E+00  0.00000000000E+00  0.60262673247E+03  0.60262673249E+03  0.50400001928E-02 0. -1.
       -1   -1    0    0    0  501  0.00000000000E+00  0.00000000000E+00 -0.10368640192E+03  0.10368640205E+03  0.50400001928E-02 0.  1.
    10030    2    1    2    0    0  0.00000000000E+00  0.00000000000E+00  0.49894033055E+03  0.70631313454E+03  0.49993678658E+03 0.  0.
        2    1    3    3  502    0 -0.21507679099E+03  0.18949286771E+02  0.71506674985E+02  0.22744297322E+03  0.25500000920E-02 0.  1.
       -2    1    3    3    0  502  0.21507679099E+03 -0.18949286771E+02  0.42743365556E+03  0.47887016132E+03  0.25500000920E-02 0. -1.
</event>
<event>
 5   0  0.4409622E-02  0.4994601E+03  0.7818609E-02  0.1013920E+00
       -2   -1    0    0    0  501  0.00000000000E+00  0.00000000000E+00  0.15658798522E+03  0.15658798525E+03  0.25500000920E-02 0.  1.
        2   -1    0    0  501    0  0.00000000000E+00  0.00000000000E+00 -0.39827509384E+03  0.39827509385E+03  0.25500000920E-02 0. -1.
    10030    2    1    2    0    0  0.00000000000E+00  0.00000000000E+00 -0.24168710861E+03  0.55486307909E+03  0.49946008656E+03 0.  0.
        3    1    3    3  502    0 -0.17653867728E+03 -0.10511100099E+03  0.36856485261E+02  0.20874059933E+03  0.10100000352E+00 0.  1.
       -3    1    3    3    0  502  0.17653867728E+03  0.10511100099E+03 -0.27854359388E+03  0.34612247976E+03  0.10100000352E+00 0. -1.
</event>
<event>
 5   0  0.4631619E-02  0.5033493E+03  0.7818609E-02  0.1012908E+00
        2   -1    0    0  501    0  0.00000000000E+00  0.00000000000E+00  0.11675804654E+04  0.11675804654E+04  0.25500000920E-02 0. -1.
       -2   -1    0    0    0  501  0.00000000000E+00  0.00000000000E+00 -0.54249053715E+02  0.54249053775E+02  0.25500000920E-02 0.  1.
    10030    2    1    2    0    0  0.00000000000E+00  0.00000000000E+00  0.11133314117E+04  0.12218295192E+04  0.50334932373E+03 0.  0.
        5    1    3    3  502    0 -0.13646662701E+03  0.58953852742E+02  0.63841892429E+02  0.16185355810E+03  0.46999998093E+01 0.  1.
       -5    1    3    3    0  502  0.13646662701E+03 -0.58953852742E+02  0.10494895193E+04  0.10599759611E+04  0.46999998093E+01 0. -1.
</event>
<event>
 5   0  0.1805500E-02  0.5004123E+03  0.7818609E-02  0.1013671E+00
       -3   -1    0    0    0  501  0.00000000000E+00  0.00000000000E+00  0.18851274454E+03  0.18851277160E+03  0.10100000352E+00 0. -1.
        3   -1    0    0  501    0  0.00000000000E+00  0.00000000000E+00 -0.33208957186E+03  0.33208958722E+03  0.10100000352E+00 0.  1.
    10030    2    1    2    0    0  0.00000000000E+00  0.00000000000E+00 -0.14357682732E+03  0.52060235882E+03  0.50041234064E+03 0.  0.
        2    1    3    3  502    0 -0.19127175068E+03  0.86595435911E+02 -0.21336533428E+03  0.29934665191E+03  0.25500000920E-02 0. -1.
       -2    1    3    3    0  502  0.19127175068E+03 -0.86595435911E+02  0.69788506957E+02  0.22125570691E+03  0.25500000920E-02 0.  1.
</event>
<event>
 5   0  0.2779445E-02  0.5025003E+03  0.7818609E-02  0.1013128E+00
        1   -1    0    0  501    0  0.00000000000E+00  0.00000000000E+00  0.57701024847E+03  0.57701024849E+03  0.50400001928E-02 0. -1.
       -1   -1    0    0    0  501  0.00000000000E+00  0.00000000000E+00 -0.10940298727E+03  0.10940298739E+03  0.50400001928E-02 0.  1.
    10030    2    1    2    0    0  0.00000000000E+00  0.00000000000E+00  0.46760726120E+03  0.68641323588E+03  0.50250032803E+03 0.  0.
        3    1    3    3  502    0  0.13461501686E+03 -0.18395671034E+03  0.37814329059E+03  0.44153553930E+03  0.10100000352E+00 0.  1.
       -3    1    3    3    0  502 -0.13461501686E+03  0.18395671034E+03  0.89463970609E+02  0.24487769658E+03  0.10100000352E+00 0. -1.
</event>
<event>
 5   0  0.2715483E-02  0.4991096E+03  0.7818609E-02  0.1014012E+00
       -1   -1    0    0    0  501  0.00000000000E+00  0.00000000000E+00  0.51956267920E+02  0.51956268165E+02  0.50400001928E-02 0.  1.
        1   -1    0    0  501    0  0.00000000000E+00  0.00000000000E+00 -0.11986539992E+04  0.11986539992E+04  0.50400001928E-02 0. -1.
    10030    2    1    2    0    0  0.00000000000E+00  0.00000000000E+00 -0.11466977313E+04  0.12506102674E+04  0.49910956107E+03 0.  0.
        5    1    3    3  502    0  0.87700431260E+01  0.98968940975E+02  0.13912107507E+00  0.99467956081E+02  0.46999998093E+01 0.  1.
       -5    1    3    3    0  502 -0.87700431260E+01 -0.98968940975E+02 -0.11468368524E+04  0.11511423113E+04  0.46999998093E+01 0. -1.
</event>
<event>
 5   0  0.4451135E-02  0.4995992E+03  0.7818609E-02  0.1013884E+00
        2   -1    0    0  501    0  0.00000000000E+00  0.00000000000E+00  0.27793349692E+04  0.27793349692E+04  0.25500000920E-02 0. -1.
       -2   -1    0    0    0  501  0.00000000000E+00  0.00000000000E+00 -0.22451360719E+02  0.22451360864E+02  0.25500000920E-02 0.  1.
    10030    2    1    2    0    0  0.00000000000E+00  0.00000000000E+00  0.27568836085E+04  0.28017863301E+04  0.49959924803E+03 0.  0.
        1    1    3    3  502    0  0.24961748031E+03 -0.56140598446E+01  0.14216814203E+04  0.14434398030E+04  0.50400001928E-02 0. -1.
       -1    1    3    3    0  502 -0.24961748031E+03  0.56140598446E+01  0.13352021882E+04  0.13583465271E+04  0.50400001928E-02 0.  1.
</event>
<event>
 5   0  0.4519539E-02  0.4995757E+03  0.7818609E-02  0.1013890E+00
        2   -1    0    0  501    0  0.00000000000E+00  0.00000000000E+00  0.80573687614E+03  0.80573687615E+03  0.25500000920E-02 0.  1.
       -2   -1    0    0    0  501  0.00000000000E+00  0.00000000000E+00 -0.77437150939E+02  0.77437150981E+02  0.25500000920E-02 0. -1.
    10030    2    1    2    0    0  0.00000000000E+00  0.00000000000E+00  0.72829972520E+03  0.88317402713E+03  0.49957569242E+03 0.  0.
        4    1    3    3  502    0  0.19618523063E+03  0.39916645945E+02  0.62820729391E+03  0.65933906327E+03  0.12699999809E+01 0.  1.
       -4    1    3    3    0  502 -0.19618523063E+03 -0.39916645945E+02  0.10009243129E+03  0.22383496385E+03  0.12699999809E+01 0. -1.
</event>
<event>
 5   0  0.1805500E-02  0.5038566E+03  0.7818609E-02  0.1012777E+00
       -4   -1    0    0    0  501  0.00000000000E+00  0.00000000000E+00  0.14890424113E+03  0.14890965693E+03  0.12699999809E+01 0.  1.
        4   -1    0    0  501    0  0.00000000000E+00  0.00000000000E+00 -0.42621872412E+03  0.42622061622E+03  0.12699999809E+01 0. -1.
    10030    2    1    2    0    0  0.00000000000E+00  0.00000000000E+00 -0.27731448299E+03  0.57513027315E+03  0.50385663499E+03 0.  0.
        1    1    3    3  502    0  0.14245650233E+03  0.74225942399E+02 -0.36018366268E+03  0.39438004065E+03  0.50400001928E-02 0. -1.
       -1    1    3    3    0  502 -0.14245650233E+03 -0.74225942399E+02  0.82869179686E+02  0.18075023250E+03  0.50400001928E-02 0.  1.
</event>
<event>
 5   0  0.2719671E-02  0.4991496E+03  0.7818609E-02  0.1014001E+00
        1   -1    0    0  501    0  0.00000000000E+00  0.00000000000E+00  0.93427009263E+02  0.93427009399E+02  0.50400001928E-02 0. -1.
       -1   -1    0    0    0  501  0.00000000000E+00  0.00000000000E+00 -0.66669780422E+03  0.66669780424E+03  0.50400001928E-02 0.  1.
    10030    2    1    2    0    0  0.00000000000E+00  0.00000000000E+00 -0.57327079496E+03  0.76012481364E+03  0.49914960479E+03 0.  0.
        2    1    3    3  502    0 -0.84660091292E+02 -0.21180783465E+03 -0.13240179311E+03  0.26374253487E+03  0.25500000920E-02 0. -1.
       -2    1    3    3    0  502  0.84660091292E+02  0.21180783465E+03 -0.44086900185E+03  0.49638227877E+03  0.25500000920E-02 0.  1.
</event>
<event>
 5   0  0.4409622E-02  0.5059289E+03  0.7818609E-02  0.1012243E+00
       -2   -1    0    0    0  501  0.00000000000E+00  0.00000000000E+00  0.61032221801E+03  0.61032221802E+03  0.25500000920E-02 0. -1.
        2   -1    0    0  501    0  0.00000000000E+00  0.00000000000E+00 -0.10484792752E+03  0.10484792756E+03  0.25500000920E-02 0.  1.
    10030    2    1    2    0    0  0.00000000000E+00  0.00000000000E+00  0.50547429049E+03  0.71517014557E+03  0.50592892661E+03 0.  0.
        3    1    3    3  502    0  0.18072827798E+03 -0.36945984323E+02  0.80480369432E+01  0.18464153736E+03  0.10100000352E+00 0.  1.
       -3    1    3    3    0  502 -0.18072827798E+03  0.36945984323E+02  0.49742625355E+03  0.53052860822E+03  0.10100000352E+00 0. -1.
</event>
<event>
 5   0  0.2723308E-02  0.5000773E+03  0.7818609E-02  0.1013759E+00
       -1   -1    0    0    0  501  0.00000000000E+00  0.00000000000E+00  0.32938111769E+03  0.32938111772E+03  0.50400001928E-02 0.  1.
        1   -1    0    0  501    0  0.00000000000E+00  0.00000000000E+00 -0.18980848427E+03  0.18980848433E+03  0.50400001928E-02 0. -1.
    10030    2    1    2    0    0  0.00000000000E+00  0.00000000000E+00  0.13957263342E+03  0.51918960206E+03  0.50007731691E+03 0.  0.
        4    1    3    3  502    0 -0.10632083127E+03  0.64466376947E+02  0.29500484131E+03  0.32013981666E+03  0.12699999809E+01 0.  1.
       -4    1    3    3    0  502  0.10632083127E+03 -0.64466376947E+02 -0.15543220789E+03  0.19904978540E+03  0.12699999809E+01 0. -1.
</event>
<event>
 5   0  0.4631619E-02  0.5028415E+03  0.7818609E-02  0.1013040E+00
       -2   -1    0    0    0  501  0.00000000000E+00  0.00000000000E+00  0.41839442052E+03  0.41839442053E+03  0.25500000920E-02 0.  1.
        2   -1    0    0  501    0  0.00000000000E+00  0.00000000000E+00 -0.15108324063E+03  0.15108324065E+03  0.25500000920E-02 0. -1.
    10030    2    1    2    0    0  0.00000000000E+00  0.00000000000E+00  0.26731117989E+03  0.56947766118E+03  0.50284146576E+03 0.  0.
        5    1    3    3  502    0  0.28876523617E+02  0.34132233637E+02  0.41380577725E+03  0.41624052455E+03  0.46999998093E+01 0.  1.
       -5    1    3    3    0  502 -0.28876523617E+02 -0.34132233637E+02 -0.14649459736E+03  0.15323713664E+03  0.46999998093E+01 0. -1.
</event>
<event>
 5   0  0.2719671E-02  0.4976151E+03  0.7818609E-02  0.1014403E+00
        1   -1    0    0  501    0  0.00000000000E+00  0.00000000000E+00  0.14057781422E+04  0.14057781422E+04  0.50400001928E-02 0.  1.
       -1   -1    0    0    0  501  0.00000000000E+00  0.00000000000E+00 -0.44036245886E+02  0.44036246175E+02  0.50400001928E-02 0. -1.
    10030    2    1    2    0    0  0.00000000000E+00  0.00000000000E+00  0.13617418963E+04  0.14498143883E+04  0.49761508074E+03 0.  0.
        2    1    3    3  502    0  0.23403229541E+03  0.68862782169E+02  0.53837617911E+03  0.59106861556E+03  0.25500000920E-02 0. -1.
       -2    1    3    3    0  502 -0.23403229541E+03 -0.68862782169E+02  0.82336571716E+03  0.85874577278E+03  0.25500000920E-02 0.  1.
</event>
<event>
 5   0  0.4451135E-02  0.4990444E+03  0.7818609E-02  0.1014029E+00
       -2   -1    0    0    0  501  0.00000000000E+00  0.00000000000E+00  0.55517549686E+02  0.55517549745E+02  0.25500000920E-02 0. -1.
        2   -1    0    0  501    0  0.00000000000E+00  0.00000000000E+00 -0.11214712432E+04  0.11214712432E+04  0.25500000920E-02 0.  1.
    10030    2    1    2    0    0  0.00000000000E+00  0.00000000000E+00 -0.10659536935E+04  0.11769887929E+04  0.49904442889E+03 0.  0.
        1    1    3    3  502    0  0.55232391606E+02  0.22101713409E+03 -0.29289576182E+03  0.37106214838E+03  0.50400001928E-02 0. -1.
       -1    1    3    3    0  502 -0.55232391606E+02 -0.22101713409E+03 -0.77305793168E+03  0.80592664456E+03  0.50400001928E-02 0.  1.
</event>
<event>
 5   0  0.4534223E-02  0.5032506E+03  0.7818609E-02  0.1012934E+00
        2   -1    0    0  501    0  0.00000000000E+00  0.00000000000E+00  0.47294221017E+03  0.47294221018E+03  0.25500000920E-02 0. -1.
       -2   -1    0    0    0  501  0.00000000000E+00  0.00000000000E+00 -0.13387532727E+03  0.13387532730E+03  0.25500000920E-02 0.  1.
    10030    2    1    2    0    0  0.00000000000E+00  0.00000000000E+00  0.33906688290E+03  0.60681753748E+03  0.50325060627E+03 0.  0.
        2    1    3    3  502    0 -0.24899170644E+03 -0.18995497807E+02  0.13222006013E+03  0.28255945060E+03  0.25500000920E-02 0.  1.
       -2    1    3    3    0  502  0.24899170644E+03  0.18995497807E+02  0.20684682277E+03  0.32425808688E+03  0.25500000920E-02 0. -1.
</event>
<event>
 5   0  0.2715483E-02  0.5003725E+03  0.7818609E-02  0.1013682E+00
        1   -1    0    0  501    0  0.00000000000E+00  0.00000000000E+00  0.33738567586E+03  0.33738567589E+03  0.50400001928E-02 0. -1.
       -1   -1    0    0    0  501  0.00000000000E+00  0.00000000000E+00 -0.18552409108E+03  0.18552409115E+03  0.50400001928E-02 0.  1.
    10030    2    1    2    0    0  0.00000000000E+00  0.00000000000E+00  0.15186158477E+03  0.52290976705E+03  0.50037254475E+03 0.  0.
        5    1    3    3  502    0 -0.36144100067E+02 -0.16018328960E+03  0.27312532391E+03  0.31872341426E+03  0.46999998093E+01 0. -1.
       -5    1    3    3    0  502  0.36144100067E+02  0.16018328960E+03 -0.12126373914E+03  0.20418635279E+03  0.46999998093E+01 0.  1.
</event>
<event>
 5   0  0.2723308E-02  0.5017377E+03  0.7818609E-02  0.1013326E+00
        1   -1    0    0  501    0  0.00000000000E+00  0.00000000000E+00  0.93138525404E+03  0.93138525406E+03  0.50400001928E-02 0. -1.
       -1   -1    0    0    0  501  0.00000000000E+00  0.00000000000E+00 -0.67571592764E+02  0.67571592952E+02  0.50400001928E-02 0.  1.
    10030    2    1    2    0    0  0.00000000000E+00  0.00000000000E+00  0.86381366128E+03  0.99895684701E+03  0.50173772110E+03 0.  0.
        4    1    3    3  502    0 -0.24521723940E+03  0.49127277034E+02  0.47115459452E+03  0.53341658081E+03  0.12699999809E+01 0.  1.
       -4    1    3    3    0  502  0.24521723940E+03 -0.49127277034E+02  0.39265906676E+03  0.46554026620E+03  0.12699999809E+01 0. -1.
</event>
<event>
 5   0  0.2715483E-02  0.4997185E+03  0.7818609E-02  0.1013852E+00
       -1   -1    0    0    0  501  0.00000000000E+00  0.00000000000E+00  0.36973956263E+03  0.36973956266E+03  0.50400001928E-02 0. -1.
        1   -1    0    0  501    0  0.00000000000E+00  0.00000000000E+00 -0.16884764032E+03  0.16884764040E+03  0.50400001928E-02 0.  1.
    10030    2    1    2    0    0  0.00000000000E+00  0.00000000000E+00  0.20089192230E+03  0.53858720306E+03  0.49971853163E+03 0.  0.
        5    1    3    3  502    0 -0.11794154675E+02 -0.24046431694E+03  0.28586381194E+02  0.24249012556E+03  0.46999998093E+01 0.  1.
       -5    1    3    3    0  502  0.11794154675E+02  0.24046431694E+03  0.17230554111E+03  0.29609707750E+03  0.46999998093E+01 0. -1.
</event>
<event>
 5   0  0.4519539E-02  0.5019825E+03  0.7818609E-02  0.1013263E+00
        2   -1    0    0  501    0  0.00000000000E+00  0.00000000000E+00  0.12929112148E+04  0.12929112148E+04  0.25500000920E-02 0.  1.
       -2   -1    0    0    0  501  0.00000000000E+00  0.00000000000E+00 -0.48724620481E+02  0.48724620548E+02  0.25500000920E-02 0. -1.
    10030    2    1    2    0    0  0.00000000000E+00  0.00000000000E+00  0.12441865943E+04  0.13416358353E+04  0.50198250289E+03 0.  0.
        4    1    3    3  502    0 -0.14054587581E+03 -0.10691778565E+03  0.14540893644E+03  0.22875735571E+03  0.12699999809E+01 0. -1.
       -4    1    3    3    0  502  0.14054587581E+03  0.10691778565E+03  0.10987776578E+04  0.11128784796E+04  0.12699999809E+01 0.  1.
</event>
<event>
 5   0  0.4631619E-02  0.4999909E+03  0.7818609E-02  0.1013781E+00
       -2   -1    0    0    0  501  0.00000000000E+00  0.00000000000E+00  0.12428814775E+03  0.12428814777E+03  0.25500000920E-02 0. -1.
        2   -1    0    0  501    0  0.00000000000E+00  0.00000000000E+00 -0.50284539810E+03  0.50284539810E+03  0.25500000920E-02 0.  1.
    10030    2    1    2    0    0  0.00000000000E+00  0.00000000000E+00 -0.37855725035E+03  0.62713354587E+03  0.49999089248E+03 0.  0.
        5    1    3    3  502    0 -0.71856992953E+02 -0.68824902648E+02 -0.47687868845E+03  0.48717108716E+03  0.46999998093E+01 0.  1.
       -5    1    3    3    0  502  0.71856992953E+02  0.68824902648E+02  0.98321438105E+02  0.13996245872E+03  0.46999998093E+01 0. -1.
</event>
<event>
 5   0  0.2723308E-02  0.5012903E+03  0.7818609E-02  0.1013443E+00
        1   -1    0    0  501    0  0.00000000000E+00  0.00000000000E+00  0.81711737398E+03  0.81711737400E+03  0.50400001928E-02 0.  1.
       -1   -1    0    0    0  501  0.00000000000E+00  0.00000000000E+00 -0.76883682585E+02  0.76883682750E+02  0.50400001928E-02 0. -1.
    10030    2    1    2    0    0  0.00000000000E+00  0.00000000000E+00  0.74023369140E+03  0.89400105675E+03  0.50129030670E+03 0.  0.
        4    1    3    3  502    0 -0.21653500283E+03 -0.11865546458E+02  0.59423835399E+03  0.63257334191E+03  0.12699999809E+01 0.  1.
       -4    1    3    3    0  502  0.21653500283E+03  0.11865546458E+02  0.14599533741E+03  0.26142771484E+03  0.12699999809E+01 0. -1.
</event>
<event>
 5   0  0.4519539E-02  0.5030854E+03  0.7818609E-02  0.1012977E+00
        2   -1    0    0  501    0  0.00000000000E+00  0.00000000000E+00  0.14103623956E+04  0.14103623956E+04  0.25500000920E-02 0. -1.
       -2   -1    0    0    0  501  0.00000000000E+00  0.00000000000E+00 -0.44863462557E+02  0.44863462629E+02  0.25500000920E-02 0.  1.
    10030    2    1    2    0    0  0.00000000000E+00  0.00000000000E+00  0.13654989331E+04  0.14552258583E+04  0.50308544238E+03 0.  0.
        4    1    3    3  502    0 -0.76550353973E+02 -0.15255295880E+03  0.14828489611E+03  0.22610259894E+03  0.12699999809E+01 0.  1.
       -4    1    3    3    0  502  0.76550353973E+02  0.15255295880E+03  0.12172140370E+04  0.12291232593E+04  0.12699999809E+01 0. -1.
</event>
<event>
 5   0  0.2715483E-02  0.5005047E+03  0.7818609E-02  0.1013647E+00
        1   -1    0    0  501    0  0.00000000000E+00  0.00000000000E+00  0.10767380368E+03  0.10767380380E+03  0.50400001928E-02 0.  1.
       -1   -1    0    0    0  501  0.00000000000E+00  0.00000000000E+00 -0.58162924036E+03  0.58162924038E+03  0.50400001928E-02 0. -1.
    10030    2    1    2    0    0  0.00000000000E+00  0.00000000000E+00 -0.47395543668E+03  0.68930304418E+03  0.50050467606E+03 0.  0.
        5    1    3    3  502    0  0.91793832840E+02  0.41056444934E+02  0.78559276841E+02  0.12769255810E+03  0.46999998093E+01 0.  1.
       -5    1    3    3    0  502 -0.91793832840E+02 -0.41056444934E+02 -0.55251471352E+03  0.56161048608E+03  0.46999998093E+01 0. -1.
</event>
<event>
 5   0  0.2779445E-02  0.5015255E+03  0.7818609E-02  0.1013382E+00
       -1   -1    0    0    0  501  0.00000000000E+00  0.00000000000E+00  0.94923346289E+02  0.94923346422E+02  0.50400001928E-02 0. -1.
        1   -1    0    0  501    0  0.00000000000E+00  0.00000000000E+00 -0.66244988517E+03  0.66244988519E+03  0.50400001928E-02 0.  1.
    10030    2    1    2    0    0  0.00000000000E+00  0.00000000000E+00 -0.56752653889E+03  0.75737323162E+03  0.50152551244E+03 0.  0.
        3    1    3    3  502    0 -0.23045465069E+03  0.77240475770E+02 -0.37693422636E+03  0.44850290782E+03  0.10100000352E+00 0.  1.
       -3    1    3    3    0  502  0.23045465069E+03 -0.77240475770E+02 -0.19059231253E+03  0.30887032379E+03  0.10100000352E+00 0. -1.
</event>
<event>
 5   0  0.2719671E-02  0.4895621E+03  0.7818609E-02  0.1016540E+00
       -1   -1    0    0    0  501  0.00000000000E+00  0.00000000000E+00  0.38337573104E+02  0.38337573435E+02  0.50400001928E-02 0. -1.
        1   -1    0    0  501    0  0.00000000000E+00  0.00000000000E+00 -0.15628990758E+04  0.15628990758E+04  0.50400001928E-02 0.  1.
    10030    2    1    2    0    0  0.00000000000E+00  0.00000000000E+00 -0.15245615027E+04  0.16012366493E+04  0.48956208123E+03 0.  0.
        2    1    3    3  502    0  0.84781227060E+02  0.19448997814E+02 -0.13916754056E+02  0.88089704437E+02  0.25500000920E-02 0. -1.
       -2    1    3    3    0  502 -0.84781227060E+02 -0.19448997814E+02 -0.15106447487E+04  0.15131469448E+04  0.25500000920E-02 0.  1.
</event>
<event>
 5   0  0.2719671E-02  0.5001623E+03  0.7818609E-02  0.1013737E+00
        1   -1    0    0  501    0  0.00000000000E+00  0.00000000000E+00  0.17450168244E+04  0.17450168244E+04  0.50400001928E-02 0. -1.
       -1   -1    0    0    0  501  0.00000000000E+00  0.00000000000E+00 -0.35839522839E+02  0.35839523194E+02  0.50400001928E-02 0.  1.
    10030    2    1    2    0    0  0.00000000000E+00  0.00000000000E+00  0.17091773016E+04  0.17808563476E+04  0.50016225629E+03 0.  0.
        2    1    3    3  502    0  0.80414671228E+02  0.20454538626E+03  0.12794041103E+04  0.12981449117E+04  0.25500000920E-02 0. -1.
       -2    1    3    3    0  502 -0.80414671228E+02 -0.20454538626E+03  0.42977319128E+03  0.48271143589E+03  0.25500000920E-02 0.  1.
</event>
<event>
 5   0  0.2643185E-02  0.4983884E+03  0.7818609E-02  0.1014200E+00
       -1   -1    0    0    0  501  0.00000000000E+00  0.00000000000E+00  0.26372025994E+03  0.26372025999E+03  0.50400001928E-02 0. -1.
        1   -1    0    0  501    0  0.00000000000E+00  0.00000000000E+00 -0.23546825150E+03  0.23546825156E+03  0.50400001928E-02 0.  1.
    10030    2    1    2    0    0  0.00000000000E+00  0.00000000000E+00  0.28252008436E+02  0.49918851155E+03  0.49838839681E+03 0.  0.
        1    1    3    3  502    0  0.15453127126E+03  0.10767598587E+03 -0.14930370246E+03  0.24034480923E+03  0.50400001928E-02 0.  1.
       -1    1    3    3    0  502 -0.15453127126E+03 -0.10767598587E+03  0.17755571089E+03  0.25884370231E+03  0.50400001928E-02 0. -1.
</event>
<event>
 5   0  0.2715483E-02  0.5011406E+03  0.7818609E-02  0.1013482E+00
       -1   -1    0    0    0  501  0.00000000000E+00  0.00000000000E+00  0.74306297957E+02  0.74306298128E+02  0.50400001928E-02 0.  1.
        1   -1    0    0  501    0  0.00000000000E+00  0.00000000000E+00 -0.84495494548E+03  0.84495494550E+03  0.50400001928E-02 0. -1.
    10030    2    1    2    0    0  0.00000000000E+00  0.00000000000E+00 -0.77064864753E+03  0.91926124362E+03  0.50114059514E+03 0.  0.
        5    1    3    3  502    0  0.12034034227E+03 -0.16628918848E+03 -0.12185889808E+03  0.23875839927E+03  0.46999998093E+01 0.  1.
       -5    1    3    3    0  502 -0.12034034227E+03  0.16628918848E+03 -0.64878974945E+03  0.68050284435E+03  0.46999998093E+01 0. -1.
</event>
<event>
 5   0  0.2719671E-02  0.4975188E+03  0.7818609E-02  0.1014429E+00
       -1   -1    0    0    0  501  0.00000000000E+00  0.00000000000E+00  0.29086787289E+03  0.29086787293E+03  0.50400001928E-02 0.  1.
        1   -1    0    0  501    0  0.00000000000E+00  0.00000000000E+00 -0.21274689626E+03  0.21274689632E+03  0.50400001928E-02 0. -1.
    10030    2    1    2    0    0  0.00000000000E+00  0.00000000000E+00  0.78120976624E+02  0.50361476925E+03  0.49751879243E+03 0.  0.
        2    1    3    3  502    0 -0.10455872321E+02  0.18059944541E+03 -0.13378223237E+03  0.22499593475E+03  0.25500000920E-02 0. -1.
       -2    1    3    3    0  502  0.10455872321E+02 -0.18059944541E+03  0.21190320900E+03  0.27861883450E+03  0.25500000920E-02 0.  1.
</event>
<event>
 5   0  0.4519539E-02  0.5035739E+03  0.7818609E-02  0.1012850E+00
       -2   -1    0    0    0  501  0.00000000000E+00  0.00000000000E+00  0.13818636268E+03  0.13818636270E+03  0.25500000920E-02 0. -1.
        2   -1    0    0  501    0  0.00000000000E+00  0.00000000000E+00 -0.45877666134E+03  0.45877666135E+03  0.25500000920E-02 0.  1.
    10030    2    1    2    0    0  0.00000000000E+00  0.00000000000E+00 -0.32059029866E+03  0.59696302405E+03  0.50357393945E+03 0.  0.
        4    1    3    3  502    0 -0.20168674953E+03 -0.10971438734E+03 -0.37784068308E+02  0.23268872006E+03  0.12699999809E+01 0.  1.
       -4    1    3    3    0  502  0.20168674953E+03  0.10971438734E+03 -0.28280623035E+03  0.36427430399E+03  0.12699999809E+01 0. -1.
</event>
<event>
 5   0  0.4519539E-02  0.4996106E+03  0.7818609E-02  0.1013881E+00
       -2   -1    0    0    0  501  0.00000000000E+00  0.00000000000E+00  0.76545822426E+02  0.76545822469E+02  0.25500000920E-02 0. -1.
        2   -1    0    0  501    0  0.00000000000E+00  0.00000000000E+00 -0.81523316347E+03  0.81523316347E+03  0.25500000920E-02 0.  1.
    10030    2    1    2    0    0  0.00000000000E+00  0.00000000000E+00 -0.73868734104E+03  0.89177898594E+03  0.49961062033E+03 0.  0.
        4    1    3    3  502    0 -0.18454728866E+03 -0.30293495515E+02 -0.73743762665E+02  0.20103520352E+03  0.12699999809E+01 0. -1.
       -4    1    3    3    0  502  0.18454728866E+03  0.30293495515E+02 -0.66494357837E+03  0.69074378242E+03  0.12699999809E+01 0.  1.
</event>
<event>
 5   0  0.4451135E-02  0.4927266E+03  0.7818609E-02  0.1015695E+00
        2   -1    0    0  501    0  0.00000000000E+00  0.00000000000E+00  0.78276930807E+03  0.78276930808E+03  0.25500000920E-02 0. -1.
       -2   -1    0    0    0  501  0.00000000000E+00  0.00000000000E+00 -0.77538652794E+02  0.77538652836E+02  0.25500000920E-02 0.  1.
    10030    2    1    2    0    0  0.00000000000E+00  0.00000000000E+00  0.70523065528E+03  0.86030796091E+03  0.49272660824E+03 0.  0.
        1    1    3    3  502    0  0.77704645664E+02 -0.21283546457E+02 -0.53887057999E+02  0.96926860843E+02  0.50400001928E-02 0.  1.
       -1    1    3    3    0  502 -0.77704645664E+02  0.21283546457E+02  0.75911771328E+03  0.76338110007E+03  0.50400001928E-02 0. -1.
</event>
<event>
 5   0  0.2723308E-02  0.4993060E+03  0.7818609E-02  0.1013960E+00
        1   -1    0    0  501    0  0.00000000000E+00  0.00000000000E+00  0.23181312402E+04  0.23181312402E+04  0.50400001928E-02 0.  1.
       -1   -1    0    0    0  501  0.00000000000E+00  0.00000000000E+00 -0.26886575928E+02  0.26886576401E+02  0.50400001928E-02 0. -1.
    10030    2    1    2    0    0  0.00000000000E+00  0.00000000000E+00  0.22912446643E+04  0.23450178166E+04  0.49930596697E+03 0.  0.
        4    1    3    3  502    0 -0.18007950990E+02  0.13699445860E+03  0.21221582882E+04  0.21266521062E+04  0.12699999809E+01 0.  1.
       -4    1    3    3    0  502  0.18007950990E+02 -0.13699445860E+03  0.16908637612E+03  0.21836571039E+03  0.12699999809E+01 0. -1.
</event>
<event>
 5   0  0.2723308E-02  0.4987912E+03  0.7818609E-02  0.1014095E+00
       -1   -1    0    0    0  501  0.00000000000E+00  0.00000000000E+00  0.11247879700E+03  0.11247879711E+03  0.50400001928E-02 0.  1.
        1   -1    0    0  501    0  0.00000000000E+00  0.00000000000E+00 -0.55297690381E+03  0.55297690383E+03  0.50400001928E-02 0. -1.
    10030    2    1    2    0    0  0.00000000000E+00  0.00000000000E+00 -0.44049810681E+03  0.66545570094E+03  0.49879124673E+03 0.  0.
        4    1    3    3  502    0  0.15309684184E+03  0.79337283101E+02  0.20130823171E+02  0.17360849753E+03  0.12699999809E+01 0.  1.
       -4    1    3    3    0  502 -0.15309684184E+03 -0.79337283101E+02 -0.46062892998E+03  0.49184720341E+03  0.12699999809E+01 0. -1.
</event>
<event>
 5   0  0.4631619E-02  0.4994785E+03  0.7818609E-02  0.1013915E+00
       -2   -1    0    0    0  501  0.00000000000E+00  0.00000000000E+00  0.69218394283E+03  0.69218394284E+03  0.25500000920E-02 0. -1.
        2   -1    0    0  501    0  0.00000000000E+00  0.00000000000E+00 -0.90105674609E+02  0.90105674645E+02  0.25500000920E-02 0.  1.
    10030    2    1    2    0    0  0.00000000000E+00  0.00000000000E+00  0.60207826823E+03  0.78228961748E+03  0.49947853262E+03 0.  0.
        5    1    3    3  502    0 -0.24342012189E+03  0.13183570855E+02  0.38567911211E+03  0.45628678460E+03  0.46999998093E+01 0. -1.
       -5    1    3    3    0  502  0.24342012189E+03 -0.13183570855E+02  0.21639915612E+03  0.32600283289E+03  0.46999998093E+01 0.  1.
</event>
<event>
 5   0  0.2715483E-02  0.4994507E+03  0.7818609E-02  0.1013922E+00
       -1   -1    0    0    0  501  0.00000000000E+00  0.00000000000E+00  0.13938458450E+03  0.13938458459E+03  0.50400001928E-02 0.  1.
        1   -1    0    0  501    0  0.00000000000E+00  0.00000000000E+00 -0.44741498438E+03  0.44741498441E+03  0.50400001928E-02 0. -1.
    10030    2    1    2    0    0  0.00000000000E+00  0.00000000000E+00 -0.30803039988E+03  0.58679956900E+03  0.49945070521E+03 0.  0.
        5    1    3    3  502    0 -0.26378314885E+02  0.16779465751E+03  0.60992209722E+02  0.18053532128E+03  0.46999998093E+01 0.  1.
       -5    1    3    3    0  502  0.26378314885E+02 -0.16779465751E+03 -0.36902260960E+03  0.40626424772E+03  0.46999998093E+01 0. -1.
</event>
<event>
 5   0  0.2715483E-02  0.4947662E+03  0.7818609E-02  0.1015154E+00
       -1   -1    0    0    0  501  0.00000000000E+00  0.00000000000E+00  0.12260917348E+03  0.12260917358E+03  0.50400001928E-02 0.  1.
        1   -1    0    0  501    0  0.00000000000E+00  0.00000000000E+00 -0.49913390836E+03  0.49913390839E+03  0.50400001928E-02 0. -1.
    10030    2    1    2    0    0  0.00000000000E+00  0.00000000000E+00 -0.37652473489E+03  0.62174308197E+03  0.49476619124E+03 0.  0.
        5    1    3    3  502    0 -0.92255614910E+02 -0.15791390004E+03  0.20991460616E+02  0.18414839051E+03  0.46999998093E+01 0.  1.
       -5    1    3    3    0  502  0.92255614910E+02  0.15791390004E+03 -0.39751619550E+03  0.43759469146E+03  0.46999998093E+01 0. -1.
</event>
<event>
 5   0  0.4534223E-02  0.4978339E+03  0.7818609E-02  0.1014346E+00
        2   -1    0    0  501    0  0.00000000000E+00  0.00000000000E+00  0.21534154036E+04  0.21534154036E+04  0.25500000920E-02 0. -1.
       -2   -1    0    0    0  501  0.00000000000E+00  0.00000000000E+00 -0.28772732458E+02  0.28772732571E+02  0.25500000920E-02 0.  1.
    10030    2    1    2    0    0  0.00000000000E+00  0.00000000000E+00  0.21246426711E+04  0.21821881361E+04  0.49783388957E+03 0.  0.
        2    1    3    3  502    0 -0.13067476049E+03  0.80355652740E+01  0.13433902837E+03  0.18758314927E+03  0.25500000920E-02 0.  1.
       -2    1    3    3    0  502  0.13067476049E+03 -0.80355652740E+01  0.19903036427E+04  0.19946049869E+04  0.25500000920E-02 0. -1.
</event>
<event>
 5   0  0.2779445E-02  0.4988961E+03  0.7818609E-02  0.1014067E+00
       -1   -1    0    0    0  501  0.00000000000E+00  0.00000000000E+00  0.32392952536E+03  0.32392952540E+03  0.50400001928E-02 0.  1.
        1   -1    0    0  501    0  0.00000000000E+00  0.00000000000E+00 -0.19209217156E+03  0.19209217163E+03  0.50400001928E-02 0. -1.
    10030    2    1    2    0    0  0.00000000000E+00  0.00000000000E+00  0.13183735380E+03  0.51602169702E+03  0.49889608531E+03 0.  0.
        3    1    3    3  502    0 -0.65594614799E+02  0.86914758188E+02 -0.16621225155E+03  0.19870418075E+03  0.10100000352E+00 0. -1.
       -3    1    3    3    0  502  0.65594614799E+02 -0.86914758188E+02  0.29804960535E+03  0.31731751627E+03  0.10100000352E+00 0.  1.
</event>
<event>
 5   0  0.4409622E-02  0.5000238E+03  0.7818609E-02  0.1013773E+00
        2   -1    0    0  501    0  0.00000000000E+00  0.00000000000E+00  0.31429848864E+03  0.31429848865E+03  0.25500000920E-02 0.  1.
       -2   -1    0    0    0  501  0.00000000000E+00  0.00000000000E+00 -0.19887446030E+03  0.19887446031E+03  0.25500000920E-02 0. -1.
    10030    2    1    2    0    0  0.00000000000E+00  0.00000000000E+00  0.11542402835E+03  0.51317294896E+03  0.50002376866E+03 0.  0.
        3    1    3    3  502    0 -0.43687520545E+02 -0.24475354093E+03  0.30694133935E+02  0.25050955133E+03  0.10100000352E+00 0. -1.
       -3    1    3    3    0  502  0.43687520545E+02  0.24475354093E+03  0.84729894410E+02  0.26266339763E+03  0.10100000352E+00 0.  1.
</event>
<event>
 5   0  0.1805500E-02  0.5034665E+03  0.7818609E-02  0.1012878E+00
        3   -1    0    0  501    0  0.00000000000E+00  0.00000000000E+00  0.10910299366E+03  0.10910304041E+03  0.10100000352E+00 0. -1.
       -3   -1    0    0    0  501  0.00000000000E+00  0.00000000000E+00 -0.58082376112E+03  0.58082376990E+03  0.10100000352E+00 0.  1.
    10030    2    1    2    0    0  0.00000000000E+00  0.00000000000E+00 -0.47172076746E+03  0.68992681031E+03  0.50346650448E+03 0.  0.
        2    1    3    3  502    0 -0.55610051419E+00 -0.13030634435E+03 -0.53101028939E+03  0.54676501358E+03  0.25500000920E-02 0.  1.
       -2    1    3    3    0  502  0.55610051419E+00  0.13030634435E+03  0.59289521932E+02  0.14316179673E+03  0.25500000920E-02 0. -1.
</event>
<event>
 5   0  0.4519539E-02  0.5012168E+03  0.7818609E-02  0.1013462E+00
       -2   -1    0    0    0  501  0.00000000000E+00  0.00000000000E+00  0.24106091400E+02  0.24106091535E+02  0.25500000920E-02 0. -1.
        2   -1    0    0  501    0  0.00000000000E+00  0.00000000000E+00 -0.26053405701E+04  0.26053405701E+04  0.25500000920E-02 0.  1.
    10030    2    1    2    0    0  0.00000000000E+00  0.00000000000E+00 -0.25812344787E+04  0.26294466616E+04  0.50121683168E+03 0.  0.
        4    1    3    3  502    0  0.86806967581E+02  0.18030560980E+03 -0.20820245640E+04  0.20916198174E+04  0.12699999809E+01 0.  1.
       -4    1    3    3    0  502 -0.86806967581E+02 -0.18030560980E+03 -0.49920991469E+03  0.53782684422E+03  0.12699999809E+01 0. -1.
</event>
<event>
 5   0  0.4519539E-02  0.4982586E+03  0.7818609E-02  0.1014234E+00
        2   -1    0    0  501    0  0.00000000000E+00  0.00000000000E+00  0.19897077716E+04  0.19897077716E+04  0.25500000920E-02 0. -1.
       -2   -1    0    0    0  501  0.00000000000E+00  0.00000000000E+00 -0.31193227670E+02  0.31193227774E+02  0.25500000920E-02 0.  1.
    10030    2    1    2    0    0  0.00000000000E+00  0.00000000000E+00  0.19585145439E+04  0.20209009994E+04  0.49825859802E+03 0.  0.
        4    1    3    3  502    0  0.18657518658E+03  0.93774575891E+02  0.42819077535E+03  0.47639576439E+03  0.12699999809E+01 0. -1.
       -4    1    3    3    0  502 -0.18657518658E+03 -0.93774575891E+02  0.15303237686E+04  0.15445052350E+04  0.12699999809E+01 0.  1.
</event>
<event>
 5   0  0.2719671E-02  0.5002073E+03  0.7818609E-02  0.1013725E+00
        1   -1    0    0  501    0  0.00000000000E+00  0.00000000000E+00  0.54469880154E+03  0.54469880156E+03  0.50400001928E-02 0. -1.
       -1   -1    0    0    0  501  0.00000000000E+00  0.00000000000E+00 -0.11483748421E+03  0.11483748432E+03  0.50400001928E-02 0.  1.
    10030    2    1    2    0    0  0.00000000000E+00  0.00000000000E+00  0.42986131733E+03  0.65953628588E+03  0.50020731728E+03 0.  0.
        2    1    3    3  502    0  0.18983881295E+02 -0.65701266673E+02  0.53213081291E+03  0.53650745218E+03  0.25500000920E-02 0. -1.
       -2    1    3    3    0  502 -0.18983881295E+02  0.65701266673E+02 -0.10226949558E+03  0.12302883371E+03  0.25500000920E-02 0.  1.
</event>
<event>
 5   0  0.4451135E-02  0.4924351E+03  0.7818609E-02  0.1015773E+00
        2   -1    0    0  501    0  0.00000000000E+00  0.00000000000E+00  0.85812624798E+03  0.85812624798E+03  0.25500000920E-02 0.  1.
       -2   -1    0    0    0  501  0.00000000000E+00  0.00000000000E+00 -0.70645869901E+02  0.70645869947E+02  0.25500000920E-02 0. -1.
    10030    2    1    2    0    0  0.00000000000E+00  0.00000000000E+00  0.78748037808E+03  0.92877211793E+03  0.49243507307E+03 0.  0.
        1    1    3    3  502    0  0.14552062730E+02  0.23119177702E+03  0.23637195779E+03  0.33095785645E+03  0.50400001928E-02 0.  1.
       -1    1    3    3    0  502 -0.14552062730E+02 -0.23119177702E+03  0.55110842028E+03  0.59781426148E+03  0.50400001928E-02 0. -1.
</event>
<event>
 5   0  0.2643185E-02  0.4947186E+03  0.7818609E-02  0.1015167E+00
        1   -1    0    0  501    0  0.00000000000E+00  0.00000000000E+00  0.12289494389E+03  0.12289494399E+03  0.50400001928E-02 0. -1.
       -1   -1    0    0    0  501  0.00000000000E+00  0.00000000000E+00 -0.49787740371E+03  0.49787740374E+03  0.50400001928E-02 0.  1.
    10030    2    1    2    0    0  0.00000000000E+00  0.00000000000E+00 -0.37498245982E+03  0.62077234772E+03  0.49471856901E+03 0.  0.
        1    1    3    3  502    0  0.10067251093E+03  0.11246714691E+03  0.58407116363E+02  0.16184932764E+03  0.50400001928E-02 0. -1.
       -1    1    3    3    0  502 -0.10067251093E+03 -0.11246714691E+03 -0.43338957619E+03  0.45892302008E+03  0.50400001928E-02 0.  1.
</event>
<event>
 5   0  0.2715483E-02  0.4960360E+03  0.7818609E-02  0.1014819E+00
       -1   -1    0    0    0  501  0.00000000000E+00  0.00000000000E+00  0.64495550335E+02  0.64495550532E+02  0.50400001928E-02 0.  1.
        1   -1    0    0  501    0  0.00000000000E+00  0.00000000000E+00 -0.95375449953E+03  0.95375449954E+03  0.50400001928E-02 0. -1.
    10030    2    1    2    0    0  0.00000000000E+00  0.00000000000E+00 -0.88925894920E+03  0.10182500501E+04  0.49603597224E+03 0.  0.
        5    1    3    3  502    0  0.22263481765E+03 -0.60847047424E+02 -0.25849130004E+03  0.34656668537E+03  0.46999998093E+01 0.  1.
       -5    1    3    3    0  502 -0.22263481765E+03  0.60847047424E+02 -0.63076764915E+03  0.67168336471E+03  0.46999998093E+01 0. -1.
</event>
<event>
 5   0  0.4451135E-02  0.4994979E+03  0.7818609E-02  0.1013910E+00
        2   -1    0    0  501    0  0.00000000000E+00  0.00000000000E+00  0.48621336483E+03  0.48621336484E+03  0.25500000920E-02 0. -1.
       -2   -1    0    0    0  501  0.00000000000E+00  0.00000000000E+00 -0.12828636177E+03  0.12828636180E+03  0.25500000920E-02 0.  1.
    10030    2    1    2    0    0  0.00000000000E+00  0.00000000000E+00  0.35792700306E+03  0.61449972663E+03  0.49949792244E+03 0.  0.
        1    1    3    3  502    0  0.16414648762E+03 -0.18567072302E+03  0.21701848049E+03  0.32941570649E+03  0.50400001928E-02 0. -1.
       -1    1    3    3    0  502 -0.16414648762E+03  0.18567072302E+03  0.14090852256E+03  0.28508402014E+03  0.50400001928E-02 0.  1.
</event>
<event>
 5   0  0.2715483E-02  0.5031302E+03  0.7818609E-02  0.1012965E+00
        1   -1    0    0  501    0  0.00000000000E+00  0.00000000000E+00  0.17267830751E+03  0.17267830758E+03  0.50400001928E-02 0. -1.
       -1   -1    0    0    0  501  0.00000000000E+00  0.00000000000E+00 -0.36649070166E+03  0.36649070169E+03  0.50400001928E-02 0.  1.
    10030    2    1    2    0    0  0.00000000000E+00  0.00000000000E+00 -0.19381239415E+03  0.53916900927E+03  0.50313017842E+03 0.  0.
        5    1    3    3  502    0  0.19199461390E+03 -0.10593984358E+03  0.35116271558E+02  0.22212704642E+03  0.46999998093E+01 0. -1.
       -5    1    3    3    0  502 -0.19199461390E+03  0.10593984358E+03 -0.22892866571E+03  0.31704196285E+03  0.46999998093E+01 0.  1.
</event>
<event>
 5   0  0.2779445E-02  0.5001827E+03  0.7818609E-02  0.1013731E+00
       -1   -1    0    0    0  501  0.00000000000E+00  0.00000000000E+00  0.53197956865E+02  0.53197957104E+02  0.50400001928E-02 0. -1.
        1   -1    0    0  501    0  0.00000000000E+00  0.00000000000E+00 -0.11757157156E+04  0.11757157156E+04  0.50400001928E-02 0.  1.
    10030    2    1    2    0    0  0.00000000000E+00  0.00000000000E+00 -0.11225177588E+04  0.12289136727E+04  0.50018266295E+03 0.  0.
        3    1    3    3  502    0  0.26429270099E+02  0.38012015054E+02  0.42577506928E+02  0.62898918143E+02  0.10100000352E+00 0. -1.
       -3    1    3    3    0  502 -0.26429270099E+02 -0.38012015054E+02 -0.11650952657E+04  0.11660147546E+04  0.10100000352E+00 0.  1.
</event>
<event>
 5   0  0.2723308E-02  0.4972295E+03  0.7818609E-02  0.1014505E+00
       -1   -1    0    0    0  501  0.00000000000E+00  0.00000000000E+00  0.28137238667E+03  0.28137238672E+03  0.50400001928E-02 0. -1.
        1   -1    0    0  501    0  0.00000000000E+00  0.00000000000E+00 -0.21967081401E+03  0.21967081407E+03  0.50400001928E-02 0.  1.
    10030    2    1    2    0    0  0.00000000000E+00  0.00000000000E+00  0.61701572659E+02  0.50104320079E+03  0.49722952948E+03 0.  0.
        4    1    3    3  502    0 -0.59190626915E+02  0.18349163172E+03 -0.12730837731E+03  0.23104489836E+03  0.12699999809E+01 0.  1.
       -4    1    3    3    0  502  0.59190626915E+02 -0.18349163172E+03  0.18900994997E+03  0.26999830243E+03  0.12699999809E+01 0. -1.
</event>
<event>
 5   0  0.4631619E-02  0.4966885E+03  0.7818609E-02  0.1014647E+00
        2   -1    0    0  501    0  0.00000000000E+00  0.00000000000E+00  0.26164904520E+03  0.26164904521E+03  0.25500000920E-02 0.  1.
       -2   -1    0    0    0  501  0.00000000000E+00  0.00000000000E+00 -0.23571597676E+03  0.23571597677E+03  0.25500000920E-02 0. -1.
    10030    2    1    2    0    0  0.00000000000E+00  0.00000000000E+00  0.25933068444E+02  0.49736502198E+03  0.49668847485E+03 0.  0.
        5    1    3    3  502    0  0.20874159215E+03 -0.14434812463E+02  0.14683241121E+03  0.25566240060E+03  0.46999998093E+01 0.  1.
       -5    1    3    3    0  502 -0.20874159215E+03  0.14434812463E+02 -0.12089934276E+03  0.24170262138E+03  0.46999998093E+01 0. -1.
</event>
<event>
 5   0  0.4451135E-02  0.4966425E+03  0.7818609E-02  0.1014659E+00
       -2   -1    0    0    0  501  0.00000000000E+00  0.00000000000E+00  0.91133395048E+02  0.91133395084E+02  0.25500000920E-02 0.  1.
        2   -1    0    0  501    0  0.00000000000E+00  0.00000000000E+00 -0.67662850968E+03  0.67662850969E+03  0.25500000920E-02 0. -1.
    10030    2    1    2    0    0  0.00000000000E+00  0.00000000000E+00 -0.58549511463E+03  0.76776190477E+03  0.49664254062E+03 0.  0.
        1    1    3    3  502    0  0.87378747680E+02  0.15157067617E+03 -0.20322797910E+02  0.17612987129E+03  0.50400001928E-02 0.  1.
       -1    1    3    3    0  502 -0.87378747680E+02 -0.15157067617E+03 -0.56517231672E+03  0.59163203348E+03  0.50400001928E-02 0. -1.
</event>
<event>
 5   0  0.2719671E-02  0.4972846E+03  0.7818609E-02  0.1014490E+00
       -1   -1    0    0    0  501  0.00000000000E+00  0.00000000000E+00  0.79613991150E+02  0.79613991309E+02  0.50400001928E-02 0. -1.
        1   -1    0    0  501    0  0.00000000000E+00  0.00000000000E+00 -0.77653419661E+03  0.77653419663E+03  0.50400001928E-02 0.  1.
    10030    2    1    2    0    0  0.00000000000E+00  0.00000000000E+00 -0.69692020546E+03  0.85614818793E+03  0.49728457338E+03 0.  0.
        2    1    3    3  502    0  0.26865094460E+02 -0.21569794922E+03 -0.55631386632E+03  0.59727084012E+03  0.25500000920E-02 0.  1.
       -2    1    3    3    0  502 -0.26865094460E+02  0.21569794922E+03 -0.14060633914E+03  0.25887734781E+03  0.25500000920E-02 0. -1.
</event>
<event>
 5   0  0.2715483E-02  0.4989620E+03  0.7818609E-02  0.1014050E+00
        1   -1    0    0  501    0  0.00000000000E+00  0.00000000000E+00  0.48765692551E+02  0.48765692811E+02  0.50400001928E-02 0. -1.
       -1   -1    0    0    0  501  0.00000000000E+00  0.00000000000E+00 -0.12763230565E+04  0.12763230566E+04  0.50400001928E-02 0.  1.
    10030    2    1    2    0    0  0.00000000000E+00  0.00000000000E+00 -0.12275573640E+04  0.13250887494E+04  0.49896203443E+03 0.  0.
        5    1    3    3  502    0  0.20330098809E+03 -0.23443122243E+02 -0.23504875511E+03  0.31169035759E+03  0.46999998093E+01 0. -1.
       -5    1    3    3    0  502 -0.20330098809E+03  0.23443122243E+02 -0.99250860889E+03  0.10133983918E+04  0.46999998093E+01 0.  1.
</event>
<event>
 5   0  0.4409622E-02  0.5001579E+03  0.7818609E-02  0.1013738E+00
       -2   -1    0    0    0  501  0.00000000000E+00  0.00000000000E+00  0.15037588794E+03  0.15037588796E+03  0.25500000920E-02 0.  1.
        2   -1    0    0  501    0  0.00000000000E+00  0.00000000000E+00 -0.41588770501E+03  0.41588770502E+03  0.25500000920E-02 0. -1.
    10030    2    1    2    0    0  0.00000000000E+00  0.00000000000E+00 -0.26551181707E+03  0.56626359298E+03  0.50015790680E+03 0.  0.
        3    1    3    3  502    0 -0.61197108699E+02 -0.33313750658E+02  0.13916422904E+03  0.15563285303E+03  0.10100000352E+00 0.  1.
       -3    1    3    3    0  502  0.61197108699E+02  0.33313750658E+02 -0.40467604611E+03  0.41063073995E+03  0.10100000352E+00 0. -1.
</event>
<event>
 5   0  0.4451135E-02  0.4982511E+03  0.7818609E-02  0.1014236E+00
        2   -1    0    0  501    0  0.00000000000E+00  0.00000000000E+00  0.66483541151E+03  0.66483541152E+03  0.25500000920E-02 0.  1.
       -2   -1    0    0    0  501  0.00000000000E+00  0.00000000000E+00 -0.93351753548E+02  0.93351753583E+02  0.25500000920E-02 0. -1.
    10030    2    1    2    0    0  0.00000000000E+00  0.00000000000E+00  0.57148365796E+03  0.75818716510E+03  0.49825114752E+03 0.  0.
        1    1    3    3  502    0 -0.13020222039E+03 -0.16899850204E+02 -0.36431704542E+02  0.13625524670E+03  0.50400001928E-02 0. -1.
       -1    1    3    3    0  502  0.13020222039E+03  0.16899850204E+02  0.60791536251E+03  0.62193191840E+03  0.50400001928E-02 0.  1.
</event>
<event>
 5   0  0.1805500E-02  0.5007063E+03  0.7818609E-02  0.1013595E+00
       -3   -1    0    0    0  501  0.00000000000E+00  0.00000000000E+00  0.14856176162E+03  0.14856179596E+03  0.10100000352E+00 0. -1.
        3   -1    0    0  501    0  0.00000000000E+00  0.00000000000E+00 -0.42188973362E+03  0.42188974571E+03  0.10100000352E+00 0.  1.
    10030    2    1    2    0    0  0.00000000000E+00  0.00000000000E+00 -0.27332797200E+03  0.57045154167E+03  0.50070628228E+03 0.  0.
        4    1    3    3  502    0  0.15822917334E+01 -0.10127664975E+03  0.12417114038E+03  0.16024839605E+03  0.12699999809E+01 0. -1.
       -4    1    3    3    0  502 -0.15822917334E+01  0.10127664975E+03 -0.39749911238E+03  0.41020314562E+03  0.12699999809E+01 0.  1.
</event>
<event>
 5   0  0.2715483E-02  0.5011781E+03  0.7818609E-02  0.1013472E+00
       -1   -1    0    0    0  501  0.00000000000E+00  0.00000000000E+00  0.20520016183E+03  0.20520016189E+03  0.50400001928E-02 0. -1.
        1   -1    0    0  501    0  0.00000000000E+00  0.00000000000E+00 -0.30601761508E+03  0.30601761512E+03  0.50400001928E-02 0.  1.
    10030    2    1    2    0    0  0.00000000000E+00  0.00000000000E+00 -0.10081745325E+03  0.51121777701E+03  0.50117806881E+03 0.  0.
        5    1    3    3  502    0  0.19581717913E+03 -0.11858576040E+03  0.53443497895E+02  0.23512815161E+03  0.46999998093E+01 0. -1.
       -5    1    3    3    0  502 -0.19581717913E+03  0.11858576040E+03 -0.15426095114E+03  0.27608962541E+03  0.46999998093E+01 0.  1.
</event>
<event>
 5   0  0.2719671E-02  0.5007593E+03  0.7818609E-02  0.1013581E+00
       -1   -1    0    0    0  501  0.00000000000E+00  0.00000000000E+00  0.11999286825E+03  0.11999286836E+03  0.50400001928E-02 0.  1.
        1   -1    0    0  501    0  0.00000000000E+00  0.00000000000E+00 -0.52244752722E+03  0.52244752725E+03  0.50400001928E-02 0. -1.
    10030    2    1    2    0    0  0.00000000000E+00  0.00000000000E+00 -0.40245465897E+03  0.64244039561E+03  0.50075933279E+03 0.  0.
        2    1    3    3  502    0 -0.96920663929E+02 -0.23082499755E+03 -0.20638828283E+03  0.32445325994E+03  0.25500000920E-02 0. -1.
       -2    1    3    3    0  502  0.96920663929E+02  0.23082499755E+03 -0.19606637613E+03  0.31798713566E+03  0.25500000920E-02 0.  1.
</event>
<event>
 5   0  0.2715483E-02  0.4988989E+03  0.7818609E-02  0.1014067E+00
       -1   -1    0    0    0  501  0.00000000000E+00  0.00000000000E+00  0.30819169982E+03  0.30819169986E+03  0.50400001928E-02 0.  1.
        1   -1    0    0  501    0  0.00000000000E+00  0.00000000000E+00 -0.20190366816E+03  0.20190366822E+03  0.50400001928E-02 0. -1.
    10030    2    1    2    0    0  0.00000000000E+00  0.00000000000E+00  0.10628803166E+03  0.51009536807E+03  0.49889892649E+03 0.  0.
        5    1    3    3  502    0 -0.15103696882E+03  0.11391038655E+03  0.21931905258E+03  0.28967340047E+03  0.46999998093E+01 0.  1.
       -5    1    3    3    0  502  0.15103696882E+03 -0.11391038655E+03 -0.11303102092E+03  0.22042196761E+03  0.46999998093E+01 0. -1.
</event>
<event>
 5   0  0.2719671E-02  0.5001818E+03  0.7818609E-02  0.1013731E+00
       -1   -1    0    0    0  501  0.00000000000E+00  0.00000000000E+00  0.49955989770E+02  0.49955990025E+02  0.50400001928E-02 0.  1.
        1   -1    0    0  501    0  0.00000000000E+00  0.00000000000E+00 -0.12520114118E+04  0.12520114118E+04  0.50400001928E-02 0. -1.
    10030    2    1    2    0    0  0.00000000000E+00  0.00000000000E+00 -0.12020554220E+04  0.13019674018E+04  0.50018184474E+03 0.  0.
        2    1    3    3  502    0 -0.20630675480E+03  0.44287400349E+02 -0.95046486784E+03  0.97360531835E+03  0.25500000920E-02 0. -1.
       -2    1    3    3    0  502  0.20630675480E+03 -0.44287400349E+02 -0.25159055418E+03  0.32836208348E+03  0.25500000920E-02 0.  1.
</event>
<event>
 5   0  0.2715483E-02  0.4990475E+03  0.7818609E-02  0.1014028E+00
       -1   -1    0    0    0  501  0.00000000000E+00  0.00000000000E+00  0.23815915371E+03  0.23815915376E+03  0.50400001928E-02 0. -1.
        1   -1    0    0  501    0  0.00000000000E+00  0.00000000000E+00 -0.26143062294E+03  0.26143062299E+03  0.50400001928E-02 0.  1.
    10030    2    1    2    0    0  0.00000000000E+00  0.00000000000E+00 -0.23271469231E+02  0.49958977675E+03  0.49904747645E+03 0.  0.
        5    1    3    3  502    0  0.18400097320E+03  0.46358842855E+02  0.15051096751E+03  0.24224190758E+03  0.46999998093E+01 0. -1.
       -5    1    3    3    0  502 -0.18400097320E+03 -0.46358842855E+02 -0.17378243674E+03  0.25734786917E+03  0.46999998093E+01 0.  1.
</event>
<event>
 5   0  0.1805500E-02  0.5000784E+03  0.7818609E-02  0.1013758E+00
        4   -1    0    0  501    0  0.00000000000E+00  0.00000000000E+00  0.79163952285E+02  0.79174138716E+02  0.12699999809E+01 0.  1.
       -4   -1    0    0    0  501  0.00000000000E+00  0.00000000000E+00 -0.78968675577E+03  0.78968777700E+03  0.12699999809E+01 0. -1.
    10030    2    1    2    0    0  0.00000000000E+00  0.00000000000E+00 -0.71052280349E+03  0.86886191572E+03  0.50007836816E+03 0.  0.
        1    1    3    3  502    0  0.24593044945E+03 -0.10488137545E+02 -0.27897547630E+03  0.37204717899E+03  0.50400001928E-02 0. -1.
       -1    1    3    3    0  502 -0.24593044945E+03  0.10488137545E+02 -0.43154732719E+03  0.49681473672E+03  0.50400001928E-02 0.  1.
</event>
<event>
 5   0  0.4409622E-02  0.4999074E+03  0.7818609E-02  0.1013803E+00
       -2   -1    0    0    0  501  0.00000000000E+00  0.00000000000E+00  0.22025707283E+02  0.22025707430E+02  0.25500000920E-02 0. -1.
        2   -1    0    0  501    0  0.00000000000E+00  0.00000000000E+00 -0.28365426762E+04  0.28365426762E+04  0.25500000920E-02 0.  1.
    10030    2    1    2    0    0  0.00000000000E+00  0.00000000000E+00 -0.28145169689E+04  0.28585683836E+04  0.49990742701E+03 0.  0.
        3    1    3    3  502    0  0.41898056148E+02 -0.14215756414E+03 -0.25631444533E+03  0.29607655301E+03  0.10100000352E+00 0. -1.
       -3    1    3    3    0  502 -0.41898056148E+02  0.14215756414E+03 -0.25582025236E+04  0.25624918306E+04  0.10100000352E+00 0.  1.
</event>
<event>
 5   0  0.4534223E-02  0.4957944E+03  0.7818609E-02  0.1014883E+00
        2   -1    0    0  501    0  0.00000000000E+00  0.00000000000E+00  0.81178623082E+03  0.81178623082E+03  0.25500000920E-02 0.  1.
       -2   -1    0    0    0  501  0.00000000000E+00  0.00000000000E+00 -0.75700979282E+02  0.75700979325E+02  0.25500000920E-02 0. -1.
    10030    2    1    2    0    0  0.00000000000E+00  0.00000000000E+00  0.73608525154E+03  0.88748721015E+03  0.49579436326E+03 0.  0.
        2    1    3    3  502    0 -0.15087876615E+02  0.29880452656E+02  0.80772218606E+03  0.80841549671E+03  0.25500000920E-02 0.  1.
       -2    1    3    3    0  502  0.15087876615E+02 -0.29880452656E+02 -0.71636934519E+02  0.79071713435E+02  0.25500000920E-02 0. -1.
</event>
<event>
 5   0  0.4451135E-02  0.5004888E+03  0.7818609E-02  0.1013651E+00
        2   -1    0    0  501    0  0.00000000000E+00  0.00000000000E+00  0.17243193396E+04  0.17243193396E+04  0.25500000920E-02 0.  1.
       -2   -1    0    0    0  501  0.00000000000E+00  0.00000000000E+00 -0.36317091621E+02  0.36317091710E+02  0.25500000920E-02 0. -1.
    10030    2    1    2    0    0  0.00000000000E+00  0.00000000000E+00  0.16880022480E+04  0.17606364314E+04  0.50048881515E+03 0.  0.
        1    1    3    3  502    0 -0.22711669611E+00 -0.18441779641E+03  0.24895366668E+03  0.30981914627E+03  0.50400001928E-02 0. -1.
       -1    1    3    3    0  502  0.22711669611E+00  0.18441779641E+03  0.14390485813E+04  0.14508172851E+04  0.50400001928E-02 0.  1.
</event>
<event>
 5   0  0.2719671E-02  0.5002935E+03  0.7818609E-02  0.1013702E+00
       -1   -1    0    0    0  501  0.00000000000E+00  0.00000000000E+00  0.36477405225E+03  0.36477405229E+03  0.50400001928E-02 0.  1.
        1   -1    0    0  501    0  0.00000000000E+00  0.00000000000E+00 -0.17154013792E+03  0.17154013799E+03  0.50400001928E-02 0. -1.
    10030    2    1    2    0    0  0.00000000000E+00  0.00000000000E+00  0.19323391433E+03  0.53631419028E+03  0.50029347892E+03 0.  0.
        2    1    3    3  502    0  0.23715737463E+03  0.76952695387E+02  0.74962213590E+02  0.26035489460E+03  0.25500000920E-02 0. -1.
       -2    1    3    3    0  502 -0.23715737463E+03 -0.76952695387E+02  0.11827170074E+03  0.27595929568E+03  0.25500000920E-02 0.  1.
</event>
<event>
 5   0  0.4519539E-02  0.4999099E+03  0.7818609E-02  0.1013802E+00
       -2   -1    0    0    0  501  0.00000000000E+00  0.00000000000E+00  0.10795526897E+03  0.10795526900E+03  0.25500000920E-02 0.  1.
        2   -1    0    0  501    0  0.00000000000E+00  0.00000000000E+00 -0.57873477884E+03  0.57873477885E+03  0.25500000920E-02 0. -1.
    10030    2    1    2    0    0  0.00000000000E+00  0.00000000000E+00 -0.47077950988E+03  0.68669004784E+03  0.49990986676E+03 0.  0.
        4    1    3    3  502    0 -0.39857565066E+02  0.23622049678E+03 -0.33336232272E+03  0.41051284962E+03  0.12699999809E+01 0.  1.
       -4    1    3    3    0  502  0.39857565066E+02 -0.23622049678E+03 -0.13741718716E+03  0.27617719823E+03  0.12699999809E+01 0. -1.
</event>
<event>
 5   0  0.2723308E-02  0.5009671E+03  0.7818609E-02  0.1013527E+00
        1   -1    0    0  501    0  0.00000000000E+00  0.00000000000E+00  0.26351411160E+03  0.26351411164E+03  0.50400001928E-02 0.  1.
       -1   -1    0    0    0  501  0.00000000000E+00  0.00000000000E+00 -0.23809734713E+03  0.23809734719E+03  0.50400001928E-02 0. -1.
    10030    2    1    2    0    0  0.00000000000E+00  0.00000000000E+00  0.25416764463E+02  0.50161145883E+03  0.50096710842E+03 0.  0.
        4    1    3    3  502    0 -0.60265498359E+02  0.11573897153E+03  0.22678927123E+03  0.26165325579E+03  0.12699999809E+01 0.  1.
       -4    1    3    3    0  502  0.60265498359E+02 -0.11573897153E+03 -0.20137250677E+03  0.23995820304E+03  0.12699999809E+01 0. -1.
</event>
<event>
 5   0  0.2719671E-02  0.5002680E+03  0.7818609E-02  0.1013709E+00
        1   -1    0    0  501    0  0.00000000000E+00  0.00000000000E+00  0.29517873920E+03  0.29517873924E+03  0.50400001928E-02 0. -1.
       -1   -1    0    0    0  501  0.00000000000E+00  0.00000000000E+00 -0.21196316910E+03  0.21196316916E+03  0.50400001928E-02 0.  1.
    10030    2    1    2    0    0  0.00000000000E+00  0.00000000000E+00  0.83215570102E+02  0.50714190840E+03  0.50026801232E+03 0.  0.
        2    1    3    3  502    0  0.16745324411E+03  0.83511242569E+02 -0.12666184127E+03  0.22596003770E+03  0.25500000920E-02 0.  1.
       -2    1    3    3    0  502 -0.16745324411E+03 -0.83511242569E+02  0.20987741137E+03  0.28118187070E+03  0.25500000920E-02 0. -1.
</event>
<event>
 5   0  0.4409622E-02  0.5004873E+03  0.7818609E-02  0.1013652E+00
        2   -1    0    0  501    0  0.00000000000E+00  0.00000000000E+00  0.20959888722E+03  0.20959888723E+03  0.25500000920E-02 0.  1.
       -2   -1    0    0    0  501  0.00000000000E+00  0.00000000000E+00 -0.29877015598E+03  0.29877015599E+03  0.25500000920E-02 0. -1.
    10030    2    1    2    0    0  0.00000000000E+00  0.00000000000E+00 -0.89171268764E+02  0.50836904322E+03  0.50048733144E+03 0.  0.
        3    1    3    3  502    0  0.12949609963E+03 -0.14263199405E+02 -0.26160705856E+03  0.29225150465E+03  0.10100000352E+00 0. -1.
       -3    1    3    3    0  502 -0.12949609963E+03  0.14263199405E+02  0.17243578980E+03  0.21611753858E+03  0.10100000352E+00 0.  1.
</event>
<event>
 5   0  0.2779445E-02  0.4979518E+03  0.7818609E-02  0.1014315E+00
        1   -1    0    0  501    0  0.00000000000E+00  0.00000000000E+00  0.55128390699E+03  0.55128390702E+03  0.50400001928E-02 0.  1.
       -1   -1    0    0    0  501  0.00000000000E+00  0.00000000000E+00 -0.11244479208E+03  0.11244479220E+03  0.50400001928E-02 0. -1.
    10030    2    1    2    0    0  0.00000000000E+00  0.00000000000E+00  0.43883911491E+03  0.66372869921E+03  0.49795182235E+03 0.  0.
        3    1    3    3  502    0  0.29769903053E+02  0.17475271291E+03 -0.13609482123E+02  0.17779197395E+03  0.10100000352E+00 0. -1.
       -3    1    3    3    0  502 -0.29769903053E+02 -0.17475271291E+03  0.45244859703E+03  0.48593672526E+03  0.10100000352E+00 0.  1.
</event>
<event>
 5   0  0.4409622E-02  0.4991410E+03  0.7818609E-02  0.1014003E+00
       -2   -1    0    0    0  501  0.00000000000E+00  0.00000000000E+00  0.33315115155E+03  0.33315115156E+03  0.25500000920E-02 0. -1.
        2   -1    0    0  501    0  0.00000000000E+00  0.00000000000E+00 -0.18695849812E+03  0.18695849814E+03  0.25500000920E-02 0.  1.
    10030    2    1    2    0    0  0.00000000000E+00  0.00000000000E+00  0.14619265342E+03  0.52010964970E+03  0.49914101794E+03 0.  0.
        3    1    3    3  502    0  0.16793683679E+03  0.15825279680E+03 -0.25969674871E+02  0.23220930873E+03  0.10100000352E+00 0. -1.
       -3    1    3    3    0  502 -0.16793683679E+03 -0.15825279680E+03  0.17216232830E+03  0.28790034097E+03  0.10100000352E+00 0.  1.
</event>
<event>
 5   0  0.1805500E-02  0.4964557E+03  0.7818609E-02  0.1014708E+00
        3   -1    0    0  501    0  0.00000000000E+00  0.00000000000E+00  0.23500139451E+03  0.23500141621E+03  0.10100000352E+00 0. -1.
       -3   -1    0    0    0  501  0.00000000000E+00  0.00000000000E+00 -0.26219871659E+03  0.26219873604E+03  0.10100000352E+00 0.  1.
    10030    2    1    2    0    0  0.00000000000E+00  0.00000000000E+00 -0.27197322084E+02  0.49720015226E+03  0.49645573526E+03 0.  0.
        4    1    3    3  502    0  0.14247976183E+03  0.10857861087E+03  0.15848932740E+03  0.23918669919E+03  0.12699999809E+01 0. -1.
       -4    1    3    3    0  502 -0.14247976183E+03 -0.10857861087E+03 -0.18568664948E+03  0.25801345307E+03  0.12699999809E+01 0.  1.
</event>
<event>
 5   0  0.2723308E-02  0.5023291E+03  0.7818609E-02  0.1013173E+00
        1   -1    0    0  501    0  0.00000000000E+00  0.00000000000E+00  0.37205437746E+03  0.37205437749E+03  0.50400001928E-02 0. -1.
       -1   -1    0    0    0  501  0.00000000000E+00  0.00000000000E+00 -0.16955487892E+03  0.16955487899E+03  0.50400001928E-02 0.  1.
    10030    2    1    2    0    0  0.00000000000E+00  0.00000000000E+00  0.20249949854E+03  0.54160925648E+03  0.50232911502E+03 0.  0.
        4    1    3    3  502    0  0.20226285796E+03  0.62137959191E+02  0.24714776961E+03  0.32535368848E+03  0.12699999809E+01 0. -1.
       -4    1    3    3    0  502 -0.20226285796E+03 -0.62137959191E+02 -0.44648271069E+02  0.21625556800E+03  0.12699999809E+01 0.  1.
</event>
<event>
 5   0  0.2715483E-02  0.5012817E+03  0.7818609E-02  0.1013445E+00
        1   -1    0    0  501    0  0.00000000000E+00  0.00000000000E+00  0.49158799238E+03  0.49158799240E+03  0.50400001928E-02 0.  1.
       -1   -1    0    0    0  501  0.00000000000E+00  0.00000000000E+00 -0.12779164259E+03  0.12779164269E+03  0.50400001928E-02 0. -1.
    10030    2    1    2    0    0  0.00000000000E+00  0.00000000000E+00  0.36379634978E+03  0.61937963509E+03  0.50128170548E+03 0.  0.
        5    1    3    3  502    0 -0.18086550085E+03  0.87133751991E+02  0.36721277529E+03  0.41853546142E+03  0.46999998093E+01 0.  1.
       -5    1    3    3    0  502  0.18086550085E+03 -0.87133751991E+02 -0.34164255048E+01  0.20084417367E+03  0.46999998093E+01 0. -1.
</event>
<event>
 5   0  0.4631619E-02  0.4992261E+03  0.7818609E-02  0.1013981E+00
       -2   -1    0    0    0  501  0.00000000000E+00  0.00000000000E+00  0.10050173612E+03  0.10050173615E+03  0.25500000920E-02 0. -1.
        2   -1    0    0  501    0  0.00000000000E+00  0.00000000000E+00 -0.61995629230E+03  0.61995629231E+03  0.25500000920E-02 0.  1.
    10030    2    1    2    0    0  0.00000000000E+00  0.00000000000E+00 -0.51945455619E+03  0.72045802846E+03  0.49922613596E+03 0.  0.
        5    1    3    3  502    0 -0.24005596793E+03  0.66431688797E+02 -0.28229569774E+03  0.37650098004E+03  0.46999998093E+01 0.  1.
       -5    1    3    3    0  502  0.24005596793E+03 -0.66431688797E+02 -0.23715885845E+03  0.34395704842E+03  0.46999998093E+01 0. -1.
</event>
<event>
 5   0  0.2643185E-02  0.5003853E+03  0.7818609E-02  0.1013678E+00
        1   -1    0    0  501    0  0.00000000000E+00  0.00000000000E+00  0.85749931091E+02  0.85749931239E+02  0.50400001928E-02 0.  1.
       -1   -1    0    0    0  501  0.00000000000E+00  0.00000000000E+00 -0.72998742165E+03  0.72998742166E+03  0.50400001928E-02 0. -1.
    10030    2    1    2    0    0  0.00000000000E+00  0.00000000000E+00 -0.64423749056E+03  0.81573735290E+03  0.50038533620E+03 0.  0.
        1    1    3    3  502    0  0.10785789471E+03  0.20455043694E+03 -0.47782093615E+03  0.53083618353E+03  0.50400001928E-02 0. -1.
       -1    1    3    3    0  502 -0.10785789471E+03 -0.20455043694E+03 -0.16641655441E+03  0.28490116937E+03  0.50400001928E-02 0.  1.
</event>
<event>
 5   0  0.4631619E-02  0.4991527E+03  0.7818609E-02  0.1014000E+00
        2   -1    0    0  501    0  0.00000000000E+00  0.00000000000E+00  0.21095449344E+04  0.21095449344E+04  0.25500000920E-02 0. -1.
       -2   -1    0    0    0  501  0.00000000000E+00  0.00000000000E+00 -0.29526917532E+02  0.29526917642E+02  0.25500000920E-02 0.  1.
    10030    2    1    2    0    0  0.00000000000E+00  0.00000000000E+00  0.20800180169E+04  0.21390718521E+04  0.49915271983E+03 0.  0.
        5    1    3    3  502    0  0.16115511241E+03  0.21232223719E+02  0.22866852777E+03  0.28059430353E+03  0.46999998093E+01 0.  1.
       -5    1    3    3    0  502 -0.16115511241E+03 -0.21232223719E+02  0.18513494891E+04  0.18584775485E+04  0.46999998093E+01 0. -1.
</event>
<event>
 5   0  0.2719671E-02  0.5004911E+03  0.7818609E-02  0.1013651E+00
       -1   -1    0    0    0  501  0.00000000000E+00  0.00000000000E+00  0.39884927206E+02  0.39884927524E+02  0.50400001928E-02 0.  1.
        1   -1    0    0  501    0  0.00000000000E+00  0.00000000000E+00 -0.15700874865E+04  0.15700874865E+04  0.50400001928E-02 0. -1.
    10030    2    1    2    0    0  0.00000000000E+00  0.00000000000E+00 -0.15302025593E+04  0.16099724140E+04  0.50049106033E+03 0.  0.
        2    1    3    3  502    0  0.22368068115E+03  0.72169090107E+02 -0.10414716625E+04  0.10676631718E+04  0.25500000920E-02 0. -1.
       -2    1    3    3    0  502 -0.22368068115E+03 -0.72169090107E+02 -0.48873089676E+03  0.54230924217E+03  0.25500000920E-02 0.  1.
</event>
<event>
 5   0  0.2643185E-02  0.4999684E+03  0.7818609E-02  0.1013787E+00
       -1   -1    0    0    0  501  0.00000000000E+00  0.00000000000E+00  0.92082749010E+02  0.92082749148E+02  0.50400001928E-02 0.  1.
        1   -1    0    0  501    0  0.00000000000E+00  0.00000000000E+00 -0.67865162590E+03  0.67865162592E+03  0.50400001928E-02 0. -1.
    10030    2    1    2    0    0  0.00000000000E+00  0.00000000000E+00 -0.58656887689E+03  0.77073437507E+03  0.49996842858E+03 0.  0.
        1    1    3    3  502    0  0.37330387606E+02  0.24602479883E+03 -0.33010005421E+03  0.41338578264E+03  0.50400001928E-02 0.  1.
       -1    1    3    3    0  502 -0.37330387606E+02 -0.24602479883E+03 -0.25646882269E+03  0.35734859243E+03  0.50400001928E-02 0. -1.
</event>
<event>
 5   0  0.1805500E-02  0.4995064E+03  0.7818609E-02  0.1013908E+00
        3   -1    0    0  501    0  0.00000000000E+00  0.00000000000E+00  0.22945991754E+03  0.22945993977E+03  0.10100000352E+00 0.  1.
       -3   -1    0    0    0  501  0.00000000000E+00  0.00000000000E+00 -0.27184114936E+03  0.27184116812E+03  0.10100000352E+00 0. -1.
    10030    2    1    2    0    0  0.00000000000E+00  0.00000000000E+00 -0.42381231812E+02  0.50130110789E+03  0.49950638831E+03 0.  0.
        4    1    3    3  502    0  0.22596851043E+03  0.10611819356E+03 -0.28441974962E+02  0.25126360172E+03  0.12699999809E+01 0. -1.
       -4    1    3    3    0  502 -0.22596851043E+03 -0.10611819356E+03 -0.13939256850E+02  0.25003750617E+03  0.12699999809E+01 0.  1.
</event>
<event>
 5   0  0.2715483E-02  0.5026702E+03  0.7818609E-02  0.1013084E+00
       -1   -1    0    0    0  501  0.00000000000E+00  0.00000000000E+00  0.15201603274E+03  0.15201603282E+03  0.50400001928E-02 0.  1.
        1   -1    0    0  501    0  0.00000000000E+00  0.00000000000E+00 -0.41554381487E+03  0.41554381490E+03  0.50400001928E-02 0. -1.
    10030    2    1    2    0    0  0.00000000000E+00  0.00000000000E+00 -0.26352778213E+03  0.56755984772E+03  0.50267015904E+03 0.  0.
        5    1    3    3  502    0 -0.16872675755E+03 -0.17119279284E+03 -0.49011983542E+02  0.24535679237E+03  0.46999998093E+01 0.  1.
       -5    1    3    3    0  502  0.16872675755E+03  0.17119279284E+03 -0.21451579859E+03  0.32220305535E+03  0.46999998093E+01 0. -1.
</event>
<event>
 5   0  0.4534223E-02  0.5008876E+03  0.7818609E-02  0.1013547E+00
       -2   -1    0    0    0  501  0.00000000000E+00  0.00000000000E+00  0.19742364056E+03  0.19742364058E+03  0.25500000920E-02 0.  1.
        2   -1    0    0  501    0  0.00000000000E+00  0.00000000000E+00 -0.31770311815E+03  0.31770311816E+03  0.25500000920E-02 0. -1.
    10030    2    1    2    0    0  0.00000000000E+00  0.00000000000E+00 -0.12027947759E+03  0.51512675874E+03  0.50088763694E+03 0.  0.
        2    1    3    3  502    0  0.47136576417E+02 -0.19781017821E+03 -0.21048512644E+03  0.29266826254E+03  0.25500000920E-02 0. -1.
       -2    1    3    3    0  502 -0.47136576417E+02  0.19781017821E+03  0.90205648844E+02  0.22245849620E+03  0.25500000920E-02 0.  1.
</event>
<event>
 5   0  0.4451135E-02  0.4995194E+03  0.7818609E-02  0.1013904E+00
       -2   -1    0    0    0  501  0.00000000000E+00  0.00000000000E+00  0.66119027034E+02  0.66119027083E+02  0.25500000920E-02 0.  1.
        2   -1    0    0  501    0  0.00000000000E+00  0.00000000000E+00 -0.94344859397E+03  0.94344859397E+03  0.25500000920E-02 0. -1.
    10030    2    1    2    0    0  0.00000000000E+00  0.00000000000E+00 -0.87732956693E+03  0.10095676211E+04  0.49951938147E+03 0.  0.
        1    1    3    3  502    0  0.82097185468E+02  0.52290738885E+02  0.26207903800E+02  0.10080239819E+03  0.50400001928E-02 0.  1.
       -1    1    3    3    0  502 -0.82097185468E+02 -0.52290738885E+02 -0.90353747073E+03  0.90876522286E+03  0.50400001928E-02 0. -1.
</event>
<event>
 5   0  0.2723308E-02  0.4994905E+03  0.7818609E-02  0.1013912E+00
        1   -1    0    0  501    0  0.00000000000E+00  0.00000000000E+00  0.50277715867E+03  0.50277715869E+03  0.50400001928E-02 0.  1.
       -1   -1    0    0    0  501  0.00000000000E+00  0.00000000000E+00 -0.12405635561E+03  0.12405635572E+03  0.50400001928E-02 0. -1.
    10030    2    1    2    0    0  0.00000000000E+00  0.00000000000E+00  0.37872080305E+03  0.62683351441E+03  0.49949054858E+03 0.  0.
        4    1    3    3  502    0  0.51969332852E+02 -0.73277779384E+01 -0.11705350190E+03  0.12828734580E+03  0.12699999809E+01 0. -1.
       -4    1    3    3    0  502 -0.51969332852E+02  0.73277779384E+01  0.49577430495E+03  0.49854616861E+03  0.12699999809E+01 0.  1.
</event>
<event>
 5   0  0.2779445E-02  0.5004435E+03  0.7818609E-02  0.1013663E+00
       -1   -1    0    0    0  501  0.00000000000E+00  0.00000000000E+00  0.65209660348E+02  0.65209660543E+02  0.50400001928E-02 0.  1.
        1   -1    0    0  501    0  0.00000000000E+00  0.00000000000E+00 -0.96014811633E+03  0.96014811634E+03  0.50400001928E-02 0. -1.
    10030    2    1    2    0    0  0.00000000000E+00  0.00000000000E+00 -0.89493845598E+03  0.10253577769E+04  0.50044353390E+03 0.  0.
        3    1    3    3  502    0  0.39622254429E+02 -0.20056205851E+03 -0.74307814313E+03  0.77068813366E+03  0.10100000352E+00 0. -1.
       -3    1    3    3    0  502 -0.39622254429E+02  0.20056205851E+03 -0.15186031285E+03  0.25466964323E+03  0.10100000352E+00 0.  1.
</event>
<event>
 5   0  0.2643185E-02  0.5005000E+03  0.7818609E-02  0.1013648E+00
       -1   -1    0    0    0  501  0.00000000000E+00  0.00000000000E+00  0.23393446135E+03  0.23393446140E+03  0.50400001928E-02 0.  1.
        1   -1    0    0  501    0  0.00000000000E+00  0.00000000000E+00 -0.26770342710E+03  0.26770342715E+03  0.50400001928E-02 0. -1.
    10030    2    1    2    0    0  0.00000000000E+00  0.00000000000E+00 -0.33768965758E+02  0.50163788855E+03  0.50049997820E+03 0.  0.
        1    1    3    3  502    0 -0.21009710490E+03 -0.53304411310E+02 -0.14224043162E+03  0.25925758266E+03  0.50400001928E-02 0. -1.
       -1    1    3    3    0  502  0.21009710490E+03  0.53304411310E+02  0.10847146587E+03  0.24238030589E+03  0.50400001928E-02 0.  1.
</event>
<event>
 5   0  0.2719671E-02  0.5034099E+03  0.7818609E-02  0.1012893E+00
       -1   -1    0    0    0  501  0.00000000000E+00  0.00000000000E+00  0.35543413829E+03  0.35543413833E+03  0.50400001928E-02 0.  1.
        1   -1    0    0  501    0  0.00000000000E+00  0.00000000000E+00 -0.17824790079E+03  0.17824790086E+03  0.50400001928E-02 0. -1.
    10030    2    1    2    0    0  0.00000000000E+00  0.00000000000E+00  0.17718623750E+03  0.53368203919E+03  0.50340992858E+03 0.  0.
        2    1    3    3  502    0 -0.70092510039E+02  0.12520921985E+03 -0.13063964382E+03  0.19405418121E+03  0.25500000920E-02 0. -1.
       -2    1    3    3    0  502  0.70092510039E+02 -0.12520921985E+03  0.30782588132E+03  0.33962785798E+03  0.25500000920E-02 0.  1.
</event>
<event>
 5   0  0.4451135E-02  0.4996350E+03  0.7818609E-02  0.1013874E+00
       -2   -1    0    0    0  501  0.00000000000E+00  0.00000000000E+00  0.81826174124E+02  0.81826174163E+02  0.25500000920E-02 0. -1.
        2   -1    0    0  501    0  0.00000000000E+00  0.00000000000E+00 -0.76269949277E+03  0.76269949278E+03  0.25500000920E-02 0.  1.
    10030    2    1    2    0    0  0.00000000000E+00  0.00000000000E+00 -0.68087331865E+03  0.84452566694E+03  0.49963499284E+03 0.  0.
        1    1    3    3  502    0 -0.14061021175E+03 -0.19113415417E+03 -0.20836398397E+03  0.31578322688E+03  0.50400001928E-02 0.  1.
       -1    1    3    3    0  502  0.14061021175E+03  0.19113415417E+03 -0.47250933468E+03  0.52874244006E+03  0.50400001928E-02 0. -1.
</event>
<event>
 5   0  0.4409622E-02  0.4961099E+03  0.7818609E-02  0.1014799E+00
        2   -1    0    0  501    0  0.00000000000E+00  0.00000000000E+00  0.11683560863E+04  0.11683560863E+04  0.25500000920E-02 0.  1.
       -2   -1    0    0    0  501  0.00000000000E+00  0.00000000000E+00 -0.52664806796E+02  0.52664806857E+02  0.25500000920E-02 0. -1.
    10030    2    1    2    0    0  0.00000000000E+00  0.00000000000E+00  0.11156912796E+04  0.12210208932E+04  0.49610985717E+03 0.  0.
        3    1    3    3  502    0  0.79136772850E+02  0.18164669371E+03  0.92515792009E+03  0.94613706061E+03  0.10100000352E+00 0.  1.
       -3    1    3    3    0  502 -0.79136772850E+02 -0.18164669371E+03  0.19053335946E+03  0.27488383260E+03  0.10100000352E+00 0. -1.
</event>
<event>
 5   0  0.2779445E-02  0.5007838E+03  0.7818609E-02  0.1013575E+00
       -1   -1    0    0    0  501  0.00000000000E+00  0.00000000000E+00  0.89599276426E+02  0.89599276568E+02  0.50400001928E-02 0. -1.
        1   -1    0    0  501    0  0.00000000000E+00  0.00000000000E+00 -0.69973884780E+03  0.69973884782E+03  0.50400001928E-02 0.  1.
    10030    2    1    2    0    0  0.00000000000E+00  0.00000000000E+00 -0.61013957137E+03  0.78933812439E+03  0.50078376377E+03 0.  0.
        3    1    3    3  502    0 -0.45948206403E+01 -0.22615063646E+03 -0.47432564753E+03  0.52549981242E+03  0.10100000352E+00 0.  1.
       -3    1    3    3    0  502  0.45948206403E+01  0.22615063646E+03 -0.13581392384E+03  0.26383831196E+03  0.10100000352E+00 0. -1.
</event>
<event>
 5   0  0.4519539E-02  0.4985009E+03  0.7818609E-02  0.1014171E+00
       -2   -1    0    0    0  501  0.00000000000E+00  0.00000000000E+00  0.31762728046E+02  0.31762728148E+02  0.25500000920E-02 0. -1.
        2   -1    0    0  501    0  0.00000000000E+00  0.00000000000E+00 -0.19559333952E+04  0.19559333952E+04  0.25500000920E-02 0.  1.
    10030    2    1    2    0    0  0.00000000000E+00  0.00000000000E+00 -0.19241706671E+04  0.19876961233E+04  0.49850087506E+03 0.  0.
        4    1    3    3  502    0  0.59870918358E+02 -0.57685506537E+02 -0.18990018533E+04  0.19008213478E+04  0.12699999809E+01 0.  1.
       -4    1    3    3    0  502 -0.59870918358E+02  0.57685506537E+02 -0.25168813805E+02  0.86874775497E+02  0.12699999809E+01 0. -1.
</event>
<event>
 5   0  0.2779445E-02  0.5005053E+03  0.7818609E-02  0.1013647E+00
       -1   -1    0    0    0  501  0.00000000000E+00  0.00000000000E+00  0.11077779239E+03  0.11077779250E+03  0.50400001928E-02 0. -1.
        1   -1    0    0  501    0  0.00000000000E+00  0.00000000000E+00 -0.56533348722E+03  0.56533348724E+03  0.50400001928E-02 0.  1.
    10030    2    1    2    0    0  0.00000000000E+00  0.00000000000E+00 -0.45455569483E+03  0.67611127974E+03  0.50050532753E+03 0.  0.
        3    1    3    3  502    0 -0.10336295985E+03  0.22655087331E+03 -0.19371819464E+03  0.31549318345E+03  0.10100000352E+00 0. -1.
       -3    1    3    3    0  502  0.10336295985E+03 -0.22655087331E+03 -0.26083750020E+03  0.36061809630E+03  0.10100000352E+00 0.  1.
</event>
<event>
 5   0  0.2779445E-02  0.4921956E+03  0.7818609E-02  0.1015836E+00
       -1   -1    0    0    0  501  0.00000000000E+00  0.00000000000E+00  0.14962583537E+03  0.14962583545E+03  0.50400001928E-02 0.  1.
        1   -1    0    0  501    0  0.00000000000E+00  0.00000000000E+00 -0.40477054399E+03  0.40477054402E+03  0.50400001928E-02 0. -1.
    10030    2    1    2    0    0  0.00000000000E+00  0.00000000000E+00 -0.25514470862E+03  0.55439637947E+03  0.49219561480E+03 0.  0.
        3    1    3    3  502    0  0.10452021194E+03  0.73321057407E+02 -0.36454943626E+03  0.38625995630E+03  0.10100000352E+00 0. -1.
       -3    1    3    3    0  502 -0.10452021194E+03 -0.73321057407E+02  0.10940472764E+03  0.16813642317E+03  0.10100000352E+00 0.  1.
</event>
<event>
 5   0  0.4631619E-02  0.4990080E+03  0.7818609E-02  0.1014038E+00
        2   -1    0    0  501    0  0.00000000000E+00  0.00000000000E+00  0.10298778534E+04  0.10298778534E+04  0.25500000920E-02 0. -1.
       -2   -1    0    0    0  501  0.00000000000E+00  0.00000000000E+00 -0.60446238509E+02  0.60446238562E+02  0.25500000920E-02 0.  1.
    10030    2    1    2    0    0  0.00000000000E+00  0.00000000000E+00  0.96943161487E+03  0.10903240919E+04  0.49900798547E+03 0.  0.
        5    1    3    3  502    0  0.10894700197E+03 -0.14081176925E+03  0.86651153589E+03  0.88462519488E+03  0.46999998093E+01 0. -1.
       -5    1    3    3    0  502 -0.10894700197E+03  0.14081176925E+03  0.10292007898E+03  0.20569889706E+03  0.46999998093E+01 0.  1.
</event>
<event>
 5   0  0.2723308E-02  0.4986360E+03  0.7818609E-02  0.1014136E+00
        1   -1    0    0  501    0  0.00000000000E+00  0.00000000000E+00  0.43114143288E+03  0.43114143291E+03  0.50400001928E-02 0.  1.
       -1   -1    0    0    0  501  0.00000000000E+00  0.00000000000E+00 -0.14417418283E+03  0.14417418292E+03  0.50400001928E-02 0. -1.
    10030    2    1    2    0    0  0.00000000000E+00  0.00000000000E+00  0.28696725005E+03  0.57531561584E+03  0.49863599471E+03 0.  0.
        4    1    3    3  502    0  0.22656487703E+03 -0.80517907754E+02  0.21951995523E+03  0.32558470575E+03  0.12699999809E+01 0.  1.
       -4    1    3    3    0  502 -0.22656487703E+03  0.80517907754E+02  0.67447294818E+02  0.24973091008E+03  0.12699999809E+01 0. -1.
</event>
<event>
 5   0  0.2779445E-02  0.4993425E+03  0.7818609E-02  0.1013951E+00
        1   -1    0    0  501    0  0.00000000000E+00  0.00000000000E+00  0.83555638797E+03  0.83555638798E+03  0.50400001928E-02 0.  1.
       -1   -1    0    0    0  501  0.00000000000E+00  0.00000000000E+00 -0.74603858764E+02  0.74603858934E+02  0.50400001928E-02 0. -1.
    10030    2    1    2    0    0  0.00000000000E+00  0.00000000000E+00  0.76095252920E+03  0.91016024692E+03  0.49934249105E+03 0.  0.
        3    1    3    3  502    0  0.20118933963E+03  0.21883883342E+02  0.11396240628E+03  0.23225738950E+03  0.10100000352E+00 0. -1.
       -3    1    3    3    0  502 -0.20118933963E+03 -0.21883883342E+02  0.64699012292E+03  0.67790285741E+03  0.10100000352E+00 0.  1.
</event>
<event>
 5   0  0.4534223E-02  0.5003220E+03  0.7818609E-02  0.1013695E+00
       -2   -1    0    0    0  501  0.00000000000E+00  0.00000000000E+00  0.18472792305E+03  0.18472792307E+03  0.25500000920E-02 0.  1.
        2   -1    0    0  501    0  0.00000000000E+00  0.00000000000E+00 -0.33877136402E+03  0.33877136403E+03  0.25500000920E-02 0. -1.
    10030    2    1    2    0    0  0.00000000000E+00  0.00000000000E+00 -0.15404344097E+03  0.52349928710E+03  0.50032201819E+03 0.  0.
        2    1    3    3  502    0  0.12042237690E+03 -0.15825906728E+03  0.81775244168E+02  0.21502249138E+03  0.25500000920E-02 0.  1.
       -2    1    3    3    0  502 -0.12042237690E+03  0.15825906728E+03 -0.23581868514E+03  0.30847679572E+03  0.25500000920E-02 0. -1.
</event>
<event>
 5   0  0.2723308E-02  0.4991824E+03  0.7818609E-02  0.1013993E+00
       -1   -1    0    0    0  501  0.00000000000E+00  0.00000000000E+00  0.19604936865E+03  0.19604936871E+03  0.50400001928E-02 0.  1.
        1   -1    0    0  501    0  0.00000000000E+00  0.00000000000E+00 -0.31775549762E+03  0.31775549766E+03  0.50400001928E-02 0. -1.
    10030    2    1    2    0    0  0.00000000000E+00  0.00000000000E+00 -0.12170612897E+03  0.51380486637E+03  0.49918239039E+03 0.  0.
        4    1    3    3  502    0 -0.17478899018E+03  0.78651231746E+02 -0.22540137274E+03  0.29587936574E+03  0.12699999809E+01 0. -1.
       -4    1    3    3    0  502  0.17478899018E+03 -0.78651231746E+02  0.10369524377E+03  0.21792550063E+03  0.12699999809E+01 0.  1.
</event>
<event>
 5   0  0.4451135E-02  0.4989561E+03  0.7818609E-02  0.1014052E+00
       -2   -1    0    0    0  501  0.00000000000E+00  0.00000000000E+00  0.23404489613E+03  0.23404489615E+03  0.25500000920E-02 0.  1.
        2   -1    0    0  501    0  0.00000000000E+00  0.00000000000E+00 -0.26592892582E+03  0.26592892583E+03  0.25500000920E-02 0. -1.
    10030    2    1    2    0    0  0.00000000000E+00  0.00000000000E+00 -0.31884029691E+02  0.49997382198E+03  0.49895614168E+03 0.  0.
        1    1    3    3  502    0  0.11787075120E+03 -0.16625599538E+03  0.12824287858E+03  0.24079203874E+03  0.50400001928E-02 0.  1.
       -1    1    3    3    0  502 -0.11787075120E+03  0.16625599538E+03 -0.16012690827E+03  0.25918178324E+03  0.50400001928E-02 0. -1.
</event>
<event>
 5   0  0.1805500E-02  0.5006806E+03  0.7818609E-02  0.1013601E+00
        4   -1    0    0  501    0  0.00000000000E+00  0.00000000000E+00  0.10720432320E+04  0.10720439842E+04  0.12699999809E+01 0. -1.
       -4   -1    0    0    0  501  0.00000000000E+00  0.00000000000E+00 -0.58451050236E+02  0.58464845623E+02  0.12699999809E+01 0.  1.
    10030    2    1    2    0    0  0.00000000000E+00  0.00000000000E+00  0.10135921817E+04  0.11305088299E+04  0.50068064022E+03 0.  0.
        3    1    3    3  502    0  0.80620174636E+02  0.15550285770E+03  0.91064320462E+03  0.92733586561E+03  0.10100000352E+00 0. -1.
       -3    1    3    3    0  502 -0.80620174636E+02 -0.15550285770E+03  0.10294897711E+03  0.20317296425E+03  0.10100000352E+00 0.  1.
</event>
<event>
 5   0  0.2723308E-02  0.5010470E+03  0.7818609E-02  0.1013506E+00
        1   -1    0    0  501    0  0.00000000000E+00  0.00000000000E+00  0.27673343959E+03  0.27673343964E+03  0.50400001928E-02 0. -1.
       -1   -1    0    0    0  501  0.00000000000E+00  0.00000000000E+00 -0.22679598865E+03  0.22679598871E+03  0.50400001928E-02 0.  1.
    10030    2    1    2    0    0  0.00000000000E+00  0.00000000000E+00  0.49937450941E+02  0.50352942835E+03  0.50104703992E+03 0.  0.
        4    1    3    3  502    0  0.21055521972E+03  0.13134606804E+03 -0.94812962793E+01  0.24834813875E+03  0.12699999809E+01 0. -1.
       -4    1    3    3    0  502 -0.21055521972E+03 -0.13134606804E+03  0.59418747220E+02  0.25518128960E+03  0.12699999809E+01 0.  1.
</event>
<event>
 5   0  0.4409622E-02  0.5014793E+03  0.7818609E-02  0.1013394E+00
       -2   -1    0    0    0  501  0.00000000000E+00  0.00000000000E+00  0.11584227356E+03  0.11584227359E+03  0.25500000920E-02 0. -1.
        2   -1    0    0  501    0  0.00000000000E+00  0.00000000000E+00 -0.54272383296E+03  0.54272383296E+03  0.25500000920E-02 0.  1.
    10030    2    1    2    0    0  0.00000000000E+00  0.00000000000E+00 -0.42688155940E+03  0.65856610655E+03  0.50147926272E+03 0.  0.
        3    1    3    3  502    0 -0.13754537487E+02 -0.19881043125E+03 -0.41327700004E+03  0.45881659063E+03  0.10100000352E+00 0.  1.
       -3    1    3    3    0  502  0.13754537487E+02  0.19881043125E+03 -0.13604559359E+02  0.19974951592E+03  0.10100000352E+00 0. -1.
</event>
<event>
 5   0  0.2779445E-02  0.5004168E+03  0.7818609E-02  0.1013670E+00
        1   -1    0    0  501    0  0.00000000000E+00  0.00000000000E+00  0.36291360399E+03  0.36291360402E+03  0.50400001928E-02 0.  1.
       -1   -1    0    0    0  501  0.00000000000E+00  0.00000000000E+00 -0.17250456791E+03  0.17250456799E+03  0.50400001928E-02 0. -1.
    10030    2    1    2    0    0  0.00000000000E+00  0.00000000000E+00  0.19040903607E+03  0.53541817201E+03  0.50041684414E+03 0.  0.
        3    1    3    3  502    0  0.84680567171E+02  0.21899001735E+03  0.26879326642E+01  0.23480771141E+03  0.10100000352E+00 0.  1.
       -3    1    3    3    0  502 -0.84680567171E+02 -0.21899001735E+03  0.18772110341E+03  0.30061046060E+03  0.10100000352E+00 0. -1.
</event>
<event>
 5   0  0.4534223E-02  0.5029485E+03  0.7818609E-02  0.1013012E+00
        2   -1    0    0  501    0  0.00000000000E+00  0.00000000000E+00  0.49235450912E+03  0.49235450913E+03  0.25500000920E-02 0. -1.
       -2   -1    0    0    0  501  0.00000000000E+00  0.00000000000E+00 -0.12844260403E+03  0.12844260406E+03  0.25500000920E-02 0.  1.
    10030    2    1    2    0    0  0.00000000000E+00  0.00000000000E+00  0.36391190509E+03  0.62079711319E+03  0.50294848750E+03 0.  0.
        2    1    3    3  502    0 -0.11641696959E+03 -0.61453618431E+02 -0.82515657303E+02  0.15536502738E+03  0.25500000920E-02 0.  1.
       -2    1    3    3    0  502  0.11641696959E+03  0.61453618431E+02  0.44642756239E+03  0.46543208581E+03  0.25500000920E-02 0. -1.
</event>
<event>
 5   0  0.4409622E-02  0.4982938E+03  0.7818609E-02  0.1014225E+00
       -2   -1    0    0    0  501  0.00000000000E+00  0.00000000000E+00  0.16361776713E+03  0.16361776715E+03  0.25500000920E-02 0.  1.
        2   -1    0    0  501    0  0.00000000000E+00  0.00000000000E+00 -0.37938537802E+03  0.37938537803E+03  0.25500000920E-02 0. -1.
    10030    2    1    2    0    0  0.00000000000E+00  0.00000000000E+00 -0.21576761088E+03  0.54300314518E+03  0.49829384280E+03 0.  0.
        3    1    3    3  502    0  0.62109854366E+02 -0.22852340002E+03 -0.23519118805E+02  0.23797843918E+03  0.10100000352E+00 0.  1.
       -3    1    3    3    0  502 -0.62109854366E+02  0.22852340002E+03 -0.19224849208E+03  0.30502470600E+03  0.10100000352E+00 0. -1.
</event>
<event>
 5   0  0.4534223E-02  0.4974450E+03  0.7818609E-02  0.1014448E+00
       -2   -1    0    0    0  501  0.00000000000E+00  0.00000000000E+00  0.14011959914E+03  0.14011959916E+03  0.25500000920E-02 0. -1.
        2   -1    0    0  501    0  0.00000000000E+00  0.00000000000E+00 -0.44150064692E+03  0.44150064693E+03  0.25500000920E-02 0.  1.
    10030    2    1    2    0    0  0.00000000000E+00  0.00000000000E+00 -0.30138104778E+03  0.58162024609E+03  0.49744504691E+03 0.  0.
        2    1    3    3  502    0 -0.20958237349E+03 -0.12651408898E+03 -0.99294142275E+02  0.26417780505E+03  0.25500000920E-02 0. -1.
       -2    1    3    3    0  502  0.20958237349E+03  0.12651408898E+03 -0.20208690551E+03  0.31744244104E+03  0.25500000920E-02 0.  1.
</event>
<event>
 5   0  0.4534223E-02  0.4975215E+03  0.7818609E-02  0.1014428E+00
        2   -1    0    0  501    0  0.00000000000E+00  0.00000000000E+00  0.10680740115E+03  0.10680740118E+03  0.25500000920E-02 0.  1.
       -2   -1    0    0    0  501  0.00000000000E+00  0.00000000000E+00 -0.57937838761E+03  0.57937838762E+03  0.25500000920E-02 0. -1.
    10030    2    1    2    0    0  0.00000000000E+00  0.00000000000E+00 -0.47257098647E+03  0.68618578880E+03  0.49752145632E+03 0.  0.
        2    1    3    3  502    0  0.24833479347E+03  0.45741950596E+01 -0.21723408813E+03  0.32997233514E+03  0.25500000920E-02 0. -1.
       -2    1    3    3    0  502 -0.24833479347E+03 -0.45741950596E+01 -0.25533689834E+03  0.35621345366E+03  0.25500000920E-02 0.  1.
</event>
<event>
 5   0  0.2715483E-02  0.4994352E+03  0.7818609E-02  0.1013926E+00
       -1   -1    0    0    0  501  0.00000000000E+00  0.00000000000E+00  0.55709559479E+03  0.55709559481E+03  0.50400001928E-02 0.  1.
        1   -1    0    0  501    0  0.00000000000E+00  0.00000000000E+00 -0.11193567848E+03  0.11193567859E+03  0.50400001928E-02 0. -1.
    10030    2    1    2    0    0  0.00000000000E+00  0.00000000000E+00  0.44515991632E+03  0.66903127340E+03  0.49943517467E+03 0.  0.
        5    1    3    3  502    0 -0.11545783671E+03  0.21369937978E+03  0.29998433461E+03  0.38601894770E+03  0.46999998093E+01 0.  1.
       -5    1    3    3    0  502  0.11545783671E+03 -0.21369937978E+03  0.14517558171E+03  0.28301232570E+03  0.46999998093E+01 0. -1.
</event>
<event>
 5   0  0.2723308E-02  0.4969647E+03  0.7818609E-02  0.1014574E+00
       -1   -1    0    0    0  501  0.00000000000E+00  0.00000000000E+00  0.60747594625E+02  0.60747594834E+02  0.50400001928E-02 0.  1.
        1   -1    0    0  501    0  0.00000000000E+00  0.00000000000E+00 -0.10163936656E+04  0.10163936656E+04  0.50400001928E-02 0. -1.
    10030    2    1    2    0    0  0.00000000000E+00  0.00000000000E+00 -0.95564607093E+03  0.10771412604E+04  0.49696466874E+03 0.  0.
        4    1    3    3  502    0  0.15065167190E+03 -0.95575105425E+02 -0.10296656275E+03  0.20599575959E+03  0.12699999809E+01 0.  1.
       -4    1    3    3    0  502 -0.15065167190E+03  0.95575105425E+02 -0.85267950817E+03  0.87114550081E+03  0.12699999809E+01 0. -1.
</event>
<event>
 5   0  0.4534223E-02  0.4965884E+03  0.7818609E-02  0.1014673E+00
        2   -1    0    0  501    0  0.00000000000E+00  0.00000000000E+00  0.65756722521E+03  0.65756722521E+03  0.25500000920E-02 0. -1.
       -2   -1    0    0    0  501  0.00000000000E+00  0.00000000000E+00 -0.93754692917E+02  0.93754692952E+02  0.25500000920E-02 0.  1.
    10030    2    1    2    0    0  0.00000000000E+00  0.00000000000E+00  0.56381253229E+03  0.75132191817E+03  0.49658841423E+03 0.  0.
        2    1    3    3  502    0  0.14200909027E+03  0.10448181982E+03  0.17387950634E+02  0.17715917483E+03  0.25500000920E-02 0.  1.
       -2    1    3    3    0  502 -0.14200909027E+03 -0.10448181982E+03  0.54642458166E+03  0.57416274334E+03  0.25500000920E-02 0. -1.
</event>
<event>
 5   0  0.4534223E-02  0.5008964E+03  0.7818609E-02  0.1013545E+00
       -2   -1    0    0    0  501  0.00000000000E+00  0.00000000000E+00  0.13060695184E+03  0.13060695187E+03  0.25500000920E-02 0.  1.
        2   -1    0    0  501    0  0.00000000000E+00  0.00000000000E+00 -0.48025246450E+03  0.48025246451E+03  0.25500000920E-02 0. -1.
    10030    2    1    2    0    0  0.00000000000E+00  0.00000000000E+00 -0.34964551265E+03  0.61085941638E+03  0.50089643845E+03 0.  0.
        2    1    3    3  502    0  0.12522152169E+03  0.12863007061E+03  0.38153080410E+02  0.18352597122E+03  0.25500000920E-02 0.  1.
       -2    1    3    3    0  502 -0.12522152169E+03 -0.12863007061E+03 -0.38779859306E+03  0.42733344516E+03  0.25500000920E-02 0. -1.
</event>
<event>
 5   0  0.2715483E-02  0.4998205E+03  0.7818609E-02  0.1013826E+00
       -1   -1    0    0    0  501  0.00000000000E+00  0.00000000000E+00  0.22074880911E+03  0.22074880917E+03  0.50400001928E-02 0.  1.
        1   -1    0    0  501    0  0.00000000000E+00  0.00000000000E+00 -0.28292397864E+03  0.28292397868E+03  0.50400001928E-02 0. -1.
    10030    2    1    2    0    0  0.00000000000E+00  0.00000000000E+00 -0.62175169526E+02  0.50367278786E+03  0.49982049330E+03 0.  0.
        5    1    3    3  502    0  0.11794108455E+03 -0.20221638576E+03  0.56944032387E+02  0.24096945640E+03  0.46999998093E+01 0.  1.
       -5    1    3    3    0  502 -0.11794108455E+03  0.20221638576E+03 -0.11911920191E+03  0.26270333146E+03  0.46999998093E+01 0. -1.
</event>
<event>
 5   0  0.4409622E-02  0.5000315E+03  0.7818609E-02  0.1013771E+00
       -2   -1    0    0    0  501  0.00000000000E+00  0.00000000000E+00  0.67328232248E+02  0.67328232296E+02  0.25500000920E-02 0. -1.
        2   -1    0    0  501    0  0.00000000000E+00  0.00000000000E+00 -0.92840495921E+03  0.92840495921E+03  0.25500000920E-02 0.  1.
    10030    2    1    2    0    0  0.00000000000E+00  0.00000000000E+00 -0.86107672696E+03  0.99573319151E+03  0.50003145797E+03 0.  0.
        3    1    3    3  502    0  0.38949131558E+02 -0.10746496087E+01 -0.92232166682E+03  0.92314433162E+03  0.10100000352E+00 0.  1.
       -3    1    3    3    0  502 -0.38949131558E+02  0.10746496087E+01  0.61244939856E+02  0.72588859888E+02  0.10100000352E+00 0. -1.
</event>
<event>
 5   0  0.1805500E-02  0.5015533E+03  0.7818609E-02  0.1013374E+00
        4   -1    0    0  501    0  0.00000000000E+00  0.00000000000E+00  0.29855208304E+03  0.29855478424E+03  0.12699999809E+01 0.  1.
       -4   -1    0    0    0  501  0.00000000000E+00  0.00000000000E+00 -0.21064083076E+03  0.21064465928E+03  0.12699999809E+01 0. -1.
    10030    2    1    2    0    0  0.00000000000E+00  0.00000000000E+00  0.87911252284E+02  0.50919944352E+03  0.50155327234E+03 0.  0.
        1    1    3    3  502    0  0.83200422423E+02  0.23490607183E+03  0.15497087788E+02  0.24968646866E+03  0.50400001928E-02 0.  1.
       -1    1    3    3    0  502 -0.83200422423E+02 -0.23490607183E+03  0.72414164496E+02  0.25951297486E+03  0.50400001928E-02 0. -1.
</event>
<event>
 5   0  0.2723308E-02  0.5033930E+03  0.7818609E-02  0.1012897E+00
       -1   -1    0    0    0  501  0.00000000000E+00  0.00000000000E+00  0.65983511432E+02  0.65983511624E+02  0.50400001928E-02 0. -1.
        1   -1    0    0  501    0  0.00000000000E+00  0.00000000000E+00 -0.96010538000E+03  0.96010538002E+03  0.50400001928E-02 0.  1.
    10030    2    1    2    0    0  0.00000000000E+00  0.00000000000E+00 -0.89412186857E+03  0.10260888916E+04  0.50339298534E+03 0.  0.
        4    1    3    3  502    0 -0.21701180220E+03  0.40089836614E+02 -0.20036052415E+03  0.29807259155E+03  0.12699999809E+01 0. -1.
       -4    1    3    3    0  502  0.21701180220E+03 -0.40089836614E+02 -0.69376134442E+03  0.72801630009E+03  0.12699999809E+01 0.  1.
</event>
<event>
 5   0  0.4534223E-02  0.5105645E+03  0.7818609E-02  0.1011058E+00
       -2   -1    0    0    0  501  0.00000000000E+00  0.00000000000E+00  0.53125666172E+02  0.53125666233E+02  0.25500000920E-02 0.  1.
        2   -1    0    0  501    0  0.00000000000E+00  0.00000000000E+00 -0.12266958505E+04  0.12266958505E+04  0.25500000920E-02 0. -1.
    10030    2    1    2    0    0  0.00000000000E+00  0.00000000000E+00 -0.11735701843E+04  0.12798215167E+04  0.51056452790E+03 0.  0.
        2    1    3    3  502    0 -0.15065761568E+03 -0.10064622724E+03 -0.10375809145E+04  0.10532813178E+04  0.25500000920E-02 0. -1.
       -2    1    3    3    0  502  0.15065761568E+03  0.10064622724E+03 -0.13598926977E+03  0.22654019891E+03  0.25500000920E-02 0.  1.
</event>
<event>
 5   0  0.4631619E-02  0.5019511E+03  0.7818609E-02  0.1013271E+00
       -2   -1    0    0    0  501  0.00000000000E+00  0.00000000000E+00  0.97132402907E+02  0.97132402940E+02  0.25500000920E-02 0.  1.
        2   -1    0    0  501    0  0.00000000000E+00  0.00000000000E+00 -0.64848325771E+03  0.64848325772E+03  0.25500000920E-02 0. -1.
    10030    2    1    2    0    0  0.00000000000E+00  0.00000000000E+00 -0.55135085481E+03  0.74561566066E+03  0.50195114137E+03 0.  0.
        5    1    3    3  502    0 -0.31586986399E+02  0.58241918888E+02  0.83839024506E+02  0.10696228706E+03  0.46999998093E+01 0.  1.
       -5    1    3    3    0  502  0.31586986399E+02 -0.58241918888E+02 -0.63518987931E+03  0.63865337360E+03  0.46999998093E+01 0. -1.
</event>
<event>
 5   0  0.1805500E-02  0.4991886E+03  0.7818609E-02  0.1013991E+00
        4   -1    0    0  501    0  0.00000000000E+00  0.00000000000E+00  0.35691245477E+03  0.35691471428E+03  0.12699999809E+01 0.  1.
       -4   -1    0    0    0  501  0.00000000000E+00  0.00000000000E+00 -0.17453994242E+03  0.17454456279E+03  0.12699999809E+01 0. -1.
    10030    2    1    2    0    0  0.00000000000E+00  0.00000000000E+00  0.18237251235E+03  0.53145927707E+03  0.49918857151E+03 0.  0.
        4    1    3    3  502    0 -0.20445741410E+03 -0.14291283179E+03  0.10001594986E+03  0.26875958550E+03  0.12699999809E+01 0.  1.
       -4    1    3    3    0  502  0.20445741410E+03  0.14291283179E+03  0.82356562489E+02  0.26269969158E+03  0.12699999809E+01 0. -1.
</event>
<event>
 5   0  0.2715483E-02  0.5000232E+03  0.7818609E-02  0.1013773E+00
        1   -1    0    0  501    0  0.00000000000E+00  0.00000000000E+00  0.12052448175E+04  0.12052448175E+04  0.50400001928E-02 0. -1.
       -1   -1    0    0    0  501  0.00000000000E+00  0.00000000000E+00 -0.51861487251E+02  0.51861487496E+02  0.50400001928E-02 0.  1.
    10030    2    1    2    0    0  0.00000000000E+00  0.00000000000E+00  0.11533833303E+04  0.12571063050E+04  0.50002315506E+03 0.  0.
        5    1    3    3  502    0 -0.13643409615E+03  0.14702196712E+03  0.20164465233E+03  0.28445101023E+03  0.46999998093E+01 0.  1.
       -5    1    3    3    0  502  0.13643409615E+03 -0.14702196712E+03  0.95173867795E+03  0.97265529481E+03  0.46999998093E+01 0. -1.
</event>
<event>
 5   0  0.4519539E-02  0.5005472E+03  0.7818609E-02  0.1013636E+00
        2   -1    0    0  501    0  0.00000000000E+00  0.00000000000E+00  0.15382471350E+03  0.15382471352E+03  0.25500000920E-02 0.  1.
       -2   -1    0    0    0  501  0.00000000000E+00  0.00000000000E+00 -0.40719640125E+03  0.40719640126E+03  0.25500000920E-02 0. -1.
    10030    2    1    2    0    0  0.00000000000E+00  0.00000000000E+00 -0.25337168775E+03  0.56102111478E+03  0.50054717967E+03 0.  0.
        4    1    3    3  502    0  0.13015213049E+03 -0.16764537122E+03  0.21967904292E+02  0.21337466879E+03  0.12699999809E+01 0.  1.
       -4    1    3    3    0  502 -0.13015213049E+03  0.16764537122E+03 -0.27533959204E+03  0.34764644599E+03  0.12699999809E+01 0. -1.
</event>
<event>
 5   0  0.2779445E-02  0.4999083E+03  0.7818609E-02  0.1013803E+00
        1   -1    0    0  501    0  0.00000000000E+00  0.00000000000E+00  0.41922378681E+03  0.41922378684E+03  0.50400001928E-02 0. -1.
       -1   -1    0    0    0  501  0.00000000000E+00  0.00000000000E+00 -0.14903034628E+03  0.14903034636E+03  0.50400001928E-02 0.  1.
    10030    2    1    2    0    0  0.00000000000E+00  0.00000000000E+00  0.27019344053E+03  0.56825413320E+03  0.49990825617E+03 0.  0.
        3    1    3    3  502    0  0.15950588328E+03  0.90294287025E+02  0.32827796272E+03  0.37598087196E+03  0.10100000352E+00 0. -1.
       -3    1    3    3    0  502 -0.15950588328E+03 -0.90294287025E+02 -0.58084522187E+02  0.19227326124E+03  0.10100000352E+00 0.  1.
</event>
<event>
 5   0  0.2719671E-02  0.4995677E+03  0.7818609E-02  0.1013892E+00
       -1   -1    0    0    0  501  0.00000000000E+00  0.00000000000E+00  0.16248552822E+03  0.16248552830E+03  0.50400001928E-02 0.  1.
        1   -1    0    0  501    0  0.00000000000E+00  0.00000000000E+00 -0.38398477935E+03  0.38398477938E+03  0.50400001928E-02 0. -1.
    10030    2    1    2    0    0  0.00000000000E+00  0.00000000000E+00 -0.22149925113E+03  0.54647030768E+03  0.49956769204E+03 0.  0.
        2    1    3    3  502    0  0.10269571409E+03 -0.10919989358E+03 -0.32931060234E+03  0.36182385116E+03  0.25500000920E-02 0. -1.
       -2    1    3    3    0  502 -0.10269571409E+03  0.10919989358E+03  0.10781135121E+03  0.18464645652E+03  0.25500000920E-02 0.  1.
</event>
<event>
 5   0  0.4534223E-02  0.4959630E+03  0.7818609E-02  0.1014838E+00
       -2   -1    0    0    0  501  0.00000000000E+00  0.00000000000E+00  0.14891691579E+03  0.14891691581E+03  0.25500000920E-02 0.  1.
        2   -1    0    0  501    0  0.00000000000E+00  0.00000000000E+00 -0.41294713172E+03  0.41294713173E+03  0.25500000920E-02 0. -1.
    10030    2    1    2    0    0  0.00000000000E+00  0.00000000000E+00 -0.26403021594E+03  0.56186404754E+03  0.49596295527E+03 0.  0.
        2    1    3    3  502    0 -0.22074738487E+03 -0.94403201042E+02 -0.20233956026E+03  0.31397877308E+03  0.25500000920E-02 0. -1.
       -2    1    3    3    0  502  0.22074738487E+03  0.94403201042E+02 -0.61690655679E+02  0.24788527447E+03  0.25500000920E-02 0.  1.
</event>
<event>
 5   0  0.4631619E-02  0.5033471E+03  0.7818609E-02  0.1012909E+00
        2   -1    0    0  501    0  0.00000000000E+00  0.00000000000E+00  0.35977098509E+03  0.35977098510E+03  0.25500000920E-02 0.  1.
       -2   -1    0    0    0  501  0.00000000000E+00  0.00000000000E+00 -0.17605529415E+03  0.17605529417E+03  0.25500000920E-02 0. -1.
    10030    2    1    2    0    0  0.00000000000E+00  0.00000000000E+00  0.18371569094E+03  0.53582627928E+03  0.50334714310E+03 0.  0.
        5    1    3    3  502    0  0.20277482005E+02  0.19777814538E+03 -0.72335203876E+02  0.21161720815E+03  0.46999998093E+01 0.  1.
       -5    1    3    3    0  502 -0.20277482005E+02 -0.19777814538E+03  0.25605089482E+03  0.32420907113E+03  0.46999998093E+01 0. -1.
</event>
<event>
 5   0  0.2723308E-02  0.5032278E+03  0.7818609E-02  0.1012940E+00
        1   -1    0    0  501    0  0.00000000000E+00  0.00000000000E+00  0.12733685396E+03  0.12733685406E+03  0.50400001928E-02 0.  1.
       -1   -1    0    0    0  501  0.00000000000E+00  0.00000000000E+00 -0.49718171629E+03  0.49718171631E+03  0.50400001928E-02 0. -1.
    10030    2    1    2    0    0  0.00000000000E+00  0.00000000000E+00 -0.36984486233E+03  0.62451857038E+03  0.50322780384E+03 0.  0.
        4    1    3    3  502    0  0.15441290283E+03 -0.72473678308E+02  0.44624241533E+02  0.17631992071E+03  0.12699999809E+01 0.  1.
       -4    1    3    3    0  502 -0.15441290283E+03  0.72473678308E+02 -0.41446910386E+03  0.44819864967E+03  0.12699999809E+01 0. -1.
</event>
<event>
 5   0  0.4631619E-02  0.4971792E+03  0.7818609E-02  0.1014518E+00
       -2   -1    0    0    0  501  0.00000000000E+00  0.00000000000E+00  0.10057097919E+03  0.10057097922E+03  0.25500000920E-02 0.  1.
        2   -1    0    0  501    0  0.00000000000E+00  0.00000000000E+00 -0.61445955441E+03  0.61445955442E+03  0.25500000920E-02 0. -1.
    10030    2    1    2    0    0  0.00000000000E+00  0.00000000000E+00 -0.51388857522E+03  0.71503053364E+03  0.49717923960E+03 0.  0.
        5    1    3    3  502    0  0.11406635666E+03  0.10631209217E+03 -0.53530190317E+03  0.55756937882E+03  0.46999998093E+01 0. -1.
       -5    1    3    3    0  502 -0.11406635666E+03 -0.10631209217E+03  0.21413327943E+02  0.15746115482E+03  0.46999998093E+01 0.  1.
</event>
<event>
 5   0  0.1805500E-02  0.5002855E+03  0.7818609E-02  0.1013704E+00
       -3   -1    0    0    0  501  0.00000000000E+00  0.00000000000E+00  0.23065590973E+03  0.23065593185E+03  0.10100000352E+00 0. -1.
        3   -1    0    0  501    0  0.00000000000E+00  0.00000000000E+00 -0.27127592328E+03  0.27127594208E+03  0.10100000352E+00 0.  1.
    10030    2    1    2    0    0  0.00000000000E+00  0.00000000000E+00 -0.40620013546E+02  0.50193187393E+03  0.50028553903E+03 0.  0.
        4    1    3    3  502    0 -0.16216715013E+03 -0.92277027106E+02  0.14684124373E+03  0.23743883018E+03  0.12699999809E+01 0. -1.
       -4    1    3    3    0  502  0.16216715013E+03  0.92277027106E+02 -0.18746125728E+03  0.26449304375E+03  0.12699999809E+01 0.  1.
</event>
<event>
 5   0  0.2643185E-02  0.5000859E+03  0.7818609E-02  0.1013757E+00
       -1   -1    0    0    0  501  0.00000000000E+00  0.00000000000E+00  0.34025006883E+03  0.34025006887E+03  0.50400001928E-02 0.  1.
        1   -1    0    0  501    0  0.00000000000E+00  0.00000000000E+00 -0.18375153309E+03  0.18375153316E+03  0.50400001928E-02 0. -1.
    10030    2    1    2    0    0  0.00000000000E+00  0.00000000000E+00  0.15649853574E+03  0.52400160203E+03  0.50008587986E+03 0.  0.
        1    1    3    3  502    0  0.72755368914E+02 -0.77140036248E+02  0.31552407322E+03  0.33286539277E+03  0.50400001928E-02 0.  1.
       -1    1    3    3    0  502 -0.72755368914E+02  0.77140036248E+02 -0.15902553747E+03  0.19113620926E+03  0.50400001928E-02 0. -1.
</event>
<event>
 5   0  0.4534223E-02  0.5005976E+03  0.7818609E-02  0.1013623E+00
        2   -1    0    0  501    0  0.00000000000E+00  0.00000000000E+00  0.12535312807E+04  0.12535312807E+04  0.25500000920E-02 0. -1.
       -2   -1    0    0    0  501  0.00000000000E+00  0.00000000000E+00 -0.49978404323E+02  0.49978404388E+02  0.25500000920E-02 0.  1.
    10030    2    1    2    0    0  0.00000000000E+00  0.00000000000E+00  0.12035528763E+04  0.13035096850E+04  0.50059761574E+03 0.  0.
        2    1    3    3  502    0  0.50986867291E+02 -0.14637663356E+03  0.11135201328E+04  0.11242565835E+04  0.25500000920E-02 0. -1.
       -2    1    3    3    0  502 -0.50986867291E+02  0.14637663356E+03  0.90032743572E+02  0.17925310154E+03  0.25500000920E-02 0.  1.
</event>
<event>
 5   0  0.4409622E-02  0.4975809E+03  0.7818609E-02  0.1014412E+00
        2   -1    0    0  501    0  0.00000000000E+00  0.00000000000E+00  0.28238851655E+03  0.28238851656E+03  0.25500000920E-02 0.  1.
       -2   -1    0    0    0  501  0.00000000000E+00  0.00000000000E+00 -0.21918980633E+03  0.21918980634E+03  0.25500000920E-02 0. -1.
    10030    2    1    2    0    0  0.00000000000E+00  0.00000000000E+00  0.63198710219E+02  0.50157832290E+03  0.49758088491E+03 0.  0.
        3    1    3    3  502    0  0.37376556826E+02  0.57274110052E+02  0.27272672313E+03  0.28117113364E+03  0.10100000352E+00 0.  1.
       -3    1    3    3    0  502 -0.37376556826E+02 -0.57274110052E+02 -0.20952801291E+03  0.22040718926E+03  0.10100000352E+00 0. -1.
</event>
<event>
 5   0  0.4451135E-02  0.5018901E+03  0.7818609E-02  0.1013287E+00
       -2   -1    0    0    0  501  0.00000000000E+00  0.00000000000E+00  0.45938771874E+02  0.45938771945E+02  0.25500000920E-02 0.  1.
        2   -1    0    0  501    0  0.00000000000E+00  0.00000000000E+00 -0.13708120510E+04  0.13708120510E+04  0.25500000920E-02 0. -1.
    10030    2    1    2    0    0  0.00000000000E+00  0.00000000000E+00 -0.13248732791E+04  0.14167508229E+04  0.50189011604E+03 0.  0.
        1    1    3    3  502    0  0.13151183228E+03  0.14719774181E+03 -0.10998468469E+04  0.11174191801E+04  0.50400001928E-02 0. -1.
       -1    1    3    3    0  502 -0.13151183228E+03 -0.14719774181E+03 -0.22502643217E+03  0.29933164287E+03  0.50400001928E-02 0.  1.
</event>
<event>
 5   0  0.2723308E-02  0.5007060E+03  0.7818609E-02  0.1013595E+00
        1   -1    0    0  501    0  0.00000000000E+00  0.00000000000E+00  0.87046425476E+03  0.87046425477E+03  0.50400001928E-02 0. -1.
       -1   -1    0    0    0  501  0.00000000000E+00  0.00000000000E+00 -0.72003663308E+02  0.72003663484E+02  0.50400001928E-02 0.  1.
    10030    2    1    2    0    0  0.00000000000E+00  0.00000000000E+00  0.79846059145E+03  0.94246791825E+03  0.50070596246E+03 0.  0.
        4    1    3    3  502    0  0.15610307347E+03 -0.63601948191E+02  0.74763803294E+03  0.76640564883E+03  0.12699999809E+01 0. -1.
       -4    1    3    3    0  502 -0.15610307347E+03  0.63601948191E+02  0.50822558505E+02  0.17606226942E+03  0.12699999809E+01 0.  1.
</event>
<event>
 5   0  0.4409622E-02  0.4996748E+03  0.7818609E-02  0.1013864E+00
       -2   -1    0    0    0  501  0.00000000000E+00  0.00000000000E+00  0.14665122604E+03  0.14665122607E+03  0.25500000920E-02 0.  1.
        2   -1    0    0  501    0  0.00000000000E+00  0.00000000000E+00 -0.42562694968E+03  0.42562694969E+03  0.25500000920E-02 0. -1.
    10030    2    1    2    0    0  0.00000000000E+00  0.00000000000E+00 -0.27897572364E+03  0.57227817575E+03  0.49967475028E+03 0.  0.
        3    1    3    3  502    0 -0.11507930864E+03 -0.16127995437E+03  0.34824722220E+02  0.20116471469E+03  0.10100000352E+00 0.  1.
       -3    1    3    3    0  502  0.11507930864E+03  0.16127995437E+03 -0.31380044586E+03  0.37111346106E+03  0.10100000352E+00 0. -1.
</event>
<event>
 5   0  0.2723308E-02  0.4994457E+03  0.7818609E-02  0.1013924E+00
       -1   -1    0    0    0  501  0.00000000000E+00  0.00000000000E+00  0.18563501127E+03  0.18563501134E+03  0.50400001928E-02 0. -1.
        1   -1    0    0  501    0  0.00000000000E+00  0.00000000000E+00 -0.33593610804E+03  0.33593610808E+03  0.50400001928E-02 0.  1.
    10030    2    1    2    0    0  0.00000000000E+00  0.00000000000E+00 -0.15030109678E+03  0.52157111942E+03  0.49944570568E+03 0.  0.
        4    1    3    3  502    0 -0.23429614487E+03  0.25977005139E+02 -0.16120493159E+03  0.28558384262E+03  0.12699999809E+01 0.  1.
       -4    1    3    3    0  502  0.23429614487E+03 -0.25977005139E+02  0.10903834819E+02  0.23598727680E+03  0.12699999809E+01 0. -1.
</event>
<event>
 5   0  0.4631619E-02  0.5016596E+03  0.7818609E-02  0.1013347E+00
        2   -1    0    0  501    0  0.00000000000E+00  0.00000000000E+00  0.77547237456E+02  0.77547237498E+02  0.25500000920E-02 0.  1.
       -2   -1    0    0    0  501  0.00000000000E+00  0.00000000000E+00 -0.81131954963E+03  0.81131954964E+03  0.25500000920E-02 0. -1.
    10030    2    1    2    0    0  0.00000000000E+00  0.00000000000E+00 -0.73377231218E+03  0.88886678713E+03  0.50165960487E+03 0.  0.
        5    1    3    3  502    0  0.17785165932E+03 -0.35923625590E+02 -0.60136689196E+02  0.19120729846E+03  0.46999998093E+01 0.  1.
       -5    1    3    3    0  502 -0.17785165932E+03  0.35923625590E+02 -0.67363562298E+03  0.69765948868E+03  0.46999998093E+01 0. -1.
</event>
<event>
 5   0  0.2723308E-02  0.4971359E+03  0.7818609E-02  0.1014529E+00
       -1   -1    0    0    0  501  0.00000000000E+00  0.00000000000E+00  0.85690763808E+02  0.85690763957E+02  0.50400001928E-02 0. -1.
        1   -1    0    0  501    0  0.00000000000E+00  0.00000000000E+00 -0.72103496995E+03  0.72103496996E+03  0.50400001928E-02 0.  1.
    10030    2    1    2    0    0  0.00000000000E+00  0.00000000000E+00 -0.63534420614E+03  0.80672573392E+03  0.49713594670E+03 0.  0.
        4    1    3    3  502    0  0.26644579006E+02  0.89179434585E+02  0.56340285425E+02  0.10880600078E+03  0.12699999809E+01 0. -1.
       -4    1    3    3    0  502 -0.26644579006E+02 -0.89179434585E+02 -0.69168449156E+03  0.69791973314E+03  0.12699999809E+01 0.  1.
</event>
<event>
 5   0  0.2779445E-02  0.4985913E+03  0.7818609E-02  0.1014147E+00
        1   -1    0    0  501    0  0.00000000000E+00  0.00000000000E+00  0.41090498669E+03  0.41090498672E+03  0.50400001928E-02 0.  1.
       -1   -1    0    0    0  501  0.00000000000E+00  0.00000000000E+00 -0.15124741396E+03  0.15124741405E+03  0.50400001928E-02 0. -1.
    10030    2    1    2    0    0  0.00000000000E+00  0.00000000000E+00  0.25965757272E+03  0.56215240077E+03  0.49859128213E+03 0.  0.
        3    1    3    3  502    0  0.20484580431E+03 -0.57717658073E+02  0.27620685758E+03  0.34868806973E+03  0.10100000352E+00 0.  1.
       -3    1    3    3    0  502 -0.20484580431E+03  0.57717658073E+02 -0.16549284853E+02  0.21346433104E+03  0.10100000352E+00 0. -1.
</event>
<event>
 5   0  0.4451135E-02  0.4994206E+03  0.7818609E-02  0.1013930E+00
        2   -1    0    0  501    0  0.00000000000E+00  0.00000000000E+00  0.36997944910E+03  0.36997944911E+03  0.25500000920E-02 0.  1.
       -2   -1    0    0    0  501  0.00000000000E+00  0.00000000000E+00 -0.16853699121E+03  0.16853699123E+03  0.25500000920E-02 0. -1.
    10030    2    1    2    0    0  0.00000000000E+00  0.00000000000E+00  0.20144245789E+03  0.53851644034E+03  0.49942055692E+03 0.  0.
        1    1    3    3  502    0 -0.67319900365E+02  0.15356751022E+03  0.30024799670E+03  0.34389505481E+03  0.50400001928E-02 0.  1.
       -1    1    3    3    0  502  0.67319900365E+02 -0.15356751022E+03 -0.98805538809E+02  0.19462138553E+03  0.50400001928E-02 0. -1.
</event>
<event>
 5   0  0.4519539E-02  0.5001594E+03  0.7818609E-02  0.1013737E+00
       -2   -1    0    0    0  501  0.00000000000E+00  0.00000000000E+00  0.58571438474E+02  0.58571438530E+02  0.25500000920E-02 0. -1.
        2   -1    0    0  501    0  0.00000000000E+00  0.00000000000E+00 -0.10677533254E+04  0.10677533254E+04  0.25500000920E-02 0.  1.
    10030    2    1    2    0    0  0.00000000000E+00  0.00000000000E+00 -0.10091818870E+04  0.11263247640E+04  0.50015936756E+03 0.  0.
        4    1    3    3  502    0 -0.19972048734E+03  0.93195693377E+02 -0.77070530305E+03  0.80159964283E+03  0.12699999809E+01 0.  1.
       -4    1    3    3    0  502  0.19972048734E+03 -0.93195693377E+02 -0.23847658391E+03  0.32472512114E+03  0.12699999809E+01 0. -1.
</event>
<event>
 5   0  0.4409622E-02  0.5009533E+03  0.7818609E-02  0.1013530E+00
        2   -1    0    0  501    0  0.00000000000E+00  0.00000000000E+00  0.11669097796E+04  0.11669097796E+04  0.25500000920E-02 0.  1.
       -2   -1    0    0    0  501  0.00000000000E+00  0.00000000000E+00 -0.53764694874E+02  0.53764694934E+02  0.25500000920E-02 0. -1.
    10030    2    1    2    0    0  0.00000000000E+00  0.00000000000E+00  0.11131450847E+04  0.12206744745E+04  0.50095328438E+03 0.  0.
        3    1    3    3  502    0 -0.21534616570E+03 -0.22045963167E+02  0.86362173009E+03  0.89033841794E+03  0.10100000352E+00 0.  1.
       -3    1    3    3    0  502  0.21534616570E+03  0.22045963167E+02  0.24952335461E+03  0.33033605657E+03  0.10100000352E+00 0. -1.
</event>
<event>
 5   0  0.2719671E-02  0.4815993E+03  0.7818609E-02  0.1018697E+00
        1   -1    0    0  501    0  0.00000000000E+00  0.00000000000E+00  0.29163007351E+03  0.29163007355E+03  0.50400001928E-02 0.  1.
       -1   -1    0    0    0  501  0.00000000000E+00  0.00000000000E+00 -0.19882884982E+03  0.19882884989E+03  0.50400001928E-02 0. -1.
    10030    2    1    2    0    0  0.00000000000E+00  0.00000000000E+00  0.92801223686E+02  0.49045892344E+03  0.48159930281E+03 0.  0.
        2    1    3    3  502    0  0.22699683841E+03  0.71232768295E+02  0.84270716459E+02  0.25239497932E+03  0.25500000920E-02 0.  1.
       -2    1    3    3    0  502 -0.22699683841E+03 -0.71232768295E+02  0.85305072268E+01  0.23806394412E+03  0.25500000920E-02 0. -1.
</event>
<event>
 5   0  0.2719671E-02  0.4999156E+03  0.7818609E-02  0.1013801E+00
        1   -1    0    0  501    0  0.00000000000E+00  0.00000000000E+00  0.10901929981E+03  0.10901929992E+03  0.50400001928E-02 0. -1.
       -1   -1    0    0    0  501  0.00000000000E+00  0.00000000000E+00 -0.57309955103E+03  0.57309955105E+03  0.50400001928E-02 0.  1.
    10030    2    1    2    0    0  0.00000000000E+00  0.00000000000E+00 -0.46408025123E+03  0.68211885098E+03  0.49991564016E+03 0.  0.
        2    1    3    3  502    0  0.50954719722E+02 -0.86362426364E+02  0.80372554301E+02  0.12850914225E+03  0.25500000920E-02 0. -1.
       -2    1    3    3    0  502 -0.50954719722E+02  0.86362426364E+02 -0.54445280553E+03  0.55360970873E+03  0.25500000920E-02 0.  1.
</event>
<event>
 5   0  0.4631619E-02  0.4967054E+03  0.7818609E-02  0.1014642E+00
        2   -1    0    0  501    0  0.00000000000E+00  0.00000000000E+00  0.23612474063E+04  0.23612474063E+04  0.25500000920E-02 0.  1.
       -2   -1    0    0    0  501  0.00000000000E+00  0.00000000000E+00 -0.26121393098E+02  0.26121393223E+02  0.25500000920E-02 0. -1.
    10030    2    1    2    0    0  0.00000000000E+00  0.00000000000E+00  0.23351260132E+04  0.23873687996E+04  0.49670543324E+03 0.  0.
        5    1    3    3  502    0  0.21760646241E+01 -0.23047996308E+03  0.72362072434E+03  0.75945690551E+03  0.46999998093E+01 0. -1.
       -5    1    3    3    0  502 -0.21760646241E+01  0.23047996308E+03  0.16115052889E+04  0.16279118940E+04  0.46999998093E+01 0.  1.
</event>
<event>
 5   0  0.2643185E-02  0.4991865E+03  0.7818609E-02  0.1013991E+00
        1   -1    0    0  501    0  0.00000000000E+00  0.00000000000E+00  0.33594183852E+03  0.33594183856E+03  0.50400001928E-02 0. -1.
       -1   -1    0    0    0  501  0.00000000000E+00  0.00000000000E+00 -0.18543918895E+03  0.18543918902E+03  0.50400001928E-02 0.  1.
    10030    2    1    2    0    0  0.00000000000E+00  0.00000000000E+00  0.15050264957E+03  0.52138102758E+03  0.49918646655E+03 0.  0.
        1    1    3    3  502    0  0.14621795767E+03 -0.75598601901E+02 -0.12071242200E+03  0.20412331715E+03  0.50400001928E-02 0.  1.
       -1    1    3    3    0  502 -0.14621795767E+03  0.75598601901E+02  0.27121507157E+03  0.31725771043E+03  0.50400001928E-02 0. -1.
</event>
<event>
 5   0  0.4409622E-02  0.5000659E+03  0.7818609E-02  0.1013762E+00
       -2   -1    0    0    0  501  0.00000000000E+00  0.00000000000E+00  0.32527262824E+03  0.32527262825E+03  0.25500000920E-02 0. -1.
        2   -1    0    0  501    0  0.00000000000E+00  0.00000000000E+00 -0.19219714947E+03  0.19219714949E+03  0.25500000920E-02 0.  1.
    10030    2    1    2    0    0  0.00000000000E+00  0.00000000000E+00  0.13307547877E+03  0.51746977774E+03  0.50006588349E+03 0.  0.
        3    1    3    3  502    0  0.15403027894E+02  0.83299365422E+02  0.30997048986E+03  0.32133744309E+03  0.10100000352E+00 0. -1.
       -3    1    3    3    0  502 -0.15403027894E+02 -0.83299365422E+02 -0.17689501109E+03  0.19613233465E+03  0.10100000352E+00 0.  1.
</event>
<event>
 5   0  0.1805500E-02  0.4995890E+03  0.7818609E-02  0.1013886E+00
       -4   -1    0    0    0  501  0.00000000000E+00  0.00000000000E+00  0.15749496171E+03  0.15750008211E+03  0.12699999809E+01 0.  1.
        4   -1    0    0  501    0  0.00000000000E+00  0.00000000000E+00 -0.39617337448E+03  0.39617541007E+03  0.12699999809E+01 0. -1.
    10030    2    1    2    0    0  0.00000000000E+00  0.00000000000E+00 -0.23867841277E+03  0.55367549218E+03  0.49958899700E+03 0.  0.
        3    1    3    3  502    0  0.92877504996E+02  0.21343034150E+03 -0.21980998399E+03  0.32014868556E+03  0.10100000352E+00 0. -1.
       -3    1    3    3    0  502 -0.92877504996E+02 -0.21343034150E+03 -0.18868428775E+02  0.23352680662E+03  0.10100000352E+00 0.  1.
</event>
<event>
 5   0  0.2723308E-02  0.4993721E+03  0.7818609E-02  0.1013943E+00
        1   -1    0    0  501    0  0.00000000000E+00  0.00000000000E+00  0.24531254493E+03  0.24531254498E+03  0.50400001928E-02 0. -1.
       -1   -1    0    0    0  501  0.00000000000E+00  0.00000000000E+00 -0.25413752330E+03  0.25413752335E+03  0.50400001928E-02 0.  1.
    10030    2    1    2    0    0  0.00000000000E+00  0.00000000000E+00 -0.88249783757E+01  0.49945006833E+03  0.49937209625E+03 0.  0.
        4    1    3    3  502    0 -0.22696501907E+03 -0.53340284062E+02  0.84950238694E+02  0.24814604922E+03  0.12699999809E+01 0. -1.
       -4    1    3    3    0  502  0.22696501907E+03  0.53340284062E+02 -0.93775217070E+02  0.25130401912E+03  0.12699999809E+01 0.  1.
</event>
<event>
 5   0  0.2715483E-02  0.4981545E+03  0.7818609E-02  0.1014262E+00
        1   -1    0    0  501    0  0.00000000000E+00  0.00000000000E+00  0.13831481239E+03  0.13831481249E+03  0.50400001928E-02 0. -1.
       -1   -1    0    0    0  501  0.00000000000E+00  0.00000000000E+00 -0.44853820652E+03  0.44853820655E+03  0.50400001928E-02 0.  1.
    10030    2    1    2    0    0  0.00000000000E+00  0.00000000000E+00 -0.31022339413E+03  0.58685301903E+03  0.49815450584E+03 0.  0.
        5    1    3    3  502    0 -0.18009128048E+03 -0.89856016858E+02  0.17666792637E+02  0.20209200536E+03  0.46999998093E+01 0.  1.
       -5    1    3    3    0  502  0.18009128048E+03  0.89856016858E+02 -0.32789018676E+03  0.38476101367E+03  0.46999998093E+01 0. -1.
</event>
<event>
 5   0  0.4519539E-02  0.4994922E+03  0.7818609E-02  0.1013912E+00
       -2   -1    0    0    0  501  0.00000000000E+00  0.00000000000E+00  0.15402922969E+03  0.15402922971E+03  0.25500000920E-02 0.  1.
        2   -1    0    0  501    0  0.00000000000E+00  0.00000000000E+00 -0.40494341382E+03  0.40494341383E+03  0.25500000920E-02 0. -1.
    10030    2    1    2    0    0  0.00000000000E+00  0.00000000000E+00 -0.25091418414E+03  0.55897264354E+03  0.49949223059E+03 0.  0.
        4    1    3    3  502    0  0.12105738423E+03 -0.78280125232E+02 -0.35367526534E+03  0.38192993402E+03  0.12699999809E+01 0. -1.
       -4    1    3    3    0  502 -0.12105738423E+03  0.78280125232E+02  0.10276108121E+03  0.17704270952E+03  0.12699999809E+01 0.  1.
</event>
<event>
 5   0  0.2715483E-02  0.4992568E+03  0.7818609E-02  0.1013973E+00
       -1   -1    0    0    0  501  0.00000000000E+00  0.00000000000E+00  0.62433992917E+02  0.62433993120E+02  0.50400001928E-02 0. -1.
        1   -1    0    0  501    0  0.00000000000E+00  0.00000000000E+00 -0.99808367091E+03  0.99808367093E+03  0.50400001928E-02 0.  1.
    10030    2    1    2    0    0  0.00000000000E+00  0.00000000000E+00 -0.93564967800E+03  0.10605176640E+04  0.49925684354E+03 0.  0.
        5    1    3    3  502    0 -0.64122635427E+02  0.17882639857E+03 -0.12398330871E+03  0.22690205825E+03  0.46999998093E+01 0. -1.
       -5    1    3    3    0  502  0.64122635427E+02 -0.17882639857E+03 -0.81166636928E+03  0.83361560579E+03  0.46999998093E+01 0.  1.
</event>
<event>
 5   0  0.4534223E-02  0.4895592E+03  0.7818609E-02  0.1016541E+00
       -2   -1    0    0    0  501  0.00000000000E+00  0.00000000000E+00  0.98693556774E+02  0.98693556807E+02  0.25500000920E-02 0. -1.
        2   -1    0    0  501    0  0.00000000000E+00  0.00000000000E+00 -0.60710207003E+03  0.60710207003E+03  0.25500000920E-02 0.  1.
    10030    2    1    2    0    0  0.00000000000E+00  0.00000000000E+00 -0.50840851325E+03  0.70579562684E+03  0.48955924107E+03 0.  0.
        2    1    3    3  502    0 -0.72545549927E+02 -0.22485525937E+03 -0.16195465418E+03  0.28644729794E+03  0.25500000920E-02 0. -1.
       -2    1    3    3    0  502  0.72545549927E+02  0.22485525937E+03 -0.34645385907E+03  0.41934832890E+03  0.25500000920E-02 0.  1.
</event>
<event>
 5   0  0.2719671E-02  0.5050461E+03  0.7818609E-02  0.1012470E+00
        1   -1    0    0  501    0  0.00000000000E+00  0.00000000000E+00  0.40013119706E+03  0.40013119710E+03  0.50400001928E-02 0.  1.
       -1   -1    0    0    0  501  0.00000000000E+00  0.00000000000E+00 -0.15936747881E+03  0.15936747889E+03  0.50400001928E-02 0. -1.
    10030    2    1    2    0    0  0.00000000000E+00  0.00000000000E+00  0.24076371825E+03  0.55949867599E+03  0.50504613691E+03 0.  0.
        2    1    3    3  502    0 -0.48921883611E+02 -0.17328227673E+03 -0.75760573331E+02  0.19534523952E+03  0.25500000920E-02 0. -1.
       -2    1    3    3    0  502  0.48921883611E+02  0.17328227673E+03  0.31652429158E+03  0.36415343647E+03  0.25500000920E-02 0.  1.
</event>
<event>
 5   0  0.2723308E-02  0.4993419E+03  0.7818609E-02  0.1013951E+00
        1   -1    0    0  501    0  0.00000000000E+00  0.00000000000E+00  0.97963537961E+03  0.97963537962E+03  0.50400001928E-02 0.  1.
       -1   -1    0    0    0  501  0.00000000000E+00  0.00000000000E+00 -0.63631410372E+02  0.63631410571E+02  0.50400001928E-02 0. -1.
    10030    2    1    2    0    0  0.00000000000E+00  0.00000000000E+00  0.91600396924E+03  0.10432667902E+04  0.49934189075E+03 0.  0.
        4    1    3    3  502    0 -0.15766397880E+03 -0.16053584312E+03  0.68403389217E+03  0.72009281740E+03  0.12699999809E+01 0. -1.
       -4    1    3    3    0  502  0.15766397880E+03  0.16053584312E+03  0.23197007707E+03  0.32317397279E+03  0.12699999809E+01 0.  1.
</event>
<event>
 5   0  0.4534223E-02  0.4710600E+03  0.7818609E-02  0.1021621E+00
       -2   -1    0    0    0  501  0.00000000000E+00  0.00000000000E+00  0.22725339764E+03  0.22725339765E+03  0.25500000920E-02 0.  1.
        2   -1    0    0  501    0  0.00000000000E+00  0.00000000000E+00 -0.24410800416E+03  0.24410800418E+03  0.25500000920E-02 0. -1.
    10030    2    1    2    0    0  0.00000000000E+00  0.00000000000E+00 -0.16854606526E+02  0.47136140183E+03  0.47105996792E+03 0.  0.
        2    1    3    3  502    0  0.10605648551E+03  0.69122047406E+02  0.19031635227E+03  0.22857416631E+03  0.25500000920E-02 0.  1.
       -2    1    3    3    0  502 -0.10605648551E+03 -0.69122047406E+02 -0.20717095880E+03  0.24278723552E+03  0.25500000920E-02 0. -1.
</event>
<event>
 5   0  0.4451135E-02  0.5006087E+03  0.7818609E-02  0.1013620E+00
       -2   -1    0    0    0  501  0.00000000000E+00  0.00000000000E+00  0.37869372331E+03  0.37869372332E+03  0.25500000920E-02 0.  1.
        2   -1    0    0  501    0  0.00000000000E+00  0.00000000000E+00 -0.16544308457E+03  0.16544308459E+03  0.25500000920E-02 0. -1.
    10030    2    1    2    0    0  0.00000000000E+00  0.00000000000E+00  0.21325063875E+03  0.54413680791E+03  0.50060866033E+03 0.  0.
        1    1    3    3  502    0  0.17940859535E+03  0.16890749284E+03  0.15443968094E+03  0.29080715310E+03  0.50400001928E-02 0.  1.
       -1    1    3    3    0  502 -0.17940859535E+03 -0.16890749284E+03  0.58810957809E+02  0.25332965481E+03  0.50400001928E-02 0. -1.
</event>
<event>
 5   0  0.1805500E-02  0.5074331E+03  0.7818609E-02  0.1011857E+00
       -3   -1    0    0    0  501  0.00000000000E+00  0.00000000000E+00  0.15918729161E+03  0.15918732365E+03  0.10100000352E+00 0. -1.
        3   -1    0    0  501    0  0.00000000000E+00  0.00000000000E+00 -0.40437945856E+03  0.40437947118E+03  0.10100000352E+00 0.  1.
    10030    2    1    2    0    0  0.00000000000E+00  0.00000000000E+00 -0.24519216695E+03  0.56356679483E+03  0.50743308278E+03 0.  0.
        3    1    3    3  502    0  0.29620466216E+02 -0.19213387673E+03  0.58470447149E+02  0.20300640876E+03  0.10100000352E+00 0. -1.
       -3    1    3    3    0  502 -0.29620466216E+02  0.19213387673E+03 -0.30366261410E+03  0.36056038608E+03  0.10100000352E+00 0.  1.
</event>
<event>
 5   0  0.2719671E-02  0.5002606E+03  0.7818609E-02  0.1013711E+00
       -1   -1    0    0    0  501  0.00000000000E+00  0.00000000000E+00  0.96354360863E+02  0.96354360995E+02  0.50400001928E-02 0.  1.
        1   -1    0    0  501    0  0.00000000000E+00  0.00000000000E+00 -0.64932369808E+03  0.64932369810E+03  0.50400001928E-02 0. -1.
    10030    2    1    2    0    0  0.00000000000E+00  0.00000000000E+00 -0.55296933722E+03  0.74567805910E+03  0.50026061199E+03 0.  0.
        2    1    3    3  502    0  0.15945102475E+03 -0.14191806494E+03 -0.47083129467E+03  0.51695983838E+03  0.25500000920E-02 0. -1.
       -2    1    3    3    0  502 -0.15945102475E+03  0.14191806494E+03 -0.82138042553E+02  0.22871822072E+03  0.25500000920E-02 0.  1.
</event>
<event>
 5   0  0.2643185E-02  0.4992446E+03  0.7818609E-02  0.1013976E+00
       -1   -1    0    0    0  501  0.00000000000E+00  0.00000000000E+00  0.83040174613E+02  0.83040174766E+02  0.50400001928E-02 0. -1.
        1   -1    0    0  501    0  0.00000000000E+00  0.00000000000E+00 -0.75037539072E+03  0.75037539074E+03  0.50400001928E-02 0.  1.
    10030    2    1    2    0    0  0.00000000000E+00  0.00000000000E+00 -0.66733521611E+03  0.83341556551E+03  0.49924464360E+03 0.  0.
        1    1    3    3  502    0  0.24333084545E+03  0.52197810272E+02 -0.36607162868E+03  0.44265443530E+03  0.50400001928E-02 0.  1.
       -1    1    3    3    0  502 -0.24333084545E+03 -0.52197810272E+02 -0.30126358744E+03  0.39076113021E+03  0.50400001928E-02 0. -1.
</event>
<event>
 5   0  0.2723308E-02  0.4986365E+03  0.7818609E-02  0.1014135E+00
        1   -1    0    0  501    0  0.00000000000E+00  0.00000000000E+00  0.71184879632E+03  0.71184879633E+03  0.50400001928E-02 0. -1.
       -1   -1    0    0    0  501  0.00000000000E+00  0.00000000000E+00 -0.87321345027E+02  0.87321345172E+02  0.50400001928E-02 0.  1.
    10030    2    1    2    0    0  0.00000000000E+00  0.00000000000E+00  0.62452745129E+03  0.79917014151E+03  0.49863651858E+03 0.  0.
        4    1    3    3  502    0  0.28229746225E+01 -0.24929773887E+03  0.31355559864E+03  0.40059463068E+03  0.12699999809E+01 0. -1.
       -4    1    3    3    0  502 -0.28229746225E+01  0.24929773887E+03  0.31097185265E+03  0.39857551083E+03  0.12699999809E+01 0.  1.
</event>
<event>
 5   0  0.4519539E-02  0.4833883E+03  0.7818609E-02  0.1018208E+00
        2   -1    0    0  501    0  0.00000000000E+00  0.00000000000E+00  0.10233089287E+04  0.10233089287E+04  0.25500000920E-02 0. -1.
       -2   -1    0    0    0  501  0.00000000000E+00  0.00000000000E+00 -0.57085455980E+02  0.57085456037E+02  0.25500000920E-02 0.  1.
    10030    2    1    2    0    0  0.00000000000E+00  0.00000000000E+00  0.96622347273E+03  0.10803943847E+04  0.48338827804E+03 0.  0.
        4    1    3    3  502    0 -0.82843584660E+02  0.81065594606E+02  0.90938379351E+01  0.11627123865E+03  0.12699999809E+01 0.  1.
       -4    1    3    3    0  502  0.82843584660E+02 -0.81065594606E+02  0.95712963479E+03  0.96412314610E+03  0.12699999809E+01 0. -1.
</event>
<event>
 5   0  0.2779445E-02  0.4976649E+03  0.7818609E-02  0.1014390E+00
       -1   -1    0    0    0  501  0.00000000000E+00  0.00000000000E+00  0.21196954086E+03  0.21196954092E+03  0.50400001928E-02 0.  1.
        1   -1    0    0  501    0  0.00000000000E+00  0.00000000000E+00 -0.29210611667E+03  0.29210611671E+03  0.50400001928E-02 0. -1.
    10030    2    1    2    0    0  0.00000000000E+00  0.00000000000E+00 -0.80136575807E+02  0.50407565763E+03  0.49766494535E+03 0.  0.
        3    1    3    3  502    0  0.17614554579E+03  0.14122547067E+03  0.65901116233E+02  0.23519110143E+03  0.10100000352E+00 0.  1.
       -3    1    3    3    0  502 -0.17614554579E+03 -0.14122547067E+03 -0.14603769204E+03  0.26888455621E+03  0.10100000352E+00 0. -1.
</event>
<event>
 5   0  0.2643185E-02  0.5007138E+03  0.7818609E-02  0.1013593E+00
       -1   -1    0    0    0  501  0.00000000000E+00  0.00000000000E+00  0.18681027980E+03  0.18681027987E+03  0.50400001928E-02 0.  1.
        1   -1    0    0  501    0  0.00000000000E+00  0.00000000000E+00 -0.33551993101E+03  0.33551993105E+03  0.50400001928E-02 0. -1.
    10030    2    1    2    0    0  0.00000000000E+00  0.00000000000E+00 -0.14870965121E+03  0.52233021092E+03  0.50071377940E+03 0.  0.
        1    1    3    3  502    0 -0.99797237593E+02 -0.35920268163E+01 -0.31384427011E+03  0.32934877743E+03  0.50400001928E-02 0. -1.
       -1    1    3    3    0  502  0.99797237593E+02  0.35920268163E+01  0.16513461890E+03  0.19298143349E+03  0.50400001928E-02 0.  1.
</event>
<event>
 5   0  0.2643185E-02  0.4947396E+03  0.7818609E-02  0.1015161E+00
       -1   -1    0    0    0  501  0.00000000000E+00  0.00000000000E+00  0.54543142204E+03  0.54543142206E+03  0.50400001928E-02 0. -1.
        1   -1    0    0  501    0  0.00000000000E+00  0.00000000000E+00 -0.11218977098E+03  0.11218977109E+03  0.50400001928E-02 0.  1.
    10030    2    1    2    0    0  0.00000000000E+00  0.00000000000E+00  0.43324165106E+03  0.65762119315E+03  0.49473963402E+03 0.  0.
        1    1    3    3  502    0  0.81892174545E+02 -0.19108135586E+03  0.38418084178E+02  0.21141041135E+03  0.50400001928E-02 0.  1.
       -1    1    3    3    0  502 -0.81892174545E+02  0.19108135586E+03  0.39482356688E+03  0.44621078181E+03  0.50400001928E-02 0. -1.
</event>
<event>
 5   0  0.4519539E-02  0.5005154E+03  0.7818609E-02  0.1013644E+00
       -2   -1    0    0    0  501  0.00000000000E+00  0.00000000000E+00  0.20886929309E+03  0.20886929310E+03  0.25500000920E-02 0.  1.
        2   -1    0    0  501    0  0.00000000000E+00  0.00000000000E+00 -0.29984737385E+03  0.29984737386E+03  0.25500000920E-02 0. -1.
    10030    2    1    2    0    0  0.00000000000E+00  0.00000000000E+00 -0.90978080761E+02  0.50871666696E+03  0.50051537046E+03 0.  0.
        4    1    3    3  502    0 -0.59192638183E+02  0.16111226096E+03  0.13961142010E+03  0.22125526111E+03  0.12699999809E+01 0.  1.
       -4    1    3    3    0  502  0.59192638183E+02 -0.16111226096E+03 -0.23058950086E+03  0.28746140585E+03  0.12699999809E+01 0. -1.
</event>
<event>
 5   0  0.4409622E-02  0.4995389E+03  0.7818609E-02  0.1013899E+00
        2   -1    0    0  501    0  0.00000000000E+00  0.00000000000E+00  0.16382153626E+03  0.16382153628E+03  0.25500000920E-02 0. -1.
       -2   -1    0    0    0  501  0.00000000000E+00  0.00000000000E+00 -0.38080939551E+03  0.38080939552E+03  0.25500000920E-02 0.  1.
    10030    2    1    2    0    0  0.00000000000E+00  0.00000000000E+00 -0.21698785925E+03  0.54463093181E+03  0.49953890821E+03 0.  0.
        3    1    3    3  502    0 -0.22175691575E+02  0.96563210022E+02  0.14148074003E+03  0.17272239238E+03  0.10100000352E+00 0. -1.
       -3    1    3    3    0  502  0.22175691575E+02 -0.96563210022E+02 -0.35846859928E+03  0.37190853943E+03  0.10100000352E+00 0.  1.
</event>
<event>
 5   0  0.1805500E-02  0.4929367E+03  0.7818609E-02  0.1015639E+00
        3   -1    0    0  501    0  0.00000000000E+00  0.00000000000E+00  0.13533005533E+04  0.13533005571E+04  0.10100000352E+00 0. -1.
       -3   -1    0    0    0  501  0.00000000000E+00  0.00000000000E+00 -0.44887708174E+02  0.44887821802E+02  0.10100000352E+00 0.  1.
    10030    2    1    2    0    0  0.00000000000E+00  0.00000000000E+00  0.13084128451E+04  0.13981883789E+04  0.49293667901E+03 0.  0.
        4    1    3    3  502    0 -0.19955064961E+03 -0.88720651249E+02  0.33014056452E+03  0.39583610366E+03  0.12699999809E+01 0. -1.
       -4    1    3    3    0  502  0.19955064961E+03  0.88720651249E+02  0.97827228059E+03  0.10023522752E+04  0.12699999809E+01 0.  1.
</event>
<event>
 5   0  0.4631619E-02  0.5004653E+03  0.7818609E-02  0.1013658E+00
        2   -1    0    0  501    0  0.00000000000E+00  0.00000000000E+00  0.16488590713E+03  0.16488590715E+03  0.25500000920E-02 0.  1.
       -2   -1    0    0    0  501  0.00000000000E+00  0.00000000000E+00 -0.37975580078E+03  0.37975580079E+03  0.25500000920E-02 0. -1.
    10030    2    1    2    0    0  0.00000000000E+00  0.00000000000E+00 -0.21486989366E+03  0.54464170794E+03  0.50046530232E+03 0.  0.
        5    1    3    3  502    0  0.94616132194E+02 -0.12019894342E+03  0.10801596220E+03  0.18732201301E+03  0.46999998093E+01 0.  1.
       -5    1    3    3    0  502 -0.94616132194E+02  0.12019894342E+03 -0.32288585586E+03  0.35731969493E+03  0.46999998093E+01 0. -1.
</event>
<event>
 5   0  0.4409622E-02  0.4994798E+03  0.7818609E-02  0.1013915E+00
       -2   -1    0    0    0  501  0.00000000000E+00  0.00000000000E+00  0.11519751442E+03  0.11519751445E+03  0.25500000920E-02 0.  1.
        2   -1    0    0  501    0  0.00000000000E+00  0.00000000000E+00 -0.54141815416E+03  0.54141815416E+03  0.25500000920E-02 0. -1.
    10030    2    1    2    0    0  0.00000000000E+00  0.00000000000E+00 -0.42622063974E+03  0.65661566861E+03  0.49947983195E+03 0.  0.
        3    1    3    3  502    0 -0.14760325268E+03 -0.19186253512E+03 -0.13237143533E+03  0.27589882144E+03  0.10100000352E+00 0.  1.
       -3    1    3    3    0  502  0.14760325268E+03  0.19186253512E+03 -0.29384920441E+03  0.38071684717E+03  0.10100000352E+00 0. -1.
</event>
<event>
 5   0  0.2779445E-02  0.5018571E+03  0.7818609E-02  0.1013295E+00
       -1   -1    0    0    0  501  0.00000000000E+00  0.00000000000E+00  0.13280602199E+04  0.13280602199E+04  0.50400001928E-02 0.  1.
        1   -1    0    0  501    0  0.00000000000E+00  0.00000000000E+00 -0.47411352740E+02  0.47411353008E+02  0.50400001928E-02 0. -1.
    10030    2    1    2    0    0  0.00000000000E+00  0.00000000000E+00  0.12806488672E+04  0.13754715729E+04  0.50185707821E+03 0.  0.
        3    1    3    3  502    0 -0.17660728105E+03  0.10609489503E+02  0.11280142384E+04  0.11418050732E+04  0.10100000352E+00 0.  1.
       -3    1    3    3    0  502  0.17660728105E+03 -0.10609489503E+02  0.15263462876E+03  0.23366649970E+03  0.10100000352E+00 0. -1.
</event>
<event>
 5   0  0.4631619E-02  0.4967156E+03  0.7818609E-02  0.1014640E+00
        2   -1    0    0  501    0  0.00000000000E+00  0.00000000000E+00  0.29812162276E+03  0.29812162277E+03  0.25500000920E-02 0. -1.
       -2   -1    0    0    0  501  0.00000000000E+00  0.00000000000E+00 -0.20690076271E+03  0.20690076272E+03  0.25500000920E-02 0.  1.
    10030    2    1    2    0    0  0.00000000000E+00  0.00000000000E+00  0.91220860047E+02  0.50502238549E+03  0.49671557711E+03 0.  0.
        5    1    3    3  502    0 -0.20277290519E+03 -0.42949787619E+02  0.18463771120E+03  0.27762332346E+03  0.46999998093E+01 0.  1.
       -5    1    3    3    0  502  0.20277290519E+03  0.42949787619E+02 -0.93416851152E+02  0.22739906203E+03  0.46999998093E+01 0. -1.
</event>
<event>
 5   0  0.4534223E-02  0.4976164E+03  0.7818609E-02  0.1014403E+00
       -2   -1    0    0    0  501  0.00000000000E+00  0.00000000000E+00  0.11521610954E+03  0.11521610957E+03  0.25500000920E-02 0.  1.
        2   -1    0    0  501    0  0.00000000000E+00  0.00000000000E+00 -0.53729908104E+03  0.53729908105E+03  0.25500000920E-02 0. -1.
    10030    2    1    2    0    0  0.00000000000E+00  0.00000000000E+00 -0.42208297151E+03  0.65251519061E+03  0.49761635740E+03 0.  0.
        2    1    3    3  502    0 -0.55633307648E+02 -0.92414599980E+02 -0.50504353892E+03  0.51643440960E+03  0.25500000920E-02 0. -1.
       -2    1    3    3    0  502  0.55633307648E+02  0.92414599980E+02  0.82960567413E+02  0.13608078101E+03  0.25500000920E-02 0.  1.
</event>
<event>
 5   0  0.4631619E-02  0.5008612E+03  0.7818609E-02  0.1013554E+00
       -2   -1    0    0    0  501  0.00000000000E+00  0.00000000000E+00  0.26994978850E+03  0.26994978851E+03  0.25500000920E-02 0. -1.
        2   -1    0    0  501    0  0.00000000000E+00  0.00000000000E+00 -0.23232277590E+03  0.23232277591E+03  0.25500000920E-02 0.  1.
    10030    2    1    2    0    0  0.00000000000E+00  0.00000000000E+00  0.37627012599E+02  0.50227256442E+03  0.50086119524E+03 0.  0.
        5    1    3    3  502    0  0.95519177904E+02 -0.22303383631E+03  0.80837518788E+02  0.25578272015E+03  0.46999998093E+01 0.  1.
       -5    1    3    3    0  502 -0.95519177904E+02  0.22303383631E+03 -0.43210506189E+02  0.24648984427E+03  0.46999998093E+01 0. -1.
</event>
<event>
 5   0  0.2643185E-02  0.5003760E+03  0.7818609E-02  0.1013681E+00
        1   -1    0    0  501    0  0.00000000000E+00  0.00000000000E+00  0.21817114533E+04  0.21817114533E+04  0.50400001928E-02 0.  1.
       -1   -1    0    0    0  501  0.00000000000E+00  0.00000000000E+00 -0.28690337303E+02  0.28690337746E+02  0.50400001928E-02 0. -1.
    10030    2    1    2    0    0  0.00000000000E+00  0.00000000000E+00  0.21530211160E+04  0.22104017911E+04  0.50037601058E+03 0.  0.
        1    1    3    3  502    0  0.10236361762E+03 -0.16607568379E+03  0.38457732439E+03  0.43122982436E+03  0.50400001928E-02 0. -1.
       -1    1    3    3    0  502 -0.10236361762E+03  0.16607568379E+03  0.17684437916E+04  0.17791719667E+04  0.50400001928E-02 0.  1.
</event>
<event>
 5   0  0.1805500E-02  0.4997979E+03  0.7818609E-02  0.1013832E+00
        3   -1    0    0  501    0  0.00000000000E+00  0.00000000000E+00  0.93454794819E+03  0.93454795365E+03  0.10100000352E+00 0. -1.
       -3   -1    0    0    0  501  0.00000000000E+00  0.00000000000E+00 -0.66823165688E+02  0.66823242016E+02  0.10100000352E+00 0.  1.
    10030    2    1    2    0    0  0.00000000000E+00  0.00000000000E+00  0.86772478250E+03  0.10013711957E+04  0.49979793250E+03 0.  0.
        1    1    3    3  502    0 -0.10273126954E+03  0.15026618968E+03  0.77690802683E+03  0.79794719354E+03  0.50400001928E-02 0. -1.
       -1    1    3    3    0  502  0.10273126954E+03 -0.15026618968E+03  0.90816755673E+02  0.20342400212E+03  0.50400001928E-02 0.  1.
</event>
<event>
 5   0  0.4534223E-02  0.4998952E+03  0.7818609E-02  0.1013806E+00
       -2   -1    0    0    0  501  0.00000000000E+00  0.00000000000E+00  0.42936416484E+03  0.42936416485E+03  0.25500000920E-02 0. -1.
        2   -1    0    0  501    0  0.00000000000E+00  0.00000000000E+00 -0.14550304263E+03  0.14550304266E+03  0.25500000920E-02 0.  1.
    10030    2    1    2    0    0  0.00000000000E+00  0.00000000000E+00  0.28386112221E+03  0.57486720750E+03  0.49989515857E+03 0.  0.
        2    1    3    3  502    0 -0.15541188301E+03  0.16356614749E+03  0.26561070846E+03  0.34850507376E+03  0.25500000920E-02 0. -1.
       -2    1    3    3    0  502  0.15541188301E+03 -0.16356614749E+03  0.18250413747E+02  0.22636213374E+03  0.25500000920E-02 0.  1.
</event>
<event>
 5   0  0.2715483E-02  0.5010737E+03  0.7818609E-02  0.1013499E+00
        1   -1    0    0  501    0  0.00000000000E+00  0.00000000000E+00  0.47524871948E+03  0.47524871951E+03  0.50400001928E-02 0.  1.
       -1   -1    0    0    0  501  0.00000000000E+00  0.00000000000E+00 -0.13207550244E+03  0.13207550253E+03  0.50400001928E-02 0. -1.
    10030    2    1    2    0    0  0.00000000000E+00  0.00000000000E+00  0.34317321704E+03  0.60732422204E+03  0.50107370095E+03 0.  0.
        5    1    3    3  502    0  0.41984741913E+02 -0.12298367338E+02 -0.12735569672E+03  0.13474246501E+03  0.46999998093E+01 0. -1.
       -5    1    3    3    0  502 -0.41984741913E+02  0.12298367338E+02  0.47052891376E+03  0.47258175703E+03  0.46999998093E+01 0.  1.
</event>
<event>
 5   0  0.2779445E-02  0.4971159E+03  0.7818609E-02  0.1014534E+00
        1   -1    0    0  501    0  0.00000000000E+00  0.00000000000E+00  0.21275501554E+03  0.21275501560E+03  0.50400001928E-02 0. -1.
       -1   -1    0    0    0  501  0.00000000000E+00  0.00000000000E+00 -0.29038591015E+03  0.29038591020E+03  0.50400001928E-02 0.  1.
    10030    2    1    2    0    0  0.00000000000E+00  0.00000000000E+00 -0.77630894611E+02  0.50314092580E+03  0.49711591748E+03 0.  0.
        3    1    3    3  502    0 -0.11344460436E+02 -0.10771743959E+03 -0.26524390121E+03  0.28650668562E+03  0.10100000352E+00 0.  1.
       -3    1    3    3    0  502  0.11344460436E+02  0.10771743959E+03  0.18761300659E+03  0.21663424018E+03  0.10100000352E+00 0. -1.
</event>
<event>
 5   0  0.4519539E-02  0.4975044E+03  0.7818609E-02  0.1014432E+00
       -2   -1    0    0    0  501  0.00000000000E+00  0.00000000000E+00  0.23916610669E+02  0.23916610805E+02  0.25500000920E-02 0. -1.
        2   -1    0    0  501    0  0.00000000000E+00  0.00000000000E+00 -0.25872256126E+04  0.25872256126E+04  0.25500000920E-02 0.  1.
    10030    2    1    2    0    0  0.00000000000E+00  0.00000000000E+00 -0.25633090019E+04  0.26111422234E+04  0.49750444368E+03 0.  0.
        4    1    3    3  502    0  0.23858937715E+03  0.58582239645E+01 -0.16496790889E+04  0.16668538985E+04  0.12699999809E+01 0. -1.
       -4    1    3    3    0  502 -0.23858937715E+03 -0.58582239645E+01 -0.91362991301E+03  0.94428832489E+03  0.12699999809E+01 0.  1.
</event>
<event>
 5   0  0.2779445E-02  0.4997711E+03  0.7818609E-02  0.1013839E+00
        1   -1    0    0  501    0  0.00000000000E+00  0.00000000000E+00  0.80312182704E+03  0.80312182706E+03  0.50400001928E-02 0.  1.
       -1   -1    0    0    0  501  0.00000000000E+00  0.00000000000E+00 -0.77750085997E+02  0.77750086160E+02  0.50400001928E-02 0. -1.
    10030    2    1    2    0    0  0.00000000000E+00  0.00000000000E+00  0.72537174104E+03  0.88087191322E+03  0.49977111240E+03 0.  0.
        3    1    3    3  502    0  0.12079953839E+03  0.17141391043E+03  0.60220816713E+03  0.63767542207E+03  0.10100000352E+00 0.  1.
       -3    1    3    3    0  502 -0.12079953839E+03 -0.17141391043E+03  0.12316357392E+03  0.24319649114E+03  0.10100000352E+00 0. -1.
</event>
<event>
 5   0  0.2723308E-02  0.4977387E+03  0.7818609E-02  0.1014371E+00
       -1   -1    0    0    0  501  0.00000000000E+00  0.00000000000E+00  0.14060026800E+04  0.14060026800E+04  0.50400001928E-02 0. -1.
        1   -1    0    0  501    0  0.00000000000E+00  0.00000000000E+00 -0.44051087683E+02  0.44051087971E+02  0.50400001928E-02 0.  1.
    10030    2    1    2    0    0  0.00000000000E+00  0.00000000000E+00  0.13619515923E+04  0.14500537680E+04  0.49773867664E+03 0.  0.
        4    1    3    3  502    0 -0.50420561333E+02 -0.81631633569E+02  0.13499431489E+04  0.13533492065E+04  0.12699999809E+01 0. -1.
       -4    1    3    3    0  502  0.50420561333E+02  0.81631633569E+02  0.12008443469E+02  0.96704561520E+02  0.12699999809E+01 0.  1.
</event>
<event>
 5   0  0.2779445E-02  0.4986912E+03  0.7818609E-02  0.1014121E+00
        1   -1    0    0  501    0  0.00000000000E+00  0.00000000000E+00  0.17165483959E+03  0.17165483966E+03  0.50400001928E-02 0. -1.
       -1   -1    0    0    0  501  0.00000000000E+00  0.00000000000E+00 -0.36219904609E+03  0.36219904612E+03  0.50400001928E-02 0.  1.
    10030    2    1    2    0    0  0.00000000000E+00  0.00000000000E+00 -0.19054420650E+03  0.53385388578E+03  0.49869116368E+03 0.  0.
        3    1    3    3  502    0 -0.19279910227E+02 -0.36124094881E+02  0.16803102395E+03  0.17294825925E+03  0.10100000352E+00 0. -1.
       -3    1    3    3    0  502  0.19279910227E+02  0.36124094881E+02 -0.35857523045E+03  0.36090562653E+03  0.10100000352E+00 0.  1.
</event>
<event>
 5   0  0.4631619E-02  0.5096980E+03  0.7818609E-02  0.1011278E+00
        2   -1    0    0  501    0  0.00000000000E+00  0.00000000000E+00  0.16798560913E+03  0.16798560915E+03  0.25500000920E-02 0. -1.
       -2   -1    0    0    0  501  0.00000000000E+00  0.00000000000E+00 -0.38662842882E+03  0.38662842883E+03  0.25500000920E-02 0.  1.
    10030    2    1    2    0    0  0.00000000000E+00  0.00000000000E+00 -0.21864281969E+03  0.55461403798E+03  0.50969799737E+03 0.  0.
        5    1    3    3  502    0 -0.17776773958E+03 -0.18193776930E+03 -0.93064949131E+02  0.27089831282E+03  0.46999998093E+01 0.  1.
       -5    1    3    3    0  502  0.17776773958E+03  0.18193776930E+03 -0.12557787056E+03  0.28371572516E+03  0.46999998093E+01 0. -1.
</event>
<event>
 5   0  0.2723308E-02  0.5009864E+03  0.7818609E-02  0.1013522E+00
        1   -1    0    0  501    0  0.00000000000E+00  0.00000000000E+00  0.88226115490E+03  0.88226115492E+03  0.50400001928E-02 0. -1.
       -1   -1    0    0    0  501  0.00000000000E+00  0.00000000000E+00 -0.71120501214E+02  0.71120501392E+02  0.50400001928E-02 0.  1.
    10030    2    1    2    0    0  0.00000000000E+00  0.00000000000E+00  0.81114065369E+03  0.95338165631E+03  0.50098644944E+03 0.  0.
        4    1    3    3  502    0 -0.76719201530E+02  0.15406759133E+03  0.75191053870E+03  0.77135836658E+03  0.12699999809E+01 0. -1.
       -4    1    3    3    0  502  0.76719201530E+02 -0.15406759133E+03  0.59230114988E+02  0.18202328973E+03  0.12699999809E+01 0.  1.
</event>
<event>
 5   0  0.2715483E-02  0.5055173E+03  0.7818609E-02  0.1012349E+00
        1   -1    0    0  501    0  0.00000000000E+00  0.00000000000E+00  0.49479446847E+03  0.49479446850E+03  0.50400001928E-02 0. -1.
       -1   -1    0    0    0  501  0.00000000000E+00  0.00000000000E+00 -0.12911813893E+03  0.12911813903E+03  0.50400001928E-02 0.  1.
    10030    2    1    2    0    0  0.00000000000E+00  0.00000000000E+00  0.36567632954E+03  0.62391260753E+03  0.50551732300E+03 0.  0.
        5    1    3    3  502    0 -0.48428376155E+02  0.11628235870E+02  0.48862337067E+03  0.49117757670E+03  0.46999998093E+01 0. -1.
       -5    1    3    3    0  502  0.48428376155E+02 -0.11628235870E+02 -0.12294704114E+03  0.13273503083E+03  0.46999998093E+01 0.  1.
</event>
<event>
 5   0  0.4631619E-02  0.4970729E+03  0.7818609E-02  0.1014546E+00
        2   -1    0    0  501    0  0.00000000000E+00  0.00000000000E+00  0.90978593501E+03  0.90978593502E+03  0.25500000920E-02 0. -1.
       -2   -1    0    0    0  501  0.00000000000E+00  0.00000000000E+00 -0.67895509103E+02  0.67895509151E+02  0.25500000920E-02 0.  1.
    10030    2    1    2    0    0  0.00000000000E+00  0.00000000000E+00  0.84189042591E+03  0.97768144417E+03  0.49707294940E+03 0.  0.
        5    1    3    3  502    0  0.13431809299E+03  0.85589776523E+02  0.45785215095E+02  0.16578701960E+03  0.46999998093E+01 0.  1.
       -5    1    3    3    0  502 -0.13431809299E+03 -0.85589776523E+02  0.79610521081E+03  0.81189442456E+03  0.46999998093E+01 0. -1.
</event>
<event>
 5   0  0.2715483E-02  0.5011542E+03  0.7818609E-02  0.1013478E+00
       -1   -1    0    0    0  501  0.00000000000E+00  0.00000000000E+00  0.79153864393E+02  0.79153864554E+02  0.50400001928E-02 0.  1.
        1   -1    0    0  501    0  0.00000000000E+00  0.00000000000E+00 -0.79325115684E+03  0.79325115685E+03  0.50400001928E-02 0. -1.
    10030    2    1    2    0    0  0.00000000000E+00  0.00000000000E+00 -0.71409729244E+03  0.87240502140E+03  0.50115424602E+03 0.  0.
        5    1    3    3  502    0 -0.87491610030E+02 -0.11887453539E+03 -0.46474965529E+01  0.14774852356E+03  0.46999998093E+01 0.  1.
       -5    1    3    3    0  502  0.87491610030E+02  0.11887453539E+03 -0.70944979589E+03  0.72465649785E+03  0.46999998093E+01 0. -1.
</event>
<event>
 5   0  0.4519539E-02  0.4963316E+03  0.7818609E-02  0.1014741E+00
        2   -1    0    0  501    0  0.00000000000E+00  0.00000000000E+00  0.32733902366E+03  0.32733902367E+03  0.25500000920E-02 0.  1.
       -2   -1    0    0    0  501  0.00000000000E+00  0.00000000000E+00 -0.18814213952E+03  0.18814213954E+03  0.25500000920E-02 0. -1.
    10030    2    1    2    0    0  0.00000000000E+00  0.00000000000E+00  0.13919688414E+03  0.51548116321E+03  0.49633159991E+03 0.  0.
        4    1    3    3  502    0  0.81496746038E+02 -0.18969049887E+03  0.21260802909E+03  0.29635787810E+03  0.12699999809E+01 0.  1.
       -4    1    3    3    0  502 -0.81496746038E+02  0.18969049887E+03 -0.73411144953E+02  0.21912328511E+03  0.12699999809E+01 0. -1.
</event>
<event>
 5   0  0.2719671E-02  0.4991599E+03  0.7818609E-02  0.1013998E+00
        1   -1    0    0  501    0  0.00000000000E+00  0.00000000000E+00  0.50921221892E+03  0.50921221895E+03  0.50400001928E-02 0.  1.
       -1   -1    0    0    0  501  0.00000000000E+00  0.00000000000E+00 -0.12232650571E+03  0.12232650581E+03  0.50400001928E-02 0. -1.
    10030    2    1    2    0    0  0.00000000000E+00  0.00000000000E+00  0.38688571322E+03  0.63153872476E+03  0.49915990001E+03 0.  0.
        2    1    3    3  502    0 -0.83776433932E+02 -0.14397899468E+03  0.42858594144E+03  0.45981991149E+03  0.25500000920E-02 0.  1.
       -2    1    3    3    0  502  0.83776433932E+02  0.14397899468E+03 -0.41700228228E+02  0.17171881327E+03  0.25500000920E-02 0. -1.
</event>
<event>
 5   0  0.2719671E-02  0.4952492E+03  0.7818609E-02  0.1015026E+00
        1   -1    0    0  501    0  0.00000000000E+00  0.00000000000E+00  0.28840291213E+03  0.28840291217E+03  0.50400001928E-02 0. -1.
       -1   -1    0    0    0  501  0.00000000000E+00  0.00000000000E+00 -0.21261209919E+03  0.21261209925E+03  0.50400001928E-02 0.  1.
    10030    2    1    2    0    0  0.00000000000E+00  0.00000000000E+00  0.75790812936E+02  0.50101501142E+03  0.49524922448E+03 0.  0.
        2    1    3    3  502    0  0.15163757756E+03 -0.43878195735E+02 -0.15511016963E+03  0.22131067692E+03  0.25500000920E-02 0.  1.
       -2    1    3    3    0  502 -0.15163757756E+03  0.43878195735E+02  0.23090098256E+03  0.27970433451E+03  0.25500000920E-02 0. -1.
</event>
<event>
 5   0  0.2643185E-02  0.4979675E+03  0.7818609E-02  0.1014311E+00
        1   -1    0    0  501    0  0.00000000000E+00  0.00000000000E+00  0.34507975274E+03  0.34507975278E+03  0.50400001928E-02 0.  1.
       -1   -1    0    0    0  501  0.00000000000E+00  0.00000000000E+00 -0.17964806562E+03  0.17964806570E+03  0.50400001928E-02 0. -1.
    10030    2    1    2    0    0  0.00000000000E+00  0.00000000000E+00  0.16543168712E+03  0.52472781847E+03  0.49796750936E+03 0.  0.
        1    1    3    3  502    0  0.63856986171E+02  0.13720940868E+01  0.33630009897E+03  0.34231177882E+03  0.50400001928E-02 0.  1.
       -1    1    3    3    0  502 -0.63856986171E+02 -0.13720940868E+01 -0.17086841186E+03  0.18241603965E+03  0.50400001928E-02 0. -1.
</event>
<event>
 5   0  0.4409622E-02  0.5016759E+03  0.7818609E-02  0.1013342E+00
       -2   -1    0    0    0  501  0.00000000000E+00  0.00000000000E+00  0.90483606976E+02  0.90483607012E+02  0.25500000920E-02 0. -1.
        2   -1    0    0  501    0  0.00000000000E+00  0.00000000000E+00 -0.69537100325E+03  0.69537100325E+03  0.25500000920E-02 0.  1.
    10030    2    1    2    0    0  0.00000000000E+00  0.00000000000E+00 -0.60488739627E+03  0.78585461026E+03  0.50167589767E+03 0.  0.
        3    1    3    3  502    0 -0.37797193285E+02 -0.41972450223E+02 -0.68527978667E+03  0.68760359992E+03  0.10100000352E+00 0.  1.
       -3    1    3    3    0  502  0.37797193285E+02  0.41972450223E+02  0.80392390403E+02  0.98251010344E+02  0.10100000352E+00 0. -1.
</event>
<event>
 5   0  0.2719671E-02  0.5006817E+03  0.7818609E-02  0.1013601E+00
        1   -1    0    0  501    0  0.00000000000E+00  0.00000000000E+00  0.58826822086E+03  0.58826822088E+03  0.50400001928E-02 0.  1.
       -1   -1    0    0    0  501  0.00000000000E+00  0.00000000000E+00 -0.10653396668E+03  0.10653396680E+03  0.50400001928E-02 0. -1.
    10030    2    1    2    0    0  0.00000000000E+00  0.00000000000E+00  0.48173425418E+03  0.69480218768E+03  0.50068172361E+03 0.  0.
        2    1    3    3  502    0 -0.46556432004E+02 -0.23674445287E+03  0.14824203720E+03  0.28318039997E+03  0.25500000920E-02 0.  1.
       -2    1    3    3    0  502  0.46556432004E+02  0.23674445287E+03  0.33349221698E+03  0.41162178771E+03  0.25500000920E-02 0. -1.
</event>
<event>
 5   0  0.1805500E-02  0.4998425E+03  0.7818609E-02  0.1013820E+00
       -3   -1    0    0    0  501  0.00000000000E+00  0.00000000000E+00  0.56039522983E+02  0.56039613999E+02  0.10100000352E+00 0.  1.
        3   -1    0    0  501    0  0.00000000000E+00  0.00000000000E+00 -0.11145809791E+04  0.11145809837E+04  0.10100000352E+00 0. -1.
    10030    2    1    2    0    0  0.00000000000E+00  0.00000000000E+00 -0.10585414561E+04  0.11706205977E+04  0.49984254459E+03 0.  0.
        2    1    3    3  502    0 -0.59901889237E+02  0.56257522089E+02  0.23493291602E+02  0.85469760048E+02  0.25500000920E-02 0.  1.
       -2    1    3    3    0  502  0.59901889237E+02 -0.56257522089E+02 -0.10820347477E+04  0.10851508376E+04  0.25500000920E-02 0. -1.
</event>
<event>
 5   0  0.2719671E-02  0.5005765E+03  0.7818609E-02  0.1013629E+00
        1   -1    0    0  501    0  0.00000000000E+00  0.00000000000E+00  0.76585364978E+03  0.76585364980E+03  0.50400001928E-02 0. -1.
       -1   -1    0    0    0  501  0.00000000000E+00  0.00000000000E+00 -0.81796574684E+02  0.81796574839E+02  0.50400001928E-02 0.  1.
    10030    2    1    2    0    0  0.00000000000E+00  0.00000000000E+00  0.68405707510E+03  0.84765022464E+03  0.50057648900E+03 0.  0.
        2    1    3    3  502    0 -0.14834939147E+03  0.18326756133E+03  0.48420589994E+03  0.53856280463E+03  0.25500000920E-02 0.  1.
       -2    1    3    3    0  502  0.14834939147E+03 -0.18326756133E+03  0.19985117516E+03  0.30908742001E+03  0.25500000920E-02 0. -1.
</event>
<event>
 5   0  0.4631619E-02  0.4982051E+03  0.7818609E-02  0.1014248E+00
       -2   -1    0    0    0  501  0.00000000000E+00  0.00000000000E+00  0.66019118315E+02  0.66019118364E+02  0.25500000920E-02 0.  1.
        2   -1    0    0  501    0  0.00000000000E+00  0.00000000000E+00 -0.93991064561E+03  0.93991064561E+03  0.25500000920E-02 0. -1.
    10030    2    1    2    0    0  0.00000000000E+00  0.00000000000E+00 -0.87389152730E+03  0.10059297640E+04  0.49820506679E+03 0.  0.
        5    1    3    3  502    0  0.10595472979E+03  0.10002512942E+02  0.17705711112E+02  0.10799091274E+03  0.46999998093E+01 0.  1.
       -5    1    3    3    0  502 -0.10595472979E+03 -0.10002512942E+02 -0.89159723841E+03  0.89793885124E+03  0.46999998093E+01 0. -1.
</event>
<event>
 5   0  0.4519539E-02  0.4992722E+03  0.7818609E-02  0.1013969E+00
        2   -1    0    0  501    0  0.00000000000E+00  0.00000000000E+00  0.12116450789E+04  0.12116450789E+04  0.25500000920E-02 0.  1.
       -2   -1    0    0    0  501  0.00000000000E+00  0.00000000000E+00 -0.51432700285E+02  0.51432700348E+02  0.25500000920E-02 0. -1.
    10030    2    1    2    0    0  0.00000000000E+00  0.00000000000E+00  0.11602123786E+04  0.12630777793E+04  0.49927218323E+03 0.  0.
        4    1    3    3  502    0 -0.10138858015E+03  0.21593518436E+03  0.39404838320E+03  0.46063368226E+03  0.12699999809E+01 0.  1.
       -4    1    3    3    0  502  0.10138858015E+03 -0.21593518436E+03  0.76616399544E+03  0.80244409701E+03  0.12699999809E+01 0. -1.
</event>
<event>
 5   0  0.2719671E-02  0.4998474E+03  0.7818609E-02  0.1013819E+00
        1   -1    0    0  501    0  0.00000000000E+00  0.00000000000E+00  0.15312569018E+03  0.15312569026E+03  0.50400001928E-02 0. -1.
       -1   -1    0    0    0  501  0.00000000000E+00  0.00000000000E+00 -0.40791236986E+03  0.40791236989E+03  0.50400001928E-02 0.  1.
    10030    2    1    2    0    0  0.00000000000E+00  0.00000000000E+00 -0.25478667968E+03  0.56103806015E+03  0.49984742952E+03 0.  0.
        2    1    3    3  502    0  0.24768151286E+03 -0.78255452443E+01 -0.90945100695E+02  0.26396663107E+03  0.25500000920E-02 0. -1.
       -2    1    3    3    0  502 -0.24768151286E+03  0.78255452443E+01 -0.16384157898E+03  0.29707142909E+03  0.25500000920E-02 0.  1.
</event>
<event>
 5   0  0.2643185E-02  0.5007429E+03  0.7818609E-02  0.1013585E+00
       -1   -1    0    0    0  501  0.00000000000E+00  0.00000000000E+00  0.46540533890E+02  0.46540534162E+02  0.50400001928E-02 0. -1.
        1   -1    0    0  501    0  0.00000000000E+00  0.00000000000E+00 -0.13469087568E+04  0.13469087568E+04  0.50400001928E-02 0.  1.
    10030    2    1    2    0    0  0.00000000000E+00  0.00000000000E+00 -0.13003682229E+04  0.13934492910E+04  0.50074285951E+03 0.  0.
        1    1    3    3  502    0 -0.23382089809E+03 -0.83417301613E+02 -0.55978948684E+03  0.61236829457E+03  0.50400001928E-02 0.  1.
       -1    1    3    3    0  502  0.23382089809E+03  0.83417301613E+02 -0.74057873605E+03  0.78108099638E+03  0.50400001928E-02 0. -1.
</event>
<event>
 5   0  0.2779445E-02  0.4996731E+03  0.7818609E-02  0.1013864E+00
        1   -1    0    0  501    0  0.00000000000E+00  0.00000000000E+00  0.31904433627E+03  0.31904433631E+03  0.50400001928E-02 0. -1.
       -1   -1    0    0    0  501  0.00000000000E+00  0.00000000000E+00 -0.19564145437E+03  0.19564145443E+03  0.50400001928E-02 0.  1.
    10030    2    1    2    0    0  0.00000000000E+00  0.00000000000E+00  0.12340288191E+03  0.51468579075E+03  0.49967308506E+03 0.  0.
        3    1    3    3  502    0 -0.47195581321E+02  0.22653468006E+03  0.15872765905E+03  0.28060624390E+03  0.10100000352E+00 0. -1.
       -3    1    3    3    0  502  0.47195581321E+02 -0.22653468006E+03 -0.35324777148E+02  0.23407954684E+03  0.10100000352E+00 0.  1.
</event>
<event>
 5   0  0.4534223E-02  0.5001122E+03  0.7818609E-02  0.1013750E+00
       -2   -1    0    0    0  501  0.00000000000E+00  0.00000000000E+00  0.23841299594E+03  0.23841299596E+03  0.25500000920E-02 0.  1.
        2   -1    0    0  501    0  0.00000000000E+00  0.00000000000E+00 -0.26226783243E+03  0.26226783245E+03  0.25500000920E-02 0. -1.
    10030    2    1    2    0    0  0.00000000000E+00  0.00000000000E+00 -0.23854836491E+02  0.50068082840E+03  0.50011222611E+03 0.  0.
        2    1    3    3  502    0  0.20225505430E+03 -0.11117786029E+03  0.84413151223E+02  0.24575028731E+03  0.25500000920E-02 0.  1.
       -2    1    3    3    0  502 -0.20225505430E+03  0.11117786029E+03 -0.10826798771E+03  0.25493054109E+03  0.25500000920E-02 0. -1.
</event>
<event>
 5   0  0.2643185E-02  0.5020336E+03  0.7818609E-02  0.1013249E+00
       -1   -1    0    0    0  501  0.00000000000E+00  0.00000000000E+00  0.16782740102E+03  0.16782740109E+03  0.50400001928E-02 0.  1.
        1   -1    0    0  501    0  0.00000000000E+00  0.00000000000E+00 -0.37544188461E+03  0.37544188465E+03  0.50400001928E-02 0. -1.
    10030    2    1    2    0    0  0.00000000000E+00  0.00000000000E+00 -0.20761448360E+03  0.54326928574E+03  0.50203360747E+03 0.  0.
        1    1    3    3  502    0  0.89177189084E+02  0.83180768829E+02  0.13361729018E+03  0.18090105477E+03  0.50400001928E-02 0.  1.
       -1    1    3    3    0  502 -0.89177189084E+02 -0.83180768829E+02 -0.34123177378E+03  0.36236823097E+03  0.50400001928E-02 0. -1.
</event>
<event>
 5   0  0.4631619E-02  0.5003069E+03  0.7818609E-02  0.1013699E+00
        2   -1    0    0  501    0  0.00000000000E+00  0.00000000000E+00  0.79935081688E+03  0.79935081688E+03  0.25500000920E-02 0.  1.
       -2   -1    0    0    0  501  0.00000000000E+00  0.00000000000E+00 -0.78284474496E+02  0.78284474538E+02  0.25500000920E-02 0. -1.
    10030    2    1    2    0    0  0.00000000000E+00  0.00000000000E+00  0.72106634238E+03  0.87763529142E+03  0.50030694042E+03 0.  0.
        5    1    3    3  502    0 -0.10724425090E+03  0.13860815487E+03  0.47513442918E+02  0.18164021362E+03  0.46999998093E+01 0. -1.
       -5    1    3    3    0  502  0.10724425090E+03 -0.13860815487E+03  0.67355289946E+03  0.69599507780E+03  0.46999998093E+01 0.  1.
</event>
<event>
 5   0  0.2643185E-02  0.5003923E+03  0.7818609E-02  0.1013677E+00
        1   -1    0    0  501    0  0.00000000000E+00  0.00000000000E+00  0.39690213855E+03  0.39690213858E+03  0.50400001928E-02 0.  1.
       -1   -1    0    0    0  501  0.00000000000E+00  0.00000000000E+00 -0.15771675759E+03  0.15771675767E+03  0.50400001928E-02 0. -1.
    10030    2    1    2    0    0  0.00000000000E+00  0.00000000000E+00  0.23918538096E+03  0.55461889625E+03  0.50039231970E+03 0.  0.
        1    1    3    3  502    0  0.66381736635E+02  0.21299072199E+03  0.24512014298E+03  0.33144451592E+03  0.50400001928E-02 0.  1.
       -1    1    3    3    0  502 -0.66381736635E+02 -0.21299072199E+03 -0.59347620203E+01  0.22317438033E+03  0.50400001928E-02 0. -1.
</event>
<event>
 5   0  0.4534223E-02  0.4946879E+03  0.7818609E-02  0.1015175E+00
       -2   -1    0    0    0  501  0.00000000000E+00  0.00000000000E+00  0.21135934239E+03  0.21135934241E+03  0.25500000920E-02 0. -1.
        2   -1    0    0  501    0  0.00000000000E+00  0.00000000000E+00 -0.28945505650E+03  0.28945505651E+03  0.25500000920E-02 0.  1.
    10030    2    1    2    0    0  0.00000000000E+00  0.00000000000E+00 -0.78095714106E+02  0.50081439892E+03  0.49468790323E+03 0.  0.
        2    1    3    3  502    0 -0.53808215466E+02  0.37392281151E+02  0.20241281018E+03  0.21275444172E+03  0.25500000920E-02 0. -1.
       -2    1    3    3    0  502  0.53808215466E+02 -0.37392281151E+02 -0.28050852428E+03  0.28805995720E+03  0.25500000920E-02 0.  1.
</event>
<event>
 5   0  0.2715483E-02  0.4882613E+03  0.7818609E-02  0.1016889E+00
       -1   -1    0    0    0  501  0.00000000000E+00  0.00000000000E+00  0.32639317360E+02  0.32639317749E+02  0.50400001928E-02 0. -1.
        1   -1    0    0  501    0  0.00000000000E+00  0.00000000000E+00 -0.18260117173E+04  0.18260117173E+04  0.50400001928E-02 0.  1.
    10030    2    1    2    0    0  0.00000000000E+00  0.00000000000E+00 -0.17933723999E+04  0.18586510350E+04  0.48826130836E+03 0.  0.
        5    1    3    3  502    0  0.65471978683E+02  0.15503315521E+03 -0.22369242786E+03  0.27996830443E+03  0.46999998093E+01 0. -1.
       -5    1    3    3    0  502 -0.65471978683E+02 -0.15503315521E+03 -0.15696799721E+04  0.15786827306E+04  0.46999998093E+01 0.  1.
</event>
<event>
 5   0  0.4631619E-02  0.5005646E+03  0.7818609E-02  0.1013632E+00
        2   -1    0    0  501    0  0.00000000000E+00  0.00000000000E+00  0.18070670551E+04  0.18070670551E+04  0.25500000920E-02 0.  1.
       -2   -1    0    0    0  501  0.00000000000E+00  0.00000000000E+00 -0.34664582016E+02  0.34664582110E+02  0.25500000920E-02 0. -1.
    10030    2    1    2    0    0  0.00000000000E+00  0.00000000000E+00  0.17724024731E+04  0.18417316372E+04  0.50056457817E+03 0.  0.
        5    1    3    3  502    0  0.16868470361E+03 -0.10883172256E+03  0.33651372489E+03  0.39187045066E+03  0.46999998093E+01 0. -1.
       -5    1    3    3    0  502 -0.16868470361E+03  0.10883172256E+03  0.14358887482E+04  0.14498611866E+04  0.46999998093E+01 0.  1.
</event>
<event>
 5   0  0.2643185E-02  0.5075873E+03  0.7818609E-02  0.1011817E+00
        1   -1    0    0  501    0  0.00000000000E+00  0.00000000000E+00  0.55251545626E+03  0.55251545628E+03  0.50400001928E-02 0.  1.
       -1   -1    0    0    0  501  0.00000000000E+00  0.00000000000E+00 -0.11657814223E+03  0.11657814234E+03  0.50400001928E-02 0. -1.
    10030    2    1    2    0    0  0.00000000000E+00  0.00000000000E+00  0.43593731403E+03  0.66909359862E+03  0.50758733431E+03 0.  0.
        1    1    3    3  502    0 -0.17203420281E+02  0.14185825387E+03 -0.58509293372E+02  0.15441197912E+03  0.50400001928E-02 0. -1.
       -1    1    3    3    0  502  0.17203420281E+02 -0.14185825387E+03  0.49444660740E+03  0.51468161951E+03  0.50400001928E-02 0.  1.
</event>
<event>
 5   0  0.2719671E-02  0.5006991E+03  0.7818609E-02  0.1013597E+00
        1   -1    0    0  501    0  0.00000000000E+00  0.00000000000E+00  0.89710017840E+03  0.89710017841E+03  0.50400001928E-02 0. -1.
       -1   -1    0    0    0  501  0.00000000000E+00  0.00000000000E+00 -0.69863871838E+02  0.69863872020E+02  0.50400001928E-02 0.  1.
    10030    2    1    2    0    0  0.00000000000E+00  0.00000000000E+00  0.82723630656E+03  0.96696405043E+03  0.50069907923E+03 0.  0.
        2    1    3    3  502    0  0.39991598002E+02 -0.22835921109E+03  0.59609246879E+03  0.63958853066E+03  0.25500000920E-02 0. -1.
       -2    1    3    3    0  502 -0.39991598002E+02  0.22835921109E+03  0.23114383777E+03  0.32737551977E+03  0.25500000920E-02 0.  1.
</event>
<event>
 5   0  0.4409622E-02  0.4997739E+03  0.7818609E-02  0.1013838E+00
        2   -1    0    0  501    0  0.00000000000E+00  0.00000000000E+00  0.67916834097E+03  0.67916834097E+03  0.25500000920E-02 0.  1.
       -2   -1    0    0    0  501  0.00000000000E+00  0.00000000000E+00 -0.91941103361E+02  0.91941103396E+02  0.25500000920E-02 0. -1.
    10030    2    1    2    0    0  0.00000000000E+00  0.00000000000E+00  0.58722723761E+03  0.77110944437E+03  0.49977389548E+03 0.  0.
        3    1    3    3  502    0  0.16681141986E+03  0.89159702547E+02  0.54557702256E+03  0.57743380582E+03  0.10100000352E+00 0.  1.
       -3    1    3    3    0  502 -0.16681141986E+03 -0.89159702547E+02  0.41650215047E+02  0.19367563855E+03  0.10100000352E+00 0. -1.
</event>
<event>
 5   0  0.2779445E-02  0.5013851E+03  0.7818609E-02  0.1013418E+00
       -1   -1    0    0    0  501  0.00000000000E+00  0.00000000000E+00  0.25395605590E+03  0.25395605595E+03  0.50400001928E-02 0.  1.
        1   -1    0    0  501    0  0.00000000000E+00  0.00000000000E+00 -0.24747100279E+03  0.24747100284E+03  0.50400001928E-02 0. -1.
    10030    2    1    2    0    0  0.00000000000E+00  0.00000000000E+00  0.64850531170E+01  0.50142705879E+03  0.50138512082E+03 0.  0.
        3    1    3    3  502    0  0.41623552704E+02 -0.14695163738E+03 -0.19556908577E+03  0.24814226037E+03  0.10100000352E+00 0. -1.
       -3    1    3    3    0  502 -0.41623552704E+02  0.14695163738E+03  0.20205413889E+03  0.25328479842E+03  0.10100000352E+00 0.  1.
</event>
<event>
 5   0  0.1805500E-02  0.5000955E+03  0.7818609E-02  0.1013754E+00
       -3   -1    0    0    0  501  0.00000000000E+00  0.00000000000E+00  0.68482362860E+03  0.68482363605E+03  0.10100000352E+00 0.  1.
        3   -1    0    0  501    0  0.00000000000E+00  0.00000000000E+00 -0.91299196830E+02  0.91299252696E+02  0.10100000352E+00 0. -1.
    10030    2    1    2    0    0  0.00000000000E+00  0.00000000000E+00  0.59352443177E+03  0.77612288875E+03  0.50009547821E+03 0.  0.
        5    1    3    3  502    0 -0.13661226760E+03  0.45903991551E+02  0.61379966825E+03  0.63050948513E+03  0.46999998093E+01 0.  1.
       -5    1    3    3    0  502  0.13661226760E+03 -0.45903991551E+02 -0.20275236477E+02  0.14561340362E+03  0.46999998093E+01 0. -1.
</event>
<event>
 5   0  0.4451135E-02  0.5094276E+03  0.7818609E-02  0.1011347E+00
        2   -1    0    0  501    0  0.00000000000E+00  0.00000000000E+00  0.14225887254E+04  0.14225887254E+04  0.25500000920E-02 0. -1.
       -2   -1    0    0    0  501  0.00000000000E+00  0.00000000000E+00 -0.45606373755E+02  0.45606373826E+02  0.25500000920E-02 0.  1.
    10030    2    1    2    0    0  0.00000000000E+00  0.00000000000E+00  0.13769823516E+04  0.14681950992E+04  0.50942757351E+03 0.  0.
        1    1    3    3  502    0  0.14794601617E+03  0.84033956477E+02  0.14219745934E+03  0.22174274963E+03  0.50400001928E-02 0.  1.
       -1    1    3    3    0  502 -0.14794601617E+03 -0.84033956477E+02  0.12347848923E+04  0.12464523496E+04  0.50400001928E-02 0. -1.
</event>
<event>
 5   0  0.2643185E-02  0.5007491E+03  0.7818609E-02  0.1013584E+00
       -1   -1    0    0    0  501  0.00000000000E+00  0.00000000000E+00  0.73773826834E+02  0.73773827006E+02  0.50400001928E-02 0.  1.
        1   -1    0    0  501    0  0.00000000000E+00  0.00000000000E+00 -0.84972422667E+03  0.84972422668E+03  0.50400001928E-02 0. -1.
    10030    2    1    2    0    0  0.00000000000E+00  0.00000000000E+00 -0.77595039983E+03  0.92349805369E+03  0.50074907106E+03 0.  0.
        1    1    3    3  502    0 -0.17623925728E+03 -0.17405337683E+03 -0.32065300345E+03  0.40518292467E+03  0.50400001928E-02 0.  1.
       -1    1    3    3    0  502  0.17623925728E+03  0.17405337683E+03 -0.45529739638E+03  0.51831512902E+03  0.50400001928E-02 0. -1.
</event>
<event>
 5   0  0.4534223E-02  0.4996116E+03  0.7818609E-02  0.1013880E+00
       -2   -1    0    0    0  501  0.00000000000E+00  0.00000000000E+00  0.29817130608E+03  0.29817130609E+03  0.25500000920E-02 0.  1.
        2   -1    0    0  501    0  0.00000000000E+00  0.00000000000E+00 -0.20928554989E+03  0.20928554991E+03  0.25500000920E-02 0. -1.
    10030    2    1    2    0    0  0.00000000000E+00  0.00000000000E+00  0.88885756187E+02  0.50745685599E+03  0.49961163221E+03 0.  0.
        2    1    3    3  502    0 -0.59701170972E+02  0.20790517954E+03 -0.82475872485E+02  0.23149743636E+03  0.25500000920E-02 0. -1.
       -2    1    3    3    0  502  0.59701170972E+02 -0.20790517954E+03  0.17136162867E+03  0.27595941963E+03  0.25500000920E-02 0.  1.
</event>
<event>
 5   0  0.2779445E-02  0.4963703E+03  0.7818609E-02  0.1014731E+00
        1   -1    0    0  501    0  0.00000000000E+00  0.00000000000E+00  0.20935349909E+04  0.20935349910E+04  0.50400001928E-02 0.  1.
       -1   -1    0    0    0  501  0.00000000000E+00  0.00000000000E+00 -0.29421940800E+02  0.29421941232E+02  0.50400001928E-02 0. -1.
    10030    2    1    2    0    0  0.00000000000E+00  0.00000000000E+00  0.20641130501E+04  0.21229569322E+04  0.49637027724E+03 0.  0.
        3    1    3    3  502    0  0.15921433084E+03 -0.91711492738E+02  0.17456257533E+04  0.17552690625E+04  0.10100000352E+00 0.  1.
       -3    1    3    3    0  502 -0.15921433084E+03  0.91711492738E+02  0.31848729685E+03  0.36768786967E+03  0.10100000352E+00 0. -1.
</event>
<event>
 5   0  0.4519539E-02  0.4989379E+03  0.7818609E-02  0.1014057E+00
       -2   -1    0    0    0  501  0.00000000000E+00  0.00000000000E+00  0.17756010180E+03  0.17756010181E+03  0.25500000920E-02 0. -1.
        2   -1    0    0  501    0  0.00000000000E+00  0.00000000000E+00 -0.35049965395E+03  0.35049965396E+03  0.25500000920E-02 0.  1.
    10030    2    1    2    0    0  0.00000000000E+00  0.00000000000E+00 -0.17293955215E+03  0.52805975577E+03  0.49893788889E+03 0.  0.
        4    1    3    3  502    0  0.61587210212E+02 -0.20266369749E+02  0.16848358518E+03  0.18053266070E+03  0.12699999809E+01 0. -1.
       -4    1    3    3    0  502 -0.61587210212E+02  0.20266369749E+02 -0.34142313733E+03  0.34752709507E+03  0.12699999809E+01 0.  1.
</event>
<event>
 5   0  0.4451135E-02  0.4987736E+03  0.7818609E-02  0.1014100E+00
        2   -1    0    0  501    0  0.00000000000E+00  0.00000000000E+00  0.52810037370E+03  0.52810037371E+03  0.25500000920E-02 0.  1.
       -2   -1    0    0    0  501  0.00000000000E+00  0.00000000000E+00 -0.11776884730E+03  0.11776884733E+03  0.25500000920E-02 0. -1.
    10030    2    1    2    0    0  0.00000000000E+00  0.00000000000E+00  0.41033152640E+03  0.64586922103E+03  0.49877358503E+03 0.  0.
        1    1    3    3  502    0  0.16470776909E+03  0.29300158704E+02  0.44466065174E+03  0.47508972176E+03  0.50400001928E-02 0.  1.
       -1    1    3    3    0  502 -0.16470776909E+03 -0.29300158704E+02 -0.34329125338E+02  0.17077949927E+03  0.50400001928E-02 0. -1.
</event>
<event>
 5   0  0.2779445E-02  0.4968802E+03  0.7818609E-02  0.1014596E+00
       -1   -1    0    0    0  501  0.00000000000E+00  0.00000000000E+00  0.11673510413E+04  0.11673510413E+04  0.50400001928E-02 0.  1.
        1   -1    0    0  501    0  0.00000000000E+00  0.00000000000E+00 -0.52873960885E+02  0.52873961125E+02  0.50400001928E-02 0. -1.
    10030    2    1    2    0    0  0.00000000000E+00  0.00000000000E+00  0.11144770804E+04  0.12202250024E+04  0.49688016039E+03 0.  0.
        3    1    3    3  502    0  0.67578451262E+02  0.10938541092E+03  0.10792879230E+04  0.10869197054E+04  0.10100000352E+00 0.  1.
       -3    1    3    3    0  502 -0.67578451262E+02 -0.10938541092E+03  0.35189157402E+02  0.13330529696E+03  0.10100000352E+00 0. -1.
</event>
<event>
 5   0  0.2715483E-02  0.4992460E+03  0.7818609E-02  0.1013976E+00
        1   -1    0    0  501    0  0.00000000000E+00  0.00000000000E+00  0.82721779394E+02  0.82721779548E+02  0.50400001928E-02 0.  1.
       -1   -1    0    0    0  501  0.00000000000E+00  0.00000000000E+00 -0.75326761998E+03  0.75326762000E+03  0.50400001928E-02 0. -1.
    10030    2    1    2    0    0  0.00000000000E+00  0.00000000000E+00 -0.67054584059E+03  0.83598939955E+03  0.49924598328E+03 0.  0.
        5    1    3    3  502    0 -0.31160805241E+02  0.57340723128E+02 -0.73865323256E+03  0.74154544182E+03  0.46999998093E+01 0. -1.
       -5    1    3    3    0  502  0.31160805241E+02 -0.57340723128E+02  0.68107391971E+02  0.94443957729E+02  0.46999998093E+01 0.  1.
</event>
<event>
 5   0  0.2779445E-02  0.4998728E+03  0.7818609E-02  0.1013812E+00
       -1   -1    0    0    0  501  0.00000000000E+00  0.00000000000E+00  0.23199798207E+03  0.23199798213E+03  0.50400001928E-02 0.  1.
        1   -1    0    0  501    0  0.00000000000E+00  0.00000000000E+00 -0.26926181007E+03  0.26926181012E+03  0.50400001928E-02 0. -1.
    10030    2    1    2    0    0  0.00000000000E+00  0.00000000000E+00 -0.37263828003E+02  0.50125979225E+03  0.49987277026E+03 0.  0.
        3    1    3    3  502    0 -0.59989303283E+02 -0.10519340659E+03 -0.23787942813E+03  0.26692883289E+03  0.10100000352E+00 0. -1.
       -3    1    3    3    0  502  0.59989303283E+02  0.10519340659E+03  0.20061560013E+03  0.23433095936E+03  0.10100000352E+00 0.  1.
</event>
<event>
 5   0  0.2715483E-02  0.5026937E+03  0.7818609E-02  0.1013078E+00
        1   -1    0    0  501    0  0.00000000000E+00  0.00000000000E+00  0.30676140380E+03  0.30676140385E+03  0.50400001928E-02 0.  1.
       -1   -1    0    0    0  501  0.00000000000E+00  0.00000000000E+00 -0.20594259106E+03  0.20594259113E+03  0.50400001928E-02 0. -1.
    10030    2    1    2    0    0  0.00000000000E+00  0.00000000000E+00  0.10081881274E+03  0.51270399497E+03  0.50269369745E+03 0.  0.
        5    1    3    3  502    0  0.10397463271E+01 -0.11962988315E+03  0.27580969119E+03  0.30067501687E+03  0.46999998093E+01 0.  1.
       -5    1    3    3    0  502 -0.10397463271E+01  0.11962988315E+03 -0.17499087845E+03  0.21202897810E+03  0.46999998093E+01 0. -1.
</event>
<event>
 5   0  0.4534223E-02  0.4995720E+03  0.7818609E-02  0.1013891E+00
       -2   -1    0    0    0  501  0.00000000000E+00  0.00000000000E+00  0.99350583348E+02  0.99350583380E+02  0.25500000920E-02 0. -1.
        2   -1    0    0  501    0  0.00000000000E+00  0.00000000000E+00 -0.62800876163E+03  0.62800876163E+03  0.25500000920E-02 0.  1.
    10030    2    1    2    0    0  0.00000000000E+00  0.00000000000E+00 -0.52865817828E+03  0.72735934501E+03  0.49957196410E+03 0.  0.
        2    1    3    3  502    0  0.17761927526E+03  0.90613610504E+02 -0.48337130118E+03  0.52288358950E+03  0.25500000920E-02 0.  1.
       -2    1    3    3    0  502 -0.17761927526E+03 -0.90613610504E+02 -0.45286877098E+02  0.20447575552E+03  0.25500000920E-02 0. -1.
</event>
<event>
 5   0  0.2643185E-02  0.5010567E+03  0.7818609E-02  0.1013503E+00
        1   -1    0    0  501    0  0.00000000000E+00  0.00000000000E+00  0.50773919637E+03  0.50773919640E+03  0.50400001928E-02 0. -1.
       -1   -1    0    0    0  501  0.00000000000E+00  0.00000000000E+00 -0.12361554605E+03  0.12361554615E+03  0.50400001928E-02 0.  1.
    10030    2    1    2    0    0  0.00000000000E+00  0.00000000000E+00  0.38412365033E+03  0.63135474255E+03  0.50105671555E+03 0.  0.
        1    1    3    3  502    0 -0.12478340589E+03  0.10908969070E+03 -0.44655934479E+02  0.17165550242E+03  0.50400001928E-02 0.  1.
       -1    1    3    3    0  502  0.12478340589E+03 -0.10908969070E+03  0.42877958481E+03  0.45969924013E+03  0.50400001928E-02 0. -1.
</event>
<event>
 5   0  0.4451135E-02  0.5043914E+03  0.7818609E-02  0.1012639E+00
        2   -1    0    0  501    0  0.00000000000E+00  0.00000000000E+00  0.66760683835E+03  0.66760683835E+03  0.25500000920E-02 0. -1.
       -2   -1    0    0    0  501  0.00000000000E+00  0.00000000000E+00 -0.95269652928E+02  0.95269652962E+02  0.25500000920E-02 0.  1.
    10030    2    1    2    0    0  0.00000000000E+00  0.00000000000E+00  0.57233718542E+03  0.76287649132E+03  0.50439140277E+03 0.  0.
        1    1    3    3  502    0 -0.22393004523E+03 -0.81093318183E+02  0.16069852984E+03  0.28730612407E+03  0.50400001928E-02 0.  1.
       -1    1    3    3    0  502  0.22393004523E+03  0.81093318183E+02  0.41163865559E+03  0.47557036725E+03  0.50400001928E-02 0. -1.
</event>
<event>
 5   0  0.4519539E-02  0.4998501E+03  0.7818609E-02  0.1013818E+00
       -2   -1    0    0    0  501  0.00000000000E+00  0.00000000000E+00  0.11211383611E+03  0.11211383614E+03  0.25500000920E-02 0. -1.
        2   -1    0    0  501    0  0.00000000000E+00  0.00000000000E+00 -0.55713489843E+03  0.55713489844E+03  0.25500000920E-02 0.  1.
    10030    2    1    2    0    0  0.00000000000E+00  0.00000000000E+00 -0.44502106232E+03  0.66924873458E+03  0.49985010036E+03 0.  0.
        4    1    3    3  502    0 -0.82090947318E+02 -0.21198937001E+03 -0.83480848273E+02  0.24217572454E+03  0.12699999809E+01 0.  1.
       -4    1    3    3    0  502  0.82090947318E+02  0.21198937001E+03 -0.36154021405E+03  0.42707301004E+03  0.12699999809E+01 0. -1.
</event>
<event>
 5   0  0.2779445E-02  0.5004670E+03  0.7818609E-02  0.1013657E+00
       -1   -1    0    0    0  501  0.00000000000E+00  0.00000000000E+00  0.39099069491E+02  0.39099069815E+02  0.50400001928E-02 0.  1.
        1   -1    0    0  501    0  0.00000000000E+00  0.00000000000E+00 -0.16014907880E+04  0.16014907880E+04  0.50400001928E-02 0. -1.
    10030    2    1    2    0    0  0.00000000000E+00  0.00000000000E+00 -0.15623917185E+04  0.16405898578E+04  0.50046698146E+03 0.  0.
        3    1    3    3  502    0 -0.67195960588E+02  0.15079561157E+03 -0.16475121512E+03  0.23323290221E+03  0.10100000352E+00 0.  1.
       -3    1    3    3    0  502  0.67195960588E+02 -0.15079561157E+03 -0.13976405034E+04  0.14073569556E+04  0.10100000352E+00 0. -1.
</event>
<event>
 5   0  0.4409622E-02  0.4999588E+03  0.7818609E-02  0.1013790E+00
        2   -1    0    0  501    0  0.00000000000E+00  0.00000000000E+00  0.17269984451E+04  0.17269984451E+04  0.25500000920E-02 0. -1.
       -2   -1    0    0    0  501  0.00000000000E+00  0.00000000000E+00 -0.36183986661E+02  0.36183986751E+02  0.25500000920E-02 0.  1.
    10030    2    1    2    0    0  0.00000000000E+00  0.00000000000E+00  0.16908144585E+04  0.17631824319E+04  0.49995875343E+03 0.  0.
        3    1    3    3  502    0 -0.19055265671E+03 -0.92648540275E+02  0.37760180121E+03  0.43298637100E+03  0.10100000352E+00 0.  1.
       -3    1    3    3    0  502  0.19055265671E+03  0.92648540275E+02  0.13132126572E+04  0.13301960609E+04  0.10100000352E+00 0. -1.
</event>
<event>
 5   0  0.4409622E-02  0.5010080E+03  0.7818609E-02  0.1013516E+00
       -2   -1    0    0    0  501  0.00000000000E+00  0.00000000000E+00  0.91178243862E+02  0.91178243898E+02  0.25500000920E-02 0.  1.
        2   -1    0    0  501    0  0.00000000000E+00  0.00000000000E+00 -0.68823723186E+03  0.68823723186E+03  0.25500000920E-02 0. -1.
    10030    2    1    2    0    0  0.00000000000E+00  0.00000000000E+00 -0.59705898799E+03  0.77941547576E+03  0.50100803258E+03 0.  0.
        3    1    3    3  502    0  0.12347302458E+03  0.15228187671E+03 -0.55936425144E+02  0.20387312632E+03  0.10100000352E+00 0.  1.
       -3    1    3    3    0  502 -0.12347302458E+03 -0.15228187671E+03 -0.54112256285E+03  0.57554234944E+03  0.10100000352E+00 0. -1.
</event>
<event>
 5   0  0.2719671E-02  0.4952057E+03  0.7818609E-02  0.1015038E+00
       -1   -1    0    0    0  501  0.00000000000E+00  0.00000000000E+00  0.96134654463E+03  0.96134654464E+03  0.50400001928E-02 0.  1.
        1   -1    0    0  501    0  0.00000000000E+00  0.00000000000E+00 -0.63772195689E+02  0.63772195888E+02  0.50400001928E-02 0. -1.
    10030    2    1    2    0    0  0.00000000000E+00  0.00000000000E+00  0.89757434894E+03  0.10251187405E+04  0.49520573534E+03 0.  0.
        2    1    3    3  502    0 -0.17431532612E+03 -0.17097492257E+03  0.53386050450E+03  0.58704794978E+03  0.25500000920E-02 0.  1.
       -2    1    3    3    0  502  0.17431532612E+03  0.17097492257E+03  0.36371384443E+03  0.43807079075E+03  0.25500000920E-02 0. -1.
</event>
<event>
 5   0  0.2779445E-02  0.4983991E+03  0.7818609E-02  0.1014198E+00
       -1   -1    0    0    0  501  0.00000000000E+00  0.00000000000E+00  0.53874628514E+03  0.53874628516E+03  0.50400001928E-02 0.  1.
        1   -1    0    0  501    0  0.00000000000E+00  0.00000000000E+00 -0.11526839992E+03  0.11526840003E+03  0.50400001928E-02 0. -1.
    10030    2    1    2    0    0  0.00000000000E+00  0.00000000000E+00  0.42347788521E+03  0.65401468519E+03  0.49839912639E+03 0.  0.
        3    1    3    3  502    0  0.11789159815E+03  0.59704884863E+02  0.48898107752E+03  0.50652305630E+03  0.10100000352E+00 0.  1.
       -3    1    3    3    0  502 -0.11789159815E+03 -0.59704884863E+02 -0.65503192309E+02  0.14749162889E+03  0.10100000352E+00 0. -1.
</event>
<event>
 5   0  0.2643185E-02  0.4988792E+03  0.7818609E-02  0.1014072E+00
       -1   -1    0    0    0  501  0.00000000000E+00  0.00000000000E+00  0.22889206045E+03  0.22889206050E+03  0.50400001928E-02 0.  1.
        1   -1    0    0  501    0  0.00000000000E+00  0.00000000000E+00 -0.27183169077E+03  0.27183169082E+03  0.50400001928E-02 0. -1.
    10030    2    1    2    0    0  0.00000000000E+00  0.00000000000E+00 -0.42939630328E+02  0.50072375132E+03  0.49887920711E+03 0.  0.
        1    1    3    3  502    0  0.58738589591E+02  0.23734542005E+03  0.28079151865E+02  0.24611279756E+03  0.50400001928E-02 0.  1.
       -1    1    3    3    0  502 -0.58738589591E+02 -0.23734542005E+03 -0.71018782193E+02  0.25461095376E+03  0.50400001928E-02 0. -1.
</event>
<event>
 5   0  0.4631619E-02  0.5004237E+03  0.7818609E-02  0.1013668E+00
       -2   -1    0    0    0  501  0.00000000000E+00  0.00000000000E+00  0.10162157877E+03  0.10162157880E+03  0.25500000920E-02 0.  1.
        2   -1    0    0  501    0  0.00000000000E+00  0.00000000000E+00 -0.61606953044E+03  0.61606953045E+03  0.25500000920E-02 0. -1.
    10030    2    1    2    0    0  0.00000000000E+00  0.00000000000E+00 -0.51444795167E+03  0.71769110924E+03  0.50042365383E+03 0.  0.
        5    1    3    3  502    0  0.17466589813E+03  0.16535739810E+03 -0.35588615492E+03  0.42956756202E+03  0.46999998093E+01 0. -1.
       -5    1    3    3    0  502 -0.17466589813E+03 -0.16535739810E+03 -0.15856179675E+03  0.28812354722E+03  0.46999998093E+01 0.  1.
</event>
<event>
 5   0  0.4409622E-02  0.5006400E+03  0.7818609E-02  0.1013612E+00
        2   -1    0    0  501    0  0.00000000000E+00  0.00000000000E+00  0.94069157962E+03  0.94069157962E+03  0.25500000920E-02 0. -1.
       -2   -1    0    0    0  501  0.00000000000E+00  0.00000000000E+00 -0.66610686434E+02  0.66610686483E+02  0.25500000920E-02 0.  1.
    10030    2    1    2    0    0  0.00000000000E+00  0.00000000000E+00  0.87408089319E+03  0.10073022661E+04  0.50064003782E+03 0.  0.
        3    1    3    3  502    0 -0.24455119676E+02  0.12789922710E+03  0.68997232972E+01  0.13039893233E+03  0.10100000352E+00 0.  1.
       -3    1    3    3    0  502  0.24455119676E+02 -0.12789922710E+03  0.86718116989E+03  0.87690333377E+03  0.10100000352E+00 0. -1.
</event>
<event>
 5   0  0.4519539E-02  0.4958657E+03  0.7818609E-02  0.1014864E+00
       -2   -1    0    0    0  501  0.00000000000E+00  0.00000000000E+00  0.42792194365E+02  0.42792194441E+02  0.25500000920E-02 0. -1.
        2   -1    0    0  501    0  0.00000000000E+00  0.00000000000E+00 -0.14364934168E+04  0.14364934168E+04  0.25500000920E-02 0.  1.
    10030    2    1    2    0    0  0.00000000000E+00  0.00000000000E+00 -0.13937012224E+04  0.14792856112E+04  0.49586573003E+03 0.  0.
        4    1    3    3  502    0  0.16964627134E+03  0.37395651376E+02 -0.12245617672E+04  0.12368231186E+04  0.12699999809E+01 0.  1.
       -4    1    3    3    0  502 -0.16964627134E+03 -0.37395651376E+02 -0.16913945523E+03  0.24246249264E+03  0.12699999809E+01 0. -1.
</event>
<event>
 5   0  0.4409622E-02  0.4925967E+03  0.7818609E-02  0.1015730E+00
        2   -1    0    0  501    0  0.00000000000E+00  0.00000000000E+00  0.90831296832E+03  0.90831296832E+03  0.25500000920E-02 0.  1.
       -2   -1    0    0    0  501  0.00000000000E+00  0.00000000000E+00 -0.66786305696E+02  0.66786305745E+02  0.25500000920E-02 0. -1.
    10030    2    1    2    0    0  0.00000000000E+00  0.00000000000E+00  0.84152666262E+03  0.97509927406E+03  0.49259666095E+03 0.  0.
        3    1    3    3  502    0 -0.21111514065E+03 -0.12654308449E+03  0.43847993795E+03  0.50283935907E+03  0.10100000352E+00 0. -1.
       -3    1    3    3    0  502  0.21111514065E+03  0.12654308449E+03  0.40304672467E+03  0.47225991500E+03  0.10100000352E+00 0.  1.
</event>
<event>
 5   0  0.2715483E-02  0.5007460E+03  0.7818609E-02  0.1013584E+00
        1   -1    0    0  501    0  0.00000000000E+00  0.00000000000E+00  0.81977685312E+02  0.81977685467E+02  0.50400001928E-02 0.  1.
       -1   -1    0    0    0  501  0.00000000000E+00  0.00000000000E+00 -0.76467945200E+03  0.76467945202E+03  0.50400001928E-02 0. -1.
    10030    2    1    2    0    0  0.00000000000E+00  0.00000000000E+00 -0.68270176669E+03  0.84665713749E+03  0.50074604962E+03 0.  0.
        5    1    3    3  502    0  0.11958143855E+03 -0.18421260541E+03 -0.54446101662E+03  0.58710637287E+03  0.46999998093E+01 0. -1.
       -5    1    3    3    0  502 -0.11958143855E+03  0.18421260541E+03 -0.13824075007E+03  0.25955076462E+03  0.46999998093E+01 0.  1.
</event>
<event>
 5   0  0.2723308E-02  0.5028294E+03  0.7818609E-02  0.1013043E+00
        1   -1    0    0  501    0  0.00000000000E+00  0.00000000000E+00  0.13825929835E+03  0.13825929844E+03  0.50400001928E-02 0.  1.
       -1   -1    0    0    0  501  0.00000000000E+00  0.00000000000E+00 -0.45717979093E+03  0.45717979096E+03  0.50400001928E-02 0. -1.
    10030    2    1    2    0    0  0.00000000000E+00  0.00000000000E+00 -0.31892049258E+03  0.59543908940E+03  0.50282942296E+03 0.  0.
        4    1    3    3  502    0  0.18926504155E+03  0.15606217397E+03 -0.94265019639E+02  0.26280061820E+03  0.12699999809E+01 0.  1.
       -4    1    3    3    0  502 -0.18926504155E+03 -0.15606217397E+03 -0.22465547295E+03  0.33263847120E+03  0.12699999809E+01 0. -1.
</event>
<event>
 5   0  0.2715483E-02  0.5007678E+03  0.7818609E-02  0.1013579E+00
        1   -1    0    0  501    0  0.00000000000E+00  0.00000000000E+00  0.10119916524E+04  0.10119916524E+04  0.50400001928E-02 0. -1.
       -1   -1    0    0    0  501  0.00000000000E+00  0.00000000000E+00 -0.61949221482E+02  0.61949221687E+02  0.50400001928E-02 0.  1.
    10030    2    1    2    0    0  0.00000000000E+00  0.00000000000E+00  0.95004243092E+03  0.10739408741E+04  0.50076779101E+03 0.  0.
        5    1    3    3  502    0 -0.94210675550E+02 -0.19934420468E+02  0.97058812761E+03  0.97536477072E+03  0.46999998093E+01 0. -1.
       -5    1    3    3    0  502  0.94210675550E+02  0.19934420468E+02 -0.20545696691E+02  0.98576103380E+02  0.46999998093E+01 0.  1.
</event>
<event>
 5   0  0.2723308E-02  0.5001811E+03  0.7818609E-02  0.1013732E+00
       -1   -1    0    0    0  501  0.00000000000E+00  0.00000000000E+00  0.39212458166E+03  0.39212458169E+03  0.50400001928E-02 0.  1.
        1   -1    0    0  501    0  0.00000000000E+00  0.00000000000E+00 -0.15950363200E+03  0.15950363208E+03  0.50400001928E-02 0. -1.
    10030    2    1    2    0    0  0.00000000000E+00  0.00000000000E+00  0.23262094966E+03  0.55162821378E+03  0.50018114720E+03 0.  0.
        4    1    3    3  502    0 -0.23744941682E+02  0.20794721868E+03 -0.34655339929E+02  0.21215200564E+03  0.12699999809E+01 0. -1.
       -4    1    3    3    0  502  0.23744941682E+02 -0.20794721868E+03  0.26727628959E+03  0.33947620813E+03  0.12699999809E+01 0.  1.
</event>
<event>
 5   0  0.4409622E-02  0.5081392E+03  0.7818609E-02  0.1011676E+00
        2   -1    0    0  501    0  0.00000000000E+00  0.00000000000E+00  0.69905722296E+03  0.69905722296E+03  0.25500000920E-02 0. -1.
       -2   -1    0    0    0  501  0.00000000000E+00  0.00000000000E+00 -0.92340610770E+02  0.92340610806E+02  0.25500000920E-02 0.  1.
    10030    2    1    2    0    0  0.00000000000E+00  0.00000000000E+00  0.60671661219E+03  0.79139783377E+03  0.50813923662E+03 0.  0.
        3    1    3    3  502    0 -0.66254247285E+02 -0.12118516996E+03 -0.28767583169E+02  0.14107818663E+03  0.10100000352E+00 0.  1.
       -3    1    3    3    0  502  0.66254247285E+02  0.12118516996E+03  0.63548419536E+03  0.65031964714E+03  0.10100000352E+00 0. -1.
</event>
<event>
 5   0  0.2779445E-02  0.4955845E+03  0.7818609E-02  0.1014938E+00
       -1   -1    0    0    0  501  0.00000000000E+00  0.00000000000E+00  0.30192953867E+03  0.30192953871E+03  0.50400001928E-02 0.  1.
        1   -1    0    0  501    0  0.00000000000E+00  0.00000000000E+00 -0.20336200267E+03  0.20336200273E+03  0.50400001928E-02 0. -1.
    10030    2    1    2    0    0  0.00000000000E+00  0.00000000000E+00  0.98567535996E+02  0.50529154144E+03  0.49558448594E+03 0.  0.
        3    1    3    3  502    0 -0.22619987167E+03  0.30595075536E+02 -0.49033957188E+02  0.23346687078E+03  0.10100000352E+00 0. -1.
       -3    1    3    3    0  502  0.22619987167E+03 -0.30595075536E+02  0.14760149318E+03  0.27182467067E+03  0.10100000352E+00 0.  1.
</event>
<event>
 5   0  0.1805500E-02  0.5010681E+03  0.7818609E-02  0.1013501E+00
       -4   -1    0    0    0  501  0.00000000000E+00  0.00000000000E+00  0.11029515624E+04  0.11029522935E+04  0.12699999809E+01 0. -1.
        4   -1    0    0  501    0  0.00000000000E+00  0.00000000000E+00 -0.56900647614E+02  0.56914818798E+02  0.12699999809E+01 0.  1.
    10030    2    1    2    0    0  0.00000000000E+00  0.00000000000E+00  0.10460509147E+04  0.11598671123E+04  0.50106806127E+03 0.  0.
        2    1    3    3  502    0  0.20692882713E+02 -0.24957011664E+03  0.54001386590E+03  0.59525491504E+03  0.25500000920E-02 0. -1.
       -2    1    3    3    0  502 -0.20692882713E+02  0.24957011664E+03  0.50603704884E+03  0.56461219729E+03  0.25500000920E-02 0.  1.
</event>
<event>
 5   0  0.4409622E-02  0.5003042E+03  0.7818609E-02  0.1013700E+00
        2   -1    0    0  501    0  0.00000000000E+00  0.00000000000E+00  0.12230218018E+04  0.12230218018E+04  0.25500000920E-02 0.  1.
       -2   -1    0    0    0  501  0.00000000000E+00  0.00000000000E+00 -0.51165132985E+02  0.51165133048E+02  0.25500000920E-02 0. -1.
    10030    2    1    2    0    0  0.00000000000E+00  0.00000000000E+00  0.11718566688E+04  0.12741869348E+04  0.50030420016E+03 0.  0.
        3    1    3    3  502    0 -0.24346102923E+03 -0.51086498704E+02  0.65297127293E+03  0.69875217107E+03  0.10100000352E+00 0. -1.
       -3    1    3    3    0  502  0.24346102923E+03  0.51086498704E+02  0.51888539586E+03  0.57543476376E+03  0.10100000352E+00 0.  1.
</event>
<event>
 5   0  0.2779445E-02  0.4961026E+03  0.7818609E-02  0.1014801E+00
       -1   -1    0    0    0  501  0.00000000000E+00  0.00000000000E+00  0.45393526759E+03  0.45393526762E+03  0.50400001928E-02 0. -1.
        1   -1    0    0  501    0  0.00000000000E+00  0.00000000000E+00 -0.13554673356E+03  0.13554673365E+03  0.50400001928E-02 0.  1.
    10030    2    1    2    0    0  0.00000000000E+00  0.00000000000E+00  0.31838853403E+03  0.58948200127E+03  0.49610258134E+03 0.  0.
        3    1    3    3  502    0 -0.17919761045E+03 -0.75431430401E+02  0.34222639376E+03  0.39359954151E+03  0.10100000352E+00 0. -1.
       -3    1    3    3    0  502  0.17919761045E+03  0.75431430401E+02 -0.23837859731E+02  0.19588245976E+03  0.10100000352E+00 0.  1.
</event>
<event>
 5   0  0.4519539E-02  0.4999844E+03  0.7818609E-02  0.1013783E+00
        2   -1    0    0  501    0  0.00000000000E+00  0.00000000000E+00  0.23451658782E+03  0.23451658783E+03  0.25500000920E-02 0.  1.
       -2   -1    0    0    0  501  0.00000000000E+00  0.00000000000E+00 -0.26648907553E+03  0.26648907554E+03  0.25500000920E-02 0. -1.
    10030    2    1    2    0    0  0.00000000000E+00  0.00000000000E+00 -0.31972487714E+02  0.50100566337E+03  0.49998443452E+03 0.  0.
        4    1    3    3  502    0  0.20312502959E+03 -0.86292518728E+02  0.10167727110E+03  0.24299394394E+03  0.12699999809E+01 0.  1.
       -4    1    3    3    0  502 -0.20312502959E+03  0.86292518728E+02 -0.13364975882E+03  0.25801171943E+03  0.12699999809E+01 0. -1.
</event>
<event>
 5   0  0.1805500E-02  0.4964434E+03  0.7818609E-02  0.1014711E+00
        4   -1    0    0  501    0  0.00000000000E+00  0.00000000000E+00  0.12380959321E+03  0.12381610667E+03  0.12699999809E+01 0. -1.
       -4   -1    0    0    0  501  0.00000000000E+00  0.00000000000E+00 -0.49763093712E+03  0.49763255770E+03  0.12699999809E+01 0.  1.
    10030    2    1    2    0    0  0.00000000000E+00  0.00000000000E+00 -0.37382134391E+03  0.62144866436E+03  0.49644339584E+03 0.  0.
        2    1    3    3  502    0  0.19385955068E+03 -0.17366868206E+02 -0.37974858506E+03  0.42672253439E+03  0.25500000920E-02 0.  1.
       -2    1    3    3    0  502 -0.19385955068E+03  0.17366868206E+02  0.59272411451E+01  0.19472612997E+03  0.25500000920E-02 0. -1.
</event>
<event>
 5   0  0.2719671E-02  0.4998930E+03  0.7818609E-02  0.1013807E+00
       -1   -1    0    0    0  501  0.00000000000E+00  0.00000000000E+00  0.16336923621E+03  0.16336923629E+03  0.50400001928E-02 0.  1.
        1   -1    0    0  501    0  0.00000000000E+00  0.00000000000E+00 -0.38240520689E+03  0.38240520693E+03  0.50400001928E-02 0. -1.
    10030    2    1    2    0    0  0.00000000000E+00  0.00000000000E+00 -0.21903597068E+03  0.54577444321E+03  0.49989297495E+03 0.  0.
        2    1    3    3  502    0 -0.24446491957E+03 -0.50892130342E+02 -0.97551093751E+02  0.26808454213E+03  0.25500000920E-02 0.  1.
       -2    1    3    3    0  502  0.24446491957E+03  0.50892130342E+02 -0.12148487693E+03  0.27768990108E+03  0.25500000920E-02 0. -1.
</event>
<event>
 5   0  0.2723308E-02  0.4992743E+03  0.7818609E-02  0.1013969E+00
        1   -1    0    0  501    0  0.00000000000E+00  0.00000000000E+00  0.59351616522E+03  0.59351616524E+03  0.50400001928E-02 0. -1.
       -1   -1    0    0    0  501  0.00000000000E+00  0.00000000000E+00 -0.10499915297E+03  0.10499915309E+03  0.50400001928E-02 0.  1.
    10030    2    1    2    0    0  0.00000000000E+00  0.00000000000E+00  0.48851701225E+03  0.69851531833E+03  0.49927425198E+03 0.  0.
        4    1    3    3  502    0  0.20198956031E+03 -0.11893262642E+03  0.36438509322E+03  0.43326996337E+03  0.12699999809E+01 0. -1.
       -4    1    3    3    0  502 -0.20198956031E+03  0.11893262642E+03  0.12413191904E+03  0.26524535496E+03  0.12699999809E+01 0.  1.
</event>
<event>
 5   0  0.2779445E-02  0.5072883E+03  0.7818609E-02  0.1011894E+00
        1   -1    0    0  501    0  0.00000000000E+00  0.00000000000E+00  0.23608550526E+03  0.23608550531E+03  0.50400001928E-02 0. -1.
       -1   -1    0    0    0  501  0.00000000000E+00  0.00000000000E+00 -0.27250867555E+03  0.27250867560E+03  0.50400001928E-02 0.  1.
    10030    2    1    2    0    0  0.00000000000E+00  0.00000000000E+00 -0.36423170292E+02  0.50859418091E+03  0.50728827458E+03 0.  0.
        3    1    3    3  502    0  0.11573812838E+03 -0.15197843432E+03  0.14907892113E+03  0.24231651571E+03  0.10100000352E+00 0. -1.
       -3    1    3    3    0  502 -0.11573812838E+03  0.15197843432E+03 -0.18550209143E+03  0.26627766520E+03  0.10100000352E+00 0.  1.
</event>
<event>
 5   0  0.2715483E-02  0.4994662E+03  0.7818609E-02  0.1013918E+00
       -1   -1    0    0    0  501  0.00000000000E+00  0.00000000000E+00  0.43086749207E+02  0.43086749502E+02  0.50400001928E-02 0. -1.
        1   -1    0    0  501    0  0.00000000000E+00  0.00000000000E+00 -0.14474665581E+04  0.14474665581E+04  0.50400001928E-02 0.  1.
    10030    2    1    2    0    0  0.00000000000E+00  0.00000000000E+00 -0.14043798089E+04  0.14905533076E+04  0.49946623030E+03 0.  0.
        5    1    3    3  502    0  0.15562019852E+03 -0.83836853168E+02 -0.12284610146E+04  0.12411224027E+04  0.46999998093E+01 0.  1.
       -5    1    3    3    0  502 -0.15562019852E+03  0.83836853168E+02 -0.17591879431E+03  0.24943090491E+03  0.46999998093E+01 0. -1.
</event>
<event>
 5   0  0.4409622E-02  0.4887665E+03  0.7818609E-02  0.1016753E+00
       -2   -1    0    0    0  501  0.00000000000E+00  0.00000000000E+00  0.23324061979E+03  0.23324061981E+03  0.25500000920E-02 0. -1.
        2   -1    0    0  501    0  0.00000000000E+00  0.00000000000E+00 -0.25605822575E+03  0.25605822576E+03  0.25500000920E-02 0.  1.
    10030    2    1    2    0    0  0.00000000000E+00  0.00000000000E+00 -0.22817605957E+02  0.48929884557E+03  0.48876652620E+03 0.  0.
        3    1    3    3  502    0 -0.15012791555E+03 -0.18471393054E+03 -0.66836440173E+02  0.24723419484E+03  0.10100000352E+00 0. -1.
       -3    1    3    3    0  502  0.15012791555E+03  0.18471393054E+03  0.44018834216E+02  0.24206465073E+03  0.10100000352E+00 0.  1.
</event>
<event>
 5   0  0.2643185E-02  0.5010756E+03  0.7818609E-02  0.1013499E+00
        1   -1    0    0  501    0  0.00000000000E+00  0.00000000000E+00  0.60374129799E+03  0.60374129801E+03  0.50400001928E-02 0.  1.
       -1   -1    0    0    0  501  0.00000000000E+00  0.00000000000E+00 -0.10396702608E+03  0.10396702620E+03  0.50400001928E-02 0. -1.
    10030    2    1    2    0    0  0.00000000000E+00  0.00000000000E+00  0.49977427191E+03  0.70770832421E+03  0.50107559240E+03 0.  0.
        1    1    3    3  502    0  0.18847038814E+03 -0.69305122817E+02  0.38289947349E+02  0.20442702206E+03  0.50400001928E-02 0. -1.
       -1    1    3    3    0  502 -0.18847038814E+03  0.69305122817E+02  0.46148432456E+03  0.50328130215E+03  0.50400001928E-02 0.  1.
</event>
<event>
 5   0  0.4451135E-02  0.4998112E+03  0.7818609E-02  0.1013828E+00
        2   -1    0    0  501    0  0.00000000000E+00  0.00000000000E+00  0.48444139268E+03  0.48444139268E+03  0.25500000920E-02 0. -1.
       -2   -1    0    0    0  501  0.00000000000E+00  0.00000000000E+00 -0.12891716992E+03  0.12891716994E+03  0.25500000920E-02 0.  1.
    10030    2    1    2    0    0  0.00000000000E+00  0.00000000000E+00  0.35552422276E+03  0.61335856263E+03  0.49981121774E+03 0.  0.
        1    1    3    3  502    0 -0.70190345579E+02  0.23094857200E+03  0.98337025430E+02  0.26064170449E+03  0.50400001928E-02 0.  1.
       -1    1    3    3    0  502  0.70190345579E+02 -0.23094857200E+03  0.25718719733E+03  0.35271685814E+03  0.50400001928E-02 0. -1.
</event>
<event>
 5   0  0.2779445E-02  0.5002192E+03  0.7818609E-02  0.1013722E+00
       -1   -1    0    0    0  501  0.00000000000E+00  0.00000000000E+00  0.70351573696E+03  0.70351573698E+03  0.50400001928E-02 0.  1.
        1   -1    0    0  501    0  0.00000000000E+00  0.00000000000E+00 -0.88917430370E+02  0.88917430513E+02  0.50400001928E-02 0. -1.
    10030    2    1    2    0    0  0.00000000000E+00  0.00000000000E+00  0.61459830659E+03  0.79243316749E+03  0.50021919843E+03 0.  0.
        3    1    3    3  502    0 -0.56752110990E+02  0.39719124323E+02  0.68801618936E+03  0.69149453935E+03  0.10100000352E+00 0.  1.
       -3    1    3    3    0  502  0.56752110990E+02 -0.39719124323E+02 -0.73417882768E+02  0.10093862814E+03  0.10100000352E+00 0. -1.
</event>
<event>
 5   0  0.2719671E-02  0.5006896E+03  0.7818609E-02  0.1013599E+00
        1   -1    0    0  501    0  0.00000000000E+00  0.00000000000E+00  0.11936275803E+04  0.11936275803E+04  0.50400001928E-02 0. -1.
       -1   -1    0    0    0  501  0.00000000000E+00  0.00000000000E+00 -0.52505918195E+02  0.52505918437E+02  0.50400001928E-02 0.  1.
    10030    2    1    2    0    0  0.00000000000E+00  0.00000000000E+00  0.11411216621E+04  0.12461334987E+04  0.50068957346E+03 0.  0.
        2    1    3    3  502    0  0.21792897324E+02  0.18264268190E+03  0.14790401866E+03  0.23602728311E+03  0.25500000920E-02 0.  1.
       -2    1    3    3    0  502 -0.21792897324E+02 -0.18264268190E+03  0.99321764341E+03  0.10101062156E+04  0.25500000920E-02 0. -1.
</event>
<event>
 5   0  0.2715483E-02  0.4988295E+03  0.7818609E-02  0.1014085E+00
       -1   -1    0    0    0  501  0.00000000000E+00  0.00000000000E+00  0.23964967138E+03  0.23964967143E+03  0.50400001928E-02 0. -1.
        1   -1    0    0  501    0  0.00000000000E+00  0.00000000000E+00 -0.25957769385E+03  0.25957769390E+03  0.50400001928E-02 0.  1.
    10030    2    1    2    0    0  0.00000000000E+00  0.00000000000E+00 -0.19928022472E+02  0.49922736533E+03  0.49882946606E+03 0.  0.
        5    1    3    3  502    0 -0.11057228698E+03 -0.17430080930E+03 -0.14999923227E+03  0.25520357061E+03  0.46999998093E+01 0.  1.
       -5    1    3    3    0  502  0.11057228698E+03  0.17430080930E+03  0.13007120979E+03  0.24402379472E+03  0.46999998093E+01 0. -1.
</event>
<event>
 5   0  0.4631619E-02  0.5150131E+03  0.7818609E-02  0.1009933E+00
       -2   -1    0    0    0  501  0.00000000000E+00  0.00000000000E+00  0.43376588508E+02  0.43376588583E+02  0.25500000920E-02 0.  1.
        2   -1    0    0  501    0  0.00000000000E+00  0.00000000000E+00 -0.15286959464E+04  0.15286959464E+04  0.25500000920E-02 0. -1.
    10030    2    1    2    0    0  0.00000000000E+00  0.00000000000E+00 -0.14853193579E+04  0.15720725350E+04  0.51501306812E+03 0.  0.
        5    1    3    3  502    0 -0.13575213550E+03 -0.19886268732E+03 -0.10209643761E+04  0.10489830113E+04  0.46999998093E+01 0. -1.
       -5    1    3    3    0  502  0.13575213550E+03  0.19886268732E+03 -0.46435498186E+03  0.52308952377E+03  0.46999998093E+01 0.  1.
</event>
<event>
 5   0  0.4631619E-02  0.4997692E+03  0.7818609E-02  0.1013839E+00
        2   -1    0    0  501    0  0.00000000000E+00  0.00000000000E+00  0.10788943303E+04  0.10788943303E+04  0.25500000920E-02 0. -1.
       -2   -1    0    0    0  501  0.00000000000E+00  0.00000000000E+00 -0.57876218039E+02  0.57876218095E+02  0.25500000920E-02 0.  1.
    10030    2    1    2    0    0  0.00000000000E+00  0.00000000000E+00  0.10210181123E+04  0.11367705484E+04  0.49976924089E+03 0.  0.
        5    1    3    3  502    0 -0.18765426587E+03 -0.15552604619E+03  0.63546173363E+03  0.68061456012E+03  0.46999998093E+01 0. -1.
       -5    1    3    3    0  502  0.18765426587E+03  0.15552604619E+03  0.38555637865E+03  0.45615598829E+03  0.46999998093E+01 0.  1.
</event>
<event>
 5   0  0.4631619E-02  0.5003350E+03  0.7818609E-02  0.1013692E+00
       -2   -1    0    0    0  501  0.00000000000E+00  0.00000000000E+00  0.77674767351E+02  0.77674767393E+02  0.25500000920E-02 0.  1.
        2   -1    0    0  501    0  0.00000000000E+00  0.00000000000E+00 -0.80571560666E+03  0.80571560667E+03  0.25500000920E-02 0. -1.
    10030    2    1    2    0    0  0.00000000000E+00  0.00000000000E+00 -0.72804083931E+03  0.88339037406E+03  0.50033497707E+03 0.  0.
        5    1    3    3  502    0 -0.13075279804E+03 -0.21314563102E+03 -0.37436509106E+03  0.45022068547E+03  0.46999998093E+01 0. -1.
       -5    1    3    3    0  502  0.13075279804E+03  0.21314563102E+03 -0.35367574825E+03  0.43316968859E+03  0.46999998093E+01 0.  1.
</event>
<event>
 5   0  0.2723308E-02  0.5037336E+03  0.7818609E-02  0.1012809E+00
       -1   -1    0    0    0  501  0.00000000000E+00  0.00000000000E+00  0.80078490735E+02  0.80078490894E+02  0.50400001928E-02 0.  1.
        1   -1    0    0  501    0  0.00000000000E+00  0.00000000000E+00 -0.79218378607E+03  0.79218378609E+03  0.50400001928E-02 0. -1.
    10030    2    1    2    0    0  0.00000000000E+00  0.00000000000E+00 -0.71210529533E+03  0.87226227698E+03  0.50373358851E+03 0.  0.
        4    1    3    3  502    0 -0.43368592582E+01  0.97787015746E+02  0.45789799700E+02  0.10807139979E+03  0.12699999809E+01 0.  1.
       -4    1    3    3    0  502  0.43368592582E+01 -0.97787015746E+02 -0.75789509503E+03  0.76419087719E+03  0.12699999809E+01 0. -1.
</event>
<event>
 5   0  0.4534223E-02  0.5008582E+03  0.7818609E-02  0.1013555E+00
        2   -1    0    0  501    0  0.00000000000E+00  0.00000000000E+00  0.39845349796E+03  0.39845349796E+03  0.25500000920E-02 0.  1.
       -2   -1    0    0    0  501  0.00000000000E+00  0.00000000000E+00 -0.15739534036E+03  0.15739534038E+03  0.25500000920E-02 0. -1.
    10030    2    1    2    0    0  0.00000000000E+00  0.00000000000E+00  0.24105815759E+03  0.55584883835E+03  0.50085815931E+03 0.  0.
        2    1    3    3  502    0 -0.22566751051E+03 -0.10211002612E+02  0.56547410918E+00  0.22589911386E+03  0.25500000920E-02 0. -1.
       -2    1    3    3    0  502  0.22566751051E+03  0.10211002612E+02  0.24049268348E+03  0.32994972449E+03  0.25500000920E-02 0.  1.
</event>
<event>
 5   0  0.4409622E-02  0.4997734E+03  0.7818609E-02  0.1013838E+00
        2   -1    0    0  501    0  0.00000000000E+00  0.00000000000E+00  0.99228068221E+03  0.99228068221E+03  0.25500000920E-02 0. -1.
       -2   -1    0    0    0  501  0.00000000000E+00  0.00000000000E+00 -0.62929138028E+02  0.62929138080E+02  0.25500000920E-02 0.  1.
    10030    2    1    2    0    0  0.00000000000E+00  0.00000000000E+00  0.92935154418E+03  0.10552098203E+04  0.49977342083E+03 0.  0.
        3    1    3    3  502    0  0.22779004607E+03  0.10153887860E+03  0.43163364938E+03  0.49850382790E+03  0.10100000352E+00 0.  1.
       -3    1    3    3    0  502 -0.22779004607E+03 -0.10153887860E+03  0.49771789480E+03  0.55670599239E+03  0.10100000352E+00 0. -1.
</event>
<event>
 5   0  0.2643185E-02  0.4986289E+03  0.7818609E-02  0.1014137E+00
       -1   -1    0    0    0  501  0.00000000000E+00  0.00000000000E+00  0.68934978152E+02  0.68934978336E+02  0.50400001928E-02 0.  1.
        1   -1    0    0  501    0  0.00000000000E+00  0.00000000000E+00 -0.90168572529E+03  0.90168572530E+03  0.50400001928E-02 0. -1.
    10030    2    1    2    0    0  0.00000000000E+00  0.00000000000E+00 -0.83275074714E+03  0.97062070364E+03  0.49862886346E+03 0.  0.
        1    1    3    3  502    0  0.20209934516E+03 -0.34031749251E+02 -0.69273057166E+03  0.72241120576E+03  0.50400001928E-02 0. -1.
       -1    1    3    3    0  502 -0.20209934516E+03  0.34031749251E+02 -0.14002017548E+03  0.24820949788E+03  0.50400001928E-02 0.  1.
</event>
<event>
 5   0  0.4409622E-02  0.5000476E+03  0.7818609E-02  0.1013766E+00
       -2   -1    0    0    0  501  0.00000000000E+00  0.00000000000E+00  0.10540309106E+03  0.10540309109E+03  0.25500000920E-02 0.  1.
        2   -1    0    0  501    0  0.00000000000E+00  0.00000000000E+00 -0.59307475870E+03  0.59307475871E+03  0.25500000920E-02 0. -1.
    10030    2    1    2    0    0  0.00000000000E+00  0.00000000000E+00 -0.48767166764E+03  0.69847784980E+03  0.50004764897E+03 0.  0.
        3    1    3    3  502    0  0.10097861459E+03  0.22699946591E+03 -0.20466337743E+03  0.32188902806E+03  0.10100000352E+00 0.  1.
       -3    1    3    3    0  502 -0.10097861459E+03 -0.22699946591E+03 -0.28300829021E+03  0.37658882174E+03  0.10100000352E+00 0. -1.
</event>
<event>
 5   0  0.2723308E-02  0.5009869E+03  0.7818609E-02  0.1013522E+00
       -1   -1    0    0    0  501  0.00000000000E+00  0.00000000000E+00  0.11069203951E+03  0.11069203963E+03  0.50400001928E-02 0.  1.
        1   -1    0    0  501    0  0.00000000000E+00  0.00000000000E+00 -0.56686076907E+03  0.56686076909E+03  0.50400001928E-02 0. -1.
    10030    2    1    2    0    0  0.00000000000E+00  0.00000000000E+00 -0.45616872956E+03  0.67755280872E+03  0.50098692476E+03 0.  0.
        4    1    3    3  502    0 -0.37877364723E+02  0.17250075355E+03  0.12155486327E+02  0.17703269043E+03  0.12699999809E+01 0.  1.
       -4    1    3    3    0  502  0.37877364723E+02 -0.17250075355E+03 -0.46832421588E+03  0.50052011829E+03  0.12699999809E+01 0. -1.
</event>
<event>
 5   0  0.4631619E-02  0.4941790E+03  0.7818609E-02  0.1015310E+00
        2   -1    0    0  501    0  0.00000000000E+00  0.00000000000E+00  0.62914110332E+03  0.62914110332E+03  0.25500000920E-02 0. -1.
       -2   -1    0    0    0  501  0.00000000000E+00  0.00000000000E+00 -0.97042156833E+02  0.97042156867E+02  0.25500000920E-02 0.  1.
    10030    2    1    2    0    0  0.00000000000E+00  0.00000000000E+00  0.53209894648E+03  0.72618326019E+03  0.49417895395E+03 0.  0.
        5    1    3    3  502    0 -0.12997571572E+03 -0.18311655701E+03  0.41738220618E+03  0.47397822330E+03  0.46999998093E+01 0. -1.
       -5    1    3    3    0  502  0.12997571572E+03  0.18311655701E+03  0.11471674030E+03  0.25220503689E+03  0.46999998093E+01 0.  1.
</event>
<event>
 5   0  0.2779445E-02  0.5003274E+03  0.7818609E-02  0.1013694E+00
        1   -1    0    0  501    0  0.00000000000E+00  0.00000000000E+00  0.71767739109E+03  0.71767739111E+03  0.50400001928E-02 0. -1.
       -1   -1    0    0    0  501  0.00000000000E+00  0.00000000000E+00 -0.87200558650E+02  0.87200558796E+02  0.50400001928E-02 0.  1.
    10030    2    1    2    0    0  0.00000000000E+00  0.00000000000E+00  0.63047683244E+03  0.80487794991E+03  0.50032737083E+03 0.  0.
        3    1    3    3  502    0  0.57707124168E+02  0.60561640958E+02  0.69451043387E+03  0.69953025488E+03  0.10100000352E+00 0. -1.
       -3    1    3    3    0  502 -0.57707124168E+02 -0.60561640958E+02 -0.64033601426E+02  0.10534769503E+03  0.10100000352E+00 0.  1.
</event>
<event>
 5   0  0.4534223E-02  0.4954260E+03  0.7818609E-02  0.1014980E+00
        2   -1    0    0  501    0  0.00000000000E+00  0.00000000000E+00  0.37343127010E+03  0.37343127011E+03  0.25500000920E-02 0. -1.
       -2   -1    0    0    0  501  0.00000000000E+00  0.00000000000E+00 -0.16431870249E+03  0.16431870251E+03  0.25500000920E-02 0.  1.
    10030    2    1    2    0    0  0.00000000000E+00  0.00000000000E+00  0.20911256761E+03  0.53774997262E+03  0.49542604607E+03 0.  0.
        2    1    3    3  502    0  0.17778229237E+03 -0.16944242647E+03  0.13963534557E+03  0.28251603336E+03  0.25500000920E-02 0.  1.
       -2    1    3    3    0  502 -0.17778229237E+03  0.16944242647E+03  0.69477222032E+02  0.25523393927E+03  0.25500000920E-02 0. -1.
</event>
<event>
 5   0  0.2715483E-02  0.5324155E+03  0.7818609E-02  0.1005648E+00
       -1   -1    0    0    0  501  0.00000000000E+00  0.00000000000E+00  0.39812458315E+03  0.39812458318E+03  0.50400001928E-02 0. -1.
        1   -1    0    0  501    0  0.00000000000E+00  0.00000000000E+00 -0.17800095137E+03  0.17800095144E+03  0.50400001928E-02 0.  1.
    10030    2    1    2    0    0  0.00000000000E+00  0.00000000000E+00  0.22012363178E+03  0.57612553462E+03  0.53241545655E+03 0.  0.
        5    1    3    3  502    0  0.60311602968E+01  0.11788803378E+03  0.36820619574E+03  0.38669349100E+03  0.46999998093E+01 0. -1.
       -5    1    3    3    0  502 -0.60311602968E+01 -0.11788803378E+03 -0.14808256396E+03  0.18943204362E+03  0.46999998093E+01 0.  1.
</event>
<event>
 5   0  0.2719671E-02  0.5015224E+03  0.7818609E-02  0.1013382E+00
       -1   -1    0    0    0  501  0.00000000000E+00  0.00000000000E+00  0.62468133820E+03  0.62468133822E+03  0.50400001928E-02 0.  1.
        1   -1    0    0  501    0  0.00000000000E+00  0.00000000000E+00 -0.10066120401E+03  0.10066120413E+03  0.50400001928E-02 0. -1.
    10030    2    1    2    0    0  0.00000000000E+00  0.00000000000E+00  0.52402013419E+03  0.72534254235E+03  0.50152238505E+03 0.  0.
        2    1    3    3  502    0 -0.69616567510E+02  0.21607712194E+02  0.60902063790E+03  0.61336734271E+03  0.25500000920E-02 0.  1.
       -2    1    3    3    0  502  0.69616567510E+02 -0.21607712194E+02 -0.85000503710E+02  0.11197519965E+03  0.25500000920E-02 0. -1.
</event>
<event>
 5   0  0.2715483E-02  0.4933062E+03  0.7818609E-02  0.1015541E+00
        1   -1    0    0  501    0  0.00000000000E+00  0.00000000000E+00  0.91041584226E+02  0.91041584366E+02  0.50400001928E-02 0.  1.
       -1   -1    0    0    0  501  0.00000000000E+00  0.00000000000E+00 -0.66824133953E+03  0.66824133955E+03  0.50400001928E-02 0. -1.
    10030    2    1    2    0    0  0.00000000000E+00  0.00000000000E+00 -0.57719975531E+03  0.75928292392E+03  0.49330619399E+03 0.  0.
        5    1    3    3  502    0 -0.23519808718E+03 -0.73955563316E+02 -0.29675816966E+03  0.38584331900E+03  0.46999998093E+01 0.  1.
       -5    1    3    3    0  502  0.23519808718E+03  0.73955563316E+02 -0.28044158565E+03  0.37343960492E+03  0.46999998093E+01 0. -1.
</event>
<event>
 5   0  0.4631619E-02  0.4983203E+03  0.7818609E-02  0.1014218E+00
       -2   -1    0    0    0  501  0.00000000000E+00  0.00000000000E+00  0.14866330838E+03  0.14866330840E+03  0.25500000920E-02 0. -1.
        2   -1    0    0  501    0  0.00000000000E+00  0.00000000000E+00 -0.41759314830E+03  0.41759314830E+03  0.25500000920E-02 0.  1.
    10030    2    1    2    0    0  0.00000000000E+00  0.00000000000E+00 -0.26892983991E+03  0.56625645671E+03  0.49832029456E+03 0.  0.
        5    1    3    3  502    0  0.39098544887E+02 -0.93513625061E+02 -0.39305234362E+03  0.40593808531E+03  0.46999998093E+01 0.  1.
       -5    1    3    3    0  502 -0.39098544887E+02  0.93513625061E+02  0.12412250370E+03  0.16031837140E+03  0.46999998093E+01 0. -1.
</event>
<event>
 5   0  0.2715483E-02  0.5001137E+03  0.7818609E-02  0.1013749E+00
        1   -1    0    0  501    0  0.00000000000E+00  0.00000000000E+00  0.45821163394E+03  0.45821163397E+03  0.50400001928E-02 0.  1.
       -1   -1    0    0    0  501  0.00000000000E+00  0.00000000000E+00 -0.13646188443E+03  0.13646188453E+03  0.50400001928E-02 0. -1.
    10030    2    1    2    0    0  0.00000000000E+00  0.00000000000E+00  0.32174974951E+03  0.59467351850E+03  0.50011367937E+03 0.  0.
        5    1    3    3  502    0  0.15789556732E+03  0.15433395655E+03  0.21411067336E+02  0.22187948108E+03  0.46999998093E+01 0. -1.
       -5    1    3    3    0  502 -0.15789556732E+03 -0.15433395655E+03  0.30033868217E+03  0.37279403741E+03  0.46999998093E+01 0.  1.
</event>
<event>
 5   0  0.4451135E-02  0.5099199E+03  0.7818609E-02  0.1011222E+00
       -2   -1    0    0    0  501  0.00000000000E+00  0.00000000000E+00  0.24689486238E+03  0.24689486239E+03  0.25500000920E-02 0. -1.
        2   -1    0    0  501    0  0.00000000000E+00  0.00000000000E+00 -0.26328848733E+03  0.26328848735E+03  0.25500000920E-02 0.  1.
    10030    2    1    2    0    0  0.00000000000E+00  0.00000000000E+00 -0.16393624958E+02  0.51018334974E+03  0.50991989509E+03 0.  0.
        1    1    3    3  502    0 -0.79158714841E+02 -0.27136028648E+02 -0.24915751204E+03  0.26283441939E+03  0.50400001928E-02 0.  1.
       -1    1    3    3    0  502  0.79158714841E+02  0.27136028648E+02  0.23276388708E+03  0.24734893034E+03  0.50400001928E-02 0. -1.
</event>
<event>
 5   0  0.4631619E-02  0.5010210E+03  0.7818609E-02  0.1013513E+00
       -2   -1    0    0    0  501  0.00000000000E+00  0.00000000000E+00  0.15381033697E+03  0.15381033699E+03  0.25500000920E-02 0.  1.
        2   -1    0    0  501    0  0.00000000000E+00  0.00000000000E+00 -0.40800584467E+03  0.40800584468E+03  0.25500000920E-02 0. -1.
    10030    2    1    2    0    0  0.00000000000E+00  0.00000000000E+00 -0.25419550770E+03  0.56181618167E+03  0.50102102336E+03 0.  0.
        5    1    3    3  502    0 -0.13890219468E+03 -0.11208635722E+03 -0.32413603291E+03  0.37005868317E+03  0.46999998093E+01 0. -1.
       -5    1    3    3    0  502  0.13890219468E+03  0.11208635722E+03  0.69940525214E+02  0.19175749849E+03  0.46999998093E+01 0.  1.
</event>
<event>
 5   0  0.4631619E-02  0.4993964E+03  0.7818609E-02  0.1013937E+00
       -2   -1    0    0    0  501  0.00000000000E+00  0.00000000000E+00  0.23257532613E+03  0.23257532614E+03  0.25500000920E-02 0.  1.
        2   -1    0    0  501    0  0.00000000000E+00  0.00000000000E+00 -0.26808166581E+03  0.26808166582E+03  0.25500000920E-02 0. -1.
    10030    2    1    2    0    0  0.00000000000E+00  0.00000000000E+00 -0.35506339676E+02  0.50065699196E+03  0.49939635906E+03 0.  0.
        5    1    3    3  502    0  0.89003288827E+02 -0.52042123460E+02 -0.24569713603E+03  0.26649416633E+03  0.46999998093E+01 0. -1.
       -5    1    3    3    0  502 -0.89003288827E+02  0.52042123460E+02  0.21019079636E+03  0.23416282563E+03  0.46999998093E+01 0.  1.
</event>
<event>
 5   0  0.2779445E-02  0.5008570E+03  0.7818609E-02  0.1013555E+00
       -1   -1    0    0    0  501  0.00000000000E+00  0.00000000000E+00  0.94965989575E+02  0.94965989709E+02  0.50400001928E-02 0. -1.
        1   -1    0    0  501    0  0.00000000000E+00  0.00000000000E+00 -0.66038824984E+03  0.66038824986E+03  0.50400001928E-02 0.  1.
    10030    2    1    2    0    0  0.00000000000E+00  0.00000000000E+00 -0.56542226027E+03  0.75535423957E+03  0.50085696045E+03 0.  0.
        3    1    3    3  502    0 -0.11511953348E+03  0.12253620168E+03 -0.56261655120E+03  0.58720100613E+03  0.10100000352E+00 0.  1.
       -3    1    3    3    0  502  0.11511953348E+03 -0.12253620168E+03 -0.28057090635E+01  0.16815323344E+03  0.10100000352E+00 0. -1.
</event>
<event>
 5   0  0.2715483E-02  0.5006435E+03  0.7818609E-02  0.1013611E+00
        1   -1    0    0  501    0  0.00000000000E+00  0.00000000000E+00  0.17866245031E+03  0.17866245038E+03  0.50400001928E-02 0. -1.
       -1   -1    0    0    0  501  0.00000000000E+00  0.00000000000E+00 -0.35072266333E+03  0.35072266336E+03  0.50400001928E-02 0.  1.
    10030    2    1    2    0    0  0.00000000000E+00  0.00000000000E+00 -0.17206021302E+03  0.52938511374E+03  0.50064346770E+03 0.  0.
        5    1    3    3  502    0  0.18309364027E+03 -0.14079448643E+03 -0.18796191611E+03  0.29782233030E+03  0.46999998093E+01 0. -1.
       -5    1    3    3    0  502 -0.18309364027E+03  0.14079448643E+03  0.15901703086E+02  0.23156278345E+03  0.46999998093E+01 0.  1.
</event>
<event>
 5   0  0.4631619E-02  0.4997032E+03  0.7818609E-02  0.1013856E+00
       -2   -1    0    0    0  501  0.00000000000E+00  0.00000000000E+00  0.10175676003E+03  0.10175676006E+03  0.25500000920E-02 0.  1.
        2   -1    0    0  501    0  0.00000000000E+00  0.00000000000E+00 -0.61348079230E+03  0.61348079230E+03  0.25500000920E-02 0. -1.
    10030    2    1    2    0    0  0.00000000000E+00  0.00000000000E+00 -0.51172403227E+03  0.71523755236E+03  0.49970318301E+03 0.  0.
        5    1    3    3  502    0 -0.60888081548E+02  0.23105988534E+03 -0.15158434514E+03  0.28301224846E+03  0.46999998093E+01 0.  1.
       -5    1    3    3    0  502  0.60888081548E+02 -0.23105988534E+03 -0.36013968714E+03  0.43222530391E+03  0.46999998093E+01 0. -1.
</event>
<event>
 5   0  0.2719671E-02  0.4999721E+03  0.7818609E-02  0.1013786E+00
        1   -1    0    0  501    0  0.00000000000E+00  0.00000000000E+00  0.15432262843E+04  0.15432262843E+04  0.50400001928E-02 0.  1.
       -1   -1    0    0    0  501  0.00000000000E+00  0.00000000000E+00 -0.40495053602E+02  0.40495053916E+02  0.50400001928E-02 0. -1.
    10030    2    1    2    0    0  0.00000000000E+00  0.00000000000E+00  0.15027312307E+04  0.15837213382E+04  0.49997212466E+03 0.  0.
        2    1    3    3  502    0  0.16900635772E+03  0.18250329356E+03  0.83039312929E+03  0.86684678593E+03  0.25500000920E-02 0.  1.
       -2    1    3    3    0  502 -0.16900635772E+03 -0.18250329356E+03  0.67233810143E+03  0.71687455231E+03  0.25500000920E-02 0. -1.
</event>
<event>
 5   0  0.4451135E-02  0.5006716E+03  0.7818609E-02  0.1013604E+00
       -2   -1    0    0    0  501  0.00000000000E+00  0.00000000000E+00  0.22975571488E+03  0.22975571489E+03  0.25500000920E-02 0. -1.
        2   -1    0    0  501    0  0.00000000000E+00  0.00000000000E+00 -0.27275932304E+03  0.27275932305E+03  0.25500000920E-02 0.  1.
    10030    2    1    2    0    0  0.00000000000E+00  0.00000000000E+00 -0.43003608160E+02  0.50251503794E+03  0.50067160199E+03 0.  0.
        1    1    3    3  502    0  0.72093575997E+02 -0.23441801114E+03  0.28869886941E+02  0.24694687292E+03  0.50400001928E-02 0. -1.
       -1    1    3    3    0  502 -0.72093575997E+02  0.23441801114E+03 -0.71873495101E+02  0.25556816502E+03  0.50400001928E-02 0.  1.
</event>
<event>
 5   0  0.2715483E-02  0.4995016E+03  0.7818609E-02  0.1013909E+00
        1   -1    0    0  501    0  0.00000000000E+00  0.00000000000E+00  0.74654028500E+03  0.74654028502E+03  0.50400001928E-02 0. -1.
       -1   -1    0    0    0  501  0.00000000000E+00  0.00000000000E+00 -0.83552697044E+02  0.83552697196E+02  0.50400001928E-02 0.  1.
    10030    2    1    2    0    0  0.00000000000E+00  0.00000000000E+00  0.66298758796E+03  0.83009298221E+03  0.49950156890E+03 0.  0.
        5    1    3    3  502    0  0.58715076337E+02  0.43518871290E+02  0.72829507860E+03  0.73196800741E+03  0.46999998093E+01 0. -1.
       -5    1    3    3    0  502 -0.58715076337E+02 -0.43518871290E+02 -0.65307490649E+02  0.98124974806E+02  0.46999998093E+01 0.  1.
</event>
<event>
 5   0  0.2643185E-02  0.5058280E+03  0.7818609E-02  0.1012269E+00
        1   -1    0    0  501    0  0.00000000000E+00  0.00000000000E+00  0.25855941379E+03  0.25855941384E+03  0.50400001928E-02 0. -1.
       -1   -1    0    0    0  501  0.00000000000E+00  0.00000000000E+00 -0.24739185698E+03  0.24739185703E+03  0.50400001928E-02 0.  1.
    10030    2    1    2    0    0  0.00000000000E+00  0.00000000000E+00  0.11167556810E+02  0.50595127087E+03  0.50582800848E+03 0.  0.
        1    1    3    3  502    0 -0.20074158587E+02 -0.14320984093E+03 -0.20196006902E+03  0.24839464545E+03  0.50400001928E-02 0.  1.
       -1    1    3    3    0  502  0.20074158587E+02  0.14320984093E+03  0.21312762583E+03  0.25755662542E+03  0.50400001928E-02 0. -1.
</event>
<event>
 5   0  0.2643185E-02  0.5006265E+03  0.7818609E-02  0.1013616E+00
        1   -1    0    0  501    0  0.00000000000E+00  0.00000000000E+00  0.10217736932E+03  0.10217736945E+03  0.50400001928E-02 0.  1.
       -1   -1    0    0    0  501  0.00000000000E+00  0.00000000000E+00 -0.61321531485E+03  0.61321531487E+03  0.50400001928E-02 0. -1.
    10030    2    1    2    0    0  0.00000000000E+00  0.00000000000E+00 -0.51103794553E+03  0.71539268432E+03  0.50062651848E+03 0.  0.
        1    1    3    3  502    0  0.22841067158E+03  0.43452958909E+01 -0.40171297022E+03  0.46212944826E+03  0.50400001928E-02 0. -1.
       -1    1    3    3    0  502 -0.22841067158E+03 -0.43452958909E+01 -0.10932497532E+03  0.25326323606E+03  0.50400001928E-02 0.  1.
</event>
<event>
 5   0  0.2719671E-02  0.4930858E+03  0.7818609E-02  0.1015600E+00
       -1   -1    0    0    0  501  0.00000000000E+00  0.00000000000E+00  0.15577618892E+03  0.15577618901E+03  0.50400001928E-02 0.  1.
        1   -1    0    0  501    0  0.00000000000E+00  0.00000000000E+00 -0.39019700052E+03  0.39019700055E+03  0.50400001928E-02 0. -1.
    10030    2    1    2    0    0  0.00000000000E+00  0.00000000000E+00 -0.23442081160E+03  0.54597318956E+03  0.49308580065E+03 0.  0.
        2    1    3    3  502    0  0.12119589808E+03  0.21462716564E+03 -0.12328881400E+03  0.27559643975E+03  0.25500000920E-02 0.  1.
       -2    1    3    3    0  502 -0.12119589808E+03 -0.21462716564E+03 -0.11113199760E+03  0.27037674981E+03  0.25500000920E-02 0. -1.
</event>
<event>
 5   0  0.4519539E-02  0.5037620E+03  0.7818609E-02  0.1012802E+00
        2   -1    0    0  501    0  0.00000000000E+00  0.00000000000E+00  0.74001213160E+03  0.74001213160E+03  0.25500000920E-02 0.  1.
       -2   -1    0    0    0  501  0.00000000000E+00  0.00000000000E+00 -0.85733787061E+02  0.85733787099E+02  0.25500000920E-02 0. -1.
    10030    2    1    2    0    0  0.00000000000E+00  0.00000000000E+00  0.65427834453E+03  0.82574591870E+03  0.50376201735E+03 0.  0.
        4    1    3    3  502    0  0.94820566542E+02  0.62154729147E+02 -0.41537764831E+02  0.12075242855E+03  0.12699999809E+01 0. -1.
       -4    1    3    3    0  502 -0.94820566542E+02 -0.62154729147E+02  0.69581610937E+03  0.70499349015E+03  0.12699999809E+01 0.  1.
</event>
<event>
 5   0  0.4409622E-02  0.5010969E+03  0.7818609E-02  0.1013493E+00
       -2   -1    0    0    0  501  0.00000000000E+00  0.00000000000E+00  0.48591743057E+02  0.48591743124E+02  0.25500000920E-02 0.  1.
        2   -1    0    0  501    0  0.00000000000E+00  0.00000000000E+00 -0.12918763061E+04  0.12918763061E+04  0.25500000920E-02 0. -1.
    10030    2    1    2    0    0  0.00000000000E+00  0.00000000000E+00 -0.12432845630E+04  0.13404680492E+04  0.50109688314E+03 0.  0.
        3    1    3    3  502    0  0.24298183048E+03 -0.55546303935E+02 -0.68978826010E+03  0.73343944248E+03  0.10100000352E+00 0.  1.
       -3    1    3    3    0  502 -0.24298183048E+03  0.55546303935E+02 -0.55349630292E+03  0.60702860671E+03  0.10100000352E+00 0. -1.
</event>
<event>
 5   0  0.2723308E-02  0.5006419E+03  0.7818609E-02  0.1013611E+00
        1   -1    0    0  501    0  0.00000000000E+00  0.00000000000E+00  0.41568107878E+03  0.41568107881E+03  0.50400001928E-02 0.  1.
       -1   -1    0    0    0  501  0.00000000000E+00  0.00000000000E+00 -0.15074196940E+03  0.15074196948E+03  0.50400001928E-02 0. -1.
    10030    2    1    2    0    0  0.00000000000E+00  0.00000000000E+00  0.26493910938E+03  0.56642304829E+03  0.50064192589E+03 0.  0.
        4    1    3    3  502    0  0.88808958600E+01  0.24911730536E+03  0.15828589921E+03  0.29528687903E+03  0.12699999809E+01 0. -1.
       -4    1    3    3    0  502 -0.88808958600E+01 -0.24911730536E+03  0.10665321017E+03  0.27113616926E+03  0.12699999809E+01 0.  1.
</event>
<event>
 5   0  0.4631619E-02  0.5025759E+03  0.7818609E-02  0.1013109E+00
        2   -1    0    0  501    0  0.00000000000E+00  0.00000000000E+00  0.99249166778E+03  0.99249166779E+03  0.25500000920E-02 0.  1.
       -2   -1    0    0    0  501  0.00000000000E+00  0.00000000000E+00 -0.63623330125E+02  0.63623330176E+02  0.25500000920E-02 0. -1.
    10030    2    1    2    0    0  0.00000000000E+00  0.00000000000E+00  0.92886833766E+03  0.10561149980E+04  0.50257586514E+03 0.  0.
        5    1    3    3  502    0 -0.35455881826E+02  0.10715463826E+03  0.93612473614E+03  0.94291614031E+03  0.46999998093E+01 0.  1.
       -5    1    3    3    0  502  0.35455881826E+02 -0.10715463826E+03 -0.72563984784E+01  0.11319885765E+03  0.46999998093E+01 0. -1.
</event>
<event>
 5   0  0.4409622E-02  0.4995506E+03  0.7818609E-02  0.1013896E+00
        2   -1    0    0  501    0  0.00000000000E+00  0.00000000000E+00  0.52491606560E+03  0.52491606561E+03  0.25500000920E-02 0.  1.
       -2   -1    0    0    0  501  0.00000000000E+00  0.00000000000E+00 -0.11885271786E+03  0.11885271789E+03  0.25500000920E-02 0. -1.
    10030    2    1    2    0    0  0.00000000000E+00  0.00000000000E+00  0.40606334774E+03  0.64376878350E+03  0.49955060227E+03 0.  0.
        3    1    3    3  502    0 -0.72831199832E+01 -0.90639057716E+02 -0.96764540138E+02  0.13278504829E+03  0.10100000352E+00 0. -1.
       -3    1    3    3    0  502  0.72831199832E+01  0.90639057716E+02  0.50282788787E+03  0.51098373521E+03  0.10100000352E+00 0.  1.
</event>
<event>
 5   0  0.4519539E-02  0.4816191E+03  0.7818609E-02  0.1018691E+00
        2   -1    0    0  501    0  0.00000000000E+00  0.00000000000E+00  0.38835839884E+03  0.38835839885E+03  0.25500000920E-02 0. -1.
       -2   -1    0    0    0  501  0.00000000000E+00  0.00000000000E+00 -0.14931885348E+03  0.14931885350E+03  0.25500000920E-02 0.  1.
    10030    2    1    2    0    0  0.00000000000E+00  0.00000000000E+00  0.23903954536E+03  0.53767725235E+03  0.48161906467E+03 0.  0.
        4    1    3    3  502    0  0.11237388832E+03  0.25458685487E+01  0.35727067819E+03  0.37453747826E+03  0.12699999809E+01 0. -1.
       -4    1    3    3    0  502 -0.11237388832E+03 -0.25458685487E+01 -0.11823113283E+03  0.16313977410E+03  0.12699999809E+01 0.  1.
</event>
<event>
 5   0  0.4534223E-02  0.4907034E+03  0.7818609E-02  0.1016234E+00
       -2   -1    0    0    0  501  0.00000000000E+00  0.00000000000E+00  0.19768054319E+03  0.19768054321E+03  0.25500000920E-02 0. -1.
        2   -1    0    0  501    0  0.00000000000E+00  0.00000000000E+00 -0.30451882686E+03  0.30451882687E+03  0.25500000920E-02 0.  1.
    10030    2    1    2    0    0  0.00000000000E+00  0.00000000000E+00 -0.10683828367E+03  0.50219937008E+03  0.49070336095E+03 0.  0.
        2    1    3    3  502    0  0.17866259185E+03 -0.16776954253E+03 -0.41727585331E+02  0.24861241424E+03  0.25500000920E-02 0. -1.
       -2    1    3    3    0  502 -0.17866259185E+03  0.16776954253E+03 -0.65110698343E+02  0.25358695584E+03  0.25500000920E-02 0.  1.
</event>
<event>
 5   0  0.4534223E-02  0.4997195E+03  0.7818609E-02  0.1013852E+00
        2   -1    0    0  501    0  0.00000000000E+00  0.00000000000E+00  0.46261380938E+03  0.46261380939E+03  0.25500000920E-02 0.  1.
       -2   -1    0    0    0  501  0.00000000000E+00  0.00000000000E+00 -0.13495036902E+03  0.13495036904E+03  0.25500000920E-02 0. -1.
    10030    2    1    2    0    0  0.00000000000E+00  0.00000000000E+00  0.32766344037E+03  0.59756417843E+03  0.49971953854E+03 0.  0.
        2    1    3    3  502    0 -0.41538880763E+02 -0.64177316659E+02  0.44828540414E+03  0.45475708918E+03  0.25500000920E-02 0.  1.
       -2    1    3    3    0  502  0.41538880763E+02  0.64177316659E+02 -0.12062196378E+03  0.14280708925E+03  0.25500000920E-02 0. -1.
</event>
<event>
 5   0  0.4534223E-02  0.4991534E+03  0.7818609E-02  0.1014000E+00
        2   -1    0    0  501    0  0.00000000000E+00  0.00000000000E+00  0.30236096803E+03  0.30236096804E+03  0.25500000920E-02 0.  1.
       -2   -1    0    0    0  501  0.00000000000E+00  0.00000000000E+00 -0.20600716094E+03  0.20600716096E+03  0.25500000920E-02 0. -1.
    10030    2    1    2    0    0  0.00000000000E+00  0.00000000000E+00  0.96353807084E+02  0.50836812900E+03  0.49915338168E+03 0.  0.
        2    1    3    3  502    0  0.11050937407E+03 -0.13949804628E+03  0.22638279354E+03  0.28796040681E+03  0.25500000920E-02 0.  1.
       -2    1    3    3    0  502 -0.11050937407E+03  0.13949804628E+03 -0.13002898646E+03  0.22040772219E+03  0.25500000920E-02 0. -1.
</event>
<event>
 5   0  0.4409622E-02  0.4968252E+03  0.7818609E-02  0.1014611E+00
       -2   -1    0    0    0  501  0.00000000000E+00  0.00000000000E+00  0.14869978925E+03  0.14869978927E+03  0.25500000920E-02 0.  1.
        2   -1    0    0  501    0  0.00000000000E+00  0.00000000000E+00 -0.41498933110E+03  0.41498933111E+03  0.25500000920E-02 0. -1.
    10030    2    1    2    0    0  0.00000000000E+00  0.00000000000E+00 -0.26628954185E+03  0.56368912038E+03  0.49682522513E+03 0.  0.
        3    1    3    3  502    0  0.13196812882E+03  0.14214496191E+03  0.42946056626E+02  0.19865837813E+03  0.10100000352E+00 0.  1.
       -3    1    3    3    0  502 -0.13196812882E+03 -0.14214496191E+03 -0.30923559848E+03  0.36503074225E+03  0.10100000352E+00 0. -1.
</event>
<event>
 5   0  0.4519539E-02  0.5015167E+03  0.7818609E-02  0.1013384E+00
       -2   -1    0    0    0  501  0.00000000000E+00  0.00000000000E+00  0.81152520126E+02  0.81152520166E+02  0.25500000920E-02 0. -1.
        2   -1    0    0  501    0  0.00000000000E+00  0.00000000000E+00 -0.77483435977E+03  0.77483435977E+03  0.25500000920E-02 0.  1.
    10030    2    1    2    0    0  0.00000000000E+00  0.00000000000E+00 -0.69368183964E+03  0.85598687994E+03  0.50151674347E+03 0.  0.
        4    1    3    3  502    0  0.13721886573E+03  0.14318396037E+03 -0.84929803913E+02  0.21574370932E+03  0.12699999809E+01 0. -1.
       -4    1    3    3    0  502 -0.13721886573E+03 -0.14318396037E+03 -0.60875203573E+03  0.64024317062E+03  0.12699999809E+01 0.  1.
</event>
<event>
 5   0  0.4451135E-02  0.5001992E+03  0.7818609E-02  0.1013727E+00
       -2   -1    0    0    0  501  0.00000000000E+00  0.00000000000E+00  0.82065970050E+02  0.82065970090E+02  0.25500000920E-02 0. -1.
        2   -1    0    0  501    0  0.00000000000E+00  0.00000000000E+00 -0.76218938904E+03  0.76218938905E+03  0.25500000920E-02 0.  1.
    10030    2    1    2    0    0  0.00000000000E+00  0.00000000000E+00 -0.68012341899E+03  0.84425535914E+03  0.50019920669E+03 0.  0.
        1    1    3    3  502    0 -0.61002056740E+02 -0.13536237528E+03 -0.36737942487E+00  0.14847342712E+03  0.50400001928E-02 0. -1.
       -1    1    3    3    0  502  0.61002056740E+02  0.13536237528E+03 -0.67975603957E+03  0.69578193202E+03  0.50400001928E-02 0.  1.
</event>
<event>
 5   0  0.2643185E-02  0.5126558E+03  0.7818609E-02  0.1010527E+00
       -1   -1    0    0    0  501  0.00000000000E+00  0.00000000000E+00  0.12132566573E+03  0.12132566584E+03  0.50400001928E-02 0.  1.
        1   -1    0    0  501    0  0.00000000000E+00  0.00000000000E+00 -0.54155064394E+03  0.54155064396E+03  0.50400001928E-02 0. -1.
    10030    2    1    2    0    0  0.00000000000E+00  0.00000000000E+00 -0.42022497820E+03  0.66287630980E+03  0.51265580050E+03 0.  0.
        1    1    3    3  502    0  0.19190510644E+02 -0.21134726110E+03 -0.24222331815E+02  0.21359462038E+03  0.50400001928E-02 0.  1.
       -1    1    3    3    0  502 -0.19190510644E+02  0.21134726110E+03 -0.39600264639E+03  0.44928168941E+03  0.50400001928E-02 0. -1.
</event>
<event>
 5   0  0.2779445E-02  0.4956611E+03  0.7818609E-02  0.1014918E+00
       -1   -1    0    0    0  501  0.00000000000E+00  0.00000000000E+00  0.11316411740E+03  0.11316411751E+03  0.50400001928E-02 0. -1.
        1   -1    0    0  501    0  0.00000000000E+00  0.00000000000E+00 -0.54275133616E+03  0.54275133619E+03  0.50400001928E-02 0.  1.
    10030    2    1    2    0    0  0.00000000000E+00  0.00000000000E+00 -0.42958721876E+03  0.65591545370E+03  0.49566107763E+03 0.  0.
        3    1    3    3  502    0 -0.34093268466E+02 -0.12385135217E+03  0.65669318141E+02  0.14427050265E+03  0.10100000352E+00 0. -1.
       -3    1    3    3    0  502  0.34093268466E+02  0.12385135217E+03 -0.49525653690E+03  0.51164495105E+03  0.10100000352E+00 0.  1.
</event>
<event>
 5   0  0.2723308E-02  0.5017131E+03  0.7818609E-02  0.1013333E+00
        1   -1    0    0  501    0  0.00000000000E+00  0.00000000000E+00  0.71211060049E+02  0.71211060227E+02  0.50400001928E-02 0.  1.
       -1   -1    0    0    0  501  0.00000000000E+00  0.00000000000E+00 -0.88369694583E+03  0.88369694584E+03  0.50400001928E-02 0. -1.
    10030    2    1    2    0    0  0.00000000000E+00  0.00000000000E+00 -0.81248588578E+03  0.95490800607E+03  0.50171305092E+03 0.  0.
        4    1    3    3  502    0 -0.91705957383E+02  0.10162082502E+03 -0.80634531701E+03  0.81788211734E+03  0.12699999809E+01 0. -1.
       -4    1    3    3    0  502  0.91705957383E+02 -0.10162082502E+03 -0.61405687668E+01  0.13702588873E+03  0.12699999809E+01 0.  1.
</event>
<event>
 5   0  0.4519539E-02  0.4985474E+03  0.7818609E-02  0.1014159E+00
        2   -1    0    0  501    0  0.00000000000E+00  0.00000000000E+00  0.56139872721E+03  0.56139872722E+03  0.25500000920E-02 0. -1.
       -2   -1    0    0    0  501  0.00000000000E+00  0.00000000000E+00 -0.11068314398E+03  0.11068314401E+03  0.25500000920E-02 0.  1.
    10030    2    1    2    0    0  0.00000000000E+00  0.00000000000E+00  0.45071558323E+03  0.67208187123E+03  0.49854739460E+03 0.  0.
        4    1    3    3  502    0 -0.73910291748E+02 -0.17659238999E+03  0.10136630110E+02  0.19170802695E+03  0.12699999809E+01 0.  1.
       -4    1    3    3    0  502  0.73910291748E+02  0.17659238999E+03  0.44057895313E+03  0.48037384428E+03  0.12699999809E+01 0. -1.
</event>
<event>
 5   0  0.4534223E-02  0.4990896E+03  0.7818609E-02  0.1014017E+00
        2   -1    0    0  501    0  0.00000000000E+00  0.00000000000E+00  0.79269077319E+03  0.79269077319E+03  0.25500000920E-02 0. -1.
       -2   -1    0    0    0  501  0.00000000000E+00  0.00000000000E+00 -0.78558508647E+02  0.78558508688E+02  0.25500000920E-02 0.  1.
    10030    2    1    2    0    0  0.00000000000E+00  0.00000000000E+00  0.71413226454E+03  0.87124928188E+03  0.49908959107E+03 0.  0.
        2    1    3    3  502    0 -0.20330536126E+03  0.10171823117E+03  0.53673469979E+03  0.58289261999E+03  0.25500000920E-02 0. -1.
       -2    1    3    3    0  502  0.20330536126E+03 -0.10171823117E+03  0.17739756475E+03  0.28835666189E+03  0.25500000920E-02 0.  1.
</event>
<event>
 5   0  0.4534223E-02  0.5058153E+03  0.7818609E-02  0.1012272E+00
       -2   -1    0    0    0  501  0.00000000000E+00  0.00000000000E+00  0.57204572299E+02  0.57204572356E+02  0.25500000920E-02 0.  1.
        2   -1    0    0  501    0  0.00000000000E+00  0.00000000000E+00 -0.11181325082E+04  0.11181325082E+04  0.25500000920E-02 0. -1.
    10030    2    1    2    0    0  0.00000000000E+00  0.00000000000E+00 -0.10609279359E+04  0.11753370805E+04  0.50581534947E+03 0.  0.
        2    1    3    3  502    0  0.13169034227E+03  0.16422690102E+03 -0.85618504436E+03  0.88168341907E+03  0.25500000920E-02 0. -1.
       -2    1    3    3    0  502 -0.13169034227E+03 -0.16422690102E+03 -0.20474289153E+03  0.29365366148E+03  0.25500000920E-02 0.  1.
</event>
<event>
 5   0  0.4451135E-02  0.4998166E+03  0.7818609E-02  0.1013827E+00
       -2   -1    0    0    0  501  0.00000000000E+00  0.00000000000E+00  0.56642234424E+02  0.56642234481E+02  0.25500000920E-02 0.  1.
        2   -1    0    0  501    0  0.00000000000E+00  0.00000000000E+00 -0.11026074397E+04  0.11026074397E+04  0.25500000920E-02 0. -1.
    10030    2    1    2    0    0  0.00000000000E+00  0.00000000000E+00 -0.10459652052E+04  0.11592496742E+04  0.49981656279E+03 0.  0.
        1    1    3    3  502    0  0.88351832548E+02 -0.22937043878E+03 -0.41829522526E+03  0.48516774419E+03  0.50400001928E-02 0. -1.
       -1    1    3    3    0  502 -0.88351832548E+02  0.22937043878E+03 -0.62766997999E+03  0.67408192997E+03  0.50400001928E-02 0.  1.
</event>
<event>
 5   0  0.4631619E-02  0.4999662E+03  0.7818609E-02  0.1013788E+00
       -2   -1    0    0    0  501  0.00000000000E+00  0.00000000000E+00  0.41610596436E+02  0.41610596515E+02  0.25500000920E-02 0.  1.
        2   -1    0    0  501    0  0.00000000000E+00  0.00000000000E+00 -0.15018181928E+04  0.15018181928E+04  0.25500000920E-02 0. -1.
    10030    2    1    2    0    0  0.00000000000E+00  0.00000000000E+00 -0.14602075964E+04  0.15434287893E+04  0.49996620207E+03 0.  0.
        5    1    3    3  502    0  0.22007338641E+03  0.78851598824E+02 -0.10030882817E+04  0.10299796411E+04  0.46999998093E+01 0. -1.
       -5    1    3    3    0  502 -0.22007338641E+03 -0.78851598824E+02 -0.45711931463E+03  0.51344914826E+03  0.46999998093E+01 0.  1.
</event>
<event>
 5   0  0.2719671E-02  0.5156403E+03  0.7818609E-02  0.1009775E+00
        1   -1    0    0  501    0  0.00000000000E+00  0.00000000000E+00  0.39080527117E+03  0.39080527121E+03  0.50400001928E-02 0.  1.
       -1   -1    0    0    0  501  0.00000000000E+00  0.00000000000E+00 -0.17008787925E+03  0.17008787932E+03  0.50400001928E-02 0. -1.
    10030    2    1    2    0    0  0.00000000000E+00  0.00000000000E+00  0.22071739193E+03  0.56089315053E+03  0.51564033901E+03 0.  0.
        2    1    3    3  502    0  0.14352206937E+01  0.24249696689E+03  0.20558838372E+03  0.31792046543E+03  0.25500000920E-02 0.  1.
       -2    1    3    3    0  502 -0.14352206937E+01 -0.24249696689E+03  0.15129008208E+02  0.24297268510E+03  0.25500000920E-02 0. -1.
</event>
<event>
 5   0  0.2779445E-02  0.4956634E+03  0.7818609E-02  0.1014917E+00
       -1   -1    0    0    0  501  0.00000000000E+00  0.00000000000E+00  0.20635814450E+03  0.20635814457E+03  0.50400001928E-02 0. -1.
        1   -1    0    0  501    0  0.00000000000E+00  0.00000000000E+00 -0.29764057654E+03  0.29764057658E+03  0.50400001928E-02 0.  1.
    10030    2    1    2    0    0  0.00000000000E+00  0.00000000000E+00 -0.91282432037E+02  0.50399872115E+03  0.49566342262E+03 0.  0.
        3    1    3    3  502    0  0.17401460762E+03 -0.15744916215E+03 -0.12666320647E+03  0.26667377149E+03  0.10100000352E+00 0.  1.
       -3    1    3    3    0  502 -0.17401460762E+03  0.15744916215E+03  0.35380774437E+02  0.23732494966E+03  0.10100000352E+00 0. -1.
</event>
<event>
 5   0  0.2643185E-02  0.5018667E+03  0.7818609E-02  0.1013293E+00
       -1   -1    0    0    0  501  0.00000000000E+00  0.00000000000E+00  0.28652635873E+02  0.28652636317E+02  0.50400001928E-02 0.  1.
        1   -1    0    0  501    0  0.00000000000E+00  0.00000000000E+00 -0.21976177003E+04  0.21976177003E+04  0.50400001928E-02 0. -1.
    10030    2    1    2    0    0  0.00000000000E+00  0.00000000000E+00 -0.21689650645E+04  0.22262703367E+04  0.50186667655E+03 0.  0.
        1    1    3    3  502    0 -0.12421057262E+03  0.16089332317E+03 -0.43173582300E+03  0.47719047421E+03  0.50400001928E-02 0.  1.
       -1    1    3    3    0  502  0.12421057262E+03 -0.16089332317E+03 -0.17372292415E+04  0.17490798624E+04  0.50400001928E-02 0. -1.
</event>
<event>
 5   0  0.2719671E-02  0.5046420E+03  0.7818609E-02  0.1012574E+00
       -1   -1    0    0    0  501  0.00000000000E+00  0.00000000000E+00  0.56389892848E+02  0.56389893073E+02  0.50400001928E-02 0. -1.
        1   -1    0    0  501    0  0.00000000000E+00  0.00000000000E+00 -0.11290299711E+04  0.11290299711E+04  0.50400001928E-02 0.  1.
    10030    2    1    2    0    0  0.00000000000E+00  0.00000000000E+00 -0.10726400783E+04  0.11854198642E+04  0.50464196906E+03 0.  0.
        2    1    3    3  502    0  0.11080592518E+03  0.19793008702E+03 -0.27673764074E+03  0.35782397098E+03  0.25500000920E-02 0. -1.
       -2    1    3    3    0  502 -0.11080592518E+03 -0.19793008702E+03 -0.79590243754E+03  0.82759589323E+03  0.25500000920E-02 0.  1.
</event>
<event>
 5   0  0.4409622E-02  0.4999483E+03  0.7818609E-02  0.1013792E+00
        2   -1    0    0  501    0  0.00000000000E+00  0.00000000000E+00  0.11051679214E+04  0.11051679214E+04  0.25500000920E-02 0.  1.
       -2   -1    0    0    0  501  0.00000000000E+00  0.00000000000E+00 -0.56540798639E+02  0.56540798697E+02  0.25500000920E-02 0. -1.
    10030    2    1    2    0    0  0.00000000000E+00  0.00000000000E+00  0.10486271227E+04  0.11617087201E+04  0.49994830508E+03 0.  0.
        3    1    3    3  502    0  0.19657854203E+03  0.74295026682E+02  0.83885985514E+03  0.86478248187E+03  0.10100000352E+00 0.  1.
       -3    1    3    3    0  502 -0.19657854203E+03 -0.74295026682E+02  0.20976726757E+03  0.29692623818E+03  0.10100000352E+00 0. -1.
</event>
<event>
 5   0  0.2719671E-02  0.4998398E+03  0.7818609E-02  0.1013821E+00
       -1   -1    0    0    0  501  0.00000000000E+00  0.00000000000E+00  0.15345848599E+03  0.15345848608E+03  0.50400001928E-02 0. -1.
        1   -1    0    0  501    0  0.00000000000E+00  0.00000000000E+00 -0.40701530494E+03  0.40701530497E+03  0.50400001928E-02 0.  1.
    10030    2    1    2    0    0  0.00000000000E+00  0.00000000000E+00 -0.25355681895E+03  0.56047379105E+03  0.49983978435E+03 0.  0.
        2    1    3    3  502    0  0.89825536402E+02 -0.22906409047E+03 -0.17592399909E+03  0.30247022662E+03  0.25500000920E-02 0.  1.
       -2    1    3    3    0  502 -0.89825536402E+02  0.22906409047E+03 -0.77632819856E+02  0.25800356443E+03  0.25500000920E-02 0. -1.
</event>
<event>
 5   0  0.4631619E-02  0.5000903E+03  0.7818609E-02  0.1013755E+00
       -2   -1    0    0    0  501  0.00000000000E+00  0.00000000000E+00  0.51072746838E+02  0.51072746902E+02  0.25500000920E-02 0.  1.
        2   -1    0    0  501    0  0.00000000000E+00  0.00000000000E+00 -0.12241868813E+04  0.12241868813E+04  0.25500000920E-02 0. -1.
    10030    2    1    2    0    0  0.00000000000E+00  0.00000000000E+00 -0.11731141345E+04  0.12752596282E+04  0.50009033870E+03 0.  0.
        5    1    3    3  502    0  0.28153942375E+02 -0.10911351617E+03 -0.11556378805E+04  0.11611285048E+04  0.46999998093E+01 0. -1.
       -5    1    3    3    0  502 -0.28153942375E+02  0.10911351617E+03 -0.17476254012E+02  0.11413112343E+03  0.46999998093E+01 0.  1.
</event>
<event>
 5   0  0.4451135E-02  0.4981446E+03  0.7818609E-02  0.1014264E+00
        2   -1    0    0  501    0  0.00000000000E+00  0.00000000000E+00  0.36353969367E+03  0.36353969368E+03  0.25500000920E-02 0. -1.
       -2   -1    0    0    0  501  0.00000000000E+00  0.00000000000E+00 -0.17064711462E+03  0.17064711464E+03  0.25500000920E-02 0.  1.
    10030    2    1    2    0    0  0.00000000000E+00  0.00000000000E+00  0.19289257906E+03  0.53418680832E+03  0.49814455646E+03 0.  0.
        1    1    3    3  502    0  0.21121476514E+02  0.20609994564E+03  0.24470154598E+03  0.32062774520E+03  0.50400001928E-02 0. -1.
       -1    1    3    3    0  502 -0.21121476514E+02 -0.20609994564E+03 -0.51808966923E+02  0.21355906312E+03  0.50400001928E-02 0.  1.
</event>
<event>
 5   0  0.2715483E-02  0.5015680E+03  0.7818609E-02  0.1013370E+00
       -1   -1    0    0    0  501  0.00000000000E+00  0.00000000000E+00  0.79533771746E+02  0.79533771906E+02  0.50400001928E-02 0. -1.
        1   -1    0    0  501    0  0.00000000000E+00  0.00000000000E+00 -0.79076601579E+03  0.79076601581E+03  0.50400001928E-02 0.  1.
    10030    2    1    2    0    0  0.00000000000E+00  0.00000000000E+00 -0.71123224404E+03  0.87029978771E+03  0.50156795703E+03 0.  0.
        5    1    3    3  502    0  0.16919956996E+03  0.16986706087E+03 -0.22825974805E+03  0.33107086163E+03  0.46999998093E+01 0. -1.
       -5    1    3    3    0  502 -0.16919956996E+03 -0.16986706087E+03 -0.48297249599E+03  0.53922892608E+03  0.46999998093E+01 0.  1.
</event>
<event>
 5   0  0.2779445E-02  0.4999377E+03  0.7818609E-02  0.1013795E+00
        1   -1    0    0  501    0  0.00000000000E+00  0.00000000000E+00  0.40409739213E+03  0.40409739216E+03  0.50400001928E-02 0. -1.
       -1   -1    0    0    0  501  0.00000000000E+00  0.00000000000E+00 -0.15462713006E+03  0.15462713015E+03  0.50400001928E-02 0.  1.
    10030    2    1    2    0    0  0.00000000000E+00  0.00000000000E+00  0.24947026207E+03  0.55872452231E+03  0.49993767629E+03 0.  0.
        3    1    3    3  502    0 -0.29117398626E+02 -0.14802188198E+02 -0.15223176876E+03  0.15569665795E+03  0.10100000352E+00 0.  1.
       -3    1    3    3    0  502  0.29117398626E+02  0.14802188198E+02  0.40170203082E+03  0.40302786435E+03  0.10100000352E+00 0. -1.
</event>
<event>
 5   0  0.2723308E-02  0.5006045E+03  0.7818609E-02  0.1013621E+00
        1   -1    0    0  501    0  0.00000000000E+00  0.00000000000E+00  0.43145691471E+03  0.43145691474E+03  0.50400001928E-02 0. -1.
       -1   -1    0    0    0  501  0.00000000000E+00  0.00000000000E+00 -0.14520853177E+03  0.14520853185E+03  0.50400001928E-02 0.  1.
    10030    2    1    2    0    0  0.00000000000E+00  0.00000000000E+00  0.28624838295E+03  0.57666544660E+03  0.50060453510E+03 0.  0.
        4    1    3    3  502    0  0.20209851484E+03 -0.12085664395E+03  0.24086581271E+03  0.33685024969E+03  0.12699999809E+01 0. -1.
       -4    1    3    3    0  502 -0.20209851484E+03  0.12085664395E+03  0.45382570233E+02  0.23981519690E+03  0.12699999809E+01 0.  1.
</event>
<event>
 5   0  0.2715483E-02  0.4982460E+03  0.7818609E-02  0.1014238E+00
        1   -1    0    0  501    0  0.00000000000E+00  0.00000000000E+00  0.62524746701E+02  0.62524746904E+02  0.50400001928E-02 0.  1.
       -1   -1    0    0    0  501  0.00000000000E+00  0.00000000000E+00 -0.99260335550E+03  0.99260335552E+03  0.50400001928E-02 0. -1.
    10030    2    1    2    0    0  0.00000000000E+00  0.00000000000E+00 -0.93007860880E+03  0.10551281024E+04  0.49824601751E+03 0.  0.
        5    1    3    3  502    0  0.14114591333E+02 -0.24864587316E+03 -0.45651800600E+03  0.52005266245E+03  0.46999998093E+01 0.  1.
       -5    1    3    3    0  502 -0.14114591333E+02  0.24864587316E+03 -0.47356060280E+03  0.53507543997E+03  0.46999998093E+01 0. -1.
</event>
<event>
 5   0  0.4534223E-02  0.5099872E+03  0.7818609E-02  0.1011205E+00
       -2   -1    0    0    0  501  0.00000000000E+00  0.00000000000E+00  0.39489398915E+02  0.39489398997E+02  0.25500000920E-02 0. -1.
        2   -1    0    0  501    0  0.00000000000E+00  0.00000000000E+00 -0.16465615469E+04  0.16465615469E+04  0.25500000920E-02 0.  1.
    10030    2    1    2    0    0  0.00000000000E+00  0.00000000000E+00 -0.16070721480E+04  0.16860509459E+04  0.50998715998E+03 0.  0.
        2    1    3    3  502    0  0.24070741899E+03 -0.84142121409E+02 -0.79914052475E+03  0.83883582211E+03  0.25500000920E-02 0. -1.
       -2    1    3    3    0  502 -0.24070741899E+03  0.84142121409E+02 -0.80793162326E+03  0.84721512381E+03  0.25500000920E-02 0.  1.
</event>
<event>
 5   0  0.2719671E-02  0.4993122E+03  0.7818609E-02  0.1013959E+00
       -1   -1    0    0    0  501  0.00000000000E+00  0.00000000000E+00  0.23614965817E+03  0.23614965823E+03  0.50400001928E-02 0.  1.
        1   -1    0    0  501    0  0.00000000000E+00  0.00000000000E+00 -0.26393502458E+03  0.26393502462E+03  0.50400001928E-02 0. -1.
    10030    2    1    2    0    0  0.00000000000E+00  0.00000000000E+00 -0.27785366401E+02  0.50008468285E+03  0.49931219035E+03 0.  0.
        2    1    3    3  502    0  0.13263310571E+03  0.71095809822E+02  0.18561894819E+03  0.23895721131E+03  0.25500000920E-02 0.  1.
       -2    1    3    3    0  502 -0.13263310571E+03 -0.71095809822E+02 -0.21340431459E+03  0.26112747154E+03  0.25500000920E-02 0. -1.
</event>
<event>
 5   0  0.4631619E-02  0.5035231E+03  0.7818609E-02  0.1012863E+00
        2   -1    0    0  501    0  0.00000000000E+00  0.00000000000E+00  0.12262611140E+04  0.12262611140E+04  0.25500000920E-02 0. -1.
       -2   -1    0    0    0  501  0.00000000000E+00  0.00000000000E+00 -0.51688718431E+02  0.51688718494E+02  0.25500000920E-02 0.  1.
    10030    2    1    2    0    0  0.00000000000E+00  0.00000000000E+00  0.11745723956E+04  0.12779498325E+04  0.50352305007E+03 0.  0.
        5    1    3    3  502    0 -0.17521124498E+03 -0.17860769447E+03  0.51722192611E+03  0.57457836692E+03  0.46999998093E+01 0.  1.
       -5    1    3    3    0  502  0.17521124498E+03  0.17860769447E+03  0.65735046949E+03  0.70337146561E+03  0.46999998093E+01 0. -1.
</event>
<event>
 5   0  0.2643185E-02  0.4942148E+03  0.7818609E-02  0.1015300E+00
        1   -1    0    0  501    0  0.00000000000E+00  0.00000000000E+00  0.10298391883E+04  0.10298391883E+04  0.50400001928E-02 0. -1.
       -1   -1    0    0    0  501  0.00000000000E+00  0.00000000000E+00 -0.59292818805E+02  0.59292819019E+02  0.50400001928E-02 0.  1.
    10030    2    1    2    0    0  0.00000000000E+00  0.00000000000E+00  0.97054636946E+03  0.10891320073E+04  0.49421480557E+03 0.  0.
        1    1    3    3  502    0  0.22525704324E+03 -0.27028412023E+02  0.70109340887E+03  0.73688753455E+03  0.50400001928E-02 0. -1.
       -1    1    3    3    0  502 -0.22525704324E+03  0.27028412023E+02  0.26945296059E+03  0.35224447275E+03  0.50400001928E-02 0.  1.
</event>
<event>
 5   0  0.4409622E-02  0.4999430E+03  0.7818609E-02  0.1013794E+00
        2   -1    0    0  501    0  0.00000000000E+00  0.00000000000E+00  0.24725290062E+03  0.24725290063E+03  0.25500000920E-02 0. -1.
       -2   -1    0    0    0  501  0.00000000000E+00  0.00000000000E+00 -0.25272000013E+03  0.25272000014E+03  0.25500000920E-02 0.  1.
    10030    2    1    2    0    0  0.00000000000E+00  0.00000000000E+00 -0.54670995087E+01  0.49997290078E+03  0.49994300909E+03 0.  0.
        3    1    3    3  502    0 -0.17803171784E+03 -0.57362631476E+02  0.16310754103E+03  0.24817301261E+03  0.10100000352E+00 0. -1.
       -3    1    3    3    0  502  0.17803171784E+03  0.57362631476E+02 -0.16857464054E+03  0.25179988817E+03  0.10100000352E+00 0.  1.
</event>
<event>
 5   0  0.4631619E-02  0.5006358E+03  0.7818609E-02  0.1013613E+00
       -2   -1    0    0    0  501  0.00000000000E+00  0.00000000000E+00  0.13015152306E+03  0.13015152309E+03  0.25500000920E-02 0. -1.
        2   -1    0    0  501    0  0.00000000000E+00  0.00000000000E+00 -0.48143165346E+03  0.48143165347E+03  0.25500000920E-02 0.  1.
    10030    2    1    2    0    0  0.00000000000E+00  0.00000000000E+00 -0.35128013040E+03  0.61158317656E+03  0.50063584753E+03 0.  0.
        5    1    3    3  502    0  0.13980315138E+03 -0.15894801483E+03 -0.33874976509E+03  0.39947826712E+03  0.46999998093E+01 0.  1.
       -5    1    3    3    0  502 -0.13980315138E+03  0.15894801483E+03 -0.12530365308E+02  0.21210490944E+03  0.46999998093E+01 0. -1.
</event>
<event>
 5   0  0.4631619E-02  0.4959152E+03  0.7818609E-02  0.1014851E+00
        2   -1    0    0  501    0  0.00000000000E+00  0.00000000000E+00  0.18267467989E+03  0.18267467991E+03  0.25500000920E-02 0. -1.
       -2   -1    0    0    0  501  0.00000000000E+00  0.00000000000E+00 -0.33657078326E+03  0.33657078327E+03  0.25500000920E-02 0.  1.
    10030    2    1    2    0    0  0.00000000000E+00  0.00000000000E+00 -0.15389610337E+03  0.51924546318E+03  0.49591515444E+03 0.  0.
        5    1    3    3  502    0  0.13736616721E+03  0.99840922265E+02  0.11216808457E+03  0.20357171426E+03  0.46999998093E+01 0. -1.
       -5    1    3    3    0  502 -0.13736616721E+03 -0.99840922265E+02 -0.26606418794E+03  0.31567374892E+03  0.46999998093E+01 0.  1.
</event>
<event>
 5   0  0.4409622E-02  0.4994480E+03  0.7818609E-02  0.1013923E+00
        2   -1    0    0  501    0  0.00000000000E+00  0.00000000000E+00  0.91559230272E+03  0.91559230272E+03  0.25500000920E-02 0. -1.
       -2   -1    0    0    0  501  0.00000000000E+00  0.00000000000E+00 -0.68111173397E+02  0.68111173445E+02  0.25500000920E-02 0.  1.
    10030    2    1    2    0    0  0.00000000000E+00  0.00000000000E+00  0.84748112932E+03  0.98370347617E+03  0.49944795972E+03 0.  0.
        3    1    3    3  502    0 -0.21743163399E+03  0.24200258951E+02  0.66090867069E+03  0.69617702432E+03  0.10100000352E+00 0. -1.
       -3    1    3    3    0  502  0.21743163399E+03 -0.24200258951E+02  0.18657245863E+03  0.28752645185E+03  0.10100000352E+00 0.  1.
</event>
<event>
 5   0  0.2643185E-02  0.4999359E+03  0.7818609E-02  0.1013796E+00
       -1   -1    0    0    0  501  0.00000000000E+00  0.00000000000E+00  0.21241132989E+03  0.21241132995E+03  0.50400001928E-02 0. -1.
        1   -1    0    0  501    0  0.00000000000E+00  0.00000000000E+00 -0.29416503109E+03  0.29416503113E+03  0.50400001928E-02 0.  1.
    10030    2    1    2    0    0  0.00000000000E+00  0.00000000000E+00 -0.81753701196E+02  0.50657636108E+03  0.49993593784E+03 0.  0.
        1    1    3    3  502    0 -0.22000906051E+03  0.67488902343E+02 -0.13977056332E+03  0.26924811800E+03  0.50400001928E-02 0.  1.
       -1    1    3    3    0  502  0.22000906051E+03 -0.67488902343E+02  0.58016862128E+02  0.23732824308E+03  0.50400001928E-02 0. -1.
</event>
<event>
 5   0  0.2719671E-02  0.4995079E+03  0.7818609E-02  0.1013907E+00
       -1   -1    0    0    0  501  0.00000000000E+00  0.00000000000E+00  0.34799827403E+03  0.34799827406E+03  0.50400001928E-02 0. -1.
        1   -1    0    0  501    0  0.00000000000E+00  0.00000000000E+00 -0.17924523620E+03  0.17924523627E+03  0.50400001928E-02 0.  1.
    10030    2    1    2    0    0  0.00000000000E+00  0.00000000000E+00  0.16875303783E+03  0.52724351033E+03  0.49950788924E+03 0.  0.
        2    1    3    3  502    0 -0.82013437778E+02 -0.10296022336E+03  0.30841178698E+03  0.33532796174E+03  0.25500000920E-02 0. -1.
       -2    1    3    3    0  502  0.82013437778E+02  0.10296022336E+03 -0.13965874915E+03  0.19191554859E+03  0.25500000920E-02 0.  1.
</event>
<event>
 5   0  0.2715483E-02  0.4988611E+03  0.7818609E-02  0.1014077E+00
       -1   -1    0    0    0  501  0.00000000000E+00  0.00000000000E+00  0.12843936078E+03  0.12843936087E+03  0.50400001928E-02 0.  1.
        1   -1    0    0  501    0  0.00000000000E+00  0.00000000000E+00 -0.48439676836E+03  0.48439676839E+03  0.50400001928E-02 0. -1.
    10030    2    1    2    0    0  0.00000000000E+00  0.00000000000E+00 -0.35595740759E+03  0.61283612926E+03  0.49886114833E+03 0.  0.
        5    1    3    3  502    0 -0.17983076145E+03 -0.33052935790E+02 -0.38631916963E+03  0.42742974879E+03  0.46999998093E+01 0. -1.
       -5    1    3    3    0  502  0.17983076145E+03  0.33052935790E+02  0.30361762040E+02  0.18540638048E+03  0.46999998093E+01 0.  1.
</event>
<event>
 5   0  0.4534223E-02  0.4941886E+03  0.7818609E-02  0.1015307E+00
        2   -1    0    0  501    0  0.00000000000E+00  0.00000000000E+00  0.54505472246E+03  0.54505472246E+03  0.25500000920E-02 0. -1.
       -2   -1    0    0    0  501  0.00000000000E+00  0.00000000000E+00 -0.11201737763E+03  0.11201737766E+03  0.25500000920E-02 0.  1.
    10030    2    1    2    0    0  0.00000000000E+00  0.00000000000E+00  0.43303734482E+03  0.65707210012E+03  0.49418863073E+03 0.  0.
        2    1    3    3  502    0  0.11076840877E+02  0.43725787118E+02 -0.10649686370E+03  0.11565562177E+03  0.25500000920E-02 0.  1.
       -2    1    3    3    0  502 -0.11076840877E+02 -0.43725787118E+02  0.53953420852E+03  0.54141647835E+03  0.25500000920E-02 0. -1.
</event>
<event>
 5   0  0.2779445E-02  0.4981536E+03  0.7818609E-02  0.1014262E+00
        1   -1    0    0  501    0  0.00000000000E+00  0.00000000000E+00  0.12571359026E+04  0.12571359026E+04  0.50400001928E-02 0.  1.
       -1   -1    0    0    0  501  0.00000000000E+00  0.00000000000E+00 -0.49349680482E+02  0.49349680739E+02  0.50400001928E-02 0. -1.
    10030    2    1    2    0    0  0.00000000000E+00  0.00000000000E+00  0.12077862221E+04  0.13064855833E+04  0.49815361201E+03 0.  0.
        3    1    3    3  502    0  0.21704057456E+03  0.77430701924E+02  0.35595679469E+03  0.42403699661E+03  0.10100000352E+00 0. -1.
       -3    1    3    3    0  502 -0.21704057456E+03 -0.77430701924E+02  0.85182942740E+03  0.88244858671E+03  0.10100000352E+00 0.  1.
</event>
<event>
 5   0  0.2723308E-02  0.4998566E+03  0.7818609E-02  0.1013816E+00
        1   -1    0    0  501    0  0.00000000000E+00  0.00000000000E+00  0.39894577805E+03  0.39894577809E+03  0.50400001928E-02 0. -1.
       -1   -1    0    0    0  501  0.00000000000E+00  0.00000000000E+00 -0.15657303062E+03  0.15657303070E+03  0.50400001928E-02 0.  1.
    10030    2    1    2    0    0  0.00000000000E+00  0.00000000000E+00  0.24237274744E+03  0.55551880879E+03  0.49985657765E+03 0.  0.
        4    1    3    3  502    0 -0.17669332871E+03  0.88358179523E+02  0.29131771233E+03  0.35198767410E+03  0.12699999809E+01 0.  1.
       -4    1    3    3    0  502  0.17669332871E+03 -0.88358179523E+02 -0.48944964889E+02  0.20353113469E+03  0.12699999809E+01 0. -1.
</event>
<event>
 5   0  0.4519539E-02  0.5006117E+03  0.7818609E-02  0.1013619E+00
        2   -1    0    0  501    0  0.00000000000E+00  0.00000000000E+00  0.29489115794E+03  0.29489115795E+03  0.25500000920E-02 0. -1.
       -2   -1    0    0    0  501  0.00000000000E+00  0.00000000000E+00 -0.21246152778E+03  0.21246152780E+03  0.25500000920E-02 0.  1.
    10030    2    1    2    0    0  0.00000000000E+00  0.00000000000E+00  0.82429630156E+02  0.50735268575E+03  0.50061172959E+03 0.  0.
        4    1    3    3  502    0  0.28333286961E+02  0.22075602916E+03 -0.74849826921E+02  0.23481931150E+03  0.12699999809E+01 0.  1.
       -4    1    3    3    0  502 -0.28333286961E+02 -0.22075602916E+03  0.15727945708E+03  0.27253337425E+03  0.12699999809E+01 0. -1.
</event>
<event>
 5   0  0.1805500E-02  0.4987623E+03  0.7818609E-02  0.1014102E+00
       -3   -1    0    0    0  501  0.00000000000E+00  0.00000000000E+00  0.10140425664E+03  0.10140430694E+03  0.10100000352E+00 0. -1.
        3   -1    0    0  501    0  0.00000000000E+00  0.00000000000E+00 -0.61329711536E+03  0.61329712367E+03  0.10100000352E+00 0.  1.
    10030    2    1    2    0    0  0.00000000000E+00  0.00000000000E+00 -0.51189285871E+03  0.71470143061E+03  0.49876230423E+03 0.  0.
        4    1    3    3  502    0 -0.22999911659E+03 -0.90913930659E+02 -0.30181000094E+03  0.39019972576E+03  0.12699999809E+01 0.  1.
       -4    1    3    3    0  502  0.22999911659E+03  0.90913930659E+02 -0.21008285778E+03  0.32450170485E+03  0.12699999809E+01 0. -1.
</event>
<event>
 5   0  0.2723308E-02  0.5055579E+03  0.7818609E-02  0.1012338E+00
        1   -1    0    0  501    0  0.00000000000E+00  0.00000000000E+00  0.80167464123E+03  0.80167464125E+03  0.50400001928E-02 0. -1.
       -1   -1    0    0    0  501  0.00000000000E+00  0.00000000000E+00 -0.79704663151E+02  0.79704663310E+02  0.50400001928E-02 0.  1.
    10030    2    1    2    0    0  0.00000000000E+00  0.00000000000E+00  0.72196997808E+03  0.88137930456E+03  0.50555793857E+03 0.  0.
        4    1    3    3  502    0 -0.72485038563E+02  0.10622591533E+01 -0.61187881687E+02  0.94872435276E+02  0.12699999809E+01 0.  1.
       -4    1    3    3    0  502  0.72485038563E+02 -0.10622591533E+01  0.78315785977E+03  0.78650686928E+03  0.12699999809E+01 0. -1.
</event>
<event>
 5   0  0.1805500E-02  0.4999399E+03  0.7818609E-02  0.1013795E+00
       -3   -1    0    0    0  501  0.00000000000E+00  0.00000000000E+00  0.25454860636E+03  0.25454862640E+03  0.10100000352E+00 0.  1.
        3   -1    0    0  501    0  0.00000000000E+00  0.00000000000E+00 -0.24547360641E+03  0.24547362719E+03  0.10100000352E+00 0. -1.
    10030    2    1    2    0    0  0.00000000000E+00  0.00000000000E+00  0.90749999538E+01  0.50002225359E+03  0.49993989485E+03 0.  0.
        3    1    3    3  502    0 -0.43948778793E+02 -0.10361707214E+03 -0.21869642754E+03  0.24595961135E+03  0.10100000352E+00 0. -1.
       -3    1    3    3    0  502  0.43948778793E+02  0.10361707214E+03  0.22777142749E+03  0.25406264224E+03  0.10100000352E+00 0.  1.
</event>
<event>
 5   0  0.2723308E-02  0.5001589E+03  0.7818609E-02  0.1013737E+00
       -1   -1    0    0    0  501  0.00000000000E+00  0.00000000000E+00  0.93905043762E+02  0.93905043897E+02  0.50400001928E-02 0.  1.
        1   -1    0    0  501    0  0.00000000000E+00  0.00000000000E+00 -0.66598913448E+03  0.66598913450E+03  0.50400001928E-02 0. -1.
    10030    2    1    2    0    0  0.00000000000E+00  0.00000000000E+00 -0.57208409072E+03  0.75989417840E+03  0.50015893025E+03 0.  0.
        4    1    3    3  502    0  0.42994741566E+02 -0.16597406830E+03 -0.56263153342E+03  0.58817666942E+03  0.12699999809E+01 0. -1.
       -4    1    3    3    0  502 -0.42994741566E+02  0.16597406830E+03 -0.94525573017E+01  0.17171750898E+03  0.12699999809E+01 0.  1.
</event>
<event>
 5   0  0.2643185E-02  0.5093133E+03  0.7818609E-02  0.1011376E+00
       -1   -1    0    0    0  501  0.00000000000E+00  0.00000000000E+00  0.38743463263E+02  0.38743463590E+02  0.50400001928E-02 0.  1.
        1   -1    0    0  501    0  0.00000000000E+00  0.00000000000E+00 -0.16738310976E+04  0.16738310976E+04  0.50400001928E-02 0. -1.
    10030    2    1    2    0    0  0.00000000000E+00  0.00000000000E+00 -0.16350876343E+04  0.17125745612E+04  0.50931331780E+03 0.  0.
        1    1    3    3  502    0 -0.20855461490E+02  0.84077144494E+02 -0.16227672228E+04  0.16250776523E+04  0.50400001928E-02 0. -1.
       -1    1    3    3    0  502  0.20855461490E+02 -0.84077144494E+02 -0.12320411502E+02  0.87496908889E+02  0.50400001928E-02 0.  1.
</event>
<event>
 5   0  0.4451135E-02  0.5028701E+03  0.7818609E-02  0.1013032E+00
       -2   -1    0    0    0  501  0.00000000000E+00  0.00000000000E+00  0.19454723989E+03  0.19454723991E+03  0.25500000920E-02 0.  1.
        2   -1    0    0  501    0  0.00000000000E+00  0.00000000000E+00 -0.32495748103E+03  0.32495748104E+03  0.25500000920E-02 0. -1.
    10030    2    1    2    0    0  0.00000000000E+00  0.00000000000E+00 -0.13041024114E+03  0.51950472095E+03  0.50287008670E+03 0.  0.
        1    1    3    3  502    0  0.13445111039E+03  0.99192060125E+02 -0.25931250427E+03  0.30847875255E+03  0.50400001928E-02 0. -1.
       -1    1    3    3    0  502 -0.13445111039E+03 -0.99192060125E+02  0.12890226313E+03  0.21102596841E+03  0.50400001928E-02 0.  1.
</event>
<event>
 5   0  0.2779445E-02  0.4995713E+03  0.7818609E-02  0.1013891E+00
        1   -1    0    0  501    0  0.00000000000E+00  0.00000000000E+00  0.84676399880E+02  0.84676400030E+02  0.50400001928E-02 0.  1.
       -1   -1    0    0    0  501  0.00000000000E+00  0.00000000000E+00 -0.73683888453E+03  0.73683888455E+03  0.50400001928E-02 0. -1.
    10030    2    1    2    0    0  0.00000000000E+00  0.00000000000E+00 -0.65216248465E+03  0.82151528458E+03  0.49957127260E+03 0.  0.
        3    1    3    3  502    0 -0.96769788859E+02  0.33710891393E+02  0.48519431007E+02  0.11337972315E+03  0.10100000352E+00 0.  1.
       -3    1    3    3    0  502  0.96769788859E+02 -0.33710891393E+02 -0.70068191566E+03  0.70813556143E+03  0.10100000352E+00 0. -1.
</event>
<event>
 5   0  0.4534223E-02  0.4957393E+03  0.7818609E-02  0.1014897E+00
        2   -1    0    0  501    0  0.00000000000E+00  0.00000000000E+00  0.33234630765E+03  0.33234630766E+03  0.25500000920E-02 0.  1.
       -2   -1    0    0    0  501  0.00000000000E+00  0.00000000000E+00 -0.18486550200E+03  0.18486550202E+03  0.25500000920E-02 0. -1.
    10030    2    1    2    0    0  0.00000000000E+00  0.00000000000E+00  0.14748080565E+03  0.51721180968E+03  0.49573931460E+03 0.  0.
        2    1    3    3  502    0 -0.33298827345E+02  0.61822165434E+02  0.32175214804E+03  0.32932542692E+03  0.25500000920E-02 0.  1.
       -2    1    3    3    0  502  0.33298827345E+02 -0.61822165434E+02 -0.17427134239E+03  0.18788638276E+03  0.25500000920E-02 0. -1.
</event>
<event>
 5   0  0.4409622E-02  0.5056056E+03  0.7818609E-02  0.1012326E+00
       -2   -1    0    0    0  501  0.00000000000E+00  0.00000000000E+00  0.45865885255E+03  0.45865885256E+03  0.25500000920E-02 0. -1.
        2   -1    0    0  501    0  0.00000000000E+00  0.00000000000E+00 -0.13933942905E+03  0.13933942908E+03  0.25500000920E-02 0.  1.
    10030    2    1    2    0    0  0.00000000000E+00  0.00000000000E+00  0.31931942349E+03  0.59799828163E+03  0.50560562756E+03 0.  0.
        3    1    3    3  502    0 -0.16004817895E+03 -0.19465057361E+03  0.13585797700E+03  0.28628947851E+03  0.10100000352E+00 0. -1.
       -3    1    3    3    0  502  0.16004817895E+03  0.19465057361E+03  0.18346144650E+03  0.31170880312E+03  0.10100000352E+00 0.  1.
</event>
<event>
 5   0  0.2715483E-02  0.4948022E+03  0.7818609E-02  0.1015145E+00
       -1   -1    0    0    0  501  0.00000000000E+00  0.00000000000E+00  0.11615019376E+03  0.11615019387E+03  0.50400001928E-02 0. -1.
        1   -1    0    0  501    0  0.00000000000E+00  0.00000000000E+00 -0.52696688979E+03  0.52696688982E+03  0.50400001928E-02 0.  1.
    10030    2    1    2    0    0  0.00000000000E+00  0.00000000000E+00 -0.41081669604E+03  0.64311708369E+03  0.49480220855E+03 0.  0.
        5    1    3    3  502    0  0.17209207678E+03  0.91122079221E+02 -0.40366240369E+03  0.44820122977E+03  0.46999998093E+01 0.  1.
       -5    1    3    3    0  502 -0.17209207678E+03 -0.91122079221E+02 -0.71542923436E+01  0.19491585392E+03  0.46999998093E+01 0. -1.
</event>
<event>
 5   0  0.2715483E-02  0.4923271E+03  0.7818609E-02  0.1015801E+00
       -1   -1    0    0    0  501  0.00000000000E+00  0.00000000000E+00  0.11344824056E+04  0.11344824056E+04  0.50400001928E-02 0.  1.
        1   -1    0    0  501    0  0.00000000000E+00  0.00000000000E+00 -0.53413336239E+02  0.53413336477E+02  0.50400001928E-02 0. -1.
    10030    2    1    2    0    0  0.00000000000E+00  0.00000000000E+00  0.10810690694E+04  0.11878957421E+04  0.49232708776E+03 0.  0.
        5    1    3    3  502    0  0.21684240067E+03  0.49583483014E+02  0.79468632670E+03  0.82524396172E+03  0.46999998093E+01 0.  1.
       -5    1    3    3    0  502 -0.21684240067E+03 -0.49583483014E+02  0.28638274269E+03  0.36265178040E+03  0.46999998093E+01 0. -1.
</event>
<event>
 5   0  0.4519539E-02  0.5005175E+03  0.7818609E-02  0.1013644E+00
        2   -1    0    0  501    0  0.00000000000E+00  0.00000000000E+00  0.34132970711E+03  0.34132970712E+03  0.25500000920E-02 0.  1.
       -2   -1    0    0    0  501  0.00000000000E+00  0.00000000000E+00 -0.18348663582E+03  0.18348663584E+03  0.25500000920E-02 0. -1.
    10030    2    1    2    0    0  0.00000000000E+00  0.00000000000E+00  0.15784307129E+03  0.52481634296E+03  0.50051749088E+03 0.  0.
        4    1    3    3  502    0  0.16978971125E+03  0.16753249517E+03 -0.46495973170E+00  0.23853199381E+03  0.12699999809E+01 0.  1.
       -4    1    3    3    0  502 -0.16978971125E+03 -0.16753249517E+03  0.15830803103E+03  0.28628434915E+03  0.12699999809E+01 0. -1.
</event>
<event>
 5   0  0.4519539E-02  0.4991307E+03  0.7818609E-02  0.1014006E+00
       -2   -1    0    0    0  501  0.00000000000E+00  0.00000000000E+00  0.39136771808E+02  0.39136771891E+02  0.25500000920E-02 0. -1.
        2   -1    0    0  501    0  0.00000000000E+00  0.00000000000E+00 -0.15914152034E+04  0.15914152034E+04  0.25500000920E-02 0.  1.
    10030    2    1    2    0    0  0.00000000000E+00  0.00000000000E+00 -0.15522784315E+04  0.16305519752E+04  0.49913065918E+03 0.  0.
        4    1    3    3  502    0  0.11385137418E+03 -0.22207344554E+03 -0.77098409495E+03  0.81036833488E+03  0.12699999809E+01 0. -1.
       -4    1    3    3    0  502 -0.11385137418E+03  0.22207344554E+03 -0.78129433660E+03  0.82018364036E+03  0.12699999809E+01 0.  1.
</event>
<event>
 5   0  0.4534223E-02  0.5019736E+03  0.7818609E-02  0.1013265E+00
        2   -1    0    0  501    0  0.00000000000E+00  0.00000000000E+00  0.64820468955E+03  0.64820468955E+03  0.25500000920E-02 0. -1.
       -2   -1    0    0    0  501  0.00000000000E+00  0.00000000000E+00 -0.97182835354E+02  0.97182835388E+02  0.25500000920E-02 0.  1.
    10030    2    1    2    0    0  0.00000000000E+00  0.00000000000E+00  0.55102185419E+03  0.74538752494E+03  0.50197358351E+03 0.  0.
        2    1    3    3  502    0 -0.15435840886E+03  0.16244361499E+03  0.44337794637E+03  0.49678813368E+03  0.25500000920E-02 0. -1.
       -2    1    3    3    0  502  0.15435840886E+03 -0.16244361499E+03  0.10764390783E+03  0.24859939126E+03  0.25500000920E-02 0.  1.
</event>
<event>
 5   0  0.2779445E-02  0.5002539E+03  0.7818609E-02  0.1013713E+00
       -1   -1    0    0    0  501  0.00000000000E+00  0.00000000000E+00  0.11111529065E+04  0.11111529065E+04  0.50400001928E-02 0. -1.
        1   -1    0    0  501    0  0.00000000000E+00  0.00000000000E+00 -0.56305028814E+02  0.56305029040E+02  0.50400001928E-02 0.  1.
    10030    2    1    2    0    0  0.00000000000E+00  0.00000000000E+00  0.10548478776E+04  0.11674579355E+04  0.50025392174E+03 0.  0.
        3    1    3    3  502    0  0.48823807424E+02  0.92885664654E+02 -0.24510197881E+01  0.10496441573E+03  0.10100000352E+00 0.  1.
       -3    1    3    3    0  502 -0.48823807424E+02 -0.92885664654E+02  0.10572988974E+04  0.10624935198E+04  0.10100000352E+00 0. -1.
</event>
<event>
 5   0  0.4409622E-02  0.5006526E+03  0.7818609E-02  0.1013609E+00
        2   -1    0    0  501    0  0.00000000000E+00  0.00000000000E+00  0.35001379405E+03  0.35001379406E+03  0.25500000920E-02 0. -1.
       -2   -1    0    0    0  501  0.00000000000E+00  0.00000000000E+00 -0.17903081094E+03  0.17903081096E+03  0.25500000920E-02 0.  1.
    10030    2    1    2    0    0  0.00000000000E+00  0.00000000000E+00  0.17098298311E+03  0.52904460502E+03  0.50065258772E+03 0.  0.
        3    1    3    3  502    0 -0.23351014985E+02  0.14667155113E+03 -0.12744391362E+03  0.19570328339E+03  0.10100000352E+00 0.  1.
       -3    1    3    3    0  502  0.23351014985E+02 -0.14667155113E+03  0.29842689673E+03  0.33334132163E+03  0.10100000352E+00 0. -1.
</event>
<event>
 5   0  0.2715483E-02  0.5016204E+03  0.7818609E-02  0.1013357E+00
       -1   -1    0    0    0  501  0.00000000000E+00  0.00000000000E+00  0.64693838288E+02  0.64693838485E+02  0.50400001928E-02 0. -1.
        1   -1    0    0  501    0  0.00000000000E+00  0.00000000000E+00 -0.97236080818E+03  0.97236080820E+03  0.50400001928E-02 0.  1.
    10030    2    1    2    0    0  0.00000000000E+00  0.00000000000E+00 -0.90766696989E+03  0.10370546467E+04  0.50162038631E+03 0.  0.
        5    1    3    3  502    0  0.69440728650E+01  0.12498087397E+03 -0.46047888524E+01  0.12534645223E+03  0.46999998093E+01 0. -1.
       -5    1    3    3    0  502 -0.69440728650E+01 -0.12498087397E+03 -0.90306218104E+03  0.91170819445E+03  0.46999998093E+01 0.  1.
</event>
<event>
 5   0  0.2779445E-02  0.4997979E+03  0.7818609E-02  0.1013832E+00
        1   -1    0    0  501    0  0.00000000000E+00  0.00000000000E+00  0.98513928814E+03  0.98513928815E+03  0.50400001928E-02 0.  1.
       -1   -1    0    0    0  501  0.00000000000E+00  0.00000000000E+00 -0.63391538039E+02  0.63391538240E+02  0.50400001928E-02 0. -1.
    10030    2    1    2    0    0  0.00000000000E+00  0.00000000000E+00  0.92174775010E+03  0.10485308264E+04  0.49979793825E+03 0.  0.
        3    1    3    3  502    0  0.90736476949E+02  0.19335462456E+03  0.18870809702E+03  0.28500855280E+03  0.10100000352E+00 0. -1.
       -3    1    3    3    0  502 -0.90736476949E+02 -0.19335462456E+03  0.73303965307E+03  0.76352227359E+03  0.10100000352E+00 0.  1.
</event>
<event>
 5   0  0.2715483E-02  0.5068822E+03  0.7818609E-02  0.1011998E+00
       -1   -1    0    0    0  501  0.00000000000E+00  0.00000000000E+00  0.16592349430E+03  0.16592349438E+03  0.50400001928E-02 0.  1.
        1   -1    0    0  501    0  0.00000000000E+00  0.00000000000E+00 -0.38712045631E+03  0.38712045635E+03  0.50400001928E-02 0. -1.
    10030    2    1    2    0    0  0.00000000000E+00  0.00000000000E+00 -0.22119696201E+03  0.55304395072E+03  0.50688215142E+03 0.  0.
        5    1    3    3  502    0  0.10452829432E+03 -0.22620129197E+03 -0.60396212813E+02  0.25644293970E+03  0.46999998093E+01 0.  1.
       -5    1    3    3    0  502 -0.10452829432E+03  0.22620129197E+03 -0.16080074920E+03  0.29660101103E+03  0.46999998093E+01 0. -1.
</event>
<event>
 5   0  0.4519539E-02  0.5004578E+03  0.7818609E-02  0.1013659E+00
       -2   -1    0    0    0  501  0.00000000000E+00  0.00000000000E+00  0.77116078047E+02  0.77116078089E+02  0.25500000920E-02 0.  1.
        2   -1    0    0  501    0  0.00000000000E+00  0.00000000000E+00 -0.81195125495E+03  0.81195125496E+03  0.25500000920E-02 0. -1.
    10030    2    1    2    0    0  0.00000000000E+00  0.00000000000E+00 -0.73483517691E+03  0.88906733305E+03  0.50045777591E+03 0.  0.
        4    1    3    3  502    0  0.79185605730E+02  0.18559470294E+03 -0.10453561541E+03  0.22725549873E+03  0.12699999809E+01 0.  1.
       -4    1    3    3    0  502 -0.79185605730E+02 -0.18559470294E+03 -0.63029956149E+03  0.66181183431E+03  0.12699999809E+01 0. -1.
</event>
<event>
 5   0  0.2719671E-02  0.4963746E+03  0.7818609E-02  0.1014730E+00
       -1   -1    0    0    0  501  0.00000000000E+00  0.00000000000E+00  0.23933996986E+03  0.23933996992E+03  0.50400001928E-02 0. -1.
        1   -1    0    0  501    0  0.00000000000E+00  0.00000000000E+00 -0.25736162609E+03  0.25736162614E+03  0.50400001928E-02 0.  1.
    10030    2    1    2    0    0  0.00000000000E+00  0.00000000000E+00 -0.18021656226E+02  0.49670159605E+03  0.49637455155E+03 0.  0.
        2    1    3    3  502    0  0.21035947346E+03  0.63743085532E+02 -0.12433707644E+03  0.25253514134E+03  0.25500000920E-02 0.  1.
       -2    1    3    3    0  502 -0.21035947346E+03 -0.63743085532E+02  0.10631542022E+03  0.24416645472E+03  0.25500000920E-02 0. -1.
</event>
<event>
 5   0  0.2779445E-02  0.5008553E+03  0.7818609E-02  0.1013556E+00
       -1   -1    0    0    0  501  0.00000000000E+00  0.00000000000E+00  0.11413752893E+04  0.11413752893E+04  0.50400001928E-02 0. -1.
        1   -1    0    0  501    0  0.00000000000E+00  0.00000000000E+00 -0.54946007236E+02  0.54946007467E+02  0.50400001928E-02 0.  1.
    10030    2    1    2    0    0  0.00000000000E+00  0.00000000000E+00  0.10864292820E+04  0.11963212967E+04  0.50085532860E+03 0.  0.
        3    1    3    3  502    0  0.16719109671E+03  0.14920976404E+03  0.81023762395E+03  0.84065535980E+03  0.10100000352E+00 0. -1.
       -3    1    3    3    0  502 -0.16719109671E+03 -0.14920976404E+03  0.27619165807E+03  0.35566593693E+03  0.10100000352E+00 0.  1.
</event>
<event>
 5   0  0.4534223E-02  0.4958005E+03  0.7818609E-02  0.1014881E+00
       -2   -1    0    0    0  501  0.00000000000E+00  0.00000000000E+00  0.43845853659E+03  0.43845853660E+03  0.25500000920E-02 0. -1.
        2   -1    0    0  501    0  0.00000000000E+00  0.00000000000E+00 -0.14016040540E+03  0.14016040542E+03  0.25500000920E-02 0.  1.
    10030    2    1    2    0    0  0.00000000000E+00  0.00000000000E+00  0.29829813120E+03  0.57861894202E+03  0.49580046893E+03 0.  0.
        2    1    3    3  502    0 -0.66152852320E+02  0.22601647676E+02  0.42671692448E+03  0.43240532835E+03  0.25500000920E-02 0. -1.
       -2    1    3    3    0  502  0.66152852320E+02 -0.22601647676E+02 -0.12841879328E+03  0.14621361367E+03  0.25500000920E-02 0.  1.
</event>
<event>
 5   0  0.2779445E-02  0.4968970E+03  0.7818609E-02  0.1014592E+00
        1   -1    0    0  501    0  0.00000000000E+00  0.00000000000E+00  0.20983933831E+03  0.20983933837E+03  0.50400001928E-02 0. -1.
       -1   -1    0    0    0  501  0.00000000000E+00  0.00000000000E+00 -0.29416155567E+03  0.29416155571E+03  0.50400001928E-02 0.  1.
    10030    2    1    2    0    0  0.00000000000E+00  0.00000000000E+00 -0.84322217357E+02  0.50400089408E+03  0.49689703651E+03 0.  0.
        3    1    3    3  502    0 -0.14609449134E+03 -0.16581092359E+03 -0.15731745464E+03  0.27126675896E+03  0.10100000352E+00 0. -1.
       -3    1    3    3    0  502  0.14609449134E+03  0.16581092359E+03  0.72995237281E+02  0.23273413512E+03  0.10100000352E+00 0.  1.
</event>
<event>
 5   0  0.4519539E-02  0.4996199E+03  0.7818609E-02  0.1013878E+00
       -2   -1    0    0    0  501  0.00000000000E+00  0.00000000000E+00  0.70169951129E+02  0.70169951176E+02  0.25500000920E-02 0. -1.
        2   -1    0    0  501    0  0.00000000000E+00  0.00000000000E+00 -0.88934099806E+03  0.88934099806E+03  0.25500000920E-02 0.  1.
    10030    2    1    2    0    0  0.00000000000E+00  0.00000000000E+00 -0.81917104693E+03  0.95951094924E+03  0.49961991311E+03 0.  0.
        4    1    3    3  502    0 -0.13017929525E+03  0.79771572310E+02 -0.78930342957E+03  0.80393511523E+03  0.12699999809E+01 0.  1.
       -4    1    3    3    0  502  0.13017929525E+03 -0.79771572310E+02 -0.29867617356E+02  0.15557583401E+03  0.12699999809E+01 0. -1.
</event>
<event>
 5   0  0.4451135E-02  0.4970495E+03  0.7818609E-02  0.1014552E+00
        2   -1    0    0  501    0  0.00000000000E+00  0.00000000000E+00  0.12618115841E+03  0.12618115844E+03  0.25500000920E-02 0.  1.
       -2   -1    0    0    0  501  0.00000000000E+00  0.00000000000E+00 -0.48949115725E+03  0.48949115726E+03  0.25500000920E-02 0. -1.
    10030    2    1    2    0    0  0.00000000000E+00  0.00000000000E+00 -0.36330999884E+03  0.61567231570E+03  0.49704953985E+03 0.  0.
        1    1    3    3  502    0  0.14887475358E+03  0.14207388555E+03 -0.35425011036E+03  0.40968502771E+03  0.50400001928E-02 0. -1.
       -1    1    3    3    0  502 -0.14887475358E+03 -0.14207388555E+03 -0.90598884755E+01  0.20598728799E+03  0.50400001928E-02 0.  1.
</event>
<event>
 5   0  0.4409622E-02  0.4993325E+03  0.7818609E-02  0.1013953E+00
        2   -1    0    0  501    0  0.00000000000E+00  0.00000000000E+00  0.69986860936E+03  0.69986860937E+03  0.25500000920E-02 0.  1.
       -2   -1    0    0    0  501  0.00000000000E+00  0.00000000000E+00 -0.89064213764E+02  0.89064213801E+02  0.25500000920E-02 0. -1.
    10030    2    1    2    0    0  0.00000000000E+00  0.00000000000E+00  0.61080439560E+03  0.78893282317E+03  0.49933254429E+03 0.  0.
        3    1    3    3  502    0 -0.18275267332E+03  0.30299861723E+02  0.56986097873E+03  0.59921462475E+03  0.10100000352E+00 0.  1.
       -3    1    3    3    0  502  0.18275267332E+03 -0.30299861723E+02  0.40943416867E+02  0.18971819842E+03  0.10100000352E+00 0. -1.
</event>
<event>
 5   0  0.4409622E-02  0.4956211E+03  0.7818609E-02  0.1014928E+00
        2   -1    0    0  501    0  0.00000000000E+00  0.00000000000E+00  0.90930853537E+03  0.90930853537E+03  0.25500000920E-02 0. -1.
       -2   -1    0    0    0  501  0.00000000000E+00  0.00000000000E+00 -0.67534910996E+02  0.67534911044E+02  0.25500000920E-02 0.  1.
    10030    2    1    2    0    0  0.00000000000E+00  0.00000000000E+00  0.84177362437E+03  0.97684344642E+03  0.49562110943E+03 0.  0.
        3    1    3    3  502    0 -0.12252080156E+03 -0.20949349404E+03  0.51965451566E+03  0.57353264659E+03  0.10100000352E+00 0. -1.
       -3    1    3    3    0  502  0.12252080156E+03  0.20949349404E+03  0.32211910871E+03  0.40331079982E+03  0.10100000352E+00 0.  1.
</event>
<event>
 5   0  0.4631619E-02  0.5016533E+03  0.7818609E-02  0.1013348E+00
       -2   -1    0    0    0  501  0.00000000000E+00  0.00000000000E+00  0.50067046240E+03  0.50067046240E+03  0.25500000920E-02 0. -1.
        2   -1    0    0  501    0  0.00000000000E+00  0.00000000000E+00 -0.12565953179E+03  0.12565953182E+03  0.25500000920E-02 0.  1.
    10030    2    1    2    0    0  0.00000000000E+00  0.00000000000E+00  0.37501093060E+03  0.62632999422E+03  0.50165333009E+03 0.  0.
        5    1    3    3  502    0 -0.12087652409E+03  0.57357367786E+02  0.45233228657E+03  0.47172830018E+03  0.46999998093E+01 0. -1.
       -5    1    3    3    0  502  0.12087652409E+03 -0.57357367786E+02 -0.77321355971E+02  0.15460169405E+03  0.46999998093E+01 0.  1.
</event>
<event>
 5   0  0.1805500E-02  0.5008758E+03  0.7818609E-02  0.1013551E+00
        3   -1    0    0  501    0  0.00000000000E+00  0.00000000000E+00  0.61870700399E+03  0.61870701223E+03  0.10100000352E+00 0. -1.
       -3   -1    0    0    0  501  0.00000000000E+00  0.00000000000E+00 -0.10137128114E+03  0.10137133146E+03  0.10100000352E+00 0.  1.
    10030    2    1    2    0    0  0.00000000000E+00  0.00000000000E+00  0.51733572284E+03  0.72007834369E+03  0.50087580389E+03 0.  0.
        5    1    3    3  502    0 -0.14396123304E+03 -0.85315972352E+02  0.52644477717E+03  0.55242180005E+03  0.46999998093E+01 0. -1.
       -5    1    3    3    0  502  0.14396123304E+03  0.85315972352E+02 -0.91090543287E+01  0.16765654364E+03  0.46999998093E+01 0.  1.
</event>
<event>
 5   0  0.2779445E-02  0.5004650E+03  0.7818609E-02  0.1013658E+00
        1   -1    0    0  501    0  0.00000000000E+00  0.00000000000E+00  0.98125093502E+03  0.98125093503E+03  0.50400001928E-02 0. -1.
       -1   -1    0    0    0  501  0.00000000000E+00  0.00000000000E+00 -0.63812729609E+02  0.63812729809E+02  0.50400001928E-02 0.  1.
    10030    2    1    2    0    0  0.00000000000E+00  0.00000000000E+00  0.91743820541E+03  0.10450636648E+04  0.50046498661E+03 0.  0.
        3    1    3    3  502    0  0.12713716293E+02  0.24822694719E+03  0.51916962073E+03  0.57560000103E+03  0.10100000352E+00 0.  1.
       -3    1    3    3    0  502 -0.12713716293E+02 -0.24822694719E+03  0.39826858467E+03  0.46946366381E+03  0.10100000352E+00 0. -1.
</event>
<event>
 5   0  0.2723308E-02  0.5000370E+03  0.7818609E-02  0.1013769E+00
        1   -1    0    0  501    0  0.00000000000E+00  0.00000000000E+00  0.10610072989E+04  0.10610072989E+04  0.50400001928E-02 0.  1.
       -1   -1    0    0    0  501  0.00000000000E+00  0.00000000000E+00 -0.58915010392E+02  0.58915010607E+02  0.50400001928E-02 0. -1.
    10030    2    1    2    0    0  0.00000000000E+00  0.00000000000E+00  0.10020922885E+04  0.11199223095E+04  0.50003702330E+03 0.  0.
        4    1    3    3  502    0 -0.16183951835E+03  0.35576462166E+02  0.92035043411E+03  0.93514931900E+03  0.12699999809E+01 0.  1.
       -4    1    3    3    0  502  0.16183951835E+03 -0.35576462166E+02  0.81741854375E+02  0.18477299050E+03  0.12699999809E+01 0. -1.
</event>
<event>
 5   0  0.4519539E-02  0.5003892E+03  0.7818609E-02  0.1013677E+00
       -2   -1    0    0    0  501  0.00000000000E+00  0.00000000000E+00  0.18451473720E+03  0.18451473722E+03  0.25500000920E-02 0.  1.
        2   -1    0    0  501    0  0.00000000000E+00  0.00000000000E+00 -0.33925390095E+03  0.33925390096E+03  0.25500000920E-02 0. -1.
    10030    2    1    2    0    0  0.00000000000E+00  0.00000000000E+00 -0.15473916375E+03  0.52376863819E+03  0.50038922605E+03 0.  0.
        4    1    3    3  502    0 -0.19267670515E+03 -0.15516641025E+03 -0.38277561316E+02  0.25033519964E+03  0.12699999809E+01 0. -1.
       -4    1    3    3    0  502  0.19267670515E+03  0.15516641025E+03 -0.11646160243E+03  0.27343343855E+03  0.12699999809E+01 0.  1.
</event>
<event>
 5   0  0.2779445E-02  0.4989295E+03  0.7818609E-02  0.1014059E+00
       -1   -1    0    0    0  501  0.00000000000E+00  0.00000000000E+00  0.72582749690E+02  0.72582749865E+02  0.50400001928E-02 0. -1.
        1   -1    0    0  501    0  0.00000000000E+00  0.00000000000E+00 -0.85740285421E+03  0.85740285422E+03  0.50400001928E-02 0.  1.
    10030    2    1    2    0    0  0.00000000000E+00  0.00000000000E+00 -0.78482010452E+03  0.92998560409E+03  0.49892948134E+03 0.  0.
        3    1    3    3  502    0 -0.15641289669E+03  0.58246607275E+02 -0.73799778539E+03  0.75663624216E+03  0.10100000352E+00 0.  1.
       -3    1    3    3    0  502  0.15641289669E+03 -0.58246607275E+02 -0.46822319130E+02  0.17334936193E+03  0.10100000352E+00 0. -1.
</event>
<event>
 5   0  0.2719671E-02  0.4985515E+03  0.7818609E-02  0.1014158E+00
       -1   -1    0    0    0  501  0.00000000000E+00  0.00000000000E+00  0.10803081366E+03  0.10803081377E+03  0.50400001928E-02 0.  1.
        1   -1    0    0  501    0  0.00000000000E+00  0.00000000000E+00 -0.57519151413E+03  0.57519151415E+03  0.50400001928E-02 0. -1.
    10030    2    1    2    0    0  0.00000000000E+00  0.00000000000E+00 -0.46716070047E+03  0.68322232793E+03  0.49855153125E+03 0.  0.
        2    1    3    3  502    0 -0.13754717488E+03  0.12340657699E+03 -0.46285362594E+03  0.49837926082E+03  0.25500000920E-02 0. -1.
       -2    1    3    3    0  502  0.13754717488E+03 -0.12340657699E+03 -0.43070745320E+01  0.18484306711E+03  0.25500000920E-02 0.  1.
</event>
<event>
 5   0  0.2779445E-02  0.4989967E+03  0.7818609E-02  0.1014041E+00
        1   -1    0    0  501    0  0.00000000000E+00  0.00000000000E+00  0.43722614811E+03  0.43722614814E+03  0.50400001928E-02 0.  1.
       -1   -1    0    0    0  501  0.00000000000E+00  0.00000000000E+00 -0.14237350209E+03  0.14237350218E+03  0.50400001928E-02 0. -1.
    10030    2    1    2    0    0  0.00000000000E+00  0.00000000000E+00  0.29485264602E+03  0.57959965032E+03  0.49899666510E+03 0.  0.
        3    1    3    3  502    0 -0.13818509089E+03 -0.16564558663E+03  0.29303897300E+03  0.36387556886E+03  0.10100000352E+00 0.  1.
       -3    1    3    3    0  502  0.13818509089E+03  0.16564558663E+03  0.18136730268E+01  0.21572408147E+03  0.10100000352E+00 0. -1.
</event>
<event>
 5   0  0.2643185E-02  0.4995906E+03  0.7818609E-02  0.1013886E+00
        1   -1    0    0  501    0  0.00000000000E+00  0.00000000000E+00  0.33545322433E+03  0.33545322437E+03  0.50400001928E-02 0. -1.
       -1   -1    0    0    0  501  0.00000000000E+00  0.00000000000E+00 -0.18601009294E+03  0.18601009301E+03  0.50400001928E-02 0.  1.
    10030    2    1    2    0    0  0.00000000000E+00  0.00000000000E+00  0.14944313139E+03  0.52146331738E+03  0.49959057422E+03 0.  0.
        1    1    3    3  502    0 -0.17126644693E+03  0.11447418574E+03 -0.72747969216E+02  0.21846922460E+03  0.50400001928E-02 0.  1.
       -1    1    3    3    0  502  0.17126644693E+03 -0.11447418574E+03  0.22219110061E+03  0.30299409278E+03  0.50400001928E-02 0. -1.
</event>
<event>
 5   0  0.2715483E-02  0.5157291E+03  0.7818609E-02  0.1009753E+00
       -1   -1    0    0    0  501  0.00000000000E+00  0.00000000000E+00  0.39889126204E+03  0.39889126208E+03  0.50400001928E-02 0.  1.
        1   -1    0    0  501    0  0.00000000000E+00  0.00000000000E+00 -0.16669736495E+03  0.16669736503E+03  0.50400001928E-02 0. -1.
    10030    2    1    2    0    0  0.00000000000E+00  0.00000000000E+00  0.23219389709E+03  0.56558862710E+03  0.51572908514E+03 0.  0.
        5    1    3    3  502    0  0.17546999625E+03 -0.18425665776E+03  0.70458853303E+02  0.26405828054E+03  0.46999998093E+01 0.  1.
       -5    1    3    3    0  502 -0.17546999625E+03  0.18425665776E+03  0.16173504379E+03  0.30153034657E+03  0.46999998093E+01 0. -1.
</event>
<event>
 5   0  0.1805500E-02  0.5000976E+03  0.7818609E-02  0.1013753E+00
        4   -1    0    0  501    0  0.00000000000E+00  0.00000000000E+00  0.16954689174E+03  0.16955164817E+03  0.12699999809E+01 0.  1.
       -4   -1    0    0    0  501  0.00000000000E+00  0.00000000000E+00 -0.36876244168E+03  0.36876462858E+03  0.12699999809E+01 0. -1.
    10030    2    1    2    0    0  0.00000000000E+00  0.00000000000E+00 -0.19921554994E+03  0.53831627675E+03  0.50009756896E+03 0.  0.
        5    1    3    3  502    0 -0.17204003822E+03  0.16587161949E+03 -0.17864340154E+03  0.29840697682E+03  0.46999998093E+01 0. -1.
       -5    1    3    3    0  502  0.17204003822E+03 -0.16587161949E+03 -0.20572148402E+02  0.23990929993E+03  0.46999998093E+01 0.  1.
</event>
<event>
 5   0  0.2715483E-02  0.4991998E+03  0.7818609E-02  0.1013988E+00
        1   -1    0    0  501    0  0.00000000000E+00  0.00000000000E+00  0.40407839920E+03  0.40407839923E+03  0.50400001928E-02 0. -1.
       -1   -1    0    0    0  501  0.00000000000E+00  0.00000000000E+00 -0.15417824713E+03  0.15417824721E+03  0.50400001928E-02 0.  1.
    10030    2    1    2    0    0  0.00000000000E+00  0.00000000000E+00  0.24990015207E+03  0.55825664644E+03  0.49919975690E+03 0.  0.
        5    1    3    3  502    0  0.92700545904E+02  0.86175261651E+02 -0.11557205318E+03  0.17146007234E+03  0.46999998093E+01 0.  1.
       -5    1    3    3    0  502 -0.92700545904E+02 -0.86175261651E+02  0.36547220525E+03  0.38679657411E+03  0.46999998093E+01 0. -1.
</event>
<event>
 5   0  0.1805500E-02  0.4999717E+03  0.7818609E-02  0.1013786E+00
       -4   -1    0    0    0  501  0.00000000000E+00  0.00000000000E+00  0.49832268600E+03  0.49832430433E+03  0.12699999809E+01 0.  1.
        4   -1    0    0  501    0  0.00000000000E+00  0.00000000000E+00 -0.12540148090E+03  0.12540791168E+03  0.12699999809E+01 0. -1.
    10030    2    1    2    0    0  0.00000000000E+00  0.00000000000E+00  0.37292120511E+03  0.62373221601E+03  0.49997165126E+03 0.  0.
        1    1    3    3  502    0  0.24052974728E+03 -0.57758535959E+02  0.14144021999E+03  0.28494901941E+03  0.50400001928E-02 0.  1.
       -1    1    3    3    0  502 -0.24052974728E+03  0.57758535959E+02  0.23148098512E+03  0.33878319660E+03  0.50400001928E-02 0. -1.
</event>
<event>
 5   0  0.4631619E-02  0.5008325E+03  0.7818609E-02  0.1013562E+00
        2   -1    0    0  501    0  0.00000000000E+00  0.00000000000E+00  0.59891097712E+03  0.59891097712E+03  0.25500000920E-02 0. -1.
       -2   -1    0    0    0  501  0.00000000000E+00  0.00000000000E+00 -0.10470385611E+03  0.10470385614E+03  0.25500000920E-02 0.  1.
    10030    2    1    2    0    0  0.00000000000E+00  0.00000000000E+00  0.49420712101E+03  0.70361483326E+03  0.50083246214E+03 0.  0.
        5    1    3    3  502    0  0.67022009401E+02  0.18104073659E+03  0.47108781076E+03  0.50913015378E+03  0.46999998093E+01 0. -1.
       -5    1    3    3    0  502 -0.67022009401E+02 -0.18104073659E+03  0.23119310251E+02  0.19448467948E+03  0.46999998093E+01 0.  1.
</event>
<event>
 5   0  0.2643185E-02  0.4978224E+03  0.7818609E-02  0.1014349E+00
        1   -1    0    0  501    0  0.00000000000E+00  0.00000000000E+00  0.28338090318E+03  0.28338090322E+03  0.50400001928E-02 0.  1.
       -1   -1    0    0    0  501  0.00000000000E+00  0.00000000000E+00 -0.21863434037E+03  0.21863434043E+03  0.50400001928E-02 0. -1.
    10030    2    1    2    0    0  0.00000000000E+00  0.00000000000E+00  0.64746562805E+02  0.50201524366E+03  0.49782244572E+03 0.  0.
        1    1    3    3  502    0 -0.14948262126E+03 -0.16186200363E+03 -0.84414185457E+02  0.23594515679E+03  0.50400001928E-02 0. -1.
       -1    1    3    3    0  502  0.14948262126E+03  0.16186200363E+03  0.14916074826E+03  0.26607008687E+03  0.50400001928E-02 0.  1.
</event>
<event>
 5   0  0.4631619E-02  0.4982426E+03  0.7818609E-02  0.1014239E+00
        2   -1    0    0  501    0  0.00000000000E+00  0.00000000000E+00  0.13312935746E+03  0.13312935748E+03  0.25500000920E-02 0.  1.
       -2   -1    0    0    0  501  0.00000000000E+00  0.00000000000E+00 -0.46617385037E+03  0.46617385038E+03  0.25500000920E-02 0. -1.
    10030    2    1    2    0    0  0.00000000000E+00  0.00000000000E+00 -0.33304449291E+03  0.59930320786E+03  0.49824261228E+03 0.  0.
        5    1    3    3  502    0 -0.54318891433E+02 -0.14655697235E+03 -0.39979097282E+03  0.42928358932E+03  0.46999998093E+01 0. -1.
       -5    1    3    3    0  502  0.54318891433E+02  0.14655697235E+03  0.66746479910E+02  0.17001961854E+03  0.46999998093E+01 0.  1.
</event>
<event>
 5   0  0.2779445E-02  0.5008254E+03  0.7818609E-02  0.1013564E+00
        1   -1    0    0  501    0  0.00000000000E+00  0.00000000000E+00  0.43088186926E+03  0.43088186929E+03  0.50400001928E-02 0. -1.
       -1   -1    0    0    0  501  0.00000000000E+00  0.00000000000E+00 -0.14553066737E+03  0.14553066746E+03  0.50400001928E-02 0.  1.
    10030    2    1    2    0    0  0.00000000000E+00  0.00000000000E+00  0.28535120189E+03  0.57641253674E+03  0.50082542277E+03 0.  0.
        3    1    3    3  502    0 -0.69767316300E+02 -0.23371810243E+03  0.77418189908E+02  0.25590079359E+03  0.10100000352E+00 0.  1.
       -3    1    3    3    0  502  0.69767316300E+02  0.23371810243E+03  0.20793301198E+03  0.32051174316E+03  0.10100000352E+00 0. -1.
</event>
<event>
 5   0  0.4519539E-02  0.4991212E+03  0.7818609E-02  0.1014009E+00
        2   -1    0    0  501    0  0.00000000000E+00  0.00000000000E+00  0.10384215395E+04  0.10384215395E+04  0.25500000920E-02 0.  1.
       -2   -1    0    0    0  501  0.00000000000E+00  0.00000000000E+00 -0.59976108154E+02  0.59976108209E+02  0.25500000920E-02 0. -1.
    10030    2    1    2    0    0  0.00000000000E+00  0.00000000000E+00  0.97844543139E+03  0.10983976478E+04  0.49912115803E+03 0.  0.
        4    1    3    3  502    0 -0.74182590633E+02 -0.53421581137E+02  0.10002409523E+04  0.10044105225E+04  0.12699999809E+01 0.  1.
       -4    1    3    3    0  502  0.74182590633E+02  0.53421581137E+02 -0.21795520929E+02  0.93987125270E+02  0.12699999809E+01 0. -1.
</event>
<event>
 5   0  0.2723308E-02  0.4996996E+03  0.7818609E-02  0.1013857E+00
        1   -1    0    0  501    0  0.00000000000E+00  0.00000000000E+00  0.16290224481E+03  0.16290224489E+03  0.50400001928E-02 0.  1.
       -1   -1    0    0    0  501  0.00000000000E+00  0.00000000000E+00 -0.38320475006E+03  0.38320475010E+03  0.50400001928E-02 0. -1.
    10030    2    1    2    0    0  0.00000000000E+00  0.00000000000E+00 -0.22030250526E+03  0.54610699498E+03  0.49969956589E+03 0.  0.
        4    1    3    3  502    0 -0.37653804203E+02  0.87609082788E+02 -0.36253136668E+03  0.37486499581E+03  0.12699999809E+01 0. -1.
       -4    1    3    3    0  502  0.37653804203E+02 -0.87609082788E+02  0.14222886142E+03  0.17124199917E+03  0.12699999809E+01 0.  1.
</event>
<event>
 5   0  0.4519539E-02  0.5007097E+03  0.7818609E-02  0.1013594E+00
       -2   -1    0    0    0  501  0.00000000000E+00  0.00000000000E+00  0.38932731629E+03  0.38932731630E+03  0.25500000920E-02 0.  1.
        2   -1    0    0  501    0  0.00000000000E+00  0.00000000000E+00 -0.16098935637E+03  0.16098935639E+03  0.25500000920E-02 0. -1.
    10030    2    1    2    0    0  0.00000000000E+00  0.00000000000E+00  0.22833795992E+03  0.55031667269E+03  0.50070971261E+03 0.  0.
        4    1    3    3  502    0 -0.36461193383E+02 -0.24481430563E+02  0.38505695289E+03  0.38755545273E+03  0.12699999809E+01 0.  1.
       -4    1    3    3    0  502  0.36461193383E+02  0.24481430563E+02 -0.15671899297E+03  0.16276121996E+03  0.12699999809E+01 0. -1.
</event>
<event>
 5   0  0.4534223E-02  0.5012644E+03  0.7818609E-02  0.1013449E+00
       -2   -1    0    0    0  501  0.00000000000E+00  0.00000000000E+00  0.74549226141E+03  0.74549226141E+03  0.25500000920E-02 0.  1.
        2   -1    0    0  501    0  0.00000000000E+00  0.00000000000E+00 -0.84261787686E+02  0.84261787725E+02  0.25500000920E-02 0. -1.
    10030    2    1    2    0    0  0.00000000000E+00  0.00000000000E+00  0.66123047372E+03  0.82975404914E+03  0.50126444386E+03 0.  0.
        2    1    3    3  502    0  0.11617000140E+03  0.17563419618E+03  0.55560309323E+03  0.59416970413E+03  0.25500000920E-02 0.  1.
       -2    1    3    3    0  502 -0.11617000140E+03 -0.17563419618E+03  0.10562738049E+03  0.23558434500E+03  0.25500000920E-02 0. -1.
</event>
<event>
 5   0  0.2643185E-02  0.4991279E+03  0.7818609E-02  0.1014007E+00
        1   -1    0    0  501    0  0.00000000000E+00  0.00000000000E+00  0.13108577836E+04  0.13108577836E+04  0.50400001928E-02 0.  1.
       -1   -1    0    0    0  501  0.00000000000E+00  0.00000000000E+00 -0.47512518937E+02  0.47512519204E+02  0.50400001928E-02 0. -1.
    10030    2    1    2    0    0  0.00000000000E+00  0.00000000000E+00  0.12633452647E+04  0.13583703028E+04  0.49912786120E+03 0.  0.
        1    1    3    3  502    0  0.21400335620E+02 -0.41830517894E+02 -0.35366090374E+02  0.58809242179E+02  0.50400001928E-02 0. -1.
       -1    1    3    3    0  502 -0.21400335620E+02  0.41830517894E+02  0.12987113551E+04  0.12995610607E+04  0.50400001928E-02 0.  1.
</event>
<event>
 5   0  0.2715483E-02  0.4988837E+03  0.7818609E-02  0.1014071E+00
        1   -1    0    0  501    0  0.00000000000E+00  0.00000000000E+00  0.16120712785E+03  0.16120712793E+03  0.50400001928E-02 0.  1.
       -1   -1    0    0    0  501  0.00000000000E+00  0.00000000000E+00 -0.38597069519E+03  0.38597069522E+03  0.50400001928E-02 0. -1.
    10030    2    1    2    0    0  0.00000000000E+00  0.00000000000E+00 -0.22476356734E+03  0.54717782315E+03  0.49888366274E+03 0.  0.
        5    1    3    3  502    0 -0.51107175861E+02  0.82258176108E+02 -0.36445786342E+03  0.37713389554E+03  0.46999998093E+01 0. -1.
       -5    1    3    3    0  502  0.51107175861E+02 -0.82258176108E+02  0.13969429608E+03  0.17004392761E+03  0.46999998093E+01 0.  1.
</event>
<event>
 5   0  0.2643185E-02  0.5047909E+03  0.7818609E-02  0.1012536E+00
        1   -1    0    0  501    0  0.00000000000E+00  0.00000000000E+00  0.24985199563E+03  0.24985199568E+03  0.50400001928E-02 0. -1.
       -1   -1    0    0    0  501  0.00000000000E+00  0.00000000000E+00 -0.25496480580E+03  0.25496480585E+03  0.50400001928E-02 0.  1.
    10030    2    1    2    0    0  0.00000000000E+00  0.00000000000E+00 -0.51128101716E+01  0.50481680153E+03  0.50479090946E+03 0.  0.
        1    1    3    3  502    0 -0.21460550056E+03 -0.11801316790E+03  0.58445386613E+02  0.25179057152E+03  0.50400001928E-02 0.  1.
       -1    1    3    3    0  502  0.21460550056E+03  0.11801316790E+03 -0.63558196785E+02  0.25302623000E+03  0.50400001928E-02 0. -1.
</event>
<event>
 5   0  0.4631619E-02  0.4991681E+03  0.7818609E-02  0.1013996E+00
       -2   -1    0    0    0  501  0.00000000000E+00  0.00000000000E+00  0.10190450993E+03  0.10190450996E+03  0.25500000920E-02 0.  1.
        2   -1    0    0  501    0  0.00000000000E+00  0.00000000000E+00 -0.61127998658E+03  0.61127998659E+03  0.25500000920E-02 0. -1.
    10030    2    1    2    0    0  0.00000000000E+00  0.00000000000E+00 -0.50937547665E+03  0.71318449655E+03  0.49916805778E+03 0.  0.
        5    1    3    3  502    0  0.13717922674E+03  0.17265369962E+01  0.43126105065E+02  0.14388562164E+03  0.46999998093E+01 0.  1.
       -5    1    3    3    0  502 -0.13717922674E+03 -0.17265369962E+01 -0.55250158171E+03  0.56929887491E+03  0.46999998093E+01 0. -1.
</event>
<event>
 5   0  0.4409622E-02  0.4996221E+03  0.7818609E-02  0.1013878E+00
        2   -1    0    0  501    0  0.00000000000E+00  0.00000000000E+00  0.35672476309E+03  0.35672476310E+03  0.25500000920E-02 0. -1.
       -2   -1    0    0    0  501  0.00000000000E+00  0.00000000000E+00 -0.17494039619E+03  0.17494039621E+03  0.25500000920E-02 0.  1.
    10030    2    1    2    0    0  0.00000000000E+00  0.00000000000E+00  0.18178436690E+03  0.53166515930E+03  0.49962214279E+03 0.  0.
        3    1    3    3  502    0 -0.10849475465E+03 -0.11611141312E+03  0.29600418196E+03  0.33596347715E+03  0.10100000352E+00 0. -1.
       -3    1    3    3    0  502  0.10849475465E+03  0.11611141312E+03 -0.11421981506E+03  0.19570168215E+03  0.10100000352E+00 0.  1.
</event>
<event>
 5   0  0.4631619E-02  0.5011884E+03  0.7818609E-02  0.1013469E+00
       -2   -1    0    0    0  501  0.00000000000E+00  0.00000000000E+00  0.58903603026E+02  0.58903603082E+02  0.25500000920E-02 0.  1.
        2   -1    0    0  501    0  0.00000000000E+00  0.00000000000E+00 -0.10661052837E+04  0.10661052837E+04  0.25500000920E-02 0. -1.
    10030    2    1    2    0    0  0.00000000000E+00  0.00000000000E+00 -0.10072016807E+04  0.11250088868E+04  0.50118835761E+03 0.  0.
        5    1    3    3  502    0 -0.12969389028E+03 -0.22742077890E+02 -0.98207984614E+03  0.99087871179E+03  0.46999998093E+01 0. -1.
       -5    1    3    3    0  502  0.12969389028E+03  0.22742077890E+02 -0.25121834560E+02  0.13413017502E+03  0.46999998093E+01 0.  1.
</event>
<event>
 5   0  0.2719671E-02  0.5009763E+03  0.7818609E-02  0.1013524E+00
       -1   -1    0    0    0  501  0.00000000000E+00  0.00000000000E+00  0.11192606204E+03  0.11192606215E+03  0.50400001928E-02 0.  1.
        1   -1    0    0  501    0  0.00000000000E+00  0.00000000000E+00 -0.56058707290E+03  0.56058707293E+03  0.50400001928E-02 0. -1.
    10030    2    1    2    0    0  0.00000000000E+00  0.00000000000E+00 -0.44866101087E+03  0.67251313508E+03  0.50097626109E+03 0.  0.
        2    1    3    3  502    0 -0.24339652142E+03 -0.39853253016E+02 -0.28306215366E+03  0.37543885155E+03  0.25500000920E-02 0.  1.
       -2    1    3    3    0  502  0.24339652142E+03  0.39853253016E+02 -0.16559885721E+03  0.29707428352E+03  0.25500000920E-02 0. -1.
</event>
<event>
 5   0  0.4519539E-02  0.4924084E+03  0.7818609E-02  0.1015780E+00
       -2   -1    0    0    0  501  0.00000000000E+00  0.00000000000E+00  0.12413862903E+03  0.12413862906E+03  0.25500000920E-02 0. -1.
        2   -1    0    0  501    0  0.00000000000E+00  0.00000000000E+00 -0.48829697064E+03  0.48829697064E+03  0.25500000920E-02 0.  1.
    10030    2    1    2    0    0  0.00000000000E+00  0.00000000000E+00 -0.36415834161E+03  0.61243559970E+03  0.49240843414E+03 0.  0.
        4    1    3    3  502    0  0.26488269312E+02  0.12097586109E+03 -0.44673357119E+03  0.46358309277E+03  0.12699999809E+01 0.  1.
       -4    1    3    3    0  502 -0.26488269312E+02 -0.12097586109E+03  0.82575229583E+02  0.14885250693E+03  0.12699999809E+01 0. -1.
</event>
<event>
 5   0  0.2643185E-02  0.4998385E+03  0.7818609E-02  0.1013821E+00
        1   -1    0    0  501    0  0.00000000000E+00  0.00000000000E+00  0.18617488849E+03  0.18617488855E+03  0.50400001928E-02 0.  1.
       -1   -1    0    0    0  501  0.00000000000E+00  0.00000000000E+00 -0.33548903080E+03  0.33548903083E+03  0.50400001928E-02 0. -1.
    10030    2    1    2    0    0  0.00000000000E+00  0.00000000000E+00 -0.14931414231E+03  0.52166391939E+03  0.49983850562E+03 0.  0.
        1    1    3    3  502    0 -0.67286582136E+02  0.22631432805E+03  0.10859623772E+02  0.23635479828E+03  0.50400001928E-02 0.  1.
       -1    1    3    3    0  502  0.67286582136E+02 -0.22631432805E+03 -0.16017376608E+03  0.28530912110E+03  0.50400001928E-02 0. -1.
</event>
<event>
 5   0  0.4409622E-02  0.5017872E+03  0.7818609E-02  0.1013313E+00
        2   -1    0    0  501    0  0.00000000000E+00  0.00000000000E+00  0.61070551770E+03  0.61070551771E+03  0.25500000920E-02 0. -1.
       -2   -1    0    0    0  501  0.00000000000E+00  0.00000000000E+00 -0.10307358281E+03  0.10307358284E+03  0.25500000920E-02 0.  1.
    10030    2    1    2    0    0  0.00000000000E+00  0.00000000000E+00  0.50763193490E+03  0.71377910055E+03  0.50178722886E+03 0.  0.
        3    1    3    3  502    0 -0.18722059087E+03 -0.13146668438E+03  0.40035530974E+03  0.46110673708E+03  0.10100000352E+00 0. -1.
       -3    1    3    3    0  502  0.18722059087E+03  0.13146668438E+03  0.10727662516E+03  0.25267236346E+03  0.10100000352E+00 0.  1.
</event>
<event>
 5   0  0.2643185E-02  0.5009416E+03  0.7818609E-02  0.1013533E+00
        1   -1    0    0  501    0  0.00000000000E+00  0.00000000000E+00  0.41964989229E+03  0.41964989232E+03  0.50400001928E-02 0.  1.
       -1   -1    0    0    0  501  0.00000000000E+00  0.00000000000E+00 -0.14949511712E+03  0.14949511721E+03  0.50400001928E-02 0. -1.
    10030    2    1    2    0    0  0.00000000000E+00  0.00000000000E+00  0.27015477517E+03  0.56914500953E+03  0.50094155280E+03 0.  0.
        1    1    3    3  502    0  0.12716375169E+03  0.20187617895E+02  0.37917120483E+03  0.40043596524E+03  0.50400001928E-02 0.  1.
       -1    1    3    3    0  502 -0.12716375169E+03 -0.20187617895E+02 -0.10901642966E+03  0.16870904428E+03  0.50400001928E-02 0. -1.
</event>
<event>
 5   0  0.1805500E-02  0.4991160E+03  0.7818609E-02  0.1014010E+00
       -3   -1    0    0    0  501  0.00000000000E+00  0.00000000000E+00  0.47237537550E+03  0.47237538629E+03  0.10100000352E+00 0. -1.
        3   -1    0    0  501    0  0.00000000000E+00  0.00000000000E+00 -0.13184255080E+03  0.13184258948E+03  0.10100000352E+00 0.  1.
    10030    2    1    2    0    0  0.00000000000E+00  0.00000000000E+00  0.34053282470E+03  0.60421797578E+03  0.49911597606E+03 0.  0.
        3    1    3    3  502    0  0.11079921332E+03  0.17412307467E+03  0.34010931231E+03  0.39783120205E+03  0.10100000352E+00 0. -1.
       -3    1    3    3    0  502 -0.11079921332E+03 -0.17412307467E+03  0.42351238396E+00  0.20638677372E+03  0.10100000352E+00 0.  1.
</event>
<event>
 5   0  0.4631619E-02  0.4989377E+03  0.7818609E-02  0.1014057E+00
        2   -1    0    0  501    0  0.00000000000E+00  0.00000000000E+00  0.31410260007E+03  0.31410260008E+03  0.25500000920E-02 0. -1.
       -2   -1    0    0    0  501  0.00000000000E+00  0.00000000000E+00 -0.19813496770E+03  0.19813496772E+03  0.25500000920E-02 0.  1.
    10030    2    1    2    0    0  0.00000000000E+00  0.00000000000E+00  0.11596763237E+03  0.51223756780E+03  0.49893770564E+03 0.  0.
        5    1    3    3  502    0  0.98537575137E+02  0.30869913401E+02  0.29108232313E+03  0.30889094209E+03  0.46999998093E+01 0. -1.
       -5    1    3    3    0  502 -0.98537575137E+02 -0.30869913401E+02 -0.17511469076E+03  0.20334662571E+03  0.46999998093E+01 0.  1.
</event>
<event>
 5   0  0.2715483E-02  0.5005366E+03  0.7818609E-02  0.1013639E+00
        1   -1    0    0  501    0  0.00000000000E+00  0.00000000000E+00  0.21043708142E+04  0.21043708142E+04  0.50400001928E-02 0. -1.
       -1   -1    0    0    0  501  0.00000000000E+00  0.00000000000E+00 -0.29763870045E+02  0.29763870471E+02  0.50400001928E-02 0.  1.
    10030    2    1    2    0    0  0.00000000000E+00  0.00000000000E+00  0.20746069442E+04  0.21341346847E+04  0.50053659168E+03 0.  0.
        5    1    3    3  502    0  0.33805856178E+02 -0.24709086827E+03  0.95040391341E+03  0.98259168616E+03  0.46999998093E+01 0.  1.
       -5    1    3    3    0  502 -0.33805856178E+02  0.24709086827E+03  0.11242030308E+04  0.11515429985E+04  0.46999998093E+01 0. -1.
</event>
<event>
 5   0  0.2719671E-02  0.4980090E+03  0.7818609E-02  0.1014300E+00
        1   -1    0    0  501    0  0.00000000000E+00  0.00000000000E+00  0.76924117373E+03  0.76924117374E+03  0.50400001928E-02 0. -1.
       -1   -1    0    0    0  501  0.00000000000E+00  0.00000000000E+00 -0.80603133269E+02  0.80603133426E+02  0.50400001928E-02 0.  1.
    10030    2    1    2    0    0  0.00000000000E+00  0.00000000000E+00  0.68863804046E+03  0.84984430717E+03  0.49800903171E+03 0.  0.
        2    1    3    3  502    0 -0.17219480433E+03  0.10358167690E+03  0.93384464696E+02  0.22158716723E+03  0.25500000920E-02 0. -1.
       -2    1    3    3    0  502  0.17219480433E+03 -0.10358167690E+03  0.59525357576E+03  0.62825713994E+03  0.25500000920E-02 0.  1.
</event>
<event>
 5   0  0.4534223E-02  0.5112131E+03  0.7818609E-02  0.1010893E+00
       -2   -1    0    0    0  501  0.00000000000E+00  0.00000000000E+00  0.58069022411E+02  0.58069022467E+02  0.25500000920E-02 0.  1.
        2   -1    0    0  501    0  0.00000000000E+00  0.00000000000E+00 -0.11251213607E+04  0.11251213607E+04  0.25500000920E-02 0. -1.
    10030    2    1    2    0    0  0.00000000000E+00  0.00000000000E+00 -0.10670523382E+04  0.11831903831E+04  0.51121305751E+03 0.  0.
        2    1    3    3  502    0 -0.13167950605E+03 -0.16440595932E+03 -0.86865307781E+03  0.89382715408E+03  0.25500000920E-02 0. -1.
       -2    1    3    3    0  502  0.13167950605E+03  0.16440595932E+03 -0.19839926043E+03  0.28936322905E+03  0.25500000920E-02 0.  1.
</event>
<event>
 5   0  0.4409622E-02  0.4988730E+03  0.7818609E-02  0.1014073E+00
       -2   -1    0    0    0  501  0.00000000000E+00  0.00000000000E+00  0.31475233401E+03  0.31475233402E+03  0.25500000920E-02 0. -1.
        2   -1    0    0  501    0  0.00000000000E+00  0.00000000000E+00 -0.19767468720E+03  0.19767468721E+03  0.25500000920E-02 0.  1.
    10030    2    1    2    0    0  0.00000000000E+00  0.00000000000E+00  0.11707764682E+03  0.51242702123E+03  0.49887300659E+03 0.  0.
        3    1    3    3  502    0 -0.41359458240E+02  0.11682610811E+03  0.28089099424E+03  0.30701580606E+03  0.10100000352E+00 0. -1.
       -3    1    3    3    0  502  0.41359458240E+02 -0.11682610811E+03 -0.16381334743E+03  0.20541121517E+03  0.10100000352E+00 0.  1.
</event>
<event>
 5   0  0.2779445E-02  0.4994969E+03  0.7818609E-02  0.1013910E+00
        1   -1    0    0  501    0  0.00000000000E+00  0.00000000000E+00  0.10060513340E+04  0.10060513340E+04  0.50400001928E-02 0.  1.
       -1   -1    0    0    0  501  0.00000000000E+00  0.00000000000E+00 -0.61999106857E+02  0.61999107062E+02  0.50400001928E-02 0. -1.
    10030    2    1    2    0    0  0.00000000000E+00  0.00000000000E+00  0.94405222716E+03  0.10680504411E+04  0.49949688399E+03 0.  0.
        3    1    3    3  502    0  0.17837249290E+03  0.57743247034E+02  0.82482639952E+03  0.84586620002E+03  0.10100000352E+00 0.  1.
       -3    1    3    3    0  502 -0.17837249290E+03 -0.57743247034E+02  0.11922582764E+03  0.22218424107E+03  0.10100000352E+00 0. -1.
</event>
<event>
 5   0  0.1805500E-02  0.5013434E+03  0.7818609E-02  0.1013429E+00
        4   -1    0    0  501    0  0.00000000000E+00  0.00000000000E+00  0.36823944445E+03  0.36824163446E+03  0.12699999809E+01 0.  1.
       -4   -1    0    0    0  501  0.00000000000E+00  0.00000000000E+00 -0.17063473398E+03  0.17063946009E+03  0.12699999809E+01 0. -1.
    10030    2    1    2    0    0  0.00000000000E+00  0.00000000000E+00  0.19760471047E+03  0.53888109455E+03  0.50134340772E+03 0.  0.
        4    1    3    3  502    0  0.14004834502E+03  0.11760733024E+03 -0.85467787680E+02  0.20186970724E+03  0.12699999809E+01 0. -1.
       -4    1    3    3    0  502 -0.14004834502E+03 -0.11760733024E+03  0.28307249815E+03  0.33701138731E+03  0.12699999809E+01 0.  1.
</event>
<event>
 5   0  0.4451135E-02  0.5054146E+03  0.7818609E-02  0.1012375E+00
       -2   -1    0    0    0  501  0.00000000000E+00  0.00000000000E+00  0.19390380578E+03  0.19390380580E+03  0.25500000920E-02 0.  1.
        2   -1    0    0  501    0  0.00000000000E+00  0.00000000000E+00 -0.32934366855E+03  0.32934366856E+03  0.25500000920E-02 0. -1.
    10030    2    1    2    0    0  0.00000000000E+00  0.00000000000E+00 -0.13543986277E+03  0.52324747436E+03  0.50541464462E+03 0.  0.
        1    1    3    3  502    0 -0.71015957145E+02 -0.23788989812E+03 -0.11656645887E+03  0.27426740448E+03  0.50400001928E-02 0. -1.
       -1    1    3    3    0  502  0.71015957145E+02  0.23788989812E+03 -0.18873403897E+02  0.24898006988E+03  0.50400001928E-02 0.  1.
</event>
<event>
 5   0  0.4534223E-02  0.4983326E+03  0.7818609E-02  0.1014215E+00
        2   -1    0    0  501    0  0.00000000000E+00  0.00000000000E+00  0.39604464673E+02  0.39604464755E+02  0.25500000920E-02 0. -1.
       -2   -1    0    0    0  501  0.00000000000E+00  0.00000000000E+00 -0.15675969074E+04  0.15675969074E+04  0.25500000920E-02 0.  1.
    10030    2    1    2    0    0  0.00000000000E+00  0.00000000000E+00 -0.15279924427E+04  0.16072013721E+04  0.49833256529E+03 0.  0.
        2    1    3    3  502    0  0.15456693093E+03  0.13848846753E+02 -0.13528796240E+03  0.20587753513E+03  0.25500000920E-02 0. -1.
       -2    1    3    3    0  502 -0.15456693093E+03 -0.13848846753E+02 -0.13927044803E+04  0.14013238370E+04  0.25500000920E-02 0.  1.
</event>
<event>
 5   0  0.1805500E-02  0.5006249E+03  0.7818609E-02  0.1013616E+00
       -4   -1    0    0    0  501  0.00000000000E+00  0.00000000000E+00  0.22546566351E+03  0.22546924030E+03  0.12699999809E+01 0. -1.
        4   -1    0    0  501    0  0.00000000000E+00  0.00000000000E+00 -0.27789014531E+03  0.27789304734E+03  0.12699999809E+01 0.  1.
    10030    2    1    2    0    0  0.00000000000E+00  0.00000000000E+00 -0.52424481798E+02  0.50336228764E+03  0.50062487586E+03 0.  0.
        3    1    3    3  502    0 -0.86873946407E+02 -0.79544352119E+02 -0.24828622966E+03  0.27480984072E+03  0.10100000352E+00 0.  1.
       -3    1    3    3    0  502  0.86873946407E+02  0.79544352119E+02  0.19586174786E+03  0.22855244692E+03  0.10100000352E+00 0. -1.
</event>
<event>
 5   0  0.4519539E-02  0.5004627E+03  0.7818609E-02  0.1013658E+00
       -2   -1    0    0    0  501  0.00000000000E+00  0.00000000000E+00  0.20098463476E+03  0.20098463477E+03  0.25500000920E-02 0. -1.
        2   -1    0    0  501    0  0.00000000000E+00  0.00000000000E+00 -0.31154480889E+03  0.31154480890E+03  0.25500000920E-02 0.  1.
    10030    2    1    2    0    0  0.00000000000E+00  0.00000000000E+00 -0.11056017414E+03  0.51252944368E+03  0.50046266447E+03 0.  0.
        4    1    3    3  502    0  0.14397842933E+03  0.66815926095E+02  0.14282642015E+03  0.21353022101E+03  0.12699999809E+01 0. -1.
       -4    1    3    3    0  502 -0.14397842933E+03 -0.66815926095E+02 -0.25338659429E+03  0.29899922267E+03  0.12699999809E+01 0.  1.
</event>
<event>
 5   0  0.4631619E-02  0.4986423E+03  0.7818609E-02  0.1014134E+00
        2   -1    0    0  501    0  0.00000000000E+00  0.00000000000E+00  0.13807106275E+04  0.13807106275E+04  0.25500000920E-02 0.  1.
       -2   -1    0    0    0  501  0.00000000000E+00  0.00000000000E+00 -0.45021051150E+02  0.45021051222E+02  0.25500000920E-02 0. -1.
    10030    2    1    2    0    0  0.00000000000E+00  0.00000000000E+00  0.13356895763E+04  0.14257316787E+04  0.49864233209E+03 0.  0.
        5    1    3    3  502    0  0.75993310150E+02 -0.10607037772E+03  0.12751398200E+04  0.12818071457E+04  0.46999998093E+01 0.  1.
       -5    1    3    3    0  502 -0.75993310150E+02  0.10607037772E+03  0.60549756371E+02  0.14392453305E+03  0.46999998093E+01 0. -1.
</event>
<event>
 5   0  0.4519539E-02  0.4977435E+03  0.7818609E-02  0.1014370E+00
       -2   -1    0    0    0  501  0.00000000000E+00  0.00000000000E+00  0.81257518378E+02  0.81257518418E+02  0.25500000920E-02 0.  1.
        2   -1    0    0  501    0  0.00000000000E+00  0.00000000000E+00 -0.76223283924E+03  0.76223283925E+03  0.25500000920E-02 0. -1.
    10030    2    1    2    0    0  0.00000000000E+00  0.00000000000E+00 -0.68097532086E+03  0.84349035766E+03  0.49774350407E+03 0.  0.
        4    1    3    3  502    0 -0.31285941863E+02  0.18705305217E+03 -0.67405844314E+02  0.20127795515E+03  0.12699999809E+01 0.  1.
       -4    1    3    3    0  502  0.31285941863E+02 -0.18705305217E+03 -0.61356947655E+03  0.64221240251E+03  0.12699999809E+01 0. -1.
</event>
<event>
 5   0  0.4534223E-02  0.5020591E+03  0.7818609E-02  0.1013243E+00
       -2   -1    0    0    0  501  0.00000000000E+00  0.00000000000E+00  0.67187097863E+02  0.67187097911E+02  0.25500000920E-02 0.  1.
        2   -1    0    0  501    0  0.00000000000E+00  0.00000000000E+00 -0.93791565209E+03  0.93791565209E+03  0.25500000920E-02 0. -1.
    10030    2    1    2    0    0  0.00000000000E+00  0.00000000000E+00 -0.87072855423E+03  0.10051027500E+04  0.50205908310E+03 0.  0.
        2    1    3    3  502    0 -0.12897732817E+03 -0.19079781256E+03 -0.63532876816E+03  0.67578221353E+03  0.25500000920E-02 0. -1.
       -2    1    3    3    0  502  0.12897732817E+03  0.19079781256E+03 -0.23539978607E+03  0.32932053648E+03  0.25500000920E-02 0.  1.
</event>
<event>
 5   0  0.1805500E-02  0.4995033E+03  0.7818609E-02  0.1013909E+00
        4   -1    0    0  501    0  0.00000000000E+00  0.00000000000E+00  0.20482798304E+03  0.20483192020E+03  0.12699999809E+01 0. -1.
       -4   -1    0    0    0  501  0.00000000000E+00  0.00000000000E+00 -0.30451995893E+03  0.30452260719E+03  0.12699999809E+01 0.  1.
    10030    2    1    2    0    0  0.00000000000E+00  0.00000000000E+00 -0.99691975895E+02  0.50935452739E+03  0.49950329780E+03 0.  0.
        2    1    3    3  502    0  0.58493155582E+02  0.17842836151E+03 -0.21776841038E+03  0.28754340543E+03  0.25500000920E-02 0.  1.
       -2    1    3    3    0  502 -0.58493155582E+02 -0.17842836151E+03  0.11807643448E+03  0.22181112196E+03  0.25500000920E-02 0. -1.
</event>
<event>
 5   0  0.2643185E-02  0.5072335E+03  0.7818609E-02  0.1011908E+00
        1   -1    0    0  501    0  0.00000000000E+00  0.00000000000E+00  0.75729719998E+03  0.75729720000E+03  0.50400001928E-02 0. -1.
       -1   -1    0    0    0  501  0.00000000000E+00  0.00000000000E+00 -0.84935545590E+02  0.84935545739E+02  0.50400001928E-02 0.  1.
    10030    2    1    2    0    0  0.00000000000E+00  0.00000000000E+00  0.67236165439E+03  0.84223274574E+03  0.50723348046E+03 0.  0.
        1    1    3    3  502    0  0.31570772271E+02 -0.15114282761E+03  0.21030483604E+01  0.15441920488E+03  0.50400001928E-02 0.  1.
       -1    1    3    3    0  502 -0.31570772271E+02  0.15114282761E+03  0.67025860603E+03  0.68781354086E+03  0.50400001928E-02 0. -1.
</event>
<event>
 5   0  0.4409622E-02  0.5008714E+03  0.7818609E-02  0.1013552E+00
       -2   -1    0    0    0  501  0.00000000000E+00  0.00000000000E+00  0.88062201896E+02  0.88062201933E+02  0.25500000920E-02 0.  1.
        2   -1    0    0  501    0  0.00000000000E+00  0.00000000000E+00 -0.71220152843E+03  0.71220152844E+03  0.25500000920E-02 0. -1.
    10030    2    1    2    0    0  0.00000000000E+00  0.00000000000E+00 -0.62413932654E+03  0.80026373037E+03  0.50087137991E+03 0.  0.
        3    1    3    3  502    0  0.12655286940E+03 -0.19855670762E+03 -0.17576776792E+03  0.29382769327E+03  0.10100000352E+00 0.  1.
       -3    1    3    3    0  502 -0.12655286940E+03  0.19855670762E+03 -0.44837155862E+03  0.50643603710E+03  0.10100000352E+00 0. -1.
</event>
<event>
 5   0  0.2643185E-02  0.4984469E+03  0.7818609E-02  0.1014185E+00
       -1   -1    0    0    0  501  0.00000000000E+00  0.00000000000E+00  0.10205821686E+03  0.10205821699E+03  0.50400001928E-02 0.  1.
        1   -1    0    0  501    0  0.00000000000E+00  0.00000000000E+00 -0.60859707116E+03  0.60859707118E+03  0.50400001928E-02 0. -1.
    10030    2    1    2    0    0  0.00000000000E+00  0.00000000000E+00 -0.50653885430E+03  0.71065528817E+03  0.49844691562E+03 0.  0.
        1    1    3    3  502    0 -0.12811819154E+03  0.18387604061E+03 -0.40871856365E+03  0.46612823731E+03  0.50400001928E-02 0. -1.
       -1    1    3    3    0  502  0.12811819154E+03 -0.18387604061E+03 -0.97820290645E+02  0.24452705086E+03  0.50400001928E-02 0.  1.
</event>
<event>
 5   0  0.4534223E-02  0.5001044E+03  0.7818609E-02  0.1013752E+00
       -2   -1    0    0    0  501  0.00000000000E+00  0.00000000000E+00  0.55173555619E+02  0.55173555678E+02  0.25500000920E-02 0. -1.
        2   -1    0    0  501    0  0.00000000000E+00  0.00000000000E+00 -0.11332621613E+04  0.11332621613E+04  0.25500000920E-02 0.  1.
    10030    2    1    2    0    0  0.00000000000E+00  0.00000000000E+00 -0.10780886057E+04  0.11884357170E+04  0.50010440079E+03 0.  0.
        2    1    3    3  502    0 -0.20708783785E+03 -0.13336438810E+03 -0.43670360356E+03  0.50137956676E+03  0.25500000920E-02 0. -1.
       -2    1    3    3    0  502  0.20708783785E+03  0.13336438810E+03 -0.64138500210E+03  0.68705615020E+03  0.25500000920E-02 0.  1.
</event>
<event>
 5   0  0.4631619E-02  0.4995309E+03  0.7818609E-02  0.1013901E+00
       -2   -1    0    0    0  501  0.00000000000E+00  0.00000000000E+00  0.35336838296E+03  0.35336838297E+03  0.25500000920E-02 0.  1.
        2   -1    0    0  501    0  0.00000000000E+00  0.00000000000E+00 -0.17653750096E+03  0.17653750098E+03  0.25500000920E-02 0. -1.
    10030    2    1    2    0    0  0.00000000000E+00  0.00000000000E+00  0.17683088200E+03  0.52990588395E+03  0.49953086493E+03 0.  0.
        5    1    3    3  502    0 -0.23699035621E+03 -0.60667108200E+02  0.14162265584E+03  0.28270831895E+03  0.46999998093E+01 0.  1.
       -5    1    3    3    0  502  0.23699035621E+03  0.60667108200E+02  0.35208226159E+02  0.24719756500E+03  0.46999998093E+01 0. -1.
</event>
<event>
 5   0  0.2643185E-02  0.4961226E+03  0.7818609E-02  0.1014796E+00
       -1   -1    0    0    0  501  0.00000000000E+00  0.00000000000E+00  0.31734525024E+03  0.31734525028E+03  0.50400001928E-02 0. -1.
        1   -1    0    0  501    0  0.00000000000E+00  0.00000000000E+00 -0.19390367900E+03  0.19390367906E+03  0.50400001928E-02 0.  1.
    10030    2    1    2    0    0  0.00000000000E+00  0.00000000000E+00  0.12344157124E+03  0.51124892935E+03  0.49612261211E+03 0.  0.
        1    1    3    3  502    0 -0.10322055319E+03 -0.16982837341E+03  0.21469983837E+03  0.29256141173E+03  0.50400001928E-02 0. -1.
       -1    1    3    3    0  502  0.10322055319E+03  0.16982837341E+03 -0.91258267123E+02  0.21868751761E+03  0.50400001928E-02 0.  1.
</event>
<event>
 5   0  0.2723308E-02  0.5062114E+03  0.7818609E-02  0.1012170E+00
       -1   -1    0    0    0  501  0.00000000000E+00  0.00000000000E+00  0.43630666923E+02  0.43630667214E+02  0.50400001928E-02 0. -1.
        1   -1    0    0  501    0  0.00000000000E+00  0.00000000000E+00 -0.14682905129E+04  0.14682905129E+04  0.50400001928E-02 0.  1.
    10030    2    1    2    0    0  0.00000000000E+00  0.00000000000E+00 -0.14246598459E+04  0.15119211801E+04  0.50621139671E+03 0.  0.
        4    1    3    3  502    0  0.10240955705E+02 -0.17290468652E+03 -0.16111700426E+03  0.23656121778E+03  0.12699999809E+01 0. -1.
       -4    1    3    3    0  502 -0.10240955705E+02  0.17290468652E+03 -0.12635428417E+04  0.12753599623E+04  0.12699999809E+01 0.  1.
</event>
<event>
 5   0  0.2779445E-02  0.5033883E+03  0.7818609E-02  0.1012898E+00
        1   -1    0    0  501    0  0.00000000000E+00  0.00000000000E+00  0.31786520994E+03  0.31786520998E+03  0.50400001928E-02 0. -1.
       -1   -1    0    0    0  501  0.00000000000E+00  0.00000000000E+00 -0.19929815327E+03  0.19929815334E+03  0.50400001928E-02 0.  1.
    10030    2    1    2    0    0  0.00000000000E+00  0.00000000000E+00  0.11856705667E+03  0.51716336332E+03  0.50338831674E+03 0.  0.
        3    1    3    3  502    0 -0.10437848979E+03  0.98547268265E+02 -0.15311900397E+03  0.20988538012E+03  0.10100000352E+00 0. -1.
       -3    1    3    3    0  502  0.10437848979E+03 -0.98547268265E+02  0.27168606063E+03  0.30727798319E+03  0.10100000352E+00 0.  1.
</event>
<event>
 5   0  0.2715483E-02  0.5046975E+03  0.7818609E-02  0.1012560E+00
       -1   -1    0    0    0  501  0.00000000000E+00  0.00000000000E+00  0.50113527645E+03  0.50113527648E+03  0.50400001928E-02 0. -1.
        1   -1    0    0  501    0  0.00000000000E+00  0.00000000000E+00 -0.12707126616E+03  0.12707126626E+03  0.50400001928E-02 0.  1.
    10030    2    1    2    0    0  0.00000000000E+00  0.00000000000E+00  0.37406401029E+03  0.62820654273E+03  0.50469750994E+03 0.  0.
        5    1    3    3  502    0  0.24746553470E+02  0.17411232667E+03 -0.38156569527E+02  0.18001529936E+03  0.46999998093E+01 0.  1.
       -5    1    3    3    0  502 -0.24746553470E+02 -0.17411232667E+03  0.41222057982E+03  0.44819124337E+03  0.46999998093E+01 0. -1.
</event>
<event>
 5   0  0.2715483E-02  0.4989396E+03  0.7818609E-02  0.1014056E+00
        1   -1    0    0  501    0  0.00000000000E+00  0.00000000000E+00  0.10952943110E+03  0.10952943122E+03  0.50400001928E-02 0.  1.
       -1   -1    0    0    0  501  0.00000000000E+00  0.00000000000E+00 -0.56820516026E+03  0.56820516028E+03  0.50400001928E-02 0. -1.
    10030    2    1    2    0    0  0.00000000000E+00  0.00000000000E+00 -0.45867572916E+03  0.67773459150E+03  0.49893962760E+03 0.  0.
        5    1    3    3  502    0 -0.34605829274E+02 -0.80721739938E+02 -0.54644648885E+03  0.55347937441E+03  0.46999998093E+01 0. -1.
       -5    1    3    3    0  502  0.34605829274E+02  0.80721739938E+02  0.87770759694E+02  0.12425521709E+03  0.46999998093E+01 0.  1.
</event>
<event>
 5   0  0.2643185E-02  0.4958570E+03  0.7818609E-02  0.1014866E+00
       -1   -1    0    0    0  501  0.00000000000E+00  0.00000000000E+00  0.65076136704E+02  0.65076136899E+02  0.50400001928E-02 0.  1.
        1   -1    0    0  501    0  0.00000000000E+00  0.00000000000E+00 -0.94456349940E+03  0.94456349942E+03  0.50400001928E-02 0. -1.
    10030    2    1    2    0    0  0.00000000000E+00  0.00000000000E+00 -0.87948736270E+03  0.10096396363E+04  0.49585700970E+03 0.  0.
        1    1    3    3  502    0 -0.21078663605E+03  0.23282847378E+02 -0.17823146982E+03  0.27701904949E+03  0.50400001928E-02 0.  1.
       -1    1    3    3    0  502  0.21078663605E+03 -0.23282847378E+02 -0.70125589288E+03  0.73262058683E+03  0.50400001928E-02 0. -1.
</event>
<event>
 5   0  0.4631619E-02  0.5008920E+03  0.7818609E-02  0.1013546E+00
        2   -1    0    0  501    0  0.00000000000E+00  0.00000000000E+00  0.46085614965E+03  0.46085614966E+03  0.25500000920E-02 0.  1.
       -2   -1    0    0    0  501  0.00000000000E+00  0.00000000000E+00 -0.13610149140E+03  0.13610149143E+03  0.25500000920E-02 0. -1.
    10030    2    1    2    0    0  0.00000000000E+00  0.00000000000E+00  0.32475465825E+03  0.59695764108E+03  0.50089204145E+03 0.  0.
        5    1    3    3  502    0  0.20658567742E+03  0.30336870739E+02 -0.23447797215E+01  0.20886731634E+03  0.46999998093E+01 0. -1.
       -5    1    3    3    0  502 -0.20658567742E+03 -0.30336870739E+02  0.32709943797E+03  0.38809032474E+03  0.46999998093E+01 0.  1.
</event>
<event>
 5   0  0.1805500E-02  0.4961245E+03  0.7818609E-02  0.1014795E+00
       -3   -1    0    0    0  501  0.00000000000E+00  0.00000000000E+00  0.11016016245E+03  0.11016020875E+03  0.10100000352E+00 0.  1.
        3   -1    0    0  501    0  0.00000000000E+00  0.00000000000E+00 -0.55859448321E+03  0.55859449234E+03  0.10100000352E+00 0. -1.
    10030    2    1    2    0    0  0.00000000000E+00  0.00000000000E+00 -0.44843432076E+03  0.66875470109E+03  0.49612449062E+03 0.  0.
        1    1    3    3  502    0  0.68654059217E+02  0.22147964936E+03 -0.10541122693E+03  0.25471187981E+03  0.50400001928E-02 0.  1.
       -1    1    3    3    0  502 -0.68654059217E+02 -0.22147964936E+03 -0.34302309383E+03  0.41404282128E+03  0.50400001928E-02 0. -1.
</event>
<event>
 5   0  0.2715483E-02  0.5006804E+03  0.7818609E-02  0.1013601E+00
        1   -1    0    0  501    0  0.00000000000E+00  0.00000000000E+00  0.21883476312E+03  0.21883476318E+03  0.50400001928E-02 0. -1.
       -1   -1    0    0    0  501  0.00000000000E+00  0.00000000000E+00 -0.28638144488E+03  0.28638144492E+03  0.50400001928E-02 0.  1.
    10030    2    1    2    0    0  0.00000000000E+00  0.00000000000E+00 -0.67546681757E+02  0.50521620810E+03  0.50068039977E+03 0.  0.
        5    1    3    3  502    0 -0.92881130955E+02  0.20463816312E+03 -0.14497352131E+03  0.26747540854E+03  0.46999998093E+01 0.  1.
       -5    1    3    3    0  502  0.92881130955E+02 -0.20463816312E+03  0.77426839553E+02  0.23774079956E+03  0.46999998093E+01 0. -1.
</event>
<event>
 5   0  0.4631619E-02  0.5015405E+03  0.7818609E-02  0.1013378E+00
       -2   -1    0    0    0  501  0.00000000000E+00  0.00000000000E+00  0.12794272750E+03  0.12794272753E+03  0.25500000920E-02 0.  1.
        2   -1    0    0  501    0  0.00000000000E+00  0.00000000000E+00 -0.49151451968E+03  0.49151451969E+03  0.25500000920E-02 0. -1.
    10030    2    1    2    0    0  0.00000000000E+00  0.00000000000E+00 -0.36357179218E+03  0.61945724721E+03  0.50154046004E+03 0.  0.
        5    1    3    3  502    0 -0.21507786345E+02  0.20483447687E+03 -0.35838436122E+03  0.41337777898E+03  0.46999998093E+01 0. -1.
       -5    1    3    3    0  502  0.21507786345E+02 -0.20483447687E+03 -0.51874309589E+01  0.20607946823E+03  0.46999998093E+01 0.  1.
</event>
<event>
 5   0  0.2723308E-02  0.5001048E+03  0.7818609E-02  0.1013752E+00
       -1   -1    0    0    0  501  0.00000000000E+00  0.00000000000E+00  0.65097542589E+02  0.65097542784E+02  0.50400001928E-02 0. -1.
        1   -1    0    0  501    0  0.00000000000E+00  0.00000000000E+00 -0.96050030299E+03  0.96050030300E+03  0.50400001928E-02 0.  1.
    10030    2    1    2    0    0  0.00000000000E+00  0.00000000000E+00 -0.89540276040E+03  0.10255978458E+04  0.50010482696E+03 0.  0.
        4    1    3    3  502    0 -0.94635867211E+02  0.12870717627E+03 -0.84219063542E+03  0.85720952158E+03  0.12699999809E+01 0.  1.
       -4    1    3    3    0  502  0.94635867211E+02 -0.12870717627E+03 -0.53212124975E+02  0.16838832421E+03  0.12699999809E+01 0. -1.
</event>
<event>
 5   0  0.2715483E-02  0.5001415E+03  0.7818609E-02  0.1013742E+00
       -1   -1    0    0    0  501  0.00000000000E+00  0.00000000000E+00  0.57882998529E+02  0.57882998749E+02  0.50400001928E-02 0.  1.
        1   -1    0    0  501    0  0.00000000000E+00  0.00000000000E+00 -0.10803755387E+04  0.10803755387E+04  0.50400001928E-02 0. -1.
    10030    2    1    2    0    0  0.00000000000E+00  0.00000000000E+00 -0.10224925402E+04  0.11382585375E+04  0.50014148338E+03 0.  0.
        5    1    3    3  502    0 -0.14685059221E+03 -0.81509605140E+02 -0.89721805085E+02  0.19047573197E+03  0.46999998093E+01 0.  1.
       -5    1    3    3    0  502  0.14685059221E+03  0.81509605140E+02 -0.93277073511E+03  0.94778280551E+03  0.46999998093E+01 0. -1.
</event>
<event>
 5   0  0.4409622E-02  0.5048575E+03  0.7818609E-02  0.1012519E+00
        2   -1    0    0  501    0  0.00000000000E+00  0.00000000000E+00  0.21251145507E+03  0.21251145508E+03  0.25500000920E-02 0.  1.
       -2   -1    0    0    0  501  0.00000000000E+00  0.00000000000E+00 -0.29984392659E+03  0.29984392660E+03  0.25500000920E-02 0. -1.
    10030    2    1    2    0    0  0.00000000000E+00  0.00000000000E+00 -0.87332471525E+02  0.51235538169E+03  0.50485748144E+03 0.  0.
        3    1    3    3  502    0 -0.13420261678E+03  0.15776455231E+01  0.17330186932E+03  0.21919484352E+03  0.10100000352E+00 0.  1.
       -3    1    3    3    0  502  0.13420261678E+03 -0.15776455231E+01 -0.26063434084E+03  0.29316053817E+03  0.10100000352E+00 0. -1.
</event>
<event>
 5   0  0.4631619E-02  0.5017419E+03  0.7818609E-02  0.1013325E+00
       -2   -1    0    0    0  501  0.00000000000E+00  0.00000000000E+00  0.41814066426E+02  0.41814066504E+02  0.25500000920E-02 0. -1.
        2   -1    0    0  501    0  0.00000000000E+00  0.00000000000E+00 -0.15051451410E+04  0.15051451410E+04  0.25500000920E-02 0.  1.
    10030    2    1    2    0    0  0.00000000000E+00  0.00000000000E+00 -0.14633310746E+04  0.15469592075E+04  0.50174192159E+03 0.  0.
        5    1    3    3  502    0 -0.23675626947E+03 -0.86839217154E+01 -0.47769693165E+03  0.53324046183E+03  0.46999998093E+01 0. -1.
       -5    1    3    3    0  502  0.23675626947E+03  0.86839217154E+01 -0.98563414296E+03  0.10137187457E+04  0.46999998093E+01 0.  1.
</event>
<event>
 5   0  0.2715483E-02  0.4999021E+03  0.7818609E-02  0.1013804E+00
        1   -1    0    0  501    0  0.00000000000E+00  0.00000000000E+00  0.58584982037E+03  0.58584982039E+03  0.50400001928E-02 0.  1.
       -1   -1    0    0    0  501  0.00000000000E+00  0.00000000000E+00 -0.10664086381E+03  0.10664086392E+03  0.50400001928E-02 0. -1.
    10030    2    1    2    0    0  0.00000000000E+00  0.00000000000E+00  0.47920895657E+03  0.69249068432E+03  0.49990211423E+03 0.  0.
        5    1    3    3  502    0 -0.64177615847E+02 -0.47357768465E+02 -0.88475026530E+02  0.11921176506E+03  0.46999998093E+01 0. -1.
       -5    1    3    3    0  502  0.64177615847E+02  0.47357768465E+02  0.56768398310E+03  0.57327891926E+03  0.46999998093E+01 0.  1.
</event>
<event>
 5   0  0.4519539E-02  0.4875001E+03  0.7818609E-02  0.1017094E+00
       -2   -1    0    0    0  501  0.00000000000E+00  0.00000000000E+00  0.68293163193E+02  0.68293163240E+02  0.25500000920E-02 0.  1.
        2   -1    0    0  501    0  0.00000000000E+00  0.00000000000E+00 -0.86998584957E+03  0.86998584958E+03  0.25500000920E-02 0. -1.
    10030    2    1    2    0    0  0.00000000000E+00  0.00000000000E+00 -0.80169268638E+03  0.93827901282E+03  0.48750009487E+03 0.  0.
        4    1    3    3  502    0  0.12517869524E+03  0.20500635254E+03 -0.32113687314E+03  0.40103343316E+03  0.12699999809E+01 0.  1.
       -4    1    3    3    0  502 -0.12517869524E+03 -0.20500635254E+03 -0.48055581324E+03  0.53724557966E+03  0.12699999809E+01 0. -1.
</event>
<event>
 5   0  0.2643185E-02  0.4968526E+03  0.7818609E-02  0.1014604E+00
       -1   -1    0    0    0  501  0.00000000000E+00  0.00000000000E+00  0.90038259437E+02  0.90038259578E+02  0.50400001928E-02 0. -1.
        1   -1    0    0  501    0  0.00000000000E+00  0.00000000000E+00 -0.68543766532E+03  0.68543766534E+03  0.50400001928E-02 0.  1.
    10030    2    1    2    0    0  0.00000000000E+00  0.00000000000E+00 -0.59539940588E+03  0.77547592492E+03  0.49685255117E+03 0.  0.
        1    1    3    3  502    0  0.13478356225E+03  0.96635378175E+02 -0.58638269679E+03  0.60938466676E+03  0.50400001928E-02 0.  1.
       -1    1    3    3    0  502 -0.13478356225E+03 -0.96635378175E+02 -0.90167090968E+01  0.16609125816E+03  0.50400001928E-02 0. -1.
</event>
<event>
 5   0  0.2719671E-02  0.4817495E+03  0.7818609E-02  0.1018655E+00
       -1   -1    0    0    0  501  0.00000000000E+00  0.00000000000E+00  0.10680454091E+04  0.10680454092E+04  0.50400001928E-02 0.  1.
        1   -1    0    0  501    0  0.00000000000E+00  0.00000000000E+00 -0.54324130695E+02  0.54324130928E+02  0.50400001928E-02 0. -1.
    10030    2    1    2    0    0  0.00000000000E+00  0.00000000000E+00  0.10137212784E+04  0.11223695401E+04  0.48174947237E+03 0.  0.
        2    1    3    3  502    0 -0.88633455057E+02  0.12868635304E+02 -0.14089218241E+02  0.90664200250E+02  0.25500000920E-02 0. -1.
       -2    1    3    3    0  502  0.88633455057E+02 -0.12868635304E+02  0.10278104967E+04  0.10317053398E+04  0.25500000920E-02 0.  1.
</event>
<event>
 5   0  0.2723308E-02  0.4977434E+03  0.7818609E-02  0.1014370E+00
       -1   -1    0    0    0  501  0.00000000000E+00  0.00000000000E+00  0.29847823352E+03  0.29847823356E+03  0.50400001928E-02 0.  1.
        1   -1    0    0  501    0  0.00000000000E+00  0.00000000000E+00 -0.20750965587E+03  0.20750965593E+03  0.50400001928E-02 0. -1.
    10030    2    1    2    0    0  0.00000000000E+00  0.00000000000E+00  0.90968577646E+02  0.50598788949E+03  0.49774336981E+03 0.  0.
        4    1    3    3  502    0 -0.20986310227E+03  0.12255176230E+03 -0.90138329347E+01  0.24319604894E+03  0.12699999809E+01 0. -1.
       -4    1    3    3    0  502  0.20986310227E+03 -0.12255176230E+03  0.99982410581E+02  0.26279184055E+03  0.12699999809E+01 0.  1.
</event>
<event>
 5   0  0.2723308E-02  0.4989470E+03  0.7818609E-02  0.1014054E+00
        1   -1    0    0  501    0  0.00000000000E+00  0.00000000000E+00  0.11066889194E+04  0.11066889194E+04  0.50400001928E-02 0.  1.
       -1   -1    0    0    0  501  0.00000000000E+00  0.00000000000E+00 -0.56237145004E+02  0.56237145230E+02  0.50400001928E-02 0. -1.
    10030    2    1    2    0    0  0.00000000000E+00  0.00000000000E+00  0.10504517744E+04  0.11629260646E+04  0.49894699267E+03 0.  0.
        4    1    3    3  502    0 -0.29844816788E+02 -0.42078643377E+02  0.10941133900E+04  0.10953296528E+04  0.12699999809E+01 0.  1.
       -4    1    3    3    0  502  0.29844816788E+02  0.42078643377E+02 -0.43661615575E+02  0.67596411829E+02  0.12699999809E+01 0. -1.
</event>
<event>
 5   0  0.2643185E-02  0.5003642E+03  0.7818609E-02  0.1013684E+00
       -1   -1    0    0    0  501  0.00000000000E+00  0.00000000000E+00  0.11511165276E+04  0.11511165276E+04  0.50400001928E-02 0. -1.
        1   -1    0    0  501    0  0.00000000000E+00  0.00000000000E+00 -0.54374236016E+02  0.54374236250E+02  0.50400001928E-02 0.  1.
    10030    2    1    2    0    0  0.00000000000E+00  0.00000000000E+00  0.10967422916E+04  0.12054907638E+04  0.50036419496E+03 0.  0.
        1    1    3    3  502    0 -0.13192405961E+03  0.27259582475E+02  0.10562784108E+04  0.10648338479E+04  0.50400001928E-02 0. -1.
       -1    1    3    3    0  502  0.13192405961E+03 -0.27259582475E+02  0.40463880720E+02  0.14065691597E+03  0.50400001928E-02 0.  1.
</event>
<event>
 5   0  0.2715483E-02  0.4990775E+03  0.7818609E-02  0.1014020E+00
       -1   -1    0    0    0  501  0.00000000000E+00  0.00000000000E+00  0.69332647721E+02  0.69332647904E+02  0.50400001928E-02 0. -1.
        1   -1    0    0  501    0  0.00000000000E+00  0.00000000000E+00 -0.89812790402E+03  0.89812790403E+03  0.50400001928E-02 0.  1.
    10030    2    1    2    0    0  0.00000000000E+00  0.00000000000E+00 -0.82879525630E+03  0.96746055194E+03  0.49907749167E+03 0.  0.
        5    1    3    3  502    0 -0.20606550280E+03 -0.14057824631E+03 -0.42354374191E+03  0.49156548505E+03  0.46999998093E+01 0.  1.
       -5    1    3    3    0  502  0.20606550280E+03  0.14057824631E+03 -0.40525151439E+03  0.47589506689E+03  0.46999998093E+01 0. -1.
</event>
<event>
 5   0  0.4519539E-02  0.4989056E+03  0.7818609E-02  0.1014065E+00
        2   -1    0    0  501    0  0.00000000000E+00  0.00000000000E+00  0.27029304877E+03  0.27029304878E+03  0.25500000920E-02 0. -1.
       -2   -1    0    0    0  501  0.00000000000E+00  0.00000000000E+00 -0.23021934232E+03  0.23021934233E+03  0.25500000920E-02 0.  1.
    10030    2    1    2    0    0  0.00000000000E+00  0.00000000000E+00  0.40073706452E+02  0.50051239111E+03  0.49890555390E+03 0.  0.
        4    1    3    3  502    0 -0.29137425277E+02  0.23867412635E+03  0.86664206741E+02  0.25559073882E+03  0.12699999809E+01 0. -1.
       -4    1    3    3    0  502  0.29137425277E+02 -0.23867412635E+03 -0.46590500289E+02  0.24492165229E+03  0.12699999809E+01 0.  1.
</event>
<event>
 5   0  0.2715483E-02  0.5005584E+03  0.7818609E-02  0.1013633E+00
        1   -1    0    0  501    0  0.00000000000E+00  0.00000000000E+00  0.13208588381E+03  0.13208588390E+03  0.50400001928E-02 0.  1.
       -1   -1    0    0    0  501  0.00000000000E+00  0.00000000000E+00 -0.47423436899E+03  0.47423436902E+03  0.50400001928E-02 0. -1.
    10030    2    1    2    0    0  0.00000000000E+00  0.00000000000E+00 -0.34214848518E+03  0.60632025292E+03  0.50055835143E+03 0.  0.
        5    1    3    3  502    0  0.12996592464E+03  0.11328079980E+03  0.48613088106E+02  0.17918985324E+03  0.46999998093E+01 0.  1.
       -5    1    3    3    0  502 -0.12996592464E+03 -0.11328079980E+03 -0.39076157329E+03  0.42713039968E+03  0.46999998093E+01 0. -1.
</event>
<event>
 5   0  0.4519539E-02  0.5004011E+03  0.7818609E-02  0.1013674E+00
       -2   -1    0    0    0  501  0.00000000000E+00  0.00000000000E+00  0.23617150578E+03  0.23617150579E+03  0.25500000920E-02 0.  1.
        2   -1    0    0  501    0  0.00000000000E+00  0.00000000000E+00 -0.26506294623E+03  0.26506294624E+03  0.25500000920E-02 0. -1.
    10030    2    1    2    0    0  0.00000000000E+00  0.00000000000E+00 -0.28891440457E+02  0.50123445203E+03  0.50040109969E+03 0.  0.
        4    1    3    3  502    0  0.24780307578E+02  0.16444358835E+03  0.17279590852E+03  0.23982451146E+03  0.12699999809E+01 0.  1.
       -4    1    3    3    0  502 -0.24780307578E+02 -0.16444358835E+03 -0.20168734898E+03  0.26140994058E+03  0.12699999809E+01 0. -1.
</event>
<event>
 5   0  0.2643185E-02  0.4984627E+03  0.7818609E-02  0.1014181E+00
        1   -1    0    0  501    0  0.00000000000E+00  0.00000000000E+00  0.13744905907E+04  0.13744905907E+04  0.50400001928E-02 0. -1.
       -1   -1    0    0    0  501  0.00000000000E+00  0.00000000000E+00 -0.45192217319E+02  0.45192217600E+02  0.50400001928E-02 0.  1.
    10030    2    1    2    0    0  0.00000000000E+00  0.00000000000E+00  0.13292983734E+04  0.14196828083E+04  0.49846274760E+03 0.  0.
        1    1    3    3  502    0  0.11200697128E+03 -0.45388612837E+02  0.43846157418E+02  0.12856194358E+03  0.50400001928E-02 0.  1.
       -1    1    3    3    0  502 -0.11200697128E+03  0.45388612837E+02  0.12854522160E+04  0.12911208648E+04  0.50400001928E-02 0. -1.
</event>
<event>
 5   0  0.1805500E-02  0.4943656E+03  0.7818609E-02  0.1015260E+00
        3   -1    0    0  501    0  0.00000000000E+00  0.00000000000E+00  0.15402926927E+03  0.15402930238E+03  0.10100000352E+00 0. -1.
       -3   -1    0    0    0  501  0.00000000000E+00  0.00000000000E+00 -0.39667344405E+03  0.39667345691E+03  0.10100000352E+00 0.  1.
    10030    2    1    2    0    0  0.00000000000E+00  0.00000000000E+00 -0.24264417478E+03  0.55070275930E+03  0.49436558693E+03 0.  0.
        4    1    3    3  502    0  0.46416441908E+02  0.23281671989E+03 -0.44631812493E+02  0.24156101243E+03  0.12699999809E+01 0. -1.
       -4    1    3    3    0  502 -0.46416441908E+02 -0.23281671989E+03 -0.19801236229E+03  0.30914174687E+03  0.12699999809E+01 0.  1.
</event>
<event>
 5   0  0.4451135E-02  0.4999272E+03  0.7818609E-02  0.1013798E+00
        2   -1    0    0  501    0  0.00000000000E+00  0.00000000000E+00  0.12053837742E+04  0.12053837742E+04  0.25500000920E-02 0.  1.
       -2   -1    0    0    0  501  0.00000000000E+00  0.00000000000E+00 -0.51835600820E+02  0.51835600883E+02  0.25500000920E-02 0. -1.
    10030    2    1    2    0    0  0.00000000000E+00  0.00000000000E+00  0.11535481733E+04  0.12572193750E+04  0.49992716347E+03 0.  0.
        1    1    3    3  502    0  0.15371550202E+03 -0.98922164571E+02  0.14801831557E+03  0.23520942153E+03  0.50400001928E-02 0. -1.
       -1    1    3    3    0  502 -0.15371550202E+03  0.98922164571E+02  0.10055298578E+04  0.10220099535E+04  0.50400001928E-02 0.  1.
</event>
<event>
 5   0  0.2643185E-02  0.5302232E+03  0.7818609E-02  0.1006178E+00
       -1   -1    0    0    0  501  0.00000000000E+00  0.00000000000E+00  0.79442944140E+02  0.79442944300E+02  0.50400001928E-02 0. -1.
        1   -1    0    0  501    0  0.00000000000E+00  0.00000000000E+00 -0.88471229990E+03  0.88471229992E+03  0.50400001928E-02 0.  1.
    10030    2    1    2    0    0  0.00000000000E+00  0.00000000000E+00 -0.80526935576E+03  0.96415524422E+03  0.53022316021E+03 0.  0.
        1    1    3    3  502    0  0.13672914542E+03 -0.11355755473E+03 -0.76032725930E+03  0.78082502439E+03  0.50400001928E-02 0.  1.
       -1    1    3    3    0  502 -0.13672914542E+03  0.11355755473E+03 -0.44942096457E+02  0.18333021983E+03  0.50400001928E-02 0. -1.
</event>
<event>
 5   0  0.4534223E-02  0.5015528E+03  0.7818609E-02  0.1013374E+00
        2   -1    0    0  501    0  0.00000000000E+00  0.00000000000E+00  0.12301130893E+04  0.12301130893E+04  0.25500000920E-02 0. -1.
       -2   -1    0    0    0  501  0.00000000000E+00  0.00000000000E+00 -0.51124415022E+02  0.51124415085E+02  0.25500000920E-02 0.  1.
    10030    2    1    2    0    0  0.00000000000E+00  0.00000000000E+00  0.11789886743E+04  0.12812375044E+04  0.50155283728E+03 0.  0.
        2    1    3    3  502    0  0.17282020919E+02  0.11595068149E+03  0.11558055994E+04  0.11617356896E+04  0.25500000920E-02 0. -1.
       -2    1    3    3    0  502 -0.17282020919E+02 -0.11595068149E+03  0.23183074906E+02  0.11950181486E+03  0.25500000920E-02 0.  1.
</event>
<event>
 5   0  0.2643185E-02  0.5005067E+03  0.7818609E-02  0.1013647E+00
        1   -1    0    0  501    0  0.00000000000E+00  0.00000000000E+00  0.37409931649E+03  0.37409931652E+03  0.50400001928E-02 0. -1.
       -1   -1    0    0    0  501  0.00000000000E+00  0.00000000000E+00 -0.16740673061E+03  0.16740673069E+03  0.50400001928E-02 0.  1.
    10030    2    1    2    0    0  0.00000000000E+00  0.00000000000E+00  0.20669258587E+03  0.54150604721E+03  0.50050671735E+03 0.  0.
        1    1    3    3  502    0  0.21560367431E+03 -0.32138594101E+02  0.23633353083E+03  0.32151418542E+03  0.50400001928E-02 0. -1.
       -1    1    3    3    0  502 -0.21560367431E+03  0.32138594101E+02 -0.29640944957E+02  0.21999186179E+03  0.50400001928E-02 0.  1.
</event>
<event>
 5   0  0.2779445E-02  0.4997796E+03  0.7818609E-02  0.1013836E+00
       -1   -1    0    0    0  501  0.00000000000E+00  0.00000000000E+00  0.62675144773E+02  0.62675144976E+02  0.50400001928E-02 0.  1.
        1   -1    0    0  501    0  0.00000000000E+00  0.00000000000E+00 -0.99632666212E+03  0.99632666213E+03  0.50400001928E-02 0. -1.
    10030    2    1    2    0    0  0.00000000000E+00  0.00000000000E+00 -0.93365151734E+03  0.10590018071E+04  0.49977962305E+03 0.  0.
        3    1    3    3  502    0  0.10612689464E+02 -0.16609525552E+03 -0.86179392434E+03  0.87771808760E+03  0.10100000352E+00 0.  1.
       -3    1    3    3    0  502 -0.10612689464E+02  0.16609525552E+03 -0.71857593007E+02  0.18128371950E+03  0.10100000352E+00 0. -1.
</event>
<event>
 5   0  0.2643185E-02  0.5096348E+03  0.7818609E-02  0.1011294E+00
        1   -1    0    0  501    0  0.00000000000E+00  0.00000000000E+00  0.35621307880E+03  0.35621307884E+03  0.50400001928E-02 0. -1.
       -1   -1    0    0    0  501  0.00000000000E+00  0.00000000000E+00 -0.18228392163E+03  0.18228392170E+03  0.50400001928E-02 0.  1.
    10030    2    1    2    0    0  0.00000000000E+00  0.00000000000E+00  0.17392915717E+03  0.53849700054E+03  0.50963483778E+03 0.  0.
        1    1    3    3  502    0  0.40704612575E+02 -0.24923054897E+03  0.12293955698E+03  0.28086805928E+03  0.50400001928E-02 0. -1.
       -1    1    3    3    0  502 -0.40704612575E+02  0.24923054897E+03  0.50989600188E+02  0.25762894127E+03  0.50400001928E-02 0.  1.
</event>
<event>
 5   0  0.4631619E-02  0.4994837E+03  0.7818609E-02  0.1013914E+00
        2   -1    0    0  501    0  0.00000000000E+00  0.00000000000E+00  0.76956808806E+03  0.76956808806E+03  0.25500000920E-02 0. -1.
       -2   -1    0    0    0  501  0.00000000000E+00  0.00000000000E+00 -0.81046760211E+02  0.81046760251E+02  0.25500000920E-02 0.  1.
    10030    2    1    2    0    0  0.00000000000E+00  0.00000000000E+00  0.68852132784E+03  0.85061484831E+03  0.49948373474E+03 0.  0.
        5    1    3    3  502    0 -0.61073000215E+02  0.22973375683E+03  0.21410289967E+03  0.31995257778E+03  0.46999998093E+01 0.  1.
       -5    1    3    3    0  502  0.61073000215E+02 -0.22973375683E+03  0.47441842817E+03  0.53066227053E+03  0.46999998093E+01 0. -1.
</event>
<event>
 5   0  0.4409622E-02  0.4993056E+03  0.7818609E-02  0.1013960E+00
        2   -1    0    0  501    0  0.00000000000E+00  0.00000000000E+00  0.70804758390E+03  0.70804758391E+03  0.25500000920E-02 0.  1.
       -2   -1    0    0    0  501  0.00000000000E+00  0.00000000000E+00 -0.88025902868E+02  0.88025902905E+02  0.25500000920E-02 0. -1.
    10030    2    1    2    0    0  0.00000000000E+00  0.00000000000E+00  0.62002168103E+03  0.79607348681E+03  0.49930562930E+03 0.  0.
        3    1    3    3  502    0 -0.15871065446E+03  0.92269754585E+02  0.40268033117E+02  0.18794761010E+03  0.10100000352E+00 0. -1.
       -3    1    3    3    0  502  0.15871065446E+03 -0.92269754585E+02  0.57975364792E+03  0.60812587671E+03  0.10100000352E+00 0.  1.
</event>
<event>
 5   0  0.4451135E-02  0.4994088E+03  0.7818609E-02  0.1013933E+00
        2   -1    0    0  501    0  0.00000000000E+00  0.00000000000E+00  0.20988256474E+03  0.20988256475E+03  0.25500000920E-02 0.  1.
       -2   -1    0    0    0  501  0.00000000000E+00  0.00000000000E+00 -0.29708181744E+03  0.29708181745E+03  0.25500000920E-02 0. -1.
    10030    2    1    2    0    0  0.00000000000E+00  0.00000000000E+00 -0.87199252700E+02  0.50696438220E+03  0.49940882566E+03 0.  0.
        1    1    3    3  502    0 -0.24765407039E+03 -0.10318641003E+02 -0.74277369431E+02  0.25875884635E+03  0.50400001928E-02 0.  1.
       -1    1    3    3    0  502  0.24765407039E+03  0.10318641003E+02 -0.12921883269E+02  0.24820553585E+03  0.50400001928E-02 0. -1.
</event>
<event>
 5   0  0.2719671E-02  0.4988870E+03  0.7818609E-02  0.1014070E+00
        1   -1    0    0  501    0  0.00000000000E+00  0.00000000000E+00  0.14655207637E+04  0.14655207637E+04  0.50400001928E-02 0.  1.
       -1   -1    0    0    0  501  0.00000000000E+00  0.00000000000E+00 -0.42457299744E+02  0.42457300043E+02  0.50400001928E-02 0. -1.
    10030    2    1    2    0    0  0.00000000000E+00  0.00000000000E+00  0.14230634640E+04  0.15079780638E+04  0.49888697950E+03 0.  0.
        2    1    3    3  502    0 -0.39041712157E+02 -0.66156558599E+01  0.14559597220E+04  0.14564981066E+04  0.25500000920E-02 0.  1.
       -2    1    3    3    0  502  0.39041712157E+02  0.66156558599E+01 -0.32896258084E+02  0.51479957197E+02  0.25500000920E-02 0. -1.
</event>
<event>
 5   0  0.2643185E-02  0.4993308E+03  0.7818609E-02  0.1013954E+00
        1   -1    0    0  501    0  0.00000000000E+00  0.00000000000E+00  0.30353541142E+03  0.30353541146E+03  0.50400001928E-02 0. -1.
       -1   -1    0    0    0  501  0.00000000000E+00  0.00000000000E+00 -0.20535596685E+03  0.20535596691E+03  0.50400001928E-02 0.  1.
    10030    2    1    2    0    0  0.00000000000E+00  0.00000000000E+00  0.98179444570E+02  0.50889137837E+03  0.49933078380E+03 0.  0.
        1    1    3    3  502    0  0.21447797319E+03  0.54040134601E+01  0.17921686670E+03  0.27955087136E+03  0.50400001928E-02 0. -1.
       -1    1    3    3    0  502 -0.21447797319E+03 -0.54040134601E+01 -0.81037422127E+02  0.22934050701E+03  0.50400001928E-02 0.  1.
</event>
<event>
 5   0  0.4631619E-02  0.4999456E+03  0.7818609E-02  0.1013793E+00
        2   -1    0    0  501    0  0.00000000000E+00  0.00000000000E+00  0.33899953440E+03  0.33899953441E+03  0.25500000920E-02 0.  1.
       -2   -1    0    0    0  501  0.00000000000E+00  0.00000000000E+00 -0.18432594538E+03  0.18432594539E+03  0.25500000920E-02 0. -1.
    10030    2    1    2    0    0  0.00000000000E+00  0.00000000000E+00  0.15467358903E+03  0.52332547981E+03  0.49994563572E+03 0.  0.
        5    1    3    3  502    0  0.27974742313E+02  0.15650403107E+02 -0.18211900715E+03  0.18497822599E+03  0.46999998093E+01 0. -1.
       -5    1    3    3    0  502 -0.27974742313E+02 -0.15650403107E+02  0.33679259618E+03  0.33834725382E+03  0.46999998093E+01 0.  1.
</event>
<event>
 5   0  0.2779445E-02  0.4991471E+03  0.7818609E-02  0.1014002E+00
       -1   -1    0    0    0  501  0.00000000000E+00  0.00000000000E+00  0.42699333999E+03  0.42699334002E+03  0.50400001928E-02 0.  1.
        1   -1    0    0  501    0  0.00000000000E+00  0.00000000000E+00 -0.14587339684E+03  0.14587339693E+03  0.50400001928E-02 0. -1.
    10030    2    1    2    0    0  0.00000000000E+00  0.00000000000E+00  0.28111994315E+03  0.57286673694E+03  0.49914714850E+03 0.  0.
        3    1    3    3  502    0  0.11699816775E+03  0.22040249289E+03  0.13528450688E+03  0.28384456686E+03  0.10100000352E+00 0.  1.
       -3    1    3    3    0  502 -0.11699816775E+03 -0.22040249289E+03  0.14583543626E+03  0.28902217009E+03  0.10100000352E+00 0. -1.
</event>
<event>
 5   0  0.2723308E-02  0.5001159E+03  0.7818609E-02  0.1013749E+00
       -1   -1    0    0    0  501  0.00000000000E+00  0.00000000000E+00  0.11875920761E+03  0.11875920772E+03  0.50400001928E-02 0.  1.
        1   -1    0    0  501    0  0.00000000000E+00  0.00000000000E+00 -0.52651900349E+03  0.52651900352E+03  0.50400001928E-02 0. -1.
    10030    2    1    2    0    0  0.00000000000E+00  0.00000000000E+00 -0.40775979588E+03  0.64527821123E+03  0.50011590532E+03 0.  0.
        4    1    3    3  502    0  0.97150659001E+02  0.22304512747E+03 -0.12931254174E+03  0.27551901166E+03  0.12699999809E+01 0.  1.
       -4    1    3    3    0  502 -0.97150659001E+02 -0.22304512747E+03 -0.27844725414E+03  0.36975919958E+03  0.12699999809E+01 0. -1.
</event>
<event>
 5   0  0.4631619E-02  0.4989110E+03  0.7818609E-02  0.1014064E+00
        2   -1    0    0  501    0  0.00000000000E+00  0.00000000000E+00  0.56238976602E+03  0.56238976603E+03  0.25500000920E-02 0. -1.
       -2   -1    0    0    0  501  0.00000000000E+00  0.00000000000E+00 -0.11064933392E+03  0.11064933395E+03  0.25500000920E-02 0.  1.
    10030    2    1    2    0    0  0.00000000000E+00  0.00000000000E+00  0.45174043210E+03  0.67303909998E+03  0.49891102624E+03 0.  0.
        5    1    3    3  502    0 -0.21929626755E+03  0.98013437699E+02  0.31645016649E+03  0.39731635355E+03  0.46999998093E+01 0. -1.
       -5    1    3    3    0  502  0.21929626755E+03 -0.98013437699E+02  0.13529026561E+03  0.27572274642E+03  0.46999998093E+01 0.  1.
</event>
<event>
 5   0  0.2715483E-02  0.5025096E+03  0.7818609E-02  0.1013126E+00
       -1   -1    0    0    0  501  0.00000000000E+00  0.00000000000E+00  0.96199128019E+02  0.96199128151E+02  0.50400001928E-02 0.  1.
        1   -1    0    0  501    0  0.00000000000E+00  0.00000000000E+00 -0.65623233990E+03  0.65623233992E+03  0.50400001928E-02 0. -1.
    10030    2    1    2    0    0  0.00000000000E+00  0.00000000000E+00 -0.56003321189E+03  0.75243146807E+03  0.50250961755E+03 0.  0.
        5    1    3    3  502    0  0.95534715659E+02 -0.14127898211E+02 -0.62726050541E+03  0.63466866241E+03  0.46999998093E+01 0. -1.
       -5    1    3    3    0  502 -0.95534715659E+02  0.14127898211E+02  0.67227293526E+02  0.11776280566E+03  0.46999998093E+01 0.  1.
</event>
<event>
 5   0  0.4631619E-02  0.4995192E+03  0.7818609E-02  0.1013904E+00
       -2   -1    0    0    0  501  0.00000000000E+00  0.00000000000E+00  0.19672211340E+03  0.19672211342E+03  0.25500000920E-02 0. -1.
        2   -1    0    0  501    0  0.00000000000E+00  0.00000000000E+00 -0.31709631503E+03  0.31709631504E+03  0.25500000920E-02 0.  1.
    10030    2    1    2    0    0  0.00000000000E+00  0.00000000000E+00 -0.12037420163E+03  0.51381842846E+03  0.49951919784E+03 0.  0.
        5    1    3    3  502    0 -0.14886877957E+03  0.14599905377E+03  0.81151238094E+02  0.22379734287E+03  0.46999998093E+01 0. -1.
       -5    1    3    3    0  502  0.14886877957E+03 -0.14599905377E+03 -0.20152543972E+03  0.29002108559E+03  0.46999998093E+01 0.  1.
</event>
<event>
 5   0  0.4519539E-02  0.4968715E+03  0.7818609E-02  0.1014599E+00
        2   -1    0    0  501    0  0.00000000000E+00  0.00000000000E+00  0.17070302089E+03  0.17070302090E+03  0.25500000920E-02 0.  1.
       -2   -1    0    0    0  501  0.00000000000E+00  0.00000000000E+00 -0.36156553419E+03  0.36156553419E+03  0.25500000920E-02 0. -1.
    10030    2    1    2    0    0  0.00000000000E+00  0.00000000000E+00 -0.19086251330E+03  0.53226855510E+03  0.49687152843E+03 0.  0.
        4    1    3    3  502    0  0.63352328100E+01 -0.46508684241E+02  0.16590629986E+03  0.17242304404E+03  0.12699999809E+01 0.  1.
       -4    1    3    3    0  502 -0.63352328100E+01  0.46508684241E+02 -0.35676881316E+03  0.35984551106E+03  0.12699999809E+01 0. -1.
</event>
<event>
 5   0  0.4451135E-02  0.4969520E+03  0.7818609E-02  0.1014578E+00
       -2   -1    0    0    0  501  0.00000000000E+00  0.00000000000E+00  0.61458312295E+02  0.61458312348E+02  0.25500000920E-02 0. -1.
        2   -1    0    0  501    0  0.00000000000E+00  0.00000000000E+00 -0.10045885505E+04  0.10045885505E+04  0.25500000920E-02 0.  1.
    10030    2    1    2    0    0  0.00000000000E+00  0.00000000000E+00 -0.94313023822E+03  0.10660468629E+04  0.49695197714E+03 0.  0.
        1    1    3    3  502    0  0.89096910805E+02  0.13104175074E+03 -0.61000967660E+02  0.16979787405E+03  0.50400001928E-02 0. -1.
       -1    1    3    3    0  502 -0.89096910805E+02 -0.13104175074E+03 -0.88212927056E+03  0.89624898882E+03  0.50400001928E-02 0.  1.
</event>
<event>
 5   0  0.4451135E-02  0.5010547E+03  0.7818609E-02  0.1013504E+00
        2   -1    0    0  501    0  0.00000000000E+00  0.00000000000E+00  0.47827320907E+03  0.47827320908E+03  0.25500000920E-02 0.  1.
       -2   -1    0    0    0  501  0.00000000000E+00  0.00000000000E+00 -0.13123033036E+03  0.13123033038E+03  0.25500000920E-02 0. -1.
    10030    2    1    2    0    0  0.00000000000E+00  0.00000000000E+00  0.34704287872E+03  0.60950353946E+03  0.50105469257E+03 0.  0.
        1    1    3    3  502    0 -0.23828489472E+03 -0.14994402027E+02  0.26583824687E+03  0.35731568209E+03  0.50400001928E-02 0.  1.
       -1    1    3    3    0  502  0.23828489472E+03  0.14994402027E+02  0.81204631840E+02  0.25218785736E+03  0.50400001928E-02 0. -1.
</event>
<event>
 5   0  0.1805500E-02  0.4917956E+03  0.7818609E-02  0.1015943E+00
       -3   -1    0    0    0  501  0.00000000000E+00  0.00000000000E+00  0.12060184997E+03  0.12060189226E+03  0.10100000352E+00 0.  1.
        3   -1    0    0  501    0  0.00000000000E+00  0.00000000000E+00 -0.50136632692E+03  0.50136633710E+03  0.10100000352E+00 0. -1.
    10030    2    1    2    0    0  0.00000000000E+00  0.00000000000E+00 -0.38076447696E+03  0.62196822936E+03  0.49179557889E+03 0.  0.
        3    1    3    3  502    0 -0.54523396713E+02  0.21279942133E+03 -0.50639488251E+02  0.22543460799E+03  0.10100000352E+00 0. -1.
       -3    1    3    3    0  502  0.54523396713E+02 -0.21279942133E+03 -0.33012498870E+03  0.39653362137E+03  0.10100000352E+00 0.  1.
</event>
<event>
 5   0  0.2719671E-02  0.5009833E+03  0.7818609E-02  0.1013523E+00
        1   -1    0    0  501    0  0.00000000000E+00  0.00000000000E+00  0.62119584665E+02  0.62119584870E+02  0.50400001928E-02 0. -1.
       -1   -1    0    0    0  501  0.00000000000E+00  0.00000000000E+00 -0.10100850229E+04  0.10100850229E+04  0.50400001928E-02 0.  1.
    10030    2    1    2    0    0  0.00000000000E+00  0.00000000000E+00 -0.94796543820E+03  0.10722046077E+04  0.50098328201E+03 0.  0.
        2    1    3    3  502    0  0.49468382184E+02 -0.22178088120E+03 -0.24837491904E+03  0.33663627333E+03  0.25500000920E-02 0. -1.
       -2    1    3    3    0  502 -0.49468382184E+02  0.22178088120E+03 -0.69959051916E+03  0.73556833442E+03  0.25500000920E-02 0.  1.
</event>
<event>
 5   0  0.4451135E-02  0.5030194E+03  0.7818609E-02  0.1012994E+00
       -2   -1    0    0    0  501  0.00000000000E+00  0.00000000000E+00  0.10361059796E+03  0.10361059799E+03  0.25500000920E-02 0. -1.
        2   -1    0    0  501    0  0.00000000000E+00  0.00000000000E+00 -0.61052762947E+03  0.61052762948E+03  0.25500000920E-02 0.  1.
    10030    2    1    2    0    0  0.00000000000E+00  0.00000000000E+00 -0.50691703152E+03  0.71413822746E+03  0.50301941422E+03 0.  0.
        1    1    3    3  502    0 -0.49211969136E+02  0.24622151817E+03 -0.23287140924E+03  0.34245575945E+03  0.50400001928E-02 0. -1.
       -1    1    3    3    0  502  0.49211969136E+02 -0.24622151817E+03 -0.27404562228E+03  0.37168246802E+03  0.50400001928E-02 0.  1.
</event>
<event>
 5   0  0.2715483E-02  0.4993464E+03  0.7818609E-02  0.1013950E+00
        1   -1    0    0  501    0  0.00000000000E+00  0.00000000000E+00  0.74721623644E+03  0.74721623645E+03  0.50400001928E-02 0.  1.
       -1   -1    0    0    0  501  0.00000000000E+00  0.00000000000E+00 -0.83425243532E+02  0.83425243684E+02  0.50400001928E-02 0. -1.
    10030    2    1    2    0    0  0.00000000000E+00  0.00000000000E+00  0.66379099291E+03  0.83064148014E+03  0.49934635902E+03 0.  0.
        5    1    3    3  502    0 -0.22869718822E+03  0.99667696332E+02  0.31715225258E+03  0.40353896331E+03  0.46999998093E+01 0.  1.
       -5    1    3    3    0  502  0.22869718822E+03 -0.99667696332E+02  0.34663874032E+03  0.42710251683E+03  0.46999998093E+01 0. -1.
</event>
<event>
 5   0  0.2779445E-02  0.5008576E+03  0.7818609E-02  0.1013555E+00
        1   -1    0    0  501    0  0.00000000000E+00  0.00000000000E+00  0.69054671401E+03  0.69054671403E+03  0.50400001928E-02 0.  1.
       -1   -1    0    0    0  501  0.00000000000E+00  0.00000000000E+00 -0.90818752391E+02  0.90818752531E+02  0.50400001928E-02 0. -1.
    10030    2    1    2    0    0  0.00000000000E+00  0.00000000000E+00  0.59972796162E+03  0.78136546656E+03  0.50085762886E+03 0.  0.
        3    1    3    3  502    0  0.98399402374E+02 -0.21881980727E+03  0.41181932220E+03  0.47661275138E+03  0.10100000352E+00 0.  1.
       -3    1    3    3    0  502 -0.98399402374E+02  0.21881980727E+03  0.18790863942E+03  0.30475271518E+03  0.10100000352E+00 0. -1.
</event>
<event>
 5   0  0.4519539E-02  0.4976865E+03  0.7818609E-02  0.1014385E+00
        2   -1    0    0  501    0  0.00000000000E+00  0.00000000000E+00  0.63205740324E+03  0.63205740324E+03  0.25500000920E-02 0.  1.
       -2   -1    0    0    0  501  0.00000000000E+00  0.00000000000E+00 -0.97970490622E+02  0.97970490656E+02  0.25500000920E-02 0. -1.
    10030    2    1    2    0    0  0.00000000000E+00  0.00000000000E+00  0.53408691261E+03  0.73002789390E+03  0.49768654356E+03 0.  0.
        4    1    3    3  502    0  0.12345403419E+03 -0.21137416531E+03  0.20142089417E+03  0.31700461484E+03  0.12699999809E+01 0. -1.
       -4    1    3    3    0  502 -0.12345403419E+03  0.21137416531E+03  0.33266601844E+03  0.41302327906E+03  0.12699999809E+01 0.  1.
</event>
<event>
 5   0  0.2723308E-02  0.5002422E+03  0.7818609E-02  0.1013716E+00
       -1   -1    0    0    0  501  0.00000000000E+00  0.00000000000E+00  0.13884629808E+03  0.13884629817E+03  0.50400001928E-02 0.  1.
        1   -1    0    0  501    0  0.00000000000E+00  0.00000000000E+00 -0.45057418200E+03  0.45057418203E+03  0.50400001928E-02 0. -1.
    10030    2    1    2    0    0  0.00000000000E+00  0.00000000000E+00 -0.31172788392E+03  0.58942048021E+03  0.50024217023E+03 0.  0.
        4    1    3    3  502    0  0.44906931175E+02 -0.15612791412E+03 -0.37994104464E+03  0.41321830590E+03  0.12699999809E+01 0. -1.
       -4    1    3    3    0  502 -0.44906931175E+02  0.15612791412E+03  0.68213160718E+02  0.17620217430E+03  0.12699999809E+01 0.  1.
</event>
<event>
 5   0  0.4409622E-02  0.5001319E+03  0.7818609E-02  0.1013744E+00
       -2   -1    0    0    0  501  0.00000000000E+00  0.00000000000E+00  0.10534087910E+03  0.10534087913E+03  0.25500000920E-02 0. -1.
        2   -1    0    0  501    0  0.00000000000E+00  0.00000000000E+00 -0.59362498862E+03  0.59362498862E+03  0.25500000920E-02 0.  1.
    10030    2    1    2    0    0  0.00000000000E+00  0.00000000000E+00 -0.48828410952E+03  0.69896586775E+03  0.50013189528E+03 0.  0.
        3    1    3    3  502    0 -0.17444305021E+03  0.17707545373E+03 -0.28233604684E+03  0.37616452202E+03  0.10100000352E+00 0.  1.
       -3    1    3    3    0  502  0.17444305021E+03 -0.17707545373E+03 -0.20594806268E+03  0.32280134573E+03  0.10100000352E+00 0. -1.
</event>
<event>
 5   0  0.4409622E-02  0.5003561E+03  0.7818609E-02  0.1013686E+00
       -2   -1    0    0    0  501  0.00000000000E+00  0.00000000000E+00  0.79019556426E+02  0.79019556467E+02  0.25500000920E-02 0.  1.
        2   -1    0    0  501    0  0.00000000000E+00  0.00000000000E+00 -0.79207041003E+03  0.79207041003E+03  0.25500000920E-02 0. -1.
    10030    2    1    2    0    0  0.00000000000E+00  0.00000000000E+00 -0.71305085360E+03  0.87108996650E+03  0.50035608312E+03 0.  0.
        3    1    3    3  502    0  0.15800273722E+03  0.52958332906E+02 -0.31665854615E+02  0.16962366151E+03  0.10100000352E+00 0.  1.
       -3    1    3    3    0  502 -0.15800273722E+03 -0.52958332906E+02 -0.68138499899E+03  0.70146630499E+03  0.10100000352E+00 0. -1.
</event>
<event>
 5   0  0.4409622E-02  0.4986988E+03  0.7818609E-02  0.1014119E+00
        2   -1    0    0  501    0  0.00000000000E+00  0.00000000000E+00  0.10098090172E+04  0.10098090172E+04  0.25500000920E-02 0.  1.
       -2   -1    0    0    0  501  0.00000000000E+00  0.00000000000E+00 -0.61571180705E+02  0.61571180758E+02  0.25500000920E-02 0. -1.
    10030    2    1    2    0    0  0.00000000000E+00  0.00000000000E+00  0.94823783652E+03  0.10713801980E+04  0.49869884101E+03 0.  0.
        3    1    3    3  502    0 -0.19202470427E+03  0.13018401629E+03  0.67047583562E+03  0.70947813321E+03  0.10100000352E+00 0.  1.
       -3    1    3    3    0  502  0.19202470427E+03 -0.13018401629E+03  0.27776200090E+03  0.36190206478E+03  0.10100000352E+00 0. -1.
</event>
<event>
 5   0  0.2719671E-02  0.4972459E+03  0.7818609E-02  0.1014500E+00
        1   -1    0    0  501    0  0.00000000000E+00  0.00000000000E+00  0.78128855919E+02  0.78128856081E+02  0.50400001928E-02 0.  1.
       -1   -1    0    0    0  501  0.00000000000E+00  0.00000000000E+00 -0.79117198239E+03  0.79117198240E+03  0.50400001928E-02 0. -1.
    10030    2    1    2    0    0  0.00000000000E+00  0.00000000000E+00 -0.71304312647E+03  0.86930083848E+03  0.49724586231E+03 0.  0.
        2    1    3    3  502    0 -0.24618498277E+03 -0.12061814097E+01 -0.41720461923E+03  0.48442563405E+03  0.25500000920E-02 0.  1.
       -2    1    3    3    0  502  0.24618498277E+03  0.12061814097E+01 -0.29583850724E+03  0.38487520443E+03  0.25500000920E-02 0. -1.
</event>
<event>
 5   0  0.4631619E-02  0.5002213E+03  0.7818609E-02  0.1013721E+00
       -2   -1    0    0    0  501  0.00000000000E+00  0.00000000000E+00  0.11792581041E+03  0.11792581043E+03  0.25500000920E-02 0.  1.
        2   -1    0    0  501    0  0.00000000000E+00  0.00000000000E+00 -0.53046343468E+03  0.53046343468E+03  0.25500000920E-02 0. -1.
    10030    2    1    2    0    0  0.00000000000E+00  0.00000000000E+00 -0.41253762427E+03  0.64838924512E+03  0.50022127278E+03 0.  0.
        5    1    3    3  502    0 -0.42740145512E+02 -0.19725704238E+03 -0.39763439603E+03  0.44595096559E+03  0.46999998093E+01 0. -1.
       -5    1    3    3    0  502  0.42740145512E+02  0.19725704238E+03 -0.14903228236E+02  0.20243827952E+03  0.46999998093E+01 0.  1.
</event>
<event>
 5   0  0.4631619E-02  0.4945253E+03  0.7818609E-02  0.1015218E+00
        2   -1    0    0  501    0  0.00000000000E+00  0.00000000000E+00  0.51796556078E+03  0.51796556079E+03  0.25500000920E-02 0. -1.
       -2   -1    0    0    0  501  0.00000000000E+00  0.00000000000E+00 -0.11803643987E+03  0.11803643990E+03  0.25500000920E-02 0.  1.
    10030    2    1    2    0    0  0.00000000000E+00  0.00000000000E+00  0.39992912091E+03  0.63600200069E+03  0.49452527047E+03 0.  0.
        5    1    3    3  502    0  0.25312448899E+02 -0.71153004163E+02  0.50270944013E+03  0.50837224675E+03  0.46999998093E+01 0. -1.
       -5    1    3    3    0  502 -0.25312448899E+02  0.71153004163E+02 -0.10278031923E+03  0.12762975393E+03  0.46999998093E+01 0.  1.
</event>
<event>
 5   0  0.4519539E-02  0.5008051E+03  0.7818609E-02  0.1013569E+00
        2   -1    0    0  501    0  0.00000000000E+00  0.00000000000E+00  0.33985007637E+03  0.33985007638E+03  0.25500000920E-02 0. -1.
       -2   -1    0    0    0  501  0.00000000000E+00  0.00000000000E+00 -0.18449733762E+03  0.18449733764E+03  0.25500000920E-02 0.  1.
    10030    2    1    2    0    0  0.00000000000E+00  0.00000000000E+00  0.15535273875E+03  0.52434741401E+03  0.50080508898E+03 0.  0.
        4    1    3    3  502    0  0.58408074584E+02 -0.16232077128E+03 -0.11235008980E+03  0.20587299858E+03  0.12699999809E+01 0.  1.
       -4    1    3    3    0  502 -0.58408074584E+02  0.16232077128E+03  0.26770282856E+03  0.31847441543E+03  0.12699999809E+01 0. -1.
</event>
<event>
 5   0  0.4519539E-02  0.5060138E+03  0.7818609E-02  0.1012221E+00
       -2   -1    0    0    0  501  0.00000000000E+00  0.00000000000E+00  0.70577057082E+02  0.70577057129E+02  0.25500000920E-02 0.  1.
        2   -1    0    0  501    0  0.00000000000E+00  0.00000000000E+00 -0.90698737657E+03  0.90698737657E+03  0.25500000920E-02 0. -1.
    10030    2    1    2    0    0  0.00000000000E+00  0.00000000000E+00 -0.83641031949E+03  0.97756443370E+03  0.50601383330E+03 0.  0.
        4    1    3    3  502    0  0.15464515265E+03  0.14765245578E+03 -0.15690271959E+03  0.26521019447E+03  0.12699999809E+01 0.  1.
       -4    1    3    3    0  502 -0.15464515265E+03 -0.14765245578E+03 -0.67950759990E+03  0.71235423924E+03  0.12699999809E+01 0. -1.
</event>
<event>
 5   0  0.2719671E-02  0.5010511E+03  0.7818609E-02  0.1013505E+00
       -1   -1    0    0    0  501  0.00000000000E+00  0.00000000000E+00  0.17317781684E+03  0.17317781691E+03  0.50400001928E-02 0. -1.
        1   -1    0    0  501    0  0.00000000000E+00  0.00000000000E+00 -0.36241968421E+03  0.36241968425E+03  0.50400001928E-02 0.  1.
    10030    2    1    2    0    0  0.00000000000E+00  0.00000000000E+00 -0.18924186738E+03  0.53559750116E+03  0.50105109408E+03 0.  0.
        2    1    3    3  502    0 -0.41141702467E+02  0.42558109724E+02 -0.35483722505E+03  0.35974058525E+03  0.25500000920E-02 0.  1.
       -2    1    3    3    0  502  0.41141702467E+02 -0.42558109724E+02  0.16559535767E+03  0.17585691591E+03  0.25500000920E-02 0. -1.
</event>
<event>
 5   0  0.4409622E-02  0.4983992E+03  0.7818609E-02  0.1014198E+00
       -2   -1    0    0    0  501  0.00000000000E+00  0.00000000000E+00  0.63160968877E+02  0.63160968928E+02  0.25500000920E-02 0.  1.
        2   -1    0    0  501    0  0.00000000000E+00  0.00000000000E+00 -0.98320903195E+03  0.98320903196E+03  0.25500000920E-02 0. -1.
    10030    2    1    2    0    0  0.00000000000E+00  0.00000000000E+00 -0.92004806308E+03  0.10463700009E+04  0.49839917775E+03 0.  0.
        3    1    3    3  502    0 -0.65431238950E+02  0.18163275640E+03 -0.79083897979E+03  0.81406265568E+03  0.10100000352E+00 0. -1.
       -3    1    3    3    0  502  0.65431238950E+02 -0.18163275640E+03 -0.12920908329E+03  0.23230734520E+03  0.10100000352E+00 0.  1.
</event>
<event>
 5   0  0.2723308E-02  0.4938612E+03  0.7818609E-02  0.1015394E+00
       -1   -1    0    0    0  501  0.00000000000E+00  0.00000000000E+00  0.59467013291E+03  0.59467013293E+03  0.50400001928E-02 0.  1.
        1   -1    0    0  501    0  0.00000000000E+00  0.00000000000E+00 -0.10253535751E+03  0.10253535763E+03  0.50400001928E-02 0. -1.
    10030    2    1    2    0    0  0.00000000000E+00  0.00000000000E+00  0.49213477540E+03  0.69720549056E+03  0.49386117372E+03 0.  0.
        4    1    3    3  502    0 -0.94985348570E+02  0.11781429481E+03  0.52152274040E+03  0.54303775758E+03  0.12699999809E+01 0.  1.
       -4    1    3    3    0  502  0.94985348570E+02 -0.11781429481E+03 -0.29387965006E+02  0.15416773298E+03  0.12699999809E+01 0. -1.
</event>
<event>
 5   0  0.4451135E-02  0.5015632E+03  0.7818609E-02  0.1013372E+00
        2   -1    0    0  501    0  0.00000000000E+00  0.00000000000E+00  0.14502817332E+04  0.14502817332E+04  0.25500000920E-02 0. -1.
       -2   -1    0    0    0  501  0.00000000000E+00  0.00000000000E+00 -0.43364964701E+02  0.43364964776E+02  0.25500000920E-02 0.  1.
    10030    2    1    2    0    0  0.00000000000E+00  0.00000000000E+00  0.14069167685E+04  0.14936466979E+04  0.50156322123E+03 0.  0.
        1    1    3    3  502    0 -0.54950133985E+01  0.12264447484E+03  0.13546742307E+04  0.13602257657E+04  0.50400001928E-02 0. -1.
       -1    1    3    3    0  502  0.54950133985E+01 -0.12264447484E+03  0.52242537784E+02  0.13342093224E+03  0.50400001928E-02 0.  1.
</event>
<event>
 5   0  0.4534223E-02  0.4999022E+03  0.7818609E-02  0.1013804E+00
        2   -1    0    0  501    0  0.00000000000E+00  0.00000000000E+00  0.58174164898E+02  0.58174164954E+02  0.25500000920E-02 0. -1.
       -2   -1    0    0    0  501  0.00000000000E+00  0.00000000000E+00 -0.10739397848E+04  0.10739397848E+04  0.25500000920E-02 0.  1.
    10030    2    1    2    0    0  0.00000000000E+00  0.00000000000E+00 -0.10157656199E+04  0.11321139498E+04  0.49990219109E+03 0.  0.
        2    1    3    3  502    0  0.28036418004E+02  0.24824091234E+03 -0.48949027083E+03  0.54955465291E+03  0.25500000920E-02 0.  1.
       -2    1    3    3    0  502 -0.28036418004E+02 -0.24824091234E+03 -0.52627534908E+03  0.58255929685E+03  0.25500000920E-02 0. -1.
</event>
<event>
 5   0  0.2723308E-02  0.5054314E+03  0.7818609E-02  0.1012371E+00
       -1   -1    0    0    0  501  0.00000000000E+00  0.00000000000E+00  0.43517927955E+02  0.43517928246E+02  0.50400001928E-02 0. -1.
        1   -1    0    0  501    0  0.00000000000E+00  0.00000000000E+00 -0.14675612702E+04  0.14675612702E+04  0.50400001928E-02 0.  1.
    10030    2    1    2    0    0  0.00000000000E+00  0.00000000000E+00 -0.14240433422E+04  0.15110791985E+04  0.50543140327E+03 0.  0.
        4    1    3    3  502    0 -0.92404958425E+02  0.16244049356E+03 -0.12206018515E+04  0.12348263372E+04  0.12699999809E+01 0.  1.
       -4    1    3    3    0  502  0.92404958425E+02 -0.16244049356E+03 -0.20344149075E+03  0.27625286124E+03  0.12699999809E+01 0. -1.
</event>
<event>
 5   0  0.2719671E-02  0.4951689E+03  0.7818609E-02  0.1015048E+00
        1   -1    0    0  501    0  0.00000000000E+00  0.00000000000E+00  0.73965604568E+02  0.73965604739E+02  0.50400001928E-02 0. -1.
       -1   -1    0    0    0  501  0.00000000000E+00  0.00000000000E+00 -0.82873730759E+03  0.82873730760E+03  0.50400001928E-02 0.  1.
    10030    2    1    2    0    0  0.00000000000E+00  0.00000000000E+00 -0.75477170302E+03  0.90270291234E+03  0.49516888460E+03 0.  0.
        2    1    3    3  502    0  0.95589092837E+02 -0.22433458727E+03 -0.45547358660E+03  0.51664249710E+03  0.25500000920E-02 0. -1.
       -2    1    3    3    0  502 -0.95589092837E+02  0.22433458727E+03 -0.29929811642E+03  0.38606041524E+03  0.25500000920E-02 0.  1.
</event>
<event>
 5   0  0.4519539E-02  0.4974256E+03  0.7818609E-02  0.1014453E+00
        2   -1    0    0  501    0  0.00000000000E+00  0.00000000000E+00  0.17242797043E+04  0.17242797043E+04  0.25500000920E-02 0.  1.
       -2   -1    0    0    0  501  0.00000000000E+00  0.00000000000E+00 -0.35874727484E+02  0.35874727574E+02  0.25500000920E-02 0. -1.
    10030    2    1    2    0    0  0.00000000000E+00  0.00000000000E+00  0.16884049768E+04  0.17601544318E+04  0.49742563093E+03 0.  0.
        4    1    3    3  502    0  0.23650688443E+02 -0.22841018804E+03  0.50616874637E+03  0.55582279709E+03  0.12699999809E+01 0. -1.
       -4    1    3    3    0  502 -0.23650688443E+02  0.22841018804E+03  0.11822362304E+04  0.12043316347E+04  0.12699999809E+01 0.  1.
</event>
<event>
 5   0  0.4519539E-02  0.4996400E+03  0.7818609E-02  0.1013873E+00
        2   -1    0    0  501    0  0.00000000000E+00  0.00000000000E+00  0.35051583885E+03  0.35051583886E+03  0.25500000920E-02 0. -1.
       -2   -1    0    0    0  501  0.00000000000E+00  0.00000000000E+00 -0.17805198464E+03  0.17805198466E+03  0.25500000920E-02 0.  1.
    10030    2    1    2    0    0  0.00000000000E+00  0.00000000000E+00  0.17246385421E+03  0.52856782353E+03  0.49964003348E+03 0.  0.
        4    1    3    3  502    0 -0.14862970598E+03  0.11209204685E+03 -0.90005664883E+02  0.20678019508E+03  0.12699999809E+01 0.  1.
       -4    1    3    3    0  502  0.14862970598E+03 -0.11209204685E+03  0.26246951909E+03  0.32178762844E+03  0.12699999809E+01 0. -1.
</event>
<event>
 5   0  0.2723308E-02  0.4998113E+03  0.7818609E-02  0.1013828E+00
       -1   -1    0    0    0  501  0.00000000000E+00  0.00000000000E+00  0.92235930232E+02  0.92235930370E+02  0.50400001928E-02 0.  1.
        1   -1    0    0  501    0  0.00000000000E+00  0.00000000000E+00 -0.67709873068E+03  0.67709873070E+03  0.50400001928E-02 0. -1.
    10030    2    1    2    0    0  0.00000000000E+00  0.00000000000E+00 -0.58486280045E+03  0.76933466107E+03  0.49981128976E+03 0.  0.
        4    1    3    3  502    0 -0.60366106464E+02  0.10463246992E+02  0.80492035259E+02  0.10116386206E+03  0.12699999809E+01 0.  1.
       -4    1    3    3    0  502  0.60366106464E+02 -0.10463246992E+02 -0.66535483571E+03  0.66817079901E+03  0.12699999809E+01 0. -1.
</event>
<event>
 5   0  0.2719671E-02  0.4971168E+03  0.7818609E-02  0.1014534E+00
       -1   -1    0    0    0  501  0.00000000000E+00  0.00000000000E+00  0.51844116833E+02  0.51844117078E+02  0.50400001928E-02 0.  1.
        1   -1    0    0  501    0  0.00000000000E+00  0.00000000000E+00 -0.11916740457E+04  0.11916740457E+04  0.50400001928E-02 0. -1.
    10030    2    1    2    0    0  0.00000000000E+00  0.00000000000E+00 -0.11398299289E+04  0.12435181628E+04  0.49711684185E+03 0.  0.
        2    1    3    3  502    0 -0.10660927837E+03  0.21634503614E+03 -0.41960703779E+03  0.48398427564E+03  0.25500000920E-02 0.  1.
       -2    1    3    3    0  502  0.10660927837E+03 -0.21634503614E+03 -0.72022289109E+03  0.75953388717E+03  0.25500000920E-02 0. -1.
</event>
<event>
 5   0  0.4631619E-02  0.4949959E+03  0.7818609E-02  0.1015093E+00
       -2   -1    0    0    0  501  0.00000000000E+00  0.00000000000E+00  0.27509698424E+03  0.27509698425E+03  0.25500000920E-02 0. -1.
        2   -1    0    0  501    0  0.00000000000E+00  0.00000000000E+00 -0.22266774886E+03  0.22266774888E+03  0.25500000920E-02 0.  1.
    10030    2    1    2    0    0  0.00000000000E+00  0.00000000000E+00  0.52429235375E+02  0.49776473312E+03  0.49499586344E+03 0.  0.
        5    1    3    3  502    0  0.10564293025E+03 -0.22284751609E+03  0.46618311745E+02  0.25103147438E+03  0.46999998093E+01 0.  1.
       -5    1    3    3    0  502 -0.10564293025E+03  0.22284751609E+03  0.58109236304E+01  0.24673325875E+03  0.46999998093E+01 0. -1.
</event>
<event>
 5   0  0.1805500E-02  0.5008989E+03  0.7818609E-02  0.1013545E+00
        4   -1    0    0  501    0  0.00000000000E+00  0.00000000000E+00  0.82200630372E+03  0.82200728479E+03  0.12699999809E+01 0. -1.
       -4   -1    0    0    0  501  0.00000000000E+00  0.00000000000E+00 -0.76300803213E+02  0.76311371832E+02  0.12699999809E+01 0.  1.
    10030    2    1    2    0    0  0.00000000000E+00  0.00000000000E+00  0.74570550051E+03  0.89831865663E+03  0.50089890732E+03 0.  0.
        2    1    3    3  502    0  0.30161473291E+02  0.24735981820E+03  0.41780752834E+03  0.48647684927E+03  0.25500000920E-02 0. -1.
       -2    1    3    3    0  502 -0.30161473291E+02 -0.24735981820E+03  0.32789797217E+03  0.41184180736E+03  0.25500000920E-02 0.  1.
</event>
<event>
 5   0  0.2779445E-02  0.4978237E+03  0.7818609E-02  0.1014349E+00
       -1   -1    0    0    0  501  0.00000000000E+00  0.00000000000E+00  0.14988451602E+03  0.14988451610E+03  0.50400001928E-02 0. -1.
        1   -1    0    0  501    0  0.00000000000E+00  0.00000000000E+00 -0.41336557564E+03  0.41336557567E+03  0.50400001928E-02 0.  1.
    10030    2    1    2    0    0  0.00000000000E+00  0.00000000000E+00 -0.26348105962E+03  0.56325009178E+03  0.49782366065E+03 0.  0.
        3    1    3    3  502    0  0.18292751162E+03 -0.16270554862E+03 -0.18261087129E+03  0.30542152932E+03  0.10100000352E+00 0.  1.
       -3    1    3    3    0  502 -0.18292751162E+03  0.16270554862E+03 -0.80870188340E+02  0.25782856246E+03  0.10100000352E+00 0. -1.
</event>
<event>
 5   0  0.4534223E-02  0.5000478E+03  0.7818609E-02  0.1013766E+00
       -2   -1    0    0    0  501  0.00000000000E+00  0.00000000000E+00  0.69966306112E+02  0.69966306158E+02  0.25500000920E-02 0.  1.
        2   -1    0    0  501    0  0.00000000000E+00  0.00000000000E+00 -0.89345779213E+03  0.89345779213E+03  0.25500000920E-02 0. -1.
    10030    2    1    2    0    0  0.00000000000E+00  0.00000000000E+00 -0.82349148602E+03  0.96342409829E+03  0.50004776334E+03 0.  0.
        2    1    3    3  502    0  0.18620384161E+03 -0.16651878633E+03 -0.43209596571E+03  0.49910650208E+03  0.25500000920E-02 0. -1.
       -2    1    3    3    0  502 -0.18620384161E+03  0.16651878633E+03 -0.39139552030E+03  0.46431759621E+03  0.25500000920E-02 0.  1.
</event>
<event>
 5   0  0.2723308E-02  0.4880870E+03  0.7818609E-02  0.1016936E+00
        1   -1    0    0  501    0  0.00000000000E+00  0.00000000000E+00  0.16359050049E+03  0.16359050056E+03  0.50400001928E-02 0.  1.
       -1   -1    0    0    0  501  0.00000000000E+00  0.00000000000E+00 -0.36406282295E+03  0.36406282298E+03  0.50400001928E-02 0. -1.
    10030    2    1    2    0    0  0.00000000000E+00  0.00000000000E+00 -0.20047232246E+03  0.52765332355E+03  0.48808695719E+03 0.  0.
        4    1    3    3  502    0 -0.20919494151E+03  0.64696830309E+02  0.16235162047E+02  0.21957549223E+03  0.12699999809E+01 0. -1.
       -4    1    3    3    0  502  0.20919494151E+03 -0.64696830309E+02 -0.21670748451E+03  0.30807783131E+03  0.12699999809E+01 0.  1.
</event>
<event>
 5   0  0.4409622E-02  0.5051581E+03  0.7818609E-02  0.1012441E+00
        2   -1    0    0  501    0  0.00000000000E+00  0.00000000000E+00  0.10414016120E+04  0.10414016120E+04  0.25500000920E-02 0. -1.
       -2   -1    0    0    0  501  0.00000000000E+00  0.00000000000E+00 -0.61259910670E+02  0.61259910723E+02  0.25500000920E-02 0.  1.
    10030    2    1    2    0    0  0.00000000000E+00  0.00000000000E+00  0.98014170132E+03  0.11026615227E+04  0.50515807329E+03 0.  0.
        3    1    3    3  502    0 -0.11212991785E+03 -0.72385389090E+02  0.95814585010E+03  0.96739663184E+03  0.10100000352E+00 0. -1.
       -3    1    3    3    0  502  0.11212991785E+03  0.72385389090E+02  0.21995851222E+02  0.13526489088E+03  0.10100000352E+00 0.  1.
</event>
<event>
 5   0  0.1805500E-02  0.4989328E+03  0.7818609E-02  0.1014058E+00
        4   -1    0    0  501    0  0.00000000000E+00  0.00000000000E+00  0.28878958582E+03  0.28879237832E+03  0.12699999809E+01 0.  1.
       -4   -1    0    0    0  501  0.00000000000E+00  0.00000000000E+00 -0.21549197744E+03  0.21549571978E+03  0.12699999809E+01 0. -1.
    10030    2    1    2    0    0  0.00000000000E+00  0.00000000000E+00  0.73297608377E+02  0.50428809810E+03  0.49893280759E+03 0.  0.
        4    1    3    3  502    0 -0.13323757343E+03  0.42289185078E+02 -0.17218753875E+03  0.22178996269E+03  0.12699999809E+01 0. -1.
       -4    1    3    3    0  502  0.13323757343E+03 -0.42289185078E+02  0.24548514713E+03  0.28249813541E+03  0.12699999809E+01 0.  1.
</event>
<event>
 5   0  0.4534223E-02  0.5018027E+03  0.7818609E-02  0.1013309E+00
        2   -1    0    0  501    0  0.00000000000E+00  0.00000000000E+00  0.96858939760E+03  0.96858939760E+03  0.25500000920E-02 0. -1.
       -2   -1    0    0    0  501  0.00000000000E+00  0.00000000000E+00 -0.64992944016E+02  0.64992944066E+02  0.25500000920E-02 0.  1.
    10030    2    1    2    0    0  0.00000000000E+00  0.00000000000E+00  0.90359645358E+03  0.10335823417E+04  0.50180265651E+03 0.  0.
        2    1    3    3  502    0 -0.10569407720E+03 -0.45148677975E+02  0.91117922597E+03  0.91839927207E+03  0.25500000920E-02 0. -1.
       -2    1    3    3    0  502  0.10569407720E+03  0.45148677975E+02 -0.75827723946E+01  0.11518306960E+03  0.25500000920E-02 0.  1.
</event>
<event>
 5   0  0.2643185E-02  0.4993558E+03  0.7818609E-02  0.1013947E+00
        1   -1    0    0  501    0  0.00000000000E+00  0.00000000000E+00  0.23255352372E+03  0.23255352377E+03  0.50400001928E-02 0.  1.
       -1   -1    0    0    0  501  0.00000000000E+00  0.00000000000E+00 -0.26806328294E+03  0.26806328298E+03  0.50400001928E-02 0. -1.
    10030    2    1    2    0    0  0.00000000000E+00  0.00000000000E+00 -0.35509759216E+02  0.50061680676E+03  0.49935582925E+03 0.  0.
        1    1    3    3  502    0 -0.13803398635E+03  0.19917022552E+03  0.42537664099E+02  0.24603173172E+03  0.50400001928E-02 0.  1.
       -1    1    3    3    0  502  0.13803398635E+03 -0.19917022552E+03 -0.78047423314E+02  0.25458507504E+03  0.50400001928E-02 0. -1.
</event>
<event>
 5   0  0.4534223E-02  0.5003859E+03  0.7818609E-02  0.1013678E+00
       -2   -1    0    0    0  501  0.00000000000E+00  0.00000000000E+00  0.18881809650E+03  0.18881809652E+03  0.25500000920E-02 0.  1.
        2   -1    0    0  501    0  0.00000000000E+00  0.00000000000E+00 -0.33151751171E+03  0.33151751172E+03  0.25500000920E-02 0. -1.
    10030    2    1    2    0    0  0.00000000000E+00  0.00000000000E+00 -0.14269941520E+03  0.52033560824E+03  0.50038587320E+03 0.  0.
        2    1    3    3  502    0 -0.12796822263E+03  0.17537459458E+03  0.57964105785E+02  0.22470414325E+03  0.25500000920E-02 0. -1.
       -2    1    3    3    0  502  0.12796822263E+03 -0.17537459458E+03 -0.20066352099E+03  0.29563146499E+03  0.25500000920E-02 0.  1.
</event>
<event>
 5   0  0.2779445E-02  0.5001208E+03  0.7818609E-02  0.1013747E+00
       -1   -1    0    0    0  501  0.00000000000E+00  0.00000000000E+00  0.12836386571E+03  0.12836386581E+03  0.50400001928E-02 0.  1.
        1   -1    0    0  501    0  0.00000000000E+00  0.00000000000E+00 -0.48713247605E+03  0.48713247608E+03  0.50400001928E-02 0. -1.
    10030    2    1    2    0    0  0.00000000000E+00  0.00000000000E+00 -0.35876861034E+03  0.61549634189E+03  0.50012081651E+03 0.  0.
        3    1    3    3  502    0  0.58791793527E+02  0.23144277585E+03 -0.27072116888E+03  0.36098780445E+03  0.10100000352E+00 0. -1.
       -3    1    3    3    0  502 -0.58791793527E+02 -0.23144277585E+03 -0.88047441459E+02  0.25450853744E+03  0.10100000352E+00 0.  1.
</event>
<event>
 5   0  0.2723308E-02  0.5019344E+03  0.7818609E-02  0.1013275E+00
       -1   -1    0    0    0  501  0.00000000000E+00  0.00000000000E+00  0.29878645099E+03  0.29878645103E+03  0.50400001928E-02 0. -1.
        1   -1    0    0  501    0  0.00000000000E+00  0.00000000000E+00 -0.21080114343E+03  0.21080114349E+03  0.50400001928E-02 0.  1.
    10030    2    1    2    0    0  0.00000000000E+00  0.00000000000E+00  0.87985307556E+02  0.50958759452E+03  0.50193436040E+03 0.  0.
        4    1    3    3  502    0 -0.12507376478E+03  0.19391123388E+03 -0.56192775048E+02  0.23749579813E+03  0.12699999809E+01 0.  1.
       -4    1    3    3    0  502  0.12507376478E+03 -0.19391123388E+03  0.14417808260E+03  0.27209179639E+03  0.12699999809E+01 0. -1.
</event>
<event>
 5   0  0.4409622E-02  0.4999568E+03  0.7818609E-02  0.1013790E+00
       -2   -1    0    0    0  501  0.00000000000E+00  0.00000000000E+00  0.65379679043E+02  0.65379679092E+02  0.25500000920E-02 0. -1.
        2   -1    0    0  501    0  0.00000000000E+00  0.00000000000E+00 -0.95578948435E+03  0.95578948435E+03  0.25500000920E-02 0.  1.
    10030    2    1    2    0    0  0.00000000000E+00  0.00000000000E+00 -0.89040980531E+03  0.10211691634E+04  0.49995683712E+03 0.  0.
        3    1    3    3  502    0  0.18807356382E+03 -0.62833769084E+02 -0.13430323100E+03  0.23949345713E+03  0.10100000352E+00 0. -1.
       -3    1    3    3    0  502 -0.18807356382E+03  0.62833769084E+02 -0.75610657430E+03  0.78167570632E+03  0.10100000352E+00 0.  1.
</event>
<event>
 5   0  0.2643185E-02  0.5005297E+03  0.7818609E-02  0.1013641E+00
        1   -1    0    0  501    0  0.00000000000E+00  0.00000000000E+00  0.74170825097E+02  0.74170825268E+02  0.50400001928E-02 0.  1.
       -1   -1    0    0    0  501  0.00000000000E+00  0.00000000000E+00 -0.84443568769E+03  0.84443568770E+03  0.50400001928E-02 0. -1.
    10030    2    1    2    0    0  0.00000000000E+00  0.00000000000E+00 -0.77026486259E+03  0.91860651297E+03  0.50052968656E+03 0.  0.
        1    1    3    3  502    0  0.37906110294E+02  0.24480442301E+03 -0.45044358646E+03  0.51406760580E+03  0.50400001928E-02 0. -1.
       -1    1    3    3    0  502 -0.37906110294E+02 -0.24480442301E+03 -0.31982127613E+03  0.40453890717E+03  0.50400001928E-02 0.  1.
</event>
<event>
 5   0  0.2719671E-02  0.5026384E+03  0.7818609E-02  0.1013093E+00
       -1   -1    0    0    0  501  0.00000000000E+00  0.00000000000E+00  0.68598441499E+02  0.68598441684E+02  0.50400001928E-02 0. -1.
        1   -1    0    0  501    0  0.00000000000E+00  0.00000000000E+00 -0.92074003015E+03  0.92074003016E+03  0.50400001928E-02 0.  1.
    10030    2    1    2    0    0  0.00000000000E+00  0.00000000000E+00 -0.85214158865E+03  0.98933847185E+03  0.50263836381E+03 0.  0.
        2    1    3    3  502    0  0.10099831268E+03  0.66897231347E+02 -0.85947677642E+03  0.86797248109E+03  0.25500000920E-02 0.  1.
       -2    1    3    3    0  502 -0.10099831268E+03 -0.66897231347E+02  0.73351877689E+01  0.12136599075E+03  0.25500000920E-02 0. -1.
</event>
<event>
 5   0  0.2719671E-02  0.4971431E+03  0.7818609E-02  0.1014527E+00
        1   -1    0    0  501    0  0.00000000000E+00  0.00000000000E+00  0.24453885356E+03  0.24453885362E+03  0.50400001928E-02 0. -1.
       -1   -1    0    0    0  501  0.00000000000E+00  0.00000000000E+00 -0.25267072260E+03  0.25267072265E+03  0.50400001928E-02 0.  1.
    10030    2    1    2    0    0  0.00000000000E+00  0.00000000000E+00 -0.81318690333E+01  0.49720957627E+03  0.49714307341E+03 0.  0.
        2    1    3    3  502    0  0.72292107629E+02  0.14945447882E+03  0.18095886373E+03  0.24557870517E+03  0.25500000920E-02 0. -1.
       -2    1    3    3    0  502 -0.72292107629E+02 -0.14945447882E+03 -0.18909073276E+03  0.25163087109E+03  0.25500000920E-02 0.  1.
</event>
<event>
 5   0  0.4519539E-02  0.5011042E+03  0.7818609E-02  0.1013491E+00
        2   -1    0    0  501    0  0.00000000000E+00  0.00000000000E+00  0.40617790643E+03  0.40617790644E+03  0.25500000920E-02 0.  1.
       -2   -1    0    0    0  501  0.00000000000E+00  0.00000000000E+00 -0.15455382586E+03  0.15455382588E+03  0.25500000920E-02 0. -1.
    10030    2    1    2    0    0  0.00000000000E+00  0.00000000000E+00  0.25162408057E+03  0.56073173232E+03  0.50110417850E+03 0.  0.
        4    1    3    3  502    0 -0.45022051143E+02 -0.20123741902E+03  0.28505236533E+03  0.35182374534E+03  0.12699999809E+01 0.  1.
       -4    1    3    3    0  502  0.45022051143E+02  0.20123741902E+03 -0.33428284762E+02  0.20890798698E+03  0.12699999809E+01 0. -1.
</event>
<event>
 5   0  0.2723308E-02  0.4957444E+03  0.7818609E-02  0.1014896E+00
       -1   -1    0    0    0  501  0.00000000000E+00  0.00000000000E+00  0.55635427076E+02  0.55635427304E+02  0.50400001928E-02 0.  1.
        1   -1    0    0  501    0  0.00000000000E+00  0.00000000000E+00 -0.11043435674E+04  0.11043435674E+04  0.50400001928E-02 0. -1.
    10030    2    1    2    0    0  0.00000000000E+00  0.00000000000E+00 -0.10487081404E+04  0.11599789947E+04  0.49574439443E+03 0.  0.
        4    1    3    3  502    0  0.20354933809E+03 -0.14066109927E+03 -0.48955870373E+03  0.54853187254E+03  0.12699999809E+01 0. -1.
       -4    1    3    3    0  502 -0.20354933809E+03  0.14066109927E+03 -0.55914943662E+03  0.61144712221E+03  0.12699999809E+01 0.  1.
</event>
<event>
 5   0  0.2723308E-02  0.4970572E+03  0.7818609E-02  0.1014550E+00
        1   -1    0    0  501    0  0.00000000000E+00  0.00000000000E+00  0.75829265751E+03  0.75829265753E+03  0.50400001928E-02 0.  1.
       -1   -1    0    0    0  501  0.00000000000E+00  0.00000000000E+00 -0.81454661587E+02  0.81454661743E+02  0.50400001928E-02 0. -1.
    10030    2    1    2    0    0  0.00000000000E+00  0.00000000000E+00  0.67683799592E+03  0.83974731927E+03  0.49705722758E+03 0.  0.
        4    1    3    3  502    0  0.46789273975E+02  0.28717165358E+02  0.74791500324E+03  0.74992824771E+03  0.12699999809E+01 0.  1.
       -4    1    3    3    0  502 -0.46789273975E+02 -0.28717165358E+02 -0.71077007320E+02  0.89819071554E+02  0.12699999809E+01 0. -1.
</event>
<event>
 5   0  0.4631619E-02  0.4972708E+03  0.7818609E-02  0.1014494E+00
        2   -1    0    0  501    0  0.00000000000E+00  0.00000000000E+00  0.11084531477E+03  0.11084531479E+03  0.25500000920E-02 0.  1.
       -2   -1    0    0    0  501  0.00000000000E+00  0.00000000000E+00 -0.55771012855E+03  0.55771012855E+03  0.25500000920E-02 0. -1.
    10030    2    1    2    0    0  0.00000000000E+00  0.00000000000E+00 -0.44686481378E+03  0.66855544335E+03  0.49727077034E+03 0.  0.
        5    1    3    3  502    0  0.15568066446E+03 -0.12350145292E+03 -0.22625531652E+02  0.20005769878E+03  0.46999998093E+01 0.  1.
       -5    1    3    3    0  502 -0.15568066446E+03  0.12350145292E+03 -0.42423928213E+03  0.46849774457E+03  0.46999998093E+01 0. -1.
</event>
<event>
 5   0  0.4451135E-02  0.5001953E+03  0.7818609E-02  0.1013728E+00
        2   -1    0    0  501    0  0.00000000000E+00  0.00000000000E+00  0.54773094019E+03  0.54773094020E+03  0.25500000920E-02 0. -1.
       -2   -1    0    0    0  501  0.00000000000E+00  0.00000000000E+00 -0.11419628364E+03  0.11419628366E+03  0.25500000920E-02 0.  1.
    10030    2    1    2    0    0  0.00000000000E+00  0.00000000000E+00  0.43353465655E+03  0.66192722386E+03  0.50019531311E+03 0.  0.
        1    1    3    3  502    0  0.79344595174E+02  0.72898503190E+02 -0.81905819402E+02  0.13534518768E+03  0.50400001928E-02 0.  1.
       -1    1    3    3    0  502 -0.79344595174E+02 -0.72898503190E+02  0.51544047596E+03  0.52658203618E+03  0.50400001928E-02 0. -1.
</event>
<event>
 5   0  0.4451135E-02  0.5024162E+03  0.7818609E-02  0.1013150E+00
       -2   -1    0    0    0  501  0.00000000000E+00  0.00000000000E+00  0.25873519572E+03  0.25873519574E+03  0.25500000920E-02 0. -1.
        2   -1    0    0  501    0  0.00000000000E+00  0.00000000000E+00 -0.24389999067E+03  0.24389999068E+03  0.25500000920E-02 0.  1.
    10030    2    1    2    0    0  0.00000000000E+00  0.00000000000E+00  0.14835205058E+02  0.50263518642E+03  0.50241620925E+03 0.  0.
        1    1    3    3  502    0  0.12465320752E+03 -0.11955918208E+03 -0.17506993579E+03  0.24593149983E+03  0.50400001928E-02 0.  1.
       -1    1    3    3    0  502 -0.12465320752E+03  0.11955918208E+03  0.18990514085E+03  0.25670368659E+03  0.50400001928E-02 0. -1.
</event>
<event>
 5   0  0.1805500E-02  0.4999972E+03  0.7818609E-02  0.1013780E+00
        3   -1    0    0  501    0  0.00000000000E+00  0.00000000000E+00  0.20123947905E+04  0.20123947931E+04  0.10100000352E+00 0. -1.
       -3   -1    0    0    0  501  0.00000000000E+00  0.00000000000E+00 -0.31057086901E+02  0.31057251131E+02  0.10100000352E+00 0.  1.
    10030    2    1    2    0    0  0.00000000000E+00  0.00000000000E+00  0.19813377036E+04  0.20434520442E+04  0.49999716109E+03 0.  0.
        1    1    3    3  502    0 -0.10872298046E+03 -0.32060025241E+02  0.80001314274E+02  0.13873983569E+03  0.50400001928E-02 0.  1.
       -1    1    3    3    0  502  0.10872298046E+03  0.32060025241E+02  0.19013363893E+04  0.19047122085E+04  0.50400001928E-02 0. -1.
</event>
<event>
 5   0  0.2643185E-02  0.5001494E+03  0.7818609E-02  0.1013740E+00
       -1   -1    0    0    0  501  0.00000000000E+00  0.00000000000E+00  0.93223740453E+03  0.93223740454E+03  0.50400001928E-02 0. -1.
        1   -1    0    0  501    0  0.00000000000E+00  0.00000000000E+00 -0.67083090156E+02  0.67083090346E+02  0.50400001928E-02 0.  1.
    10030    2    1    2    0    0  0.00000000000E+00  0.00000000000E+00  0.86515431437E+03  0.99932049488E+03  0.50014944149E+03 0.  0.
        1    1    3    3  502    0 -0.81354487982E+02  0.18302661397E+03  0.73175092132E+03  0.75866771713E+03  0.50400001928E-02 0. -1.
       -1    1    3    3    0  502  0.81354487982E+02 -0.18302661397E+03  0.13340339305E+03  0.24065277775E+03  0.50400001928E-02 0.  1.
</event>
<event>
 5   0  0.4631619E-02  0.5004596E+03  0.7818609E-02  0.1013659E+00
        2   -1    0    0  501    0  0.00000000000E+00  0.00000000000E+00  0.77827088634E+03  0.77827088635E+03  0.25500000920E-02 0. -1.
       -2   -1    0    0    0  501  0.00000000000E+00  0.00000000000E+00 -0.80453920429E+02  0.80453920470E+02  0.25500000920E-02 0.  1.
    10030    2    1    2    0    0  0.00000000000E+00  0.00000000000E+00  0.69781696591E+03  0.85872480682E+03  0.50045956473E+03 0.  0.
        5    1    3    3  502    0 -0.53005841639E+02 -0.11028253731E+03 -0.25533257770E+02  0.12508355022E+03  0.46999998093E+01 0.  1.
       -5    1    3    3    0  502  0.53005841639E+02  0.11028253731E+03  0.72335022368E+03  0.73364125660E+03  0.46999998093E+01 0. -1.
</event>
<event>
 5   0  0.4534223E-02  0.4968590E+03  0.7818609E-02  0.1014602E+00
        2   -1    0    0  501    0  0.00000000000E+00  0.00000000000E+00  0.11056284063E+04  0.11056284063E+04  0.25500000920E-02 0. -1.
       -2   -1    0    0    0  501  0.00000000000E+00  0.00000000000E+00 -0.55820942716E+02  0.55820942774E+02  0.25500000920E-02 0.  1.
    10030    2    1    2    0    0  0.00000000000E+00  0.00000000000E+00  0.10498074636E+04  0.11614493491E+04  0.49685901408E+03 0.  0.
        2    1    3    3  502    0  0.13960712460E+03  0.44269644832E+02  0.55827755546E+02  0.15673764381E+03  0.25500000920E-02 0.  1.
       -2    1    3    3    0  502 -0.13960712460E+03 -0.44269644832E+02  0.99397970803E+03  0.10047117053E+04  0.25500000920E-02 0. -1.
</event>
<event>
 5   0  0.2715483E-02  0.4994771E+03  0.7818609E-02  0.1013915E+00
        1   -1    0    0  501    0  0.00000000000E+00  0.00000000000E+00  0.49447913852E+03  0.49447913855E+03  0.50400001928E-02 0.  1.
       -1   -1    0    0    0  501  0.00000000000E+00  0.00000000000E+00 -0.12613139223E+03  0.12613139234E+03  0.50400001928E-02 0. -1.
    10030    2    1    2    0    0  0.00000000000E+00  0.00000000000E+00  0.36834774629E+03  0.62061053089E+03  0.49947709542E+03 0.  0.
        5    1    3    3  502    0 -0.92698681183E+02 -0.15889420238E+03  0.39396064294E+03  0.43481891774E+03  0.46999998093E+01 0.  1.
       -5    1    3    3    0  502  0.92698681183E+02  0.15889420238E+03 -0.25612896646E+02  0.18579161315E+03  0.46999998093E+01 0. -1.
</event>
<event>
 5   0  0.4451135E-02  0.5008529E+03  0.7818609E-02  0.1013557E+00
        2   -1    0    0  501    0  0.00000000000E+00  0.00000000000E+00  0.20791678933E+03  0.20791678934E+03  0.25500000920E-02 0. -1.
       -2   -1    0    0    0  501  0.00000000000E+00  0.00000000000E+00 -0.30162737736E+03  0.30162737738E+03  0.25500000920E-02 0.  1.
    10030    2    1    2    0    0  0.00000000000E+00  0.00000000000E+00 -0.93710588035E+02  0.50954416672E+03  0.50085285617E+03 0.  0.
        1    1    3    3  502    0  0.51342856293E+02  0.12243714193E+03  0.16916508100E+03  0.21504364039E+03  0.50400001928E-02 0. -1.
       -1    1    3    3    0  502 -0.51342856293E+02 -0.12243714193E+03 -0.26287566903E+03  0.29450052633E+03  0.50400001928E-02 0.  1.
</event>
<event>
 5   0  0.4519539E-02  0.5051002E+03  0.7818609E-02  0.1012456E+00
       -2   -1    0    0    0  501  0.00000000000E+00  0.00000000000E+00  0.32533495815E+02  0.32533495915E+02  0.25500000920E-02 0.  1.
        2   -1    0    0  501    0  0.00000000000E+00  0.00000000000E+00 -0.19604883986E+04  0.19604883986E+04  0.25500000920E-02 0. -1.
    10030    2    1    2    0    0  0.00000000000E+00  0.00000000000E+00 -0.19279549028E+04  0.19930218946E+04  0.50510015329E+03 0.  0.
        4    1    3    3  502    0 -0.22957198351E+03 -0.26329229272E+02 -0.56190487434E+03  0.60756499622E+03  0.12699999809E+01 0.  1.
       -4    1    3    3    0  502  0.22957198351E+03  0.26329229272E+02 -0.13660500285E+04  0.13854568983E+04  0.12699999809E+01 0. -1.
</event>
<event>
 5   0  0.4451135E-02  0.4978193E+03  0.7818609E-02  0.1014350E+00
        2   -1    0    0  501    0  0.00000000000E+00  0.00000000000E+00  0.63174477677E+02  0.63174477728E+02  0.25500000920E-02 0. -1.
       -2   -1    0    0    0  501  0.00000000000E+00  0.00000000000E+00 -0.98071259225E+03  0.98071259225E+03  0.25500000920E-02 0.  1.
    10030    2    1    2    0    0  0.00000000000E+00  0.00000000000E+00 -0.91753811457E+03  0.10438870700E+04  0.49781926759E+03 0.  0.
        1    1    3    3  502    0  0.10292300995E+03  0.20210182389E+03 -0.67382055220E+03  0.71096584291E+03  0.50400001928E-02 0.  1.
       -1    1    3    3    0  502 -0.10292300995E+03 -0.20210182389E+03 -0.24371756237E+03  0.33292122707E+03  0.50400001928E-02 0. -1.
</event>
<event>
 5   0  0.4534223E-02  0.4992511E+03  0.7818609E-02  0.1013975E+00
        2   -1    0    0  501    0  0.00000000000E+00  0.00000000000E+00  0.23910824173E+04  0.23910824173E+04  0.25500000920E-02 0. -1.
       -2   -1    0    0    0  501  0.00000000000E+00  0.00000000000E+00 -0.26060549855E+02  0.26060549980E+02  0.25500000920E-02 0.  1.
    10030    2    1    2    0    0  0.00000000000E+00  0.00000000000E+00  0.23650218674E+04  0.24171429673E+04  0.49925112997E+03 0.  0.
        2    1    3    3  502    0  0.53119277992E+02  0.84179107922E+02  0.74178005239E+02  0.12413765091E+03  0.25500000920E-02 0.  1.
       -2    1    3    3    0  502 -0.53119277992E+02 -0.84179107922E+02  0.22908438622E+04  0.22930053164E+04  0.25500000920E-02 0. -1.
</event>
<event>
 5   0  0.2719671E-02  0.4995690E+03  0.7818609E-02  0.1013891E+00
        1   -1    0    0  501    0  0.00000000000E+00  0.00000000000E+00  0.26280594692E+03  0.26280594697E+03  0.50400001928E-02 0.  1.
       -1   -1    0    0    0  501  0.00000000000E+00  0.00000000000E+00 -0.23740822148E+03  0.23740822153E+03  0.50400001928E-02 0. -1.
    10030    2    1    2    0    0  0.00000000000E+00  0.00000000000E+00  0.25397725438E+02  0.50021416850E+03  0.49956898414E+03 0.  0.
        2    1    3    3  502    0 -0.17684246318E+03  0.92749437500E+01  0.18908826155E+03  0.25906302713E+03  0.25500000920E-02 0.  1.
       -2    1    3    3    0  502  0.17684246318E+03 -0.92749437500E+01 -0.16369053611E+03  0.24115114137E+03  0.25500000920E-02 0. -1.
</event>
<event>
 5   0  0.2719671E-02  0.5026137E+03  0.7818609E-02  0.1013099E+00
        1   -1    0    0  501    0  0.00000000000E+00  0.00000000000E+00  0.41676301669E+03  0.41676301673E+03  0.50400001928E-02 0. -1.
       -1   -1    0    0    0  501  0.00000000000E+00  0.00000000000E+00 -0.15153726474E+03  0.15153726482E+03  0.50400001928E-02 0.  1.
    10030    2    1    2    0    0  0.00000000000E+00  0.00000000000E+00  0.26522575196E+03  0.56830028154E+03  0.50261367918E+03 0.  0.
        2    1    3    3  502    0 -0.14318183023E+02 -0.16983076744E+03 -0.76205793280E+02  0.18669446395E+03  0.25500000920E-02 0.  1.
       -2    1    3    3    0  502  0.14318183023E+02  0.16983076744E+03  0.34143154524E+03  0.38160581760E+03  0.25500000920E-02 0. -1.
</event>
<event>
 5   0  0.4451135E-02  0.4986514E+03  0.7818609E-02  0.1014132E+00
        2   -1    0    0  501    0  0.00000000000E+00  0.00000000000E+00  0.63310249791E+02  0.63310249843E+02  0.25500000920E-02 0. -1.
       -2   -1    0    0    0  501  0.00000000000E+00  0.00000000000E+00 -0.98188368504E+03  0.98188368504E+03  0.25500000920E-02 0.  1.
    10030    2    1    2    0    0  0.00000000000E+00  0.00000000000E+00 -0.91857343525E+03  0.10451939349E+04  0.49865138682E+03 0.  0.
        1    1    3    3  502    0  0.22764911108E+03 -0.68068228609E+02 -0.30095718786E+03  0.38344834133E+03  0.50400001928E-02 0. -1.
       -1    1    3    3    0  502 -0.22764911108E+03  0.68068228609E+02 -0.61761624739E+03  0.66174559356E+03  0.50400001928E-02 0.  1.
</event>
<event>
 5   0  0.2643185E-02  0.5033785E+03  0.7818609E-02  0.1012901E+00
       -1   -1    0    0    0  501  0.00000000000E+00  0.00000000000E+00  0.82279931520E+02  0.82279931674E+02  0.50400001928E-02 0.  1.
        1   -1    0    0  501    0  0.00000000000E+00  0.00000000000E+00 -0.76990191632E+03  0.76990191634E+03  0.50400001928E-02 0. -1.
    10030    2    1    2    0    0  0.00000000000E+00  0.00000000000E+00 -0.68762198480E+03  0.85218184801E+03  0.50337849388E+03 0.  0.
        1    1    3    3  502    0  0.15255452833E+01  0.54044633326E+02  0.72332908948E+02  0.90306142770E+02  0.50400001928E-02 0.  1.
       -1    1    3    3    0  502 -0.15255452833E+01 -0.54044633326E+02 -0.75995489375E+03  0.76187570524E+03  0.50400001928E-02 0. -1.
</event>
<event>
 5   0  0.2715483E-02  0.4997285E+03  0.7818609E-02  0.1013850E+00
        1   -1    0    0  501    0  0.00000000000E+00  0.00000000000E+00  0.12296686186E+03  0.12296686196E+03  0.50400001928E-02 0.  1.
       -1   -1    0    0    0  501  0.00000000000E+00  0.00000000000E+00 -0.50771525797E+03  0.50771525800E+03  0.50400001928E-02 0. -1.
    10030    2    1    2    0    0  0.00000000000E+00  0.00000000000E+00 -0.38474839611E+03  0.63068211996E+03  0.49972853443E+03 0.  0.
        5    1    3    3  502    0  0.11089099496E+02 -0.88313501874E+02  0.10222128520E+03  0.13562272629E+03  0.46999998093E+01 0.  1.
       -5    1    3    3    0  502 -0.11089099496E+02  0.88313501874E+02 -0.48696968131E+03  0.49505939367E+03  0.46999998093E+01 0. -1.
</event>
<event>
 5   0  0.4409622E-02  0.4992210E+03  0.7818609E-02  0.1013982E+00
       -2   -1    0    0    0  501  0.00000000000E+00  0.00000000000E+00  0.13539216243E+03  0.13539216245E+03  0.25500000920E-02 0.  1.
        2   -1    0    0  501    0  0.00000000000E+00  0.00000000000E+00 -0.46018472816E+03  0.46018472817E+03  0.25500000920E-02 0. -1.
    10030    2    1    2    0    0  0.00000000000E+00  0.00000000000E+00 -0.32479256573E+03  0.59557689062E+03  0.49922101507E+03 0.  0.
        3    1    3    3  502    0 -0.96716731132E+02 -0.13253436457E+03  0.62023000875E+02  0.17540338284E+03  0.10100000352E+00 0.  1.
       -3    1    3    3    0  502  0.96716731132E+02  0.13253436457E+03 -0.38681556660E+03  0.42017350778E+03  0.10100000352E+00 0. -1.
</event>
<event>
 5   0  0.2723308E-02  0.5003796E+03  0.7818609E-02  0.1013680E+00
       -1   -1    0    0    0  501  0.00000000000E+00  0.00000000000E+00  0.33223569323E+03  0.33223569327E+03  0.50400001928E-02 0. -1.
        1   -1    0    0  501    0  0.00000000000E+00  0.00000000000E+00 -0.18840521810E+03  0.18840521817E+03  0.50400001928E-02 0.  1.
    10030    2    1    2    0    0  0.00000000000E+00  0.00000000000E+00  0.14383047513E+03  0.52064091144E+03  0.50037960899E+03 0.  0.
        4    1    3    3  502    0  0.22378393814E+03 -0.76552236007E+02  0.15678920903E+03  0.28376744840E+03  0.12699999809E+01 0. -1.
       -4    1    3    3    0  502 -0.22378393814E+03  0.76552236007E+02 -0.12958733902E+02  0.23687346304E+03  0.12699999809E+01 0.  1.
</event>
<event>
 5   0  0.4534223E-02  0.4992847E+03  0.7818609E-02  0.1013966E+00
       -2   -1    0    0    0  501  0.00000000000E+00  0.00000000000E+00  0.52928688270E+02  0.52928688331E+02  0.25500000920E-02 0. -1.
        2   -1    0    0  501    0  0.00000000000E+00  0.00000000000E+00 -0.11774580662E+04  0.11774580662E+04  0.25500000920E-02 0.  1.
    10030    2    1    2    0    0  0.00000000000E+00  0.00000000000E+00 -0.11245293779E+04  0.12303867545E+04  0.49928473230E+03 0.  0.
        2    1    3    3  502    0 -0.76833491842E+02 -0.11736275566E+01 -0.11475890723E+04  0.11501588767E+04  0.25500000920E-02 0.  1.
       -2    1    3    3    0  502  0.76833491842E+02  0.11736275566E+01  0.23059694343E+02  0.80227877823E+02  0.25500000920E-02 0. -1.
</event>
<event>
 5   0  0.2723308E-02  0.5061118E+03  0.7818609E-02  0.1012196E+00
       -1   -1    0    0    0  501  0.00000000000E+00  0.00000000000E+00  0.49528138290E+03  0.49528138293E+03  0.50400001928E-02 0. -1.
        1   -1    0    0  501    0  0.00000000000E+00  0.00000000000E+00 -0.12929475566E+03  0.12929475576E+03  0.50400001928E-02 0.  1.
    10030    2    1    2    0    0  0.00000000000E+00  0.00000000000E+00  0.36598662724E+03  0.62457613869E+03  0.50611178775E+03 0.  0.
        4    1    3    3  502    0  0.95772550719E+02 -0.16784866259E+03  0.38460429282E+03  0.43042726442E+03  0.12699999809E+01 0. -1.
       -4    1    3    3    0  502 -0.95772550719E+02  0.16784866259E+03 -0.18617665578E+02  0.19414887426E+03  0.12699999809E+01 0.  1.
</event>
<event>
 5   0  0.2643185E-02  0.5006932E+03  0.7818609E-02  0.1013598E+00
        1   -1    0    0  501    0  0.00000000000E+00  0.00000000000E+00  0.96014384196E+03  0.96014384197E+03  0.50400001928E-02 0. -1.
       -1   -1    0    0    0  501  0.00000000000E+00  0.00000000000E+00 -0.65275020129E+02  0.65275020324E+02  0.50400001928E-02 0.  1.
    10030    2    1    2    0    0  0.00000000000E+00  0.00000000000E+00  0.89486882183E+03  0.10254188623E+04  0.50069315441E+03 0.  0.
        1    1    3    3  502    0 -0.13820514487E+03  0.13829122851E+02  0.20872630496E+02  0.14045488043E+03  0.50400001928E-02 0.  1.
       -1    1    3    3    0  502  0.13820514487E+03 -0.13829122851E+02  0.87399619133E+03  0.88496398187E+03  0.50400001928E-02 0. -1.
</event>
<event>
 5   0  0.4631619E-02  0.4991529E+03  0.7818609E-02  0.1014000E+00
       -2   -1    0    0    0  501  0.00000000000E+00  0.00000000000E+00  0.86658315670E+03  0.86658315671E+03  0.25500000920E-02 0. -1.
        2   -1    0    0  501    0  0.00000000000E+00  0.00000000000E+00 -0.71878163171E+02  0.71878163216E+02  0.25500000920E-02 0.  1.
    10030    2    1    2    0    0  0.00000000000E+00  0.00000000000E+00  0.79470499353E+03  0.93846131992E+03  0.49915290467E+03 0.  0.
        5    1    3    3  502    0 -0.16289821056E+03 -0.11670861745E+03  0.67691124765E+03  0.70596576092E+03  0.46999998093E+01 0. -1.
       -5    1    3    3    0  502  0.16289821056E+03  0.11670861745E+03  0.11779374588E+03  0.23249555900E+03  0.46999998093E+01 0.  1.
</event>
<event>
 5   0  0.2779445E-02  0.4809216E+03  0.7818609E-02  0.1018882E+00
        1   -1    0    0  501    0  0.00000000000E+00  0.00000000000E+00  0.55430333348E+03  0.55430333350E+03  0.50400001928E-02 0.  1.
       -1   -1    0    0    0  501  0.00000000000E+00  0.00000000000E+00 -0.10431364259E+03  0.10431364271E+03  0.50400001928E-02 0. -1.
    10030    2    1    2    0    0  0.00000000000E+00  0.00000000000E+00  0.44998969089E+03  0.65861697621E+03  0.48092161466E+03 0.  0.
        3    1    3    3  502    0 -0.69850006316E+01  0.20497887222E+03  0.53091150201E+02  0.21185799187E+03  0.10100000352E+00 0. -1.
       -3    1    3    3    0  502  0.69850006316E+01 -0.20497887222E+03  0.39689854069E+03  0.44675898434E+03  0.10100000352E+00 0.  1.
</event>
<event>
 5   0  0.1805500E-02  0.4989460E+03  0.7818609E-02  0.1014054E+00
        3   -1    0    0  501    0  0.00000000000E+00  0.00000000000E+00  0.10686171163E+03  0.10686175936E+03  0.10100000352E+00 0.  1.
       -3   -1    0    0    0  501  0.00000000000E+00  0.00000000000E+00 -0.58240476573E+03  0.58240477449E+03  0.10100000352E+00 0. -1.
    10030    2    1    2    0    0  0.00000000000E+00  0.00000000000E+00 -0.47554305411E+03  0.68926653385E+03  0.49894604756E+03 0.  0.
        3    1    3    3  502    0 -0.14214059195E+03 -0.11335502968E+03 -0.47376612478E+03  0.50745212762E+03  0.10100000352E+00 0. -1.
       -3    1    3    3    0  502  0.14214059195E+03  0.11335502968E+03 -0.17769293257E+01  0.18181440623E+03  0.10100000352E+00 0.  1.
</event>
<event>
 5   0  0.2779445E-02  0.4979939E+03  0.7818609E-02  0.1014304E+00
       -1   -1    0    0    0  501  0.00000000000E+00  0.00000000000E+00  0.10209046896E+03  0.10209046908E+03  0.50400001928E-02 0. -1.
        1   -1    0    0  501    0  0.00000000000E+00  0.00000000000E+00 -0.60729933579E+03  0.60729933581E+03  0.50400001928E-02 0.  1.
    10030    2    1    2    0    0  0.00000000000E+00  0.00000000000E+00 -0.50520886683E+03  0.70938980490E+03  0.49799387161E+03 0.  0.
        3    1    3    3  502    0  0.19065561745E+03 -0.14804268781E+03 -0.16556718017E+03  0.29270924691E+03  0.10100000352E+00 0. -1.
       -3    1    3    3    0  502 -0.19065561745E+03  0.14804268781E+03 -0.33964168667E+03  0.41668055799E+03  0.10100000352E+00 0.  1.
</event>
<event>
 5   0  0.4534223E-02  0.4996766E+03  0.7818609E-02  0.1013863E+00
       -2   -1    0    0    0  501  0.00000000000E+00  0.00000000000E+00  0.13543990503E+03  0.13543990505E+03  0.25500000920E-02 0.  1.
        2   -1    0    0  501    0  0.00000000000E+00  0.00000000000E+00 -0.46086248690E+03  0.46086248690E+03  0.25500000920E-02 0. -1.
    10030    2    1    2    0    0  0.00000000000E+00  0.00000000000E+00 -0.32542258187E+03  0.59630239196E+03  0.49967658126E+03 0.  0.
        2    1    3    3  502    0 -0.22351998699E+03 -0.10253008092E+03 -0.11007310459E+03  0.26942473984E+03  0.25500000920E-02 0.  1.
       -2    1    3    3    0  502  0.22351998699E+03  0.10253008092E+03 -0.21534947728E+03  0.32687765211E+03  0.25500000920E-02 0. -1.
</event>
<event>
 5   0  0.4519539E-02  0.5003822E+03  0.7818609E-02  0.1013679E+00
        2   -1    0    0  501    0  0.00000000000E+00  0.00000000000E+00  0.93078136160E+02  0.93078136194E+02  0.25500000920E-02 0.  1.
       -2   -1    0    0    0  501  0.00000000000E+00  0.00000000000E+00 -0.67250571888E+03  0.67250571889E+03  0.25500000920E-02 0. -1.
    10030    2    1    2    0    0  0.00000000000E+00  0.00000000000E+00 -0.57942758273E+03  0.76558385508E+03  0.50038216949E+03 0.  0.
        4    1    3    3  502    0 -0.23751162342E+03 -0.34897042557E+02 -0.39751507614E+03  0.46438068812E+03  0.12699999809E+01 0. -1.
       -4    1    3    3    0  502  0.23751162342E+03  0.34897042557E+02 -0.18191250659E+03  0.30120316697E+03  0.12699999809E+01 0.  1.
</event>
<event>
 5   0  0.2779445E-02  0.5011956E+03  0.7818609E-02  0.1013467E+00
       -1   -1    0    0    0  501  0.00000000000E+00  0.00000000000E+00  0.60936307065E+02  0.60936307273E+02  0.50400001928E-02 0. -1.
        1   -1    0    0  501    0  0.00000000000E+00  0.00000000000E+00 -0.10305719378E+04  0.10305719378E+04  0.50400001928E-02 0.  1.
    10030    2    1    2    0    0  0.00000000000E+00  0.00000000000E+00 -0.96963563073E+03  0.10915082451E+04  0.50119556332E+03 0.  0.
        3    1    3    3  502    0 -0.23168616807E+02  0.34429914911E+02 -0.10230365026E+04  0.10238778735E+04  0.10100000352E+00 0.  1.
       -3    1    3    3    0  502  0.23168616807E+02 -0.34429914911E+02  0.53400871897E+02  0.67630371623E+02  0.10100000352E+00 0. -1.
</event>
<event>
 5   0  0.4534223E-02  0.4991552E+03  0.7818609E-02  0.1014000E+00
        2   -1    0    0  501    0  0.00000000000E+00  0.00000000000E+00  0.47248213644E+03  0.47248213645E+03  0.25500000920E-02 0. -1.
       -2   -1    0    0    0  501  0.00000000000E+00  0.00000000000E+00 -0.13183351222E+03  0.13183351224E+03  0.25500000920E-02 0.  1.
    10030    2    1    2    0    0  0.00000000000E+00  0.00000000000E+00  0.34064862422E+03  0.60431564869E+03  0.49915520439E+03 0.  0.
        2    1    3    3  502    0  0.50269456374E+02 -0.15270542188E+03 -0.60794549158E+02  0.17187769294E+03  0.25500000920E-02 0.  1.
       -2    1    3    3    0  502 -0.50269456374E+02  0.15270542188E+03  0.40144317338E+03  0.43243795575E+03  0.25500000920E-02 0. -1.
</event>
<event>
 5   0  0.4519539E-02  0.5017223E+03  0.7818609E-02  0.1013330E+00
       -2   -1    0    0    0  501  0.00000000000E+00  0.00000000000E+00  0.16604523931E+03  0.16604523933E+03  0.25500000920E-02 0. -1.
        2   -1    0    0  501    0  0.00000000000E+00  0.00000000000E+00 -0.37900103451E+03  0.37900103452E+03  0.25500000920E-02 0.  1.
    10030    2    1    2    0    0  0.00000000000E+00  0.00000000000E+00 -0.21295579520E+03  0.54504627384E+03  0.50172230359E+03 0.  0.
        4    1    3    3  502    0 -0.24231709383E+03 -0.62708792319E+02 -0.12464751111E+03  0.27962221213E+03  0.12699999809E+01 0. -1.
       -4    1    3    3    0  502  0.24231709383E+03  0.62708792319E+02 -0.88308284093E+02  0.26542406171E+03  0.12699999809E+01 0.  1.
</event>
<event>
 5   0  0.4409622E-02  0.5007813E+03  0.7818609E-02  0.1013575E+00
       -2   -1    0    0    0  501  0.00000000000E+00  0.00000000000E+00  0.31166393569E+02  0.31166393674E+02  0.25500000920E-02 0. -1.
        2   -1    0    0  501    0  0.00000000000E+00  0.00000000000E+00 -0.20116371714E+04  0.20116371714E+04  0.25500000920E-02 0.  1.
    10030    2    1    2    0    0  0.00000000000E+00  0.00000000000E+00 -0.19804707779E+04  0.20428035651E+04  0.50078129323E+03 0.  0.
        3    1    3    3  502    0  0.75079682072E+02 -0.23813356035E+03 -0.91382029391E+03  0.94731836833E+03  0.10100000352E+00 0. -1.
       -3    1    3    3    0  502 -0.75079682072E+02  0.23813356035E+03 -0.10666504839E+04  0.10954851968E+04  0.10100000352E+00 0.  1.
</event>
<event>
 5   0  0.2779445E-02  0.5001667E+03  0.7818609E-02  0.1013735E+00
        1   -1    0    0  501    0  0.00000000000E+00  0.00000000000E+00  0.15528211555E+03  0.15528211563E+03  0.50400001928E-02 0. -1.
       -1   -1    0    0    0  501  0.00000000000E+00  0.00000000000E+00 -0.40276169319E+03  0.40276169322E+03  0.50400001928E-02 0.  1.
    10030    2    1    2    0    0  0.00000000000E+00  0.00000000000E+00 -0.24747957764E+03  0.55804380885E+03  0.50016672345E+03 0.  0.
        3    1    3    3  502    0  0.23836105264E+03 -0.72723609731E+02 -0.10041725539E+03  0.26867889796E+03  0.10100000352E+00 0.  1.
       -3    1    3    3    0  502 -0.23836105264E+03  0.72723609731E+02 -0.14706232225E+03  0.28936491089E+03  0.10100000352E+00 0. -1.
</event>
<event>
 5   0  0.4534223E-02  0.5015432E+03  0.7818609E-02  0.1013377E+00
        2   -1    0    0  501    0  0.00000000000E+00  0.00000000000E+00  0.64342073731E+03  0.64342073731E+03  0.25500000920E-02 0.  1.
       -2   -1    0    0    0  501  0.00000000000E+00  0.00000000000E+00 -0.97737608101E+02  0.97737608134E+02  0.25500000920E-02 0. -1.
    10030    2    1    2    0    0  0.00000000000E+00  0.00000000000E+00  0.54568312921E+03  0.74115834545E+03  0.50154323395E+03 0.  0.
        2    1    3    3  502    0 -0.44570140300E+02 -0.23035721839E+03  0.14203340606E+03  0.27427073105E+03  0.25500000920E-02 0.  1.
       -2    1    3    3    0  502  0.44570140300E+02  0.23035721839E+03  0.40364972315E+03  0.46688761439E+03  0.25500000920E-02 0. -1.
</event>
<event>
 5   0  0.2715483E-02  0.5000727E+03  0.7818609E-02  0.1013760E+00
       -1   -1    0    0    0  501  0.00000000000E+00  0.00000000000E+00  0.15722400082E+03  0.15722400090E+03  0.50400001928E-02 0.  1.
        1   -1    0    0  501    0  0.00000000000E+00  0.00000000000E+00 -0.39763757789E+03  0.39763757792E+03  0.50400001928E-02 0. -1.
    10030    2    1    2    0    0  0.00000000000E+00  0.00000000000E+00 -0.24041357707E+03  0.55486157882E+03  0.50007267833E+03 0.  0.
        5    1    3    3  502    0  0.24502163259E+03  0.81101723122E+00 -0.17523728488E+03  0.30127471550E+03  0.46999998093E+01 0. -1.
       -5    1    3    3    0  502 -0.24502163259E+03 -0.81101723122E+00 -0.65176292192E+02  0.25358686332E+03  0.46999998093E+01 0.  1.
</event>
<event>
 5   0  0.2719671E-02  0.5001280E+03  0.7818609E-02  0.1013745E+00
        1   -1    0    0  501    0  0.00000000000E+00  0.00000000000E+00  0.46908969643E+03  0.46908969645E+03  0.50400001928E-02 0.  1.
       -1   -1    0    0    0  501  0.00000000000E+00  0.00000000000E+00 -0.13330502873E+03  0.13330502883E+03  0.50400001928E-02 0. -1.
    10030    2    1    2    0    0  0.00000000000E+00  0.00000000000E+00  0.33578466769E+03  0.60239472528E+03  0.50012804559E+03 0.  0.
        2    1    3    3  502    0  0.93136087326E+02  0.15041580892E+03 -0.44973125837E+02  0.18254267553E+03  0.25500000920E-02 0. -1.
       -2    1    3    3    0  502 -0.93136087326E+02 -0.15041580892E+03  0.38075779353E+03  0.41985204975E+03  0.25500000920E-02 0.  1.
</event>
<event>
 5   0  0.4534223E-02  0.4845747E+03  0.7818609E-02  0.1017885E+00
        2   -1    0    0  501    0  0.00000000000E+00  0.00000000000E+00  0.55689232729E+03  0.55689232730E+03  0.25500000920E-02 0. -1.
       -2   -1    0    0    0  501  0.00000000000E+00  0.00000000000E+00 -0.10541202734E+03  0.10541202737E+03  0.25500000920E-02 0.  1.
    10030    2    1    2    0    0  0.00000000000E+00  0.00000000000E+00  0.45148029995E+03  0.66230435467E+03  0.48457465572E+03 0.  0.
        2    1    3    3  502    0  0.62069080771E+02 -0.23432241869E+02 -0.92755028280E+02  0.11404006324E+03  0.25500000920E-02 0.  1.
       -2    1    3    3    0  502 -0.62069080771E+02  0.23432241869E+02  0.54423532823E+03  0.54826429142E+03  0.25500000920E-02 0. -1.
</event>
<event>
 5   0  0.2779445E-02  0.4999596E+03  0.7818609E-02  0.1013789E+00
       -1   -1    0    0    0  501  0.00000000000E+00  0.00000000000E+00  0.72302823668E+02  0.72302823844E+02  0.50400001928E-02 0. -1.
        1   -1    0    0  501    0  0.00000000000E+00  0.00000000000E+00 -0.86428019522E+03  0.86428019524E+03  0.50400001928E-02 0.  1.
    10030    2    1    2    0    0  0.00000000000E+00  0.00000000000E+00 -0.79197737155E+03  0.93658301908E+03  0.49995959294E+03 0.  0.
        3    1    3    3  502    0 -0.11773184252E+03 -0.10122298744E+03 -0.28976165685E+02  0.15794463685E+03  0.10100000352E+00 0. -1.
       -3    1    3    3    0  502  0.11773184252E+03  0.10122298744E+03 -0.76300120587E+03  0.77863838223E+03  0.10100000352E+00 0.  1.
</event>
<event>
 5   0  0.2779445E-02  0.5002476E+03  0.7818609E-02  0.1013714E+00
       -1   -1    0    0    0  501  0.00000000000E+00  0.00000000000E+00  0.16206413175E+03  0.16206413183E+03  0.50400001928E-02 0. -1.
        1   -1    0    0  501    0  0.00000000000E+00  0.00000000000E+00 -0.38603183931E+03  0.38603183934E+03  0.50400001928E-02 0.  1.
    10030    2    1    2    0    0  0.00000000000E+00  0.00000000000E+00 -0.22396770756E+03  0.54809597117E+03  0.50024759828E+03 0.  0.
        3    1    3    3  502    0 -0.21426547567E+03  0.11446995667E+03 -0.46713677444E+02  0.24737672264E+03  0.10100000352E+00 0. -1.
       -3    1    3    3    0  502  0.21426547567E+03 -0.11446995667E+03 -0.17725403011E+03  0.30071924853E+03  0.10100000352E+00 0.  1.
</event>
<event>
 5   0  0.2779445E-02  0.5004610E+03  0.7818609E-02  0.1013659E+00
       -1   -1    0    0    0  501  0.00000000000E+00  0.00000000000E+00  0.10084186579E+04  0.10084186579E+04  0.50400001928E-02 0.  1.
        1   -1    0    0  501    0  0.00000000000E+00  0.00000000000E+00 -0.62092557505E+02  0.62092557709E+02  0.50400001928E-02 0. -1.
    10030    2    1    2    0    0  0.00000000000E+00  0.00000000000E+00  0.94632610037E+03  0.10705112156E+04  0.50046096199E+03 0.  0.
        3    1    3    3  502    0  0.24287439625E+03  0.59298935575E+02  0.45063210617E+03  0.51533837566E+03  0.10100000352E+00 0.  1.
       -3    1    3    3    0  502 -0.24287439625E+03 -0.59298935575E+02  0.49569399420E+03  0.55517283994E+03  0.10100000352E+00 0. -1.
</event>
<event>
 5   0  0.2719671E-02  0.5002314E+03  0.7818609E-02  0.1013719E+00
        1   -1    0    0  501    0  0.00000000000E+00  0.00000000000E+00  0.29821184399E+03  0.29821184404E+03  0.50400001928E-02 0. -1.
       -1   -1    0    0    0  501  0.00000000000E+00  0.00000000000E+00 -0.20977658600E+03  0.20977658606E+03  0.50400001928E-02 0.  1.
    10030    2    1    2    0    0  0.00000000000E+00  0.00000000000E+00  0.88435257995E+02  0.50798843010E+03  0.50023139671E+03 0.  0.
        2    1    3    3  502    0  0.61833498821E+02  0.32026077021E+02  0.28816937967E+03  0.29646356027E+03  0.25500000920E-02 0. -1.
       -2    1    3    3    0  502 -0.61833498821E+02 -0.32026077021E+02 -0.19973412167E+03  0.21152486982E+03  0.25500000920E-02 0.  1.
</event>
<event>
 5   0  0.4631619E-02  0.5023939E+03  0.7818609E-02  0.1013156E+00
       -2   -1    0    0    0  501  0.00000000000E+00  0.00000000000E+00  0.54041443957E+02  0.54041444017E+02  0.25500000920E-02 0. -1.
        2   -1    0    0  501    0  0.00000000000E+00  0.00000000000E+00 -0.11676209104E+04  0.11676209104E+04  0.25500000920E-02 0.  1.
    10030    2    1    2    0    0  0.00000000000E+00  0.00000000000E+00 -0.11135794664E+04  0.12216623544E+04  0.50239394913E+03 0.  0.
        5    1    3    3  502    0 -0.11985670133E+03  0.55269548077E+02 -0.10763820871E+04  0.10844541665E+04  0.46999998093E+01 0.  1.
       -5    1    3    3    0  502  0.11985670133E+03 -0.55269548077E+02 -0.37197379306E+02  0.13720818789E+03  0.46999998093E+01 0. -1.
</event>
<event>
 5   0  0.2723308E-02  0.4973204E+03  0.7818609E-02  0.1014481E+00
       -1   -1    0    0    0  501  0.00000000000E+00  0.00000000000E+00  0.23137107787E+03  0.23137107793E+03  0.50400001928E-02 0. -1.
        1   -1    0    0  501    0  0.00000000000E+00  0.00000000000E+00 -0.26724128378E+03  0.26724128383E+03  0.50400001928E-02 0.  1.
    10030    2    1    2    0    0  0.00000000000E+00  0.00000000000E+00 -0.35870205909E+02  0.49861236176E+03  0.49732043556E+03 0.  0.
        4    1    3    3  502    0 -0.17960287206E+03  0.14308636903E+03 -0.11357363118E+03  0.25618642285E+03  0.12699999809E+01 0.  1.
       -4    1    3    3    0  502  0.17960287206E+03 -0.14308636903E+03  0.77703425266E+02  0.24242593891E+03  0.12699999809E+01 0. -1.
</event>
<event>
 5   0  0.2779445E-02  0.4992945E+03  0.7818609E-02  0.1013963E+00
        1   -1    0    0  501    0  0.00000000000E+00  0.00000000000E+00  0.15468971485E+04  0.15468971485E+04  0.50400001928E-02 0.  1.
       -1   -1    0    0    0  501  0.00000000000E+00  0.00000000000E+00 -0.40289528559E+02  0.40289528874E+02  0.50400001928E-02 0. -1.
    10030    2    1    2    0    0  0.00000000000E+00  0.00000000000E+00  0.15066076199E+04  0.15871866774E+04  0.49929453071E+03 0.  0.
        3    1    3    3  502    0 -0.13141777773E+03  0.24129898181E+02  0.82942443709E+02  0.15726520104E+03  0.10100000352E+00 0. -1.
       -3    1    3    3    0  502  0.13141777773E+03 -0.24129898181E+02  0.14236651762E+04  0.14299214763E+04  0.10100000352E+00 0.  1.
</event>
<event>
 5   0  0.1805500E-02  0.5002519E+03  0.7818609E-02  0.1013713E+00
       -3   -1    0    0    0  501  0.00000000000E+00  0.00000000000E+00  0.64502146417E+03  0.64502147208E+03  0.10100000352E+00 0.  1.
        3   -1    0    0  501    0  0.00000000000E+00  0.00000000000E+00 -0.96993606908E+02  0.96993659494E+02  0.10100000352E+00 0. -1.
    10030    2    1    2    0    0  0.00000000000E+00  0.00000000000E+00  0.54802785726E+03  0.74201513157E+03  0.50025185971E+03 0.  0.
        3    1    3    3  502    0 -0.31386822016E+02  0.24113822160E+03  0.18714118799E+03  0.30684623014E+03  0.10100000352E+00 0.  1.
       -3    1    3    3    0  502  0.31386822016E+02 -0.24113822160E+03  0.36088666927E+03  0.43516890143E+03  0.10100000352E+00 0. -1.
</event>
<event>
 5   0  0.4534223E-02  0.4996586E+03  0.7818609E-02  0.1013868E+00
        2   -1    0    0  501    0  0.00000000000E+00  0.00000000000E+00  0.82567912965E+03  0.82567912966E+03  0.25500000920E-02 0. -1.
       -2   -1    0    0    0  501  0.00000000000E+00  0.00000000000E+00 -0.75591922354E+02  0.75591922397E+02  0.25500000920E-02 0.  1.
    10030    2    1    2    0    0  0.00000000000E+00  0.00000000000E+00  0.75008720730E+03  0.90127105205E+03  0.49965857414E+03 0.  0.
        2    1    3    3  502    0 -0.17035013465E+03 -0.10233238382E+03  0.10194255327E+03  0.22334585138E+03  0.25500000920E-02 0.  1.
       -2    1    3    3    0  502  0.17035013465E+03  0.10233238382E+03  0.64814465403E+03  0.67792520068E+03  0.25500000920E-02 0. -1.
</event>
<event>
 5   0  0.1805500E-02  0.5041219E+03  0.7818609E-02  0.1012709E+00
        4   -1    0    0  501    0  0.00000000000E+00  0.00000000000E+00  0.34500795874E+03  0.34501029621E+03  0.12699999809E+01 0. -1.
       -4   -1    0    0    0  501  0.00000000000E+00  0.00000000000E+00 -0.18414918145E+03  0.18415356073E+03  0.12699999809E+01 0.  1.
    10030    2    1    2    0    0  0.00000000000E+00  0.00000000000E+00  0.16085877729E+03  0.52916385694E+03  0.50412185160E+03 0.  0.
        1    1    3    3  502    0  0.63300478002E+02  0.11585133510E+03  0.30581928663E+03  0.33309746091E+03  0.50400001928E-02 0. -1.
       -1    1    3    3    0  502 -0.63300478002E+02 -0.11585133510E+03 -0.14496050935E+03  0.19606639604E+03  0.50400001928E-02 0.  1.
</event>
<event>
 5   0  0.4631619E-02  0.4996801E+03  0.7818609E-02  0.1013862E+00
        2   -1    0    0  501    0  0.00000000000E+00  0.00000000000E+00  0.12522935931E+04  0.12522935931E+04  0.25500000920E-02 0.  1.
       -2   -1    0    0    0  501  0.00000000000E+00  0.00000000000E+00 -0.49844574896E+02  0.49844574962E+02  0.25500000920E-02 0. -1.
    10030    2    1    2    0    0  0.00000000000E+00  0.00000000000E+00  0.12024490182E+04  0.13021381680E+04  0.49968006499E+03 0.  0.
        5    1    3    3  502    0 -0.20468678043E+03  0.10074235632E+03  0.86636890404E+03  0.89591454298E+03  0.46999998093E+01 0.  1.
       -5    1    3    3    0  502  0.20468678043E+03 -0.10074235632E+03  0.33608011415E+03  0.40622362507E+03  0.46999998093E+01 0. -1.
</event>
<event>
 5   0  0.2643185E-02  0.5008195E+03  0.7818609E-02  0.1013565E+00
       -1   -1    0    0    0  501  0.00000000000E+00  0.00000000000E+00  0.34785314017E+02  0.34785314383E+02  0.50400001928E-02 0.  1.
        1   -1    0    0  501    0  0.00000000000E+00  0.00000000000E+00 -0.18026299693E+04  0.18026299693E+04  0.50400001928E-02 0. -1.
    10030    2    1    2    0    0  0.00000000000E+00  0.00000000000E+00 -0.17678446552E+04  0.18374152836E+04  0.50081952789E+03 0.  0.
        1    1    3    3  502    0 -0.65701584694E+02 -0.12910525651E+03 -0.13454736375E+03  0.19770649612E+03  0.50400001928E-02 0.  1.
       -1    1    3    3    0  502  0.65701584694E+02  0.12910525651E+03 -0.16332972915E+04  0.16397087875E+04  0.50400001928E-02 0. -1.
</event>
<event>
 5   0  0.4409622E-02  0.5001027E+03  0.7818609E-02  0.1013752E+00
        2   -1    0    0  501    0  0.00000000000E+00  0.00000000000E+00  0.53912595123E+03  0.53912595124E+03  0.25500000920E-02 0.  1.
       -2   -1    0    0    0  501  0.00000000000E+00  0.00000000000E+00 -0.11597600205E+03  0.11597600208E+03  0.25500000920E-02 0. -1.
    10030    2    1    2    0    0  0.00000000000E+00  0.00000000000E+00  0.42314994918E+03  0.65510195332E+03  0.50010267921E+03 0.  0.
        3    1    3    3  502    0  0.19521537766E+03  0.12456656008E+03  0.87997416536E+02  0.24772853506E+03  0.10100000352E+00 0.  1.
       -3    1    3    3    0  502 -0.19521537766E+03 -0.12456656008E+03  0.33515253264E+03  0.40737341826E+03  0.10100000352E+00 0. -1.
</event>
<event>
 5   0  0.4631619E-02  0.5004377E+03  0.7818609E-02  0.1013665E+00
       -2   -1    0    0    0  501  0.00000000000E+00  0.00000000000E+00  0.15728332538E+03  0.15728332540E+03  0.25500000920E-02 0. -1.
        2   -1    0    0  501    0  0.00000000000E+00  0.00000000000E+00 -0.39806807210E+03  0.39806807211E+03  0.25500000920E-02 0.  1.
    10030    2    1    2    0    0  0.00000000000E+00  0.00000000000E+00 -0.24078474672E+03  0.55535139751E+03  0.50043768889E+03 0.  0.
        5    1    3    3  502    0 -0.17581691141E+03 -0.33297400378E+02 -0.31441162009E+03  0.36179698735E+03  0.46999998093E+01 0.  1.
       -5    1    3    3    0  502  0.17581691141E+03  0.33297400378E+02  0.73626873370E+02  0.19355441016E+03  0.46999998093E+01 0. -1.
</event>
<event>
 5   0  0.2643185E-02  0.4927898E+03  0.7818609E-02  0.1015678E+00
        1   -1    0    0  501    0  0.00000000000E+00  0.00000000000E+00  0.16079683052E+03  0.16079683060E+03  0.50400001928E-02 0.  1.
       -1   -1    0    0    0  501  0.00000000000E+00  0.00000000000E+00 -0.37755993505E+03  0.37755993508E+03  0.50400001928E-02 0. -1.
    10030    2    1    2    0    0  0.00000000000E+00  0.00000000000E+00 -0.21676310452E+03  0.53835676569E+03  0.49278977635E+03 0.  0.
        1    1    3    3  502    0 -0.67166700293E+02 -0.23374905267E+03 -0.65226246318E+02  0.25180239969E+03  0.50400001928E-02 0. -1.
       -1    1    3    3    0  502  0.67166700293E+02  0.23374905267E+03 -0.15153685821E+03  0.28655436600E+03  0.50400001928E-02 0.  1.
</event>
<event>
 5   0  0.4534223E-02  0.4998847E+03  0.7818609E-02  0.1013809E+00
       -2   -1    0    0    0  501  0.00000000000E+00  0.00000000000E+00  0.31089660832E+02  0.31089660937E+02  0.25500000920E-02 0.  1.
        2   -1    0    0  501    0  0.00000000000E+00  0.00000000000E+00 -0.20093878833E+04  0.20093878833E+04  0.25500000920E-02 0. -1.
    10030    2    1    2    0    0  0.00000000000E+00  0.00000000000E+00 -0.19782982225E+04  0.20404775443E+04  0.49988473824E+03 0.  0.
        2    1    3    3  502    0 -0.21854466697E+03  0.72287833824E+02 -0.59163267261E+03  0.63483582262E+03  0.25500000920E-02 0. -1.
       -2    1    3    3    0  502  0.21854466697E+03 -0.72287833824E+02 -0.13866655499E+04  0.14056417216E+04  0.25500000920E-02 0.  1.
</event>
<event>
 5   0  0.4631619E-02  0.4988634E+03  0.7818609E-02  0.1014076E+00
       -2   -1    0    0    0  501  0.00000000000E+00  0.00000000000E+00  0.45314242177E+02  0.45314242249E+02  0.25500000920E-02 0. -1.
        2   -1    0    0  501    0  0.00000000000E+00  0.00000000000E+00 -0.13729937525E+04  0.13729937525E+04  0.25500000920E-02 0.  1.
    10030    2    1    2    0    0  0.00000000000E+00  0.00000000000E+00 -0.13276795103E+04  0.14183079947E+04  0.49886339397E+03 0.  0.
        5    1    3    3  502    0  0.16244250042E+03  0.18919556359E+03 -0.67350381346E+03  0.71820053186E+03  0.46999998093E+01 0.  1.
       -5    1    3    3    0  502 -0.16244250042E+03 -0.18919556359E+03 -0.65417569685E+03  0.70010746288E+03  0.46999998093E+01 0. -1.
</event>
<event>
 5   0  0.2719671E-02  0.5015601E+03  0.7818609E-02  0.1013372E+00
        1   -1    0    0  501    0  0.00000000000E+00  0.00000000000E+00  0.16242664515E+03  0.16242664523E+03  0.50400001928E-02 0.  1.
       -1   -1    0    0    0  501  0.00000000000E+00  0.00000000000E+00 -0.38719411951E+03  0.38719411954E+03  0.50400001928E-02 0. -1.
    10030    2    1    2    0    0  0.00000000000E+00  0.00000000000E+00 -0.22476747436E+03  0.54962076478E+03  0.50156013353E+03 0.  0.
        2    1    3    3  502    0 -0.10768476778E+03  0.21512185907E+03 -0.19000337764E+03  0.30655294320E+03  0.25500000920E-02 0.  1.
       -2    1    3    3    0  502  0.10768476778E+03 -0.21512185907E+03 -0.34764096719E+02  0.24306782158E+03  0.25500000920E-02 0. -1.
</event>
<event>
 5   0  0.4631619E-02  0.5016927E+03  0.7818609E-02  0.1013338E+00
       -2   -1    0    0    0  501  0.00000000000E+00  0.00000000000E+00  0.93238858527E+02  0.93238858562E+02  0.25500000920E-02 0. -1.
        2   -1    0    0  501    0  0.00000000000E+00  0.00000000000E+00 -0.67486767577E+03  0.67486767578E+03  0.25500000920E-02 0.  1.
    10030    2    1    2    0    0  0.00000000000E+00  0.00000000000E+00 -0.58162881724E+03  0.76810653434E+03  0.50169270180E+03 0.  0.
        5    1    3    3  502    0  0.57806512569E+02 -0.12657820591E+03  0.28647252151E+02  0.14214918277E+03  0.46999998093E+01 0. -1.
       -5    1    3    3    0  502 -0.57806512569E+02  0.12657820591E+03 -0.61027606940E+03  0.62595735157E+03  0.46999998093E+01 0.  1.
</event>
<event>
 5   0  0.2723308E-02  0.5021658E+03  0.7818609E-02  0.1013215E+00
        1   -1    0    0  501    0  0.00000000000E+00  0.00000000000E+00  0.10702016557E+04  0.10702016558E+04  0.50400001928E-02 0. -1.
       -1   -1    0    0    0  501  0.00000000000E+00  0.00000000000E+00 -0.58907247235E+02  0.58907247450E+02  0.50400001928E-02 0.  1.
    10030    2    1    2    0    0  0.00000000000E+00  0.00000000000E+00  0.10112944085E+04  0.11291089032E+04  0.50216584374E+03 0.  0.
        4    1    3    3  502    0  0.11861429378E+03 -0.29015145088E+02  0.99892964027E+03  0.10063663689E+04  0.12699999809E+01 0. -1.
       -4    1    3    3    0  502 -0.11861429378E+03  0.29015145088E+02  0.12364768232E+02  0.12274253430E+03  0.12699999809E+01 0.  1.
</event>
<event>
 5   0  0.2715483E-02  0.4993857E+03  0.7818609E-02  0.1013939E+00
       -1   -1    0    0    0  501  0.00000000000E+00  0.00000000000E+00  0.32957734134E+03  0.32957734138E+03  0.50400001928E-02 0.  1.
        1   -1    0    0  501    0  0.00000000000E+00  0.00000000000E+00 -0.18917112389E+03  0.18917112396E+03  0.50400001928E-02 0. -1.
    10030    2    1    2    0    0  0.00000000000E+00  0.00000000000E+00  0.14040621745E+03  0.51874846534E+03  0.49938568702E+03 0.  0.
        5    1    3    3  502    0  0.24507876724E+03 -0.60436734778E+01  0.11919421157E+03  0.27263433058E+03  0.46999998093E+01 0.  1.
       -5    1    3    3    0  502 -0.24507876724E+03  0.60436734778E+01  0.21212005879E+02  0.24611413477E+03  0.46999998093E+01 0. -1.
</event>
<event>
 5   0  0.2715483E-02  0.4984703E+03  0.7818609E-02  0.1014179E+00
       -1   -1    0    0    0  501  0.00000000000E+00  0.00000000000E+00  0.37198451711E+03  0.37198451714E+03  0.50400001928E-02 0. -1.
        1   -1    0    0  501    0  0.00000000000E+00  0.00000000000E+00 -0.16699121978E+03  0.16699121986E+03  0.50400001928E-02 0.  1.
    10030    2    1    2    0    0  0.00000000000E+00  0.00000000000E+00  0.20499329732E+03  0.53897573700E+03  0.49847025300E+03 0.  0.
        5    1    3    3  502    0  0.20913328165E+03  0.11003472578E+03  0.18798926610E+03  0.30200401411E+03  0.46999998093E+01 0. -1.
       -5    1    3    3    0  502 -0.20913328165E+03 -0.11003472578E+03  0.17004031219E+02  0.23697172289E+03  0.46999998093E+01 0.  1.
</event>
<event>
 5   0  0.2715483E-02  0.5007137E+03  0.7818609E-02  0.1013593E+00
        1   -1    0    0  501    0  0.00000000000E+00  0.00000000000E+00  0.15385365380E+03  0.15385365388E+03  0.50400001928E-02 0. -1.
       -1   -1    0    0    0  501  0.00000000000E+00  0.00000000000E+00 -0.40739071283E+03  0.40739071286E+03  0.50400001928E-02 0.  1.
    10030    2    1    2    0    0  0.00000000000E+00  0.00000000000E+00 -0.25353705903E+03  0.56124436674E+03  0.50071368955E+03 0.  0.
        5    1    3    3  502    0  0.91739440846E+02  0.79959721838E+02  0.11841363618E+03  0.16986336084E+03  0.46999998093E+01 0. -1.
       -5    1    3    3    0  502 -0.91739440846E+02 -0.79959721838E+02 -0.37195069521E+03  0.39138100591E+03  0.46999998093E+01 0.  1.
</event>
<event>
 5   0  0.4409622E-02  0.4980696E+03  0.7818609E-02  0.1014284E+00
        2   -1    0    0  501    0  0.00000000000E+00  0.00000000000E+00  0.94747272799E+02  0.94747272833E+02  0.25500000920E-02 0. -1.
       -2   -1    0    0    0  501  0.00000000000E+00  0.00000000000E+00 -0.65456581154E+03  0.65456581154E+03  0.25500000920E-02 0.  1.
    10030    2    1    2    0    0  0.00000000000E+00  0.00000000000E+00 -0.55981853874E+03  0.74931308438E+03  0.49806957556E+03 0.  0.
        3    1    3    3  502    0 -0.23703976265E+03 -0.40802353076E+02 -0.18281046795E+03  0.30211315510E+03  0.10100000352E+00 0. -1.
       -3    1    3    3    0  502  0.23703976265E+03  0.40802353076E+02 -0.37700807080E+03  0.44719992927E+03  0.10100000352E+00 0.  1.
</event>
<event>
 5   0  0.2779445E-02  0.4997139E+03  0.7818609E-02  0.1013854E+00
        1   -1    0    0  501    0  0.00000000000E+00  0.00000000000E+00  0.10277701514E+04  0.10277701514E+04  0.50400001928E-02 0. -1.
       -1   -1    0    0    0  501  0.00000000000E+00  0.00000000000E+00 -0.60741677326E+02  0.60741677535E+02  0.50400001928E-02 0.  1.
    10030    2    1    2    0    0  0.00000000000E+00  0.00000000000E+00  0.96702847403E+03  0.10885118289E+04  0.49971385020E+03 0.  0.
        3    1    3    3  502    0 -0.18829177496E+02  0.21131058738E+03  0.19600095570E+03  0.28883055084E+03  0.10100000352E+00 0.  1.
       -3    1    3    3    0  502  0.18829177496E+02 -0.21131058738E+03  0.77102751832E+03  0.79968127806E+03  0.10100000352E+00 0. -1.
</event>
<event>
 5   0  0.2715483E-02  0.5024704E+03  0.7818609E-02  0.1013136E+00
        1   -1    0    0  501    0  0.00000000000E+00  0.00000000000E+00  0.36125212039E+03  0.36125212043E+03  0.50400001928E-02 0.  1.
       -1   -1    0    0    0  501  0.00000000000E+00  0.00000000000E+00 -0.17472316735E+03  0.17472316742E+03  0.50400001928E-02 0. -1.
    10030    2    1    2    0    0  0.00000000000E+00  0.00000000000E+00  0.18652895304E+03  0.53597528785E+03  0.50247035620E+03 0.  0.
        5    1    3    3  502    0 -0.19816296803E+03 -0.13414232561E+03  0.11788669030E+02  0.23963261075E+03  0.46999998093E+01 0.  1.
       -5    1    3    3    0  502  0.19816296803E+03  0.13414232561E+03  0.17474028401E+03  0.29634267710E+03  0.46999998093E+01 0. -1.
</event>
<event>
 5   0  0.4409622E-02  0.5028213E+03  0.7818609E-02  0.1013045E+00
       -2   -1    0    0    0  501  0.00000000000E+00  0.00000000000E+00  0.74442314692E+03  0.74442314693E+03  0.25500000920E-02 0. -1.
        2   -1    0    0  501    0  0.00000000000E+00  0.00000000000E+00 -0.84907787550E+02  0.84907787589E+02  0.25500000920E-02 0.  1.
    10030    2    1    2    0    0  0.00000000000E+00  0.00000000000E+00  0.65951535937E+03  0.82933093452E+03  0.50282132980E+03 0.  0.
        3    1    3    3  502    0  0.16027884644E+03  0.93041588781E+02  0.49555270952E+02  0.19183790277E+03  0.10100000352E+00 0.  1.
       -3    1    3    3    0  502 -0.16027884644E+03 -0.93041588781E+02  0.60996008842E+03  0.63749303175E+03  0.10100000352E+00 0. -1.
</event>
<event>
 5   0  0.1805500E-02  0.4981990E+03  0.7818609E-02  0.1014250E+00
        3   -1    0    0  501    0  0.00000000000E+00  0.00000000000E+00  0.43718647403E+03  0.43718648570E+03  0.10100000352E+00 0.  1.
       -3   -1    0    0    0  501  0.00000000000E+00  0.00000000000E+00 -0.14193155942E+03  0.14193159536E+03  0.10100000352E+00 0. -1.
    10030    2    1    2    0    0  0.00000000000E+00  0.00000000000E+00  0.29525491461E+03  0.57911808105E+03  0.49819904376E+03 0.  0.
        5    1    3    3  502    0  0.17234139238E+03  0.13497838287E+03  0.28569554312E+03  0.35995104212E+03  0.46999998093E+01 0.  1.
       -5    1    3    3    0  502 -0.17234139238E+03 -0.13497838287E+03  0.95593714949E+01  0.21916703893E+03  0.46999998093E+01 0. -1.
</event>
<event>
 5   0  0.4451135E-02  0.4996766E+03  0.7818609E-02  0.1013863E+00
       -2   -1    0    0    0  501  0.00000000000E+00  0.00000000000E+00  0.18031211143E+03  0.18031211145E+03  0.25500000920E-02 0.  1.
        2   -1    0    0  501    0  0.00000000000E+00  0.00000000000E+00 -0.34617300172E+03  0.34617300172E+03  0.25500000920E-02 0. -1.
    10030    2    1    2    0    0  0.00000000000E+00  0.00000000000E+00 -0.16586089028E+03  0.52648511318E+03  0.49967663490E+03 0.  0.
        1    1    3    3  502    0  0.11461935457E+03 -0.56813995885E+02  0.14318466866E+03  0.19200853089E+03  0.50400001928E-02 0.  1.
       -1    1    3    3    0  502 -0.11461935457E+03  0.56813995885E+02 -0.30904555894E+03  0.33447658229E+03  0.50400001928E-02 0. -1.
</event>
<event>
 5   0  0.4519539E-02  0.5007633E+03  0.7818609E-02  0.1013580E+00
       -2   -1    0    0    0  501  0.00000000000E+00  0.00000000000E+00  0.55160121001E+02  0.55160121060E+02  0.25500000920E-02 0.  1.
        2   -1    0    0  501    0  0.00000000000E+00  0.00000000000E+00 -0.11365271311E+04  0.11365271311E+04  0.25500000920E-02 0. -1.
    10030    2    1    2    0    0  0.00000000000E+00  0.00000000000E+00 -0.10813670101E+04  0.11916872521E+04  0.50076331378E+03 0.  0.
        4    1    3    3  502    0  0.11836131974E+03  0.14102828956E+02 -0.16702088732E+02  0.12036969911E+03  0.12699999809E+01 0.  1.
       -4    1    3    3    0  502 -0.11836131974E+03 -0.14102828956E+02 -0.10646649213E+04  0.10713175530E+04  0.12699999809E+01 0. -1.
</event>
<event>
 5   0  0.1805500E-02  0.5019474E+03  0.7818609E-02  0.1013272E+00
       -3   -1    0    0    0  501  0.00000000000E+00  0.00000000000E+00  0.22620148742E+03  0.22620150997E+03  0.10100000352E+00 0. -1.
        3   -1    0    0  501    0  0.00000000000E+00  0.00000000000E+00 -0.27845880725E+03  0.27845882557E+03  0.10100000352E+00 0.  1.
    10030    2    1    2    0    0  0.00000000000E+00  0.00000000000E+00 -0.52257319823E+02  0.50466033554E+03  0.50194743429E+03 0.  0.
        3    1    3    3  502    0 -0.11137323678E+03  0.18843309950E+03 -0.14957977736E+03  0.26511346789E+03  0.10100000352E+00 0. -1.
       -3    1    3    3    0  502  0.11137323678E+03 -0.18843309950E+03  0.97322457539E+02  0.23954686765E+03  0.10100000352E+00 0.  1.
</event>
<event>
 5   0  0.2719671E-02  0.4990971E+03  0.7818609E-02  0.1014015E+00
       -1   -1    0    0    0  501  0.00000000000E+00  0.00000000000E+00  0.39380547742E+02  0.39380548065E+02  0.50400001928E-02 0.  1.
        1   -1    0    0  501    0  0.00000000000E+00  0.00000000000E+00 -0.15813510692E+04  0.15813510692E+04  0.50400001928E-02 0. -1.
    10030    2    1    2    0    0  0.00000000000E+00  0.00000000000E+00 -0.15419705215E+04  0.16207316173E+04  0.49909707091E+03 0.  0.
        2    1    3    3  502    0 -0.64901675323E+01 -0.19126782781E+03 -0.25091619127E+03  0.31557002278E+03  0.25500000920E-02 0.  1.
       -2    1    3    3    0  502  0.64901675323E+01  0.19126782781E+03 -0.12910543302E+04  0.13051615945E+04  0.25500000920E-02 0. -1.
</event>
<event>
 5   0  0.4631619E-02  0.4969301E+03  0.7818609E-02  0.1014583E+00
       -2   -1    0    0    0  501  0.00000000000E+00  0.00000000000E+00  0.79721364043E+02  0.79721364083E+02  0.25500000920E-02 0.  1.
        2   -1    0    0  501    0  0.00000000000E+00  0.00000000000E+00 -0.77438303608E+03  0.77438303608E+03  0.25500000920E-02 0. -1.
    10030    2    1    2    0    0  0.00000000000E+00  0.00000000000E+00 -0.69466167204E+03  0.85410440017E+03  0.49693006328E+03 0.  0.
        5    1    3    3  502    0 -0.67819008203E+02 -0.18495822209E+03 -0.60744838327E+03  0.63861145474E+03  0.46999998093E+01 0. -1.
       -5    1    3    3    0  502  0.67819008203E+02  0.18495822209E+03 -0.87213288768E+02  0.21549294543E+03  0.46999998093E+01 0.  1.
</event>
<event>
 5   0  0.2723308E-02  0.5012478E+03  0.7818609E-02  0.1013454E+00
        1   -1    0    0  501    0  0.00000000000E+00  0.00000000000E+00  0.21564990165E+03  0.21564990171E+03  0.50400001928E-02 0.  1.
       -1   -1    0    0    0  501  0.00000000000E+00  0.00000000000E+00 -0.29126991760E+03  0.29126991765E+03  0.50400001928E-02 0. -1.
    10030    2    1    2    0    0  0.00000000000E+00  0.00000000000E+00 -0.75620015952E+02  0.50691981936E+03  0.50124775954E+03 0.  0.
        4    1    3    3  502    0  0.31483491810E+02 -0.18960666796E+03  0.12484787471E+03  0.22919533920E+03  0.12699999809E+01 0.  1.
       -4    1    3    3    0  502 -0.31483491810E+02  0.18960666796E+03 -0.20046789067E+03  0.27772448016E+03  0.12699999809E+01 0. -1.
</event>
<event>
 5   0  0.4451135E-02  0.4721738E+03  0.7818609E-02  0.1021308E+00
       -2   -1    0    0    0  501  0.00000000000E+00  0.00000000000E+00  0.60740249845E+02  0.60740249898E+02  0.25500000920E-02 0.  1.
        2   -1    0    0  501    0  0.00000000000E+00  0.00000000000E+00 -0.91762929718E+03  0.91762929718E+03  0.25500000920E-02 0. -1.
    10030    2    1    2    0    0  0.00000000000E+00  0.00000000000E+00 -0.85688904733E+03  0.97836954708E+03  0.47217383580E+03 0.  0.
        1    1    3    3  502    0  0.67848193426E+02  0.10794238206E+03 -0.84016372049E+03  0.84978233240E+03  0.50400001928E-02 0. -1.
       -1    1    3    3    0  502 -0.67848193426E+02 -0.10794238206E+03 -0.16725326841E+02  0.12858721468E+03  0.50400001928E-02 0.  1.
</event>
<event>
 5   0  0.1805500E-02  0.4934735E+03  0.7818609E-02  0.1015497E+00
        4   -1    0    0  501    0  0.00000000000E+00  0.00000000000E+00  0.17465125453E+03  0.17465587195E+03  0.12699999809E+01 0.  1.
       -4   -1    0    0    0  501  0.00000000000E+00  0.00000000000E+00 -0.34856435131E+03  0.34856666494E+03  0.12699999809E+01 0. -1.
    10030    2    1    2    0    0  0.00000000000E+00  0.00000000000E+00 -0.17391309679E+03  0.52322253689E+03  0.49347346218E+03 0.  0.
        2    1    3    3  502    0  0.83520163882E+02  0.16203324366E+03  0.89346331332E+02  0.20301023806E+03  0.25500000920E-02 0.  1.
       -2    1    3    3    0  502 -0.83520163882E+02 -0.16203324366E+03 -0.26325942812E+03  0.32021229884E+03  0.25500000920E-02 0. -1.
</event>
<event>
 5   0  0.4534223E-02  0.5059454E+03  0.7818609E-02  0.1012239E+00
       -2   -1    0    0    0  501  0.00000000000E+00  0.00000000000E+00  0.79633071055E+02  0.79633071096E+02  0.25500000920E-02 0. -1.
        2   -1    0    0  501    0  0.00000000000E+00  0.00000000000E+00 -0.80362572654E+03  0.80362572655E+03  0.25500000920E-02 0.  1.
    10030    2    1    2    0    0  0.00000000000E+00  0.00000000000E+00 -0.72399265549E+03  0.88325879764E+03  0.50594539074E+03 0.  0.
        2    1    3    3  502    0  0.23248384816E+03  0.31172022665E+02 -0.52738109511E+03  0.57719256244E+03  0.25500000920E-02 0.  1.
       -2    1    3    3    0  502 -0.23248384816E+03 -0.31172022665E+02 -0.19661156038E+03  0.30606623520E+03  0.25500000920E-02 0. -1.
</event>
<event>
 5   0  0.2643185E-02  0.4990385E+03  0.7818609E-02  0.1014030E+00
       -1   -1    0    0    0  501  0.00000000000E+00  0.00000000000E+00  0.11416991647E+03  0.11416991658E+03  0.50400001928E-02 0. -1.
        1   -1    0    0  501    0  0.00000000000E+00  0.00000000000E+00 -0.54532623802E+03  0.54532623805E+03  0.50400001928E-02 0.  1.
    10030    2    1    2    0    0  0.00000000000E+00  0.00000000000E+00 -0.43115632156E+03  0.65949615462E+03  0.49903847982E+03 0.  0.
        1    1    3    3  502    0  0.17566545299E+03 -0.24594662046E+02  0.16337264386E+02  0.17812960171E+03  0.50400001928E-02 0. -1.
       -1    1    3    3    0  502 -0.17566545299E+03  0.24594662046E+02 -0.44749358594E+03  0.48136655291E+03  0.50400001928E-02 0.  1.
</event>
<event>
 5   0  0.2723308E-02  0.4997252E+03  0.7818609E-02  0.1013851E+00
        1   -1    0    0  501    0  0.00000000000E+00  0.00000000000E+00  0.36805613963E+03  0.36805613967E+03  0.50400001928E-02 0. -1.
       -1   -1    0    0    0  501  0.00000000000E+00  0.00000000000E+00 -0.16962442382E+03  0.16962442390E+03  0.50400001928E-02 0.  1.
    10030    2    1    2    0    0  0.00000000000E+00  0.00000000000E+00  0.19843171581E+03  0.53768056356E+03  0.49972516706E+03 0.  0.
        4    1    3    3  502    0  0.17222678263E+03  0.80225789985E+02  0.27381035462E+03  0.33327460934E+03  0.12699999809E+01 0. -1.
       -4    1    3    3    0  502 -0.17222678263E+03 -0.80225789985E+02 -0.75378638809E+02  0.20440595422E+03  0.12699999809E+01 0.  1.
</event>
<event>
 5   0  0.4534223E-02  0.5016135E+03  0.7818609E-02  0.1013359E+00
        2   -1    0    0  501    0  0.00000000000E+00  0.00000000000E+00  0.95538997959E+03  0.95538997960E+03  0.25500000920E-02 0. -1.
       -2   -1    0    0    0  501  0.00000000000E+00  0.00000000000E+00 -0.65841203482E+02  0.65841203532E+02  0.25500000920E-02 0.  1.
    10030    2    1    2    0    0  0.00000000000E+00  0.00000000000E+00  0.88954877611E+03  0.10212311831E+04  0.50161350093E+03 0.  0.
        2    1    3    3  502    0  0.13198277829E+03 -0.52718973916E+02  0.24051975759E+02  0.14414312860E+03  0.25500000920E-02 0.  1.
       -2    1    3    3    0  502 -0.13198277829E+03  0.52718973916E+02  0.86549680035E+03  0.87708805453E+03  0.25500000920E-02 0. -1.
</event>
<event>
 5   0  0.4631619E-02  0.4999274E+03  0.7818609E-02  0.1013798E+00
        2   -1    0    0  501    0  0.00000000000E+00  0.00000000000E+00  0.16728448725E+04  0.16728448725E+04  0.25500000920E-02 0. -1.
       -2   -1    0    0    0  501  0.00000000000E+00  0.00000000000E+00 -0.37350656542E+02  0.37350656629E+02  0.25500000920E-02 0.  1.
    10030    2    1    2    0    0  0.00000000000E+00  0.00000000000E+00  0.16354942159E+04  0.17101955291E+04  0.49992741215E+03 0.  0.
        5    1    3    3  502    0  0.25401703620E+02 -0.64832056001E+02 -0.33466256840E+01  0.69869391966E+02  0.46999998093E+01 0.  1.
       -5    1    3    3    0  502 -0.25401703620E+02  0.64832056001E+02  0.16388408416E+04  0.16403261371E+04  0.46999998093E+01 0. -1.
</event>
<event>
 5   0  0.2723308E-02  0.5013826E+03  0.7818609E-02  0.1013419E+00
        1   -1    0    0  501    0  0.00000000000E+00  0.00000000000E+00  0.36128981839E+03  0.36128981842E+03  0.50400001928E-02 0.  1.
       -1   -1    0    0    0  501  0.00000000000E+00  0.00000000000E+00 -0.17394936765E+03  0.17394936772E+03  0.50400001928E-02 0. -1.
    10030    2    1    2    0    0  0.00000000000E+00  0.00000000000E+00  0.18734045074E+03  0.53523918614E+03  0.50138263023E+03 0.  0.
        4    1    3    3  502    0  0.23848319105E+03  0.57013659953E+02  0.14934285457E+03  0.28710571389E+03  0.12699999809E+01 0.  1.
       -4    1    3    3    0  502 -0.23848319105E+03 -0.57013659953E+02  0.37997596169E+02  0.24813347225E+03  0.12699999809E+01 0. -1.
</event>
<event>
 5   0  0.2719671E-02  0.5011242E+03  0.7818609E-02  0.1013486E+00
        1   -1    0    0  501    0  0.00000000000E+00  0.00000000000E+00  0.28172236433E+03  0.28172236437E+03  0.50400001928E-02 0.  1.
       -1   -1    0    0    0  501  0.00000000000E+00  0.00000000000E+00 -0.22284834084E+03  0.22284834089E+03  0.50400001928E-02 0. -1.
    10030    2    1    2    0    0  0.00000000000E+00  0.00000000000E+00  0.58874023488E+02  0.50457070527E+03  0.50112418219E+03 0.  0.
        2    1    3    3  502    0 -0.19408919204E+02  0.24198018766E+03 -0.33040079968E+02  0.24499543721E+03  0.25500000920E-02 0. -1.
       -2    1    3    3    0  502  0.19408919204E+02 -0.24198018766E+03  0.91914103456E+02  0.25957526805E+03  0.25500000920E-02 0.  1.
</event>
<event>
 5   0  0.1805500E-02  0.5016535E+03  0.7818609E-02  0.1013348E+00
        3   -1    0    0  501    0  0.00000000000E+00  0.00000000000E+00  0.30455153595E+03  0.30455155269E+03  0.10100000352E+00 0. -1.
       -3   -1    0    0    0  501  0.00000000000E+00  0.00000000000E+00 -0.20657934920E+03  0.20657937389E+03  0.10100000352E+00 0.  1.
    10030    2    1    2    0    0  0.00000000000E+00  0.00000000000E+00  0.97972186743E+02  0.51113092659E+03  0.50165354054E+03 0.  0.
        4    1    3    3  502    0  0.11944961365E+03  0.14714953988E+03 -0.11840789025E+03  0.22347983949E+03  0.12699999809E+01 0.  1.
       -4    1    3    3    0  502 -0.11944961365E+03 -0.14714953988E+03  0.21638007699E+03  0.28765108709E+03  0.12699999809E+01 0. -1.
</event>
<event>
 5   0  0.4519539E-02  0.4993794E+03  0.7818609E-02  0.1013941E+00
       -2   -1    0    0    0  501  0.00000000000E+00  0.00000000000E+00  0.90265525364E+02  0.90265525400E+02  0.25500000920E-02 0. -1.
        2   -1    0    0  501    0  0.00000000000E+00  0.00000000000E+00 -0.69068396838E+03  0.69068396839E+03  0.25500000920E-02 0.  1.
    10030    2    1    2    0    0  0.00000000000E+00  0.00000000000E+00 -0.60041844302E+03  0.78094949379E+03  0.49937942001E+03 0.  0.
        4    1    3    3  502    0 -0.90253644481E+02  0.19718787950E+03 -0.10668089387E+03  0.24168410411E+03  0.12699999809E+01 0. -1.
       -4    1    3    3    0  502  0.90253644481E+02 -0.19718787950E+03 -0.49373754915E+03  0.53926538968E+03  0.12699999809E+01 0.  1.
</event>
<event>
 5   0  0.2715483E-02  0.4986002E+03  0.7818609E-02  0.1014145E+00
        1   -1    0    0  501    0  0.00000000000E+00  0.00000000000E+00  0.71341575703E+03  0.71341575705E+03  0.50400001928E-02 0.  1.
       -1   -1    0    0    0  501  0.00000000000E+00  0.00000000000E+00 -0.87116869624E+02  0.87116869770E+02  0.50400001928E-02 0. -1.
    10030    2    1    2    0    0  0.00000000000E+00  0.00000000000E+00  0.62629888741E+03  0.80053262682E+03  0.49860023088E+03 0.  0.
        5    1    3    3  502    0  0.59488737077E+02 -0.15985605159E+03  0.21327733281E+02  0.17195880109E+03  0.46999998093E+01 0. -1.
       -5    1    3    3    0  502 -0.59488737077E+02  0.15985605159E+03  0.60497115412E+03  0.62857382573E+03  0.46999998093E+01 0.  1.
</event>
<event>
 5   0  0.4519539E-02  0.4997282E+03  0.7818609E-02  0.1013850E+00
        2   -1    0    0  501    0  0.00000000000E+00  0.00000000000E+00  0.12005432220E+03  0.12005432223E+03  0.25500000920E-02 0. -1.
       -2   -1    0    0    0  501  0.00000000000E+00  0.00000000000E+00 -0.52003173493E+03  0.52003173493E+03  0.25500000920E-02 0.  1.
    10030    2    1    2    0    0  0.00000000000E+00  0.00000000000E+00 -0.39997741272E+03  0.64008605716E+03  0.49972815599E+03 0.  0.
        4    1    3    3  502    0  0.10721046858E+03 -0.21752957268E+03 -0.12295274428E+03  0.27190474396E+03  0.12699999809E+01 0.  1.
       -4    1    3    3    0  502 -0.10721046858E+03  0.21752957268E+03 -0.27702466844E+03  0.36818131320E+03  0.12699999809E+01 0. -1.
</event>
<event>
 5   0  0.4519539E-02  0.5057402E+03  0.7818609E-02  0.1012291E+00
       -2   -1    0    0    0  501  0.00000000000E+00  0.00000000000E+00  0.59588832489E+02  0.59588832544E+02  0.25500000920E-02 0.  1.
        2   -1    0    0  501    0  0.00000000000E+00  0.00000000000E+00 -0.10730748382E+04  0.10730748382E+04  0.25500000920E-02 0. -1.
    10030    2    1    2    0    0  0.00000000000E+00  0.00000000000E+00 -0.10134860057E+04  0.11326636708E+04  0.50574015785E+03 0.  0.
        4    1    3    3  502    0  0.65181970140E+02  0.18458834942E+02  0.38879295612E+02  0.78119334009E+02  0.12699999809E+01 0.  1.
       -4    1    3    3    0  502 -0.65181970140E+02 -0.18458834942E+02 -0.10523653013E+04  0.10545443368E+04  0.12699999809E+01 0. -1.
</event>
<event>
 5   0  0.4409622E-02  0.5119444E+03  0.7818609E-02  0.1010707E+00
        2   -1    0    0  501    0  0.00000000000E+00  0.00000000000E+00  0.51440323938E+03  0.51440323938E+03  0.25500000920E-02 0. -1.
       -2   -1    0    0    0  501  0.00000000000E+00  0.00000000000E+00 -0.12737433902E+03  0.12737433905E+03  0.25500000920E-02 0.  1.
    10030    2    1    2    0    0  0.00000000000E+00  0.00000000000E+00  0.38702890036E+03  0.64177757843E+03  0.51194442127E+03 0.  0.
        3    1    3    3  502    0 -0.17378929097E+03 -0.67127721658E+02  0.41356786355E+03  0.45359369113E+03  0.10100000352E+00 0. -1.
       -3    1    3    3    0  502  0.17378929097E+03  0.67127721658E+02 -0.26538963195E+02  0.18818388730E+03  0.10100000352E+00 0.  1.
</event>
<event>
 5   0  0.2719671E-02  0.4996288E+03  0.7818609E-02  0.1013876E+00
       -1   -1    0    0    0  501  0.00000000000E+00  0.00000000000E+00  0.31755726289E+03  0.31755726293E+03  0.50400001928E-02 0.  1.
        1   -1    0    0  501    0  0.00000000000E+00  0.00000000000E+00 -0.19652275214E+03  0.19652275220E+03  0.50400001928E-02 0. -1.
    10030    2    1    2    0    0  0.00000000000E+00  0.00000000000E+00  0.12103451075E+03  0.51408001513E+03  0.49962877135E+03 0.  0.
        2    1    3    3  502    0 -0.51834201641E+02 -0.12744113232E+03 -0.15403054035E+03  0.20652707821E+03  0.25500000920E-02 0. -1.
       -2    1    3    3    0  502  0.51834201641E+02  0.12744113232E+03  0.27506505110E+03  0.30755293692E+03  0.25500000920E-02 0.  1.
</event>
<event>
 5   0  0.2723308E-02  0.5033186E+03  0.7818609E-02  0.1012916E+00
        1   -1    0    0  501    0  0.00000000000E+00  0.00000000000E+00  0.16734133833E+03  0.16734133840E+03  0.50400001928E-02 0. -1.
       -1   -1    0    0    0  501  0.00000000000E+00  0.00000000000E+00 -0.37846236326E+03  0.37846236329E+03  0.50400001928E-02 0.  1.
    10030    2    1    2    0    0  0.00000000000E+00  0.00000000000E+00 -0.21112102493E+03  0.54580370170E+03  0.50331858064E+03 0.  0.
        4    1    3    3  502    0  0.21050065667E+03  0.29681588332E+02  0.40490080548E+02  0.21640837015E+03  0.12699999809E+01 0. -1.
       -4    1    3    3    0  502 -0.21050065667E+03 -0.29681588332E+02 -0.25161110548E+03  0.32939533155E+03  0.12699999809E+01 0.  1.
</event>
<event>
 5   0  0.2715483E-02  0.4995761E+03  0.7818609E-02  0.1013890E+00
       -1   -1    0    0    0  501  0.00000000000E+00  0.00000000000E+00  0.13848154348E+03  0.13848154357E+03  0.50400001928E-02 0.  1.
        1   -1    0    0  501    0  0.00000000000E+00  0.00000000000E+00 -0.45055873407E+03  0.45055873410E+03  0.50400001928E-02 0. -1.
    10030    2    1    2    0    0  0.00000000000E+00  0.00000000000E+00 -0.31207719059E+03  0.58904027767E+03  0.49957609613E+03 0.  0.
        5    1    3    3  502    0  0.54688346820E+02 -0.24338791629E+03 -0.17016227735E+03  0.30200295314E+03  0.46999998093E+01 0. -1.
       -5    1    3    3    0  502 -0.54688346820E+02  0.24338791629E+03 -0.14191491324E+03  0.28703732453E+03  0.46999998093E+01 0.  1.
</event>
<event>
 5   0  0.4451135E-02  0.5003608E+03  0.7818609E-02  0.1013685E+00
        2   -1    0    0  501    0  0.00000000000E+00  0.00000000000E+00  0.12867608560E+03  0.12867608563E+03  0.25500000920E-02 0. -1.
       -2   -1    0    0    0  501  0.00000000000E+00  0.00000000000E+00 -0.48641694457E+03  0.48641694457E+03  0.25500000920E-02 0.  1.
    10030    2    1    2    0    0  0.00000000000E+00  0.00000000000E+00 -0.35774085897E+03  0.61509303020E+03  0.50036078346E+03 0.  0.
        1    1    3    3  502    0  0.12918315083E+03  0.16016805853E+03 -0.35379469353E+03  0.40928324987E+03  0.50400001928E-02 0.  1.
       -1    1    3    3    0  502 -0.12918315083E+03 -0.16016805853E+03 -0.39461654323E+01  0.20580978032E+03  0.50400001928E-02 0. -1.
</event>
<event>
 5   0  0.4631619E-02  0.5019678E+03  0.7818609E-02  0.1013267E+00
       -2   -1    0    0    0  501  0.00000000000E+00  0.00000000000E+00  0.79405929897E+02  0.79405929938E+02  0.25500000920E-02 0. -1.
        2   -1    0    0  501    0  0.00000000000E+00  0.00000000000E+00 -0.79330247780E+03  0.79330247781E+03  0.25500000920E-02 0.  1.
    10030    2    1    2    0    0  0.00000000000E+00  0.00000000000E+00 -0.71389654791E+03  0.87270840775E+03  0.50196781156E+03 0.  0.
        5    1    3    3  502    0  0.13812554342E+03  0.16795073427E+03 -0.57468496650E+03  0.61446807534E+03  0.46999998093E+01 0.  1.
       -5    1    3    3    0  502 -0.13812554342E+03 -0.16795073427E+03 -0.13921158140E+03  0.25824033241E+03  0.46999998093E+01 0. -1.
</event>
<event>
 5   0  0.4519539E-02  0.4998629E+03  0.7818609E-02  0.1013815E+00
        2   -1    0    0  501    0  0.00000000000E+00  0.00000000000E+00  0.10186808135E+04  0.10186808135E+04  0.25500000920E-02 0. -1.
       -2   -1    0    0    0  501  0.00000000000E+00  0.00000000000E+00 -0.61320229104E+02  0.61320229157E+02  0.25500000920E-02 0.  1.
    10030    2    1    2    0    0  0.00000000000E+00  0.00000000000E+00  0.95736058441E+03  0.10800010427E+04  0.49986294481E+03 0.  0.
        4    1    3    3  502    0  0.23515345183E+03 -0.69157589964E+02  0.58417859423E+03  0.63351887187E+03  0.12699999809E+01 0. -1.
       -4    1    3    3    0  502 -0.23515345183E+03  0.69157589964E+02  0.37318199019E+03  0.44648217081E+03  0.12699999809E+01 0.  1.
</event>
<event>
 5   0  0.2715483E-02  0.4994386E+03  0.7818609E-02  0.1013926E+00
       -1   -1    0    0    0  501  0.00000000000E+00  0.00000000000E+00  0.14390836167E+03  0.14390836176E+03  0.50400001928E-02 0. -1.
        1   -1    0    0  501    0  0.00000000000E+00  0.00000000000E+00 -0.43332936562E+03  0.43332936565E+03  0.50400001928E-02 0.  1.
    10030    2    1    2    0    0  0.00000000000E+00  0.00000000000E+00 -0.28942100395E+03  0.57723772741E+03  0.49943856120E+03 0.  0.
        5    1    3    3  502    0  0.46886589998E+02  0.14732504445E+03  0.81875911769E+02  0.17501078815E+03  0.46999998093E+01 0. -1.
       -5    1    3    3    0  502 -0.46886589998E+02 -0.14732504445E+03 -0.37129691572E+03  0.40222693926E+03  0.46999998093E+01 0.  1.
</event>
<event>
 5   0  0.2643185E-02  0.4816899E+03  0.7818609E-02  0.1018672E+00
       -1   -1    0    0    0  501  0.00000000000E+00  0.00000000000E+00  0.49737458028E+03  0.49737458030E+03  0.50400001928E-02 0. -1.
        1   -1    0    0  501    0  0.00000000000E+00  0.00000000000E+00 -0.11662496627E+03  0.11662496638E+03  0.50400001928E-02 0.  1.
    10030    2    1    2    0    0  0.00000000000E+00  0.00000000000E+00  0.38074961401E+03  0.61399954668E+03  0.48168991556E+03 0.  0.
        1    1    3    3  502    0  0.31976598667E+02 -0.12880398636E+03  0.44656074770E+03  0.46586421967E+03  0.50400001928E-02 0. -1.
       -1    1    3    3    0  502 -0.31976598667E+02  0.12880398636E+03 -0.65811133691E+02  0.14813532700E+03  0.50400001928E-02 0.  1.
</event>
<event>
 5   0  0.1805500E-02  0.4885156E+03  0.7818609E-02  0.1016821E+00
        4   -1    0    0  501    0  0.00000000000E+00  0.00000000000E+00  0.13447715738E+03  0.13448315418E+03  0.12699999809E+01 0. -1.
       -4   -1    0    0    0  501  0.00000000000E+00  0.00000000000E+00 -0.44364131535E+03  0.44364313314E+03  0.12699999809E+01 0.  1.
    10030    2    1    2    0    0  0.00000000000E+00  0.00000000000E+00 -0.30916415797E+03  0.57812628732E+03  0.48851563692E+03 0.  0.
        3    1    3    3  502    0 -0.58603156257E+02 -0.16142219197E+03 -0.36014032766E+03  0.39898937303E+03  0.10100000352E+00 0.  1.
       -3    1    3    3    0  502  0.58603156257E+02  0.16142219197E+03  0.50976169690E+02  0.17913691429E+03  0.10100000352E+00 0. -1.
</event>
<event>
 5   0  0.2719671E-02  0.4995479E+03  0.7818609E-02  0.1013897E+00
       -1   -1    0    0    0  501  0.00000000000E+00  0.00000000000E+00  0.43665125601E+02  0.43665125891E+02  0.50400001928E-02 0. -1.
        1   -1    0    0  501    0  0.00000000000E+00  0.00000000000E+00 -0.14287608560E+04  0.14287608560E+04  0.50400001928E-02 0.  1.
    10030    2    1    2    0    0  0.00000000000E+00  0.00000000000E+00 -0.13850957304E+04  0.14724259819E+04  0.49954788540E+03 0.  0.
        2    1    3    3  502    0  0.16969243213E+03  0.12483424406E+03 -0.29701002990E+03  0.36413468371E+03  0.25500000920E-02 0.  1.
       -2    1    3    3    0  502 -0.16969243213E+03 -0.12483424406E+03 -0.10880857005E+04  0.11082912982E+04  0.25500000920E-02 0. -1.
</event>
<event>
 5   0  0.2779445E-02  0.5056255E+03  0.7818609E-02  0.1012321E+00
        1   -1    0    0  501    0  0.00000000000E+00  0.00000000000E+00  0.27359401536E+03  0.27359401540E+03  0.50400001928E-02 0.  1.
       -1   -1    0    0    0  501  0.00000000000E+00  0.00000000000E+00 -0.23360997186E+03  0.23360997191E+03  0.50400001928E-02 0. -1.
    10030    2    1    2    0    0  0.00000000000E+00  0.00000000000E+00  0.39984043501E+02  0.50720398731E+03  0.50562551460E+03 0.  0.
        3    1    3    3  502    0 -0.13028510134E+03  0.11464898503E+03 -0.16441790263E+03  0.23906454004E+03  0.10100000352E+00 0. -1.
       -3    1    3    3    0  502  0.13028510134E+03 -0.11464898503E+03  0.20440194613E+03  0.26813944727E+03  0.10100000352E+00 0.  1.
</event>
<event>
 5   0  0.4451135E-02  0.4998289E+03  0.7818609E-02  0.1013824E+00
       -2   -1    0    0    0  501  0.00000000000E+00  0.00000000000E+00  0.26257137980E+03  0.26257137981E+03  0.25500000920E-02 0. -1.
        2   -1    0    0  501    0  0.00000000000E+00  0.00000000000E+00 -0.23786766611E+03  0.23786766613E+03  0.25500000920E-02 0.  1.
    10030    2    1    2    0    0  0.00000000000E+00  0.00000000000E+00  0.24703713684E+02  0.50043904594E+03  0.49982893597E+03 0.  0.
        1    1    3    3  502    0 -0.23594801485E+03 -0.29001236224E+02  0.89547876065E+02  0.25403023353E+03  0.50400001928E-02 0. -1.
       -1    1    3    3    0  502  0.23594801485E+03  0.29001236224E+02 -0.64844162381E+02  0.24640881241E+03  0.50400001928E-02 0.  1.
</event>
<event>
 5   0  0.2719671E-02  0.4995611E+03  0.7818609E-02  0.1013894E+00
        1   -1    0    0  501    0  0.00000000000E+00  0.00000000000E+00  0.36239047680E+03  0.36239047684E+03  0.50400001928E-02 0. -1.
       -1   -1    0    0    0  501  0.00000000000E+00  0.00000000000E+00 -0.17216326341E+03  0.17216326349E+03  0.50400001928E-02 0.  1.
    10030    2    1    2    0    0  0.00000000000E+00  0.00000000000E+00  0.19022721339E+03  0.53455374033E+03  0.49956111596E+03 0.  0.
        2    1    3    3  502    0 -0.21495572053E+03  0.12477199651E+03  0.68548972098E+02  0.25782353361E+03  0.25500000920E-02 0.  1.
       -2    1    3    3    0  502  0.21495572053E+03 -0.12477199651E+03  0.12167824129E+03  0.27673020672E+03  0.25500000920E-02 0. -1.
</event>
<event>
 5   0  0.2723308E-02  0.4975473E+03  0.7818609E-02  0.1014421E+00
       -1   -1    0    0    0  501  0.00000000000E+00  0.00000000000E+00  0.14905793132E+03  0.14905793140E+03  0.50400001928E-02 0. -1.
        1   -1    0    0  501    0  0.00000000000E+00  0.00000000000E+00 -0.41519647152E+03  0.41519647155E+03  0.50400001928E-02 0.  1.
    10030    2    1    2    0    0  0.00000000000E+00  0.00000000000E+00 -0.26613854020E+03  0.56425440295E+03  0.49754729290E+03 0.  0.
        4    1    3    3  502    0  0.59254199819E+01  0.12328282797E+03 -0.37802078798E+03  0.39766203656E+03  0.12699999809E+01 0.  1.
       -4    1    3    3    0  502 -0.59254199819E+01 -0.12328282797E+03  0.11188224778E+03  0.16659236640E+03  0.12699999809E+01 0. -1.
</event>
<event>
 5   0  0.4519539E-02  0.4992301E+03  0.7818609E-02  0.1013980E+00
       -2   -1    0    0    0  501  0.00000000000E+00  0.00000000000E+00  0.30454507510E+02  0.30454507617E+02  0.25500000920E-02 0.  1.
        2   -1    0    0  501    0  0.00000000000E+00  0.00000000000E+00 -0.20459262903E+04  0.20459262903E+04  0.25500000920E-02 0. -1.
    10030    2    1    2    0    0  0.00000000000E+00  0.00000000000E+00 -0.20154717828E+04  0.20763807979E+04  0.49923011803E+03 0.  0.
        4    1    3    3  502    0  0.43133253065E+01 -0.21026729351E+03 -0.15669097812E+04  0.15809613578E+04  0.12699999809E+01 0.  1.
       -4    1    3    3    0  502 -0.43133253065E+01  0.21026729351E+03 -0.44856200164E+03  0.49541944018E+03  0.12699999809E+01 0. -1.
</event>
<event>
 5   0  0.2715483E-02  0.5007045E+03  0.7818609E-02  0.1013595E+00
        1   -1    0    0  501    0  0.00000000000E+00  0.00000000000E+00  0.61146298498E+03  0.61146298500E+03  0.50400001928E-02 0. -1.
       -1   -1    0    0    0  501  0.00000000000E+00  0.00000000000E+00 -0.10250211337E+03  0.10250211349E+03  0.50400001928E-02 0.  1.
    10030    2    1    2    0    0  0.00000000000E+00  0.00000000000E+00  0.50896087161E+03  0.71396509850E+03  0.50070449672E+03 0.  0.
        5    1    3    3  502    0 -0.87483285356E+02  0.22523630165E+03  0.34765149277E+03  0.42340095326E+03  0.46999998093E+01 0.  1.
       -5    1    3    3    0  502  0.87483285356E+02 -0.22523630165E+03  0.16130937884E+03  0.29056414524E+03  0.46999998093E+01 0. -1.
</event>
<event>
 5   0  0.2715483E-02  0.5003967E+03  0.7818609E-02  0.1013675E+00
        1   -1    0    0  501    0  0.00000000000E+00  0.00000000000E+00  0.36673661634E+03  0.36673661637E+03  0.50400001928E-02 0. -1.
       -1   -1    0    0    0  501  0.00000000000E+00  0.00000000000E+00 -0.17069258552E+03  0.17069258559E+03  0.50400001928E-02 0.  1.
    10030    2    1    2    0    0  0.00000000000E+00  0.00000000000E+00  0.19604403082E+03  0.53742920197E+03  0.50039672771E+03 0.  0.
        5    1    3    3  502    0  0.92379891116E+02  0.59214951897E+02 -0.14341849378E+03  0.18064165956E+03  0.46999998093E+01 0.  1.
       -5    1    3    3    0  502 -0.92379891116E+02 -0.59214951897E+02  0.33946252460E+03  0.35678754241E+03  0.46999998093E+01 0. -1.
</event>
<event>
 5   0  0.1805500E-02  0.5008514E+03  0.7818609E-02  0.1013557E+00
       -3   -1    0    0    0  501  0.00000000000E+00  0.00000000000E+00  0.10918680913E+03  0.10918685584E+03  0.10100000352E+00 0.  1.
        3   -1    0    0  501    0  0.00000000000E+00  0.00000000000E+00 -0.57436443467E+03  0.57436444355E+03  0.10100000352E+00 0. -1.
    10030    2    1    2    0    0  0.00000000000E+00  0.00000000000E+00 -0.46517762554E+03  0.68355129939E+03  0.50085143066E+03 0.  0.
        4    1    3    3  502    0 -0.47854888400E+02 -0.29511441740E+02  0.10045745732E+03  0.11512744750E+03  0.12699999809E+01 0.  1.
       -4    1    3    3    0  502  0.47854888400E+02  0.29511441740E+02 -0.56563508286E+03  0.56842385189E+03  0.12699999809E+01 0. -1.
</event>
<event>
 5   0  0.2719671E-02  0.4999241E+03  0.7818609E-02  0.1013799E+00
        1   -1    0    0  501    0  0.00000000000E+00  0.00000000000E+00  0.14860777507E+03  0.14860777515E+03  0.50400001928E-02 0. -1.
       -1   -1    0    0    0  501  0.00000000000E+00  0.00000000000E+00 -0.42044257325E+03  0.42044257328E+03  0.50400001928E-02 0.  1.
    10030    2    1    2    0    0  0.00000000000E+00  0.00000000000E+00 -0.27183479818E+03  0.56905034843E+03  0.49992413579E+03 0.  0.
        2    1    3    3  502    0  0.17976421756E+03 -0.15718195214E+03 -0.51810659955E+02  0.24434746670E+03  0.25500000920E-02 0. -1.
       -2    1    3    3    0  502 -0.17976421756E+03  0.15718195214E+03 -0.22002413823E+03  0.32470288173E+03  0.25500000920E-02 0.  1.
</event>
<event>
 5   0  0.4451135E-02  0.5004090E+03  0.7818609E-02  0.1013672E+00
        2   -1    0    0  501    0  0.00000000000E+00  0.00000000000E+00  0.39833425467E+03  0.39833425468E+03  0.25500000920E-02 0.  1.
       -2   -1    0    0    0  501  0.00000000000E+00  0.00000000000E+00 -0.15716021596E+03  0.15716021598E+03  0.25500000920E-02 0. -1.
    10030    2    1    2    0    0  0.00000000000E+00  0.00000000000E+00  0.24117403871E+03  0.55549447066E+03  0.50040902269E+03 0.  0.
        1    1    3    3  502    0  0.18464135264E+03 -0.29460995083E+00  0.30802239186E+03  0.35912436539E+03  0.50400001928E-02 0.  1.
       -1    1    3    3    0  502 -0.18464135264E+03  0.29460995083E+00 -0.66848353151E+02  0.19637010527E+03  0.50400001928E-02 0. -1.
</event>
<event>
 5   0  0.2719671E-02  0.5011971E+03  0.7818609E-02  0.1013467E+00
       -1   -1    0    0    0  501  0.00000000000E+00  0.00000000000E+00  0.10041018862E+03  0.10041018874E+03  0.50400001928E-02 0. -1.
        1   -1    0    0  501    0  0.00000000000E+00  0.00000000000E+00 -0.62543082284E+03  0.62543082286E+03  0.50400001928E-02 0.  1.
    10030    2    1    2    0    0  0.00000000000E+00  0.00000000000E+00 -0.52502063422E+03  0.72584101160E+03  0.50119707478E+03 0.  0.
        2    1    3    3  502    0  0.41649726391E+02 -0.10961816175E+03  0.58225237950E+02  0.13092371609E+03  0.25500000920E-02 0. -1.
       -2    1    3    3    0  502 -0.41649726391E+02  0.10961816175E+03 -0.58324587217E+03  0.59491729551E+03  0.25500000920E-02 0.  1.
</event>
<event>
 5   0  0.4451135E-02  0.4976403E+03  0.7818609E-02  0.1014397E+00
       -2   -1    0    0    0  501  0.00000000000E+00  0.00000000000E+00  0.75863940032E+02  0.75863940074E+02  0.25500000920E-02 0. -1.
        2   -1    0    0  501    0  0.00000000000E+00  0.00000000000E+00 -0.81608556826E+03  0.81608556827E+03  0.25500000920E-02 0.  1.
    10030    2    1    2    0    0  0.00000000000E+00  0.00000000000E+00 -0.74022162823E+03  0.89194950834E+03  0.49764029834E+03 0.  0.
        1    1    3    3  502    0  0.15934148924E+03  0.63217801651E+02 -0.46863327335E+02  0.17771429912E+03  0.50400001928E-02 0. -1.
       -1    1    3    3    0  502 -0.15934148924E+03 -0.63217801651E+02 -0.69335830090E+03  0.71423520922E+03  0.50400001928E-02 0.  1.
</event>
<event>
 5   0  0.4409622E-02  0.5004395E+03  0.7818609E-02  0.1013664E+00
       -2   -1    0    0    0  501  0.00000000000E+00  0.00000000000E+00  0.23349579187E+03  0.23349579188E+03  0.25500000920E-02 0.  1.
        2   -1    0    0  501    0  0.00000000000E+00  0.00000000000E+00 -0.26814159239E+03  0.26814159240E+03  0.25500000920E-02 0. -1.
    10030    2    1    2    0    0  0.00000000000E+00  0.00000000000E+00 -0.34645800522E+02  0.50163738429E+03  0.50043954063E+03 0.  0.
        3    1    3    3  502    0 -0.10103645242E+03  0.13813459921E+03 -0.20029856037E+03  0.26345598438E+03  0.10100000352E+00 0. -1.
       -3    1    3    3    0  502  0.10103645242E+03 -0.13813459921E+03  0.16565275985E+03  0.23818139991E+03  0.10100000352E+00 0.  1.
</event>
<event>
 5   0  0.4409622E-02  0.4853037E+03  0.7818609E-02  0.1017688E+00
        2   -1    0    0  501    0  0.00000000000E+00  0.00000000000E+00  0.64211549294E+03  0.64211549295E+03  0.25500000920E-02 0. -1.
       -2   -1    0    0    0  501  0.00000000000E+00  0.00000000000E+00 -0.91696780920E+02  0.91696780956E+02  0.25500000920E-02 0.  1.
    10030    2    1    2    0    0  0.00000000000E+00  0.00000000000E+00  0.55041871202E+03  0.73381227390E+03  0.48530371396E+03 0.  0.
        3    1    3    3  502    0  0.18116366593E+03 -0.84726135136E+02  0.67438201961E+02  0.21106092275E+03  0.10100000352E+00 0.  1.
       -3    1    3    3    0  502 -0.18116366593E+03  0.84726135136E+02  0.48298051006E+03  0.52275135115E+03  0.10100000352E+00 0. -1.
</event>
<event>
 5   0  0.2643185E-02  0.5009102E+03  0.7818609E-02  0.1013542E+00
        1   -1    0    0  501    0  0.00000000000E+00  0.00000000000E+00  0.22045158446E+03  0.22045158451E+03  0.50400001928E-02 0. -1.
       -1   -1    0    0    0  501  0.00000000000E+00  0.00000000000E+00 -0.28454211042E+03  0.28454211046E+03  0.50400001928E-02 0.  1.
    10030    2    1    2    0    0  0.00000000000E+00  0.00000000000E+00 -0.64090525961E+02  0.50499369498E+03  0.50091020797E+03 0.  0.
        1    1    3    3  502    0  0.14640971882E+03  0.19652447040E+03 -0.84139380668E+02  0.25910829519E+03  0.50400001928E-02 0.  1.
       -1    1    3    3    0  502 -0.14640971882E+03 -0.19652447040E+03  0.20048854707E+02  0.24588539979E+03  0.50400001928E-02 0. -1.
</event>
<event>
 5   0  0.2779445E-02  0.5013806E+03  0.7818609E-02  0.1013419E+00
       -1   -1    0    0    0  501  0.00000000000E+00  0.00000000000E+00  0.10014892768E+03  0.10014892780E+03  0.50400001928E-02 0. -1.
        1   -1    0    0  501    0  0.00000000000E+00  0.00000000000E+00 -0.62752159114E+03  0.62752159116E+03  0.50400001928E-02 0.  1.
    10030    2    1    2    0    0  0.00000000000E+00  0.00000000000E+00 -0.52737266346E+03  0.72767051896E+03  0.50138055208E+03 0.  0.
        3    1    3    3  502    0  0.42077280106E+02  0.19613363482E+03 -0.45470668342E+02  0.20568542022E+03  0.10100000352E+00 0. -1.
       -3    1    3    3    0  502 -0.42077280106E+02 -0.19613363482E+03 -0.48190199512E+03  0.52198509875E+03  0.10100000352E+00 0.  1.
</event>
<event>
 5   0  0.4409622E-02  0.4999930E+03  0.7818609E-02  0.1013781E+00
        2   -1    0    0  501    0  0.00000000000E+00  0.00000000000E+00  0.67628581330E+03  0.67628581331E+03  0.25500000920E-02 0. -1.
       -2   -1    0    0    0  501  0.00000000000E+00  0.00000000000E+00 -0.92413976169E+02  0.92413976204E+02  0.25500000920E-02 0.  1.
    10030    2    1    2    0    0  0.00000000000E+00  0.00000000000E+00  0.58387183713E+03  0.76869978951E+03  0.49999304415E+03 0.  0.
        3    1    3    3  502    0  0.24727461272E+03  0.15857839601E+02  0.24089804202E+03  0.34558368310E+03  0.10100000352E+00 0.  1.
       -3    1    3    3    0  502 -0.24727461272E+03 -0.15857839601E+02  0.34297379511E+03  0.42311610641E+03  0.10100000352E+00 0. -1.
</event>
<event>
 5   0  0.1805500E-02  0.4885671E+03  0.7818609E-02  0.1016807E+00
       -3   -1    0    0    0  501  0.00000000000E+00  0.00000000000E+00  0.30673236798E+03  0.30673238461E+03  0.10100000352E+00 0.  1.
        3   -1    0    0  501    0  0.00000000000E+00  0.00000000000E+00 -0.19454886445E+03  0.19454889067E+03  0.10100000352E+00 0. -1.
    10030    2    1    2    0    0  0.00000000000E+00  0.00000000000E+00  0.11218350353E+03  0.50128127528E+03  0.48856706651E+03 0.  0.
        5    1    3    3  502    0 -0.46887983906E+02 -0.29173944284E+02 -0.18801290778E+03  0.19601159545E+03  0.46999998093E+01 0. -1.
       -5    1    3    3    0  502  0.46887983906E+02  0.29173944284E+02  0.30019641131E+03  0.30526967983E+03  0.46999998093E+01 0.  1.
</event>
<event>
 5   0  0.2779445E-02  0.4998462E+03  0.7818609E-02  0.1013819E+00
        1   -1    0    0  501    0  0.00000000000E+00  0.00000000000E+00  0.67883034497E+02  0.67883034684E+02  0.50400001928E-02 0.  1.
       -1   -1    0    0    0  501  0.00000000000E+00  0.00000000000E+00 -0.92013509758E+03  0.92013509759E+03  0.50400001928E-02 0. -1.
    10030    2    1    2    0    0  0.00000000000E+00  0.00000000000E+00 -0.85225206308E+03  0.98801813227E+03  0.49984622703E+03 0.  0.
        3    1    3    3  502    0  0.14489788927E+03 -0.99860755457E+02 -0.77691206663E+03  0.79659270538E+03  0.10100000352E+00 0. -1.
       -3    1    3    3    0  502 -0.14489788927E+03  0.99860755457E+02 -0.75339996449E+02  0.19142542689E+03  0.10100000352E+00 0.  1.
</event>
<event>
 5   0  0.4534223E-02  0.5009063E+03  0.7818609E-02  0.1013543E+00
        2   -1    0    0  501    0  0.00000000000E+00  0.00000000000E+00  0.11122106912E+04  0.11122106912E+04  0.25500000920E-02 0.  1.
       -2   -1    0    0    0  501  0.00000000000E+00  0.00000000000E+00 -0.56398289891E+02  0.56398289948E+02  0.25500000920E-02 0. -1.
    10030    2    1    2    0    0  0.00000000000E+00  0.00000000000E+00  0.10558124013E+04  0.11686089811E+04  0.50090630268E+03 0.  0.
        2    1    3    3  502    0  0.44011491225E+02  0.48990131377E+02 -0.35836565040E+02  0.74975354168E+02  0.25500000920E-02 0. -1.
       -2    1    3    3    0  502 -0.44011491225E+02 -0.48990131377E+02  0.10916489663E+04  0.10936336270E+04  0.25500000920E-02 0.  1.
</event>
<event>
 5   0  0.2643185E-02  0.4977995E+03  0.7818609E-02  0.1014355E+00
        1   -1    0    0  501    0  0.00000000000E+00  0.00000000000E+00  0.65819925370E+03  0.65819925371E+03  0.50400001928E-02 0.  1.
       -1   -1    0    0    0  501  0.00000000000E+00  0.00000000000E+00 -0.94122098102E+02  0.94122098237E+02  0.50400001928E-02 0. -1.
    10030    2    1    2    0    0  0.00000000000E+00  0.00000000000E+00  0.56407715559E+03  0.75232135195E+03  0.49779953710E+03 0.  0.
        1    1    3    3  502    0  0.18555202160E+03 -0.10632905331E+03  0.47448790981E+03  0.52045575881E+03  0.50400001928E-02 0.  1.
       -1    1    3    3    0  502 -0.18555202160E+03  0.10632905331E+03  0.89589245787E+02  0.23186559314E+03  0.50400001928E-02 0. -1.
</event>
<event>
 5   0  0.2643185E-02  0.4968133E+03  0.7818609E-02  0.1014614E+00
        1   -1    0    0  501    0  0.00000000000E+00  0.00000000000E+00  0.75473331161E+02  0.75473331329E+02  0.50400001928E-02 0.  1.
       -1   -1    0    0    0  501  0.00000000000E+00  0.00000000000E+00 -0.81758510708E+03  0.81758510709E+03  0.50400001928E-02 0. -1.
    10030    2    1    2    0    0  0.00000000000E+00  0.00000000000E+00 -0.74211177592E+03  0.89305843842E+03  0.49681333163E+03 0.  0.
        1    1    3    3  502    0 -0.33633430734E+02 -0.71041195187E+02 -0.79464220194E+03  0.79852006124E+03  0.50400001928E-02 0. -1.
       -1    1    3    3    0  502  0.33633430734E+02  0.71041195187E+02  0.52530426023E+02  0.94538377181E+02  0.50400001928E-02 0.  1.
</event>
<event>
 5   0  0.2719671E-02  0.4975772E+03  0.7818609E-02  0.1014413E+00
       -1   -1    0    0    0  501  0.00000000000E+00  0.00000000000E+00  0.16100093707E+03  0.16100093715E+03  0.50400001928E-02 0. -1.
        1   -1    0    0  501    0  0.00000000000E+00  0.00000000000E+00 -0.38444348585E+03  0.38444348588E+03  0.50400001928E-02 0.  1.
    10030    2    1    2    0    0  0.00000000000E+00  0.00000000000E+00 -0.22344254878E+03  0.54544442303E+03  0.49757717594E+03 0.  0.
        2    1    3    3  502    0  0.23364833737E+03  0.35869774437E+02 -0.26685666885E+02  0.23788718145E+03  0.25500000920E-02 0. -1.
       -2    1    3    3    0  502 -0.23364833737E+03 -0.35869774437E+02 -0.19675688189E+03  0.30755724158E+03  0.25500000920E-02 0.  1.
</event>
<event>
 5   0  0.4519539E-02  0.5010426E+03  0.7818609E-02  0.1013507E+00
       -2   -1    0    0    0  501  0.00000000000E+00  0.00000000000E+00  0.31907647145E+03  0.31907647146E+03  0.25500000920E-02 0. -1.
        2   -1    0    0  501    0  0.00000000000E+00  0.00000000000E+00 -0.19669553867E+03  0.19669553869E+03  0.25500000920E-02 0.  1.
    10030    2    1    2    0    0  0.00000000000E+00  0.00000000000E+00  0.12238093278E+03  0.51577201015E+03  0.50104258676E+03 0.  0.
        4    1    3    3  502    0 -0.16189697175E+03  0.72508979039E+02 -0.12090272664E+03  0.21467944408E+03  0.12699999809E+01 0.  1.
       -4    1    3    3    0  502  0.16189697175E+03 -0.72508979039E+02  0.24328365942E+03  0.30109256607E+03  0.12699999809E+01 0. -1.
</event>
<event>
 5   0  0.2779445E-02  0.4991069E+03  0.7818609E-02  0.1014012E+00
        1   -1    0    0  501    0  0.00000000000E+00  0.00000000000E+00  0.18389128344E+03  0.18389128351E+03  0.50400001928E-02 0.  1.
       -1   -1    0    0    0  501  0.00000000000E+00  0.00000000000E+00 -0.33866167768E+03  0.33866167772E+03  0.50400001928E-02 0. -1.
    10030    2    1    2    0    0  0.00000000000E+00  0.00000000000E+00 -0.15477039424E+03  0.52255296123E+03  0.49910692478E+03 0.  0.
        3    1    3    3  502    0 -0.26845858297E+02 -0.20211491546E+03 -0.22803984275E+03  0.30589756331E+03  0.10100000352E+00 0. -1.
       -3    1    3    3    0  502  0.26845858297E+02  0.20211491546E+03  0.73269448512E+02  0.21665539792E+03  0.10100000352E+00 0.  1.
</event>
<event>
 5   0  0.2715483E-02  0.4987850E+03  0.7818609E-02  0.1014097E+00
        1   -1    0    0  501    0  0.00000000000E+00  0.00000000000E+00  0.56058487191E+03  0.56058487193E+03  0.50400001928E-02 0.  1.
       -1   -1    0    0    0  501  0.00000000000E+00  0.00000000000E+00 -0.11094949558E+03  0.11094949570E+03  0.50400001928E-02 0. -1.
    10030    2    1    2    0    0  0.00000000000E+00  0.00000000000E+00  0.44963537632E+03  0.67153436763E+03  0.49878495894E+03 0.  0.
        5    1    3    3  502    0 -0.43594664719E+02 -0.70792578464E+02  0.54131491066E+03  0.54768239561E+03  0.46999998093E+01 0.  1.
       -5    1    3    3    0  502  0.43594664719E+02  0.70792578464E+02 -0.91679534339E+02  0.12385197202E+03  0.46999998093E+01 0. -1.
</event>
<event>
 5   0  0.2719671E-02  0.5000962E+03  0.7818609E-02  0.1013754E+00
        1   -1    0    0  501    0  0.00000000000E+00  0.00000000000E+00  0.54234422524E+03  0.54234422526E+03  0.50400001928E-02 0.  1.
       -1   -1    0    0    0  501  0.00000000000E+00  0.00000000000E+00 -0.11528482475E+03  0.11528482486E+03  0.50400001928E-02 0. -1.
    10030    2    1    2    0    0  0.00000000000E+00  0.00000000000E+00  0.42705940049E+03  0.65762905012E+03  0.50009622675E+03 0.  0.
        2    1    3    3  502    0 -0.17038279842E+02  0.17045542731E+03  0.45305815690E+03  0.48436251838E+03  0.25500000920E-02 0.  1.
       -2    1    3    3    0  502  0.17038279842E+02 -0.17045542731E+03 -0.25998756404E+02  0.17326653173E+03  0.25500000920E-02 0. -1.
</event>
<event>
 5   0  0.4534223E-02  0.5325962E+03  0.7818609E-02  0.1005604E+00
       -2   -1    0    0    0  501  0.00000000000E+00  0.00000000000E+00  0.57698109489E+02  0.57698109545E+02  0.25500000920E-02 0. -1.
        2   -1    0    0  501    0  0.00000000000E+00  0.00000000000E+00 -0.12290640443E+04  0.12290640443E+04  0.25500000920E-02 0.  1.
    10030    2    1    2    0    0  0.00000000000E+00  0.00000000000E+00 -0.11713659348E+04  0.12867621538E+04  0.53259617660E+03 0.  0.
        2    1    3    3  502    0  0.88493736941E+02  0.18324622473E+03 -0.17068757865E+03  0.26560227760E+03  0.25500000920E-02 0. -1.
       -2    1    3    3    0  502 -0.88493736941E+02 -0.18324622473E+03 -0.10006783561E+04  0.10211598762E+04  0.25500000920E-02 0.  1.
</event>
<event>
 5   0  0.1805500E-02  0.5053171E+03  0.7818609E-02  0.1012400E+00
        3   -1    0    0  501    0  0.00000000000E+00  0.00000000000E+00  0.13335740119E+03  0.13335743943E+03  0.10100000352E+00 0. -1.
       -3   -1    0    0    0  501  0.00000000000E+00  0.00000000000E+00 -0.47868608269E+03  0.47868609334E+03  0.10100000352E+00 0.  1.
    10030    2    1    2    0    0  0.00000000000E+00  0.00000000000E+00 -0.34532868150E+03  0.61204353278E+03  0.50531711602E+03 0.  0.
        2    1    3    3  502    0 -0.15787751755E+03  0.12795897964E+03 -0.35449684513E+03  0.40861574154E+03  0.25500000920E-02 0.  1.
       -2    1    3    3    0  502  0.15787751755E+03 -0.12795897964E+03  0.91681636268E+01  0.20342779124E+03  0.25500000920E-02 0. -1.
</event>
<event>
 5   0  0.4519539E-02  0.5081276E+03  0.7818609E-02  0.1011679E+00
       -2   -1    0    0    0  501  0.00000000000E+00  0.00000000000E+00  0.20719064887E+03  0.20719064889E+03  0.25500000920E-02 0. -1.
        2   -1    0    0  501    0  0.00000000000E+00  0.00000000000E+00 -0.31154119355E+03  0.31154119356E+03  0.25500000920E-02 0.  1.
    10030    2    1    2    0    0  0.00000000000E+00  0.00000000000E+00 -0.10435054468E+03  0.51873184245E+03  0.50812762983E+03 0.  0.
        4    1    3    3  502    0  0.45909102698E+02  0.14740346519E+03  0.15380613424E+03  0.21792972971E+03  0.12699999809E+01 0. -1.
       -4    1    3    3    0  502 -0.45909102698E+02 -0.14740346519E+03 -0.25815667892E+03  0.30080211274E+03  0.12699999809E+01 0.  1.
</event>
<event>
 5   0  0.4519539E-02  0.5003782E+03  0.7818609E-02  0.1013680E+00
       -2   -1    0    0    0  501  0.00000000000E+00  0.00000000000E+00  0.38625285562E+02  0.38625285646E+02  0.25500000920E-02 0.  1.
        2   -1    0    0  501    0  0.00000000000E+00  0.00000000000E+00 -0.16205601077E+04  0.16205601077E+04  0.25500000920E-02 0. -1.
    10030    2    1    2    0    0  0.00000000000E+00  0.00000000000E+00 -0.15819348222E+04  0.16591853934E+04  0.50037824494E+03 0.  0.
        4    1    3    3  502    0  0.41488968021E+02  0.50196176767E+02 -0.15919523406E+04  0.15932842993E+04  0.12699999809E+01 0. -1.
       -4    1    3    3    0  502 -0.41488968021E+02 -0.50196176767E+02  0.10017518438E+02  0.65901094111E+02  0.12699999809E+01 0.  1.
</event>
<event>
 5   0  0.2723308E-02  0.5002111E+03  0.7818609E-02  0.1013724E+00
        1   -1    0    0  501    0  0.00000000000E+00  0.00000000000E+00  0.95225230743E+03  0.95225230744E+03  0.50400001928E-02 0. -1.
       -1   -1    0    0    0  501  0.00000000000E+00  0.00000000000E+00 -0.65689287147E+02  0.65689287341E+02  0.50400001928E-02 0.  1.
    10030    2    1    2    0    0  0.00000000000E+00  0.00000000000E+00  0.88656302028E+03  0.10179415948E+04  0.50021105691E+03 0.  0.
        4    1    3    3  502    0  0.10846860291E+03 -0.11353821340E+03  0.83943125069E+03  0.85399227236E+03  0.12699999809E+01 0. -1.
       -4    1    3    3    0  502 -0.10846860291E+03  0.11353821340E+03  0.47131769595E+02  0.16394932242E+03  0.12699999809E+01 0.  1.
</event>
<event>
 5   0  0.4534223E-02  0.4982881E+03  0.7818609E-02  0.1014227E+00
        2   -1    0    0  501    0  0.00000000000E+00  0.00000000000E+00  0.12438359840E+04  0.12438359840E+04  0.25500000920E-02 0. -1.
       -2   -1    0    0    0  501  0.00000000000E+00  0.00000000000E+00 -0.49904295128E+02  0.49904295193E+02  0.25500000920E-02 0.  1.
    10030    2    1    2    0    0  0.00000000000E+00  0.00000000000E+00  0.11939316889E+04  0.12937402792E+04  0.49828810172E+03 0.  0.
        2    1    3    3  502    0  0.18293854241E+03 -0.53345722345E+02  0.18024658534E+03  0.26229965293E+03  0.25500000920E-02 0.  1.
       -2    1    3    3    0  502 -0.18293854241E+03  0.53345722345E+02  0.10136851035E+04  0.10314406263E+04  0.25500000920E-02 0. -1.
</event>
<event>
 5   0  0.1805500E-02  0.4968089E+03  0.7818609E-02  0.1014615E+00
       -3   -1    0    0    0  501  0.00000000000E+00  0.00000000000E+00  0.38046685218E+03  0.38046686558E+03  0.10100000352E+00 0.  1.
        3   -1    0    0  501    0  0.00000000000E+00  0.00000000000E+00 -0.16218171503E+03  0.16218174647E+03  0.10100000352E+00 0. -1.
    10030    2    1    2    0    0  0.00000000000E+00  0.00000000000E+00  0.21828513715E+03  0.54264861206E+03  0.49680893215E+03 0.  0.
        4    1    3    3  502    0 -0.18161590363E+03  0.14813707259E+03  0.19904252865E+03  0.30748734907E+03  0.12699999809E+01 0.  1.
       -4    1    3    3    0  502  0.18161590363E+03 -0.14813707259E+03  0.19242608506E+02  0.23516126299E+03  0.12699999809E+01 0. -1.
</event>
<event>
 5   0  0.4519539E-02  0.4953651E+03  0.7818609E-02  0.1014996E+00
        2   -1    0    0  501    0  0.00000000000E+00  0.00000000000E+00  0.28964900196E+03  0.28964900197E+03  0.25500000920E-02 0.  1.
       -2   -1    0    0    0  501  0.00000000000E+00  0.00000000000E+00 -0.21179649138E+03  0.21179649140E+03  0.25500000920E-02 0. -1.
    10030    2    1    2    0    0  0.00000000000E+00  0.00000000000E+00  0.77852510579E+02  0.50144549337E+03  0.49536508700E+03 0.  0.
        4    1    3    3  502    0 -0.70026713761E+02 -0.94453412496E+02 -0.18173995196E+03  0.21646295482E+03  0.12699999809E+01 0. -1.
       -4    1    3    3    0  502  0.70026713761E+02  0.94453412496E+02  0.25959246253E+03  0.28498253855E+03  0.12699999809E+01 0.  1.
</event>
<event>
 5   0  0.4631619E-02  0.4914618E+03  0.7818609E-02  0.1016032E+00
       -2   -1    0    0    0  501  0.00000000000E+00  0.00000000000E+00  0.20785806601E+03  0.20785806602E+03  0.25500000920E-02 0. -1.
        2   -1    0    0  501    0  0.00000000000E+00  0.00000000000E+00 -0.29050432834E+03  0.29050432836E+03  0.25500000920E-02 0.  1.
    10030    2    1    2    0    0  0.00000000000E+00  0.00000000000E+00 -0.82646262340E+02  0.49836239438E+03  0.49146177008E+03 0.  0.
        5    1    3    3  502    0 -0.33450715832E+02  0.77389069916E+02  0.19268440464E+03  0.21037440034E+03  0.46999998093E+01 0. -1.
       -5    1    3    3    0  502  0.33450715832E+02 -0.77389069916E+02 -0.27533066697E+03  0.28798799403E+03  0.46999998093E+01 0.  1.
</event>
<event>
 5   0  0.1805500E-02  0.5011656E+03  0.7818609E-02  0.1013475E+00
        4   -1    0    0  501    0  0.00000000000E+00  0.00000000000E+00  0.73890967107E+02  0.73901880355E+02  0.12699999809E+01 0. -1.
       -4   -1    0    0    0  501  0.00000000000E+00  0.00000000000E+00 -0.84971488691E+03  0.84971583600E+03  0.12699999809E+01 0.  1.
    10030    2    1    2    0    0  0.00000000000E+00  0.00000000000E+00 -0.77582391981E+03  0.92361771635E+03  0.50116557285E+03 0.  0.
        4    1    3    3  502    0 -0.12607047893E+03  0.21528416298E+03 -0.34472722998E+03  0.42553438460E+03  0.12699999809E+01 0.  1.
       -4    1    3    3    0  502  0.12607047893E+03 -0.21528416298E+03 -0.43109668983E+03  0.49808333176E+03  0.12699999809E+01 0. -1.
</event>
<event>
 5   0  0.4631619E-02  0.5010987E+03  0.7818609E-02  0.1013493E+00
       -2   -1    0    0    0  501  0.00000000000E+00  0.00000000000E+00  0.10606846889E+03  0.10606846892E+03  0.25500000920E-02 0. -1.
        2   -1    0    0  501    0  0.00000000000E+00  0.00000000000E+00 -0.59183455993E+03  0.59183455994E+03  0.25500000920E-02 0.  1.
    10030    2    1    2    0    0  0.00000000000E+00  0.00000000000E+00 -0.48576609105E+03  0.69790302886E+03  0.50109873526E+03 0.  0.
        5    1    3    3  502    0  0.11851497451E+03 -0.45903952039E+02  0.57769149547E+02  0.13968656568E+03  0.46999998093E+01 0. -1.
       -5    1    3    3    0  502 -0.11851497451E+03  0.45903952039E+02 -0.54353524059E+03  0.55821646317E+03  0.46999998093E+01 0.  1.
</event>
<event>
 5   0  0.2715483E-02  0.4998731E+03  0.7818609E-02  0.1013812E+00
        1   -1    0    0  501    0  0.00000000000E+00  0.00000000000E+00  0.45229111554E+03  0.45229111557E+03  0.50400001928E-02 0. -1.
       -1   -1    0    0    0  501  0.00000000000E+00  0.00000000000E+00 -0.13811517620E+03  0.13811517629E+03  0.50400001928E-02 0.  1.
    10030    2    1    2    0    0  0.00000000000E+00  0.00000000000E+00  0.31417593934E+03  0.59040629186E+03  0.49987305249E+03 0.  0.
        5    1    3    3  502    0 -0.31183707257E+01 -0.74657438261E+02 -0.12455898926E+03  0.14532889983E+03  0.46999998093E+01 0.  1.
       -5    1    3    3    0  502  0.31183707257E+01  0.74657438261E+02  0.43873492860E+03  0.44507739203E+03  0.46999998093E+01 0. -1.
</event>
<event>
 5   0  0.2719671E-02  0.4998012E+03  0.7818609E-02  0.1013831E+00
        1   -1    0    0  501    0  0.00000000000E+00  0.00000000000E+00  0.90444905475E+03  0.90444905476E+03  0.50400001928E-02 0. -1.
       -1   -1    0    0    0  501  0.00000000000E+00  0.00000000000E+00 -0.69047904147E+02  0.69047904331E+02  0.50400001928E-02 0.  1.
    10030    2    1    2    0    0  0.00000000000E+00  0.00000000000E+00  0.83540115060E+03  0.97349695910E+03  0.49980120742E+03 0.  0.
        2    1    3    3  502    0  0.23109517192E+03  0.91971162494E+02  0.46487673497E+03  0.52723244583E+03  0.25500000920E-02 0.  1.
       -2    1    3    3    0  502 -0.23109517192E+03 -0.91971162494E+02  0.37052441563E+03  0.44626451326E+03  0.25500000920E-02 0. -1.
</event>
<event>
 5   0  0.4451135E-02  0.4974510E+03  0.7818609E-02  0.1014446E+00
       -2   -1    0    0    0  501  0.00000000000E+00  0.00000000000E+00  0.54881160263E+02  0.54881160322E+02  0.25500000920E-02 0.  1.
        2   -1    0    0  501    0  0.00000000000E+00  0.00000000000E+00 -0.11272422641E+04  0.11272422641E+04  0.25500000920E-02 0. -1.
    10030    2    1    2    0    0  0.00000000000E+00  0.00000000000E+00 -0.10723611038E+04  0.11821234244E+04  0.49745095592E+03 0.  0.
        1    1    3    3  502    0  0.82644090099E+02  0.10481125484E+03 -0.37433686869E+02  0.13862440517E+03  0.50400001928E-02 0.  1.
       -1    1    3    3    0  502 -0.82644090099E+02 -0.10481125484E+03 -0.10349274169E+04  0.10434990192E+04  0.50400001928E-02 0. -1.
</event>
<event>
 5   0  0.2723308E-02  0.5004238E+03  0.7818609E-02  0.1013668E+00
        1   -1    0    0  501    0  0.00000000000E+00  0.00000000000E+00  0.17731524478E+03  0.17731524485E+03  0.50400001928E-02 0. -1.
       -1   -1    0    0    0  501  0.00000000000E+00  0.00000000000E+00 -0.35307729683E+03  0.35307729687E+03  0.50400001928E-02 0.  1.
    10030    2    1    2    0    0  0.00000000000E+00  0.00000000000E+00 -0.17576205205E+03  0.53039254171E+03  0.50042376978E+03 0.  0.
        4    1    3    3  502    0 -0.13667942024E+02  0.10892034861E+03  0.15042602606E+03  0.18622582312E+03  0.12699999809E+01 0. -1.
       -4    1    3    3    0  502  0.13667942024E+02 -0.10892034861E+03 -0.32618807812E+03  0.34416671859E+03  0.12699999809E+01 0.  1.
</event>
<event>
 5   0  0.4409622E-02  0.4979585E+03  0.7818609E-02  0.1014313E+00
       -2   -1    0    0    0  501  0.00000000000E+00  0.00000000000E+00  0.93718474832E+02  0.93718474867E+02  0.25500000920E-02 0.  1.
        2   -1    0    0  501    0  0.00000000000E+00  0.00000000000E+00 -0.66145622152E+03  0.66145622152E+03  0.25500000920E-02 0. -1.
    10030    2    1    2    0    0  0.00000000000E+00  0.00000000000E+00 -0.56773774668E+03  0.75517469639E+03  0.49795850535E+03 0.  0.
        3    1    3    3  502    0  0.12490101460E+03 -0.16579194023E+03 -0.49237775028E+03  0.53434360674E+03  0.10100000352E+00 0. -1.
       -3    1    3    3    0  502 -0.12490101460E+03  0.16579194023E+03 -0.75359996404E+02  0.22083108964E+03  0.10100000352E+00 0.  1.
</event>
<event>
 5   0  0.2779445E-02  0.5005877E+03  0.7818609E-02  0.1013626E+00
       -1   -1    0    0    0  501  0.00000000000E+00  0.00000000000E+00  0.93485301960E+02  0.93485302096E+02  0.50400001928E-02 0. -1.
        1   -1    0    0  501    0  0.00000000000E+00  0.00000000000E+00 -0.67012675667E+03  0.67012675669E+03  0.50400001928E-02 0.  1.
    10030    2    1    2    0    0  0.00000000000E+00  0.00000000000E+00 -0.57664145471E+03  0.76361205878E+03  0.50058766368E+03 0.  0.
        3    1    3    3  502    0  0.12135181412E+03 -0.21859700776E+03 -0.30611522540E+03  0.39524354013E+03  0.10100000352E+00 0.  1.
       -3    1    3    3    0  502 -0.12135181412E+03  0.21859700776E+03 -0.27052622930E+03  0.36836851865E+03  0.10100000352E+00 0. -1.
</event>
<event>
 5   0  0.2779445E-02  0.4991056E+03  0.7818609E-02  0.1014013E+00
       -1   -1    0    0    0  501  0.00000000000E+00  0.00000000000E+00  0.22430256871E+03  0.22430256876E+03  0.50400001928E-02 0. -1.
        1   -1    0    0  501    0  0.00000000000E+00  0.00000000000E+00 -0.27764548433E+03  0.27764548437E+03  0.50400001928E-02 0.  1.
    10030    2    1    2    0    0  0.00000000000E+00  0.00000000000E+00 -0.53342915621E+02  0.50194805314E+03  0.49910558142E+03 0.  0.
        3    1    3    3  502    0  0.12379253188E+03  0.13373154688E+03 -0.19813545113E+03  0.26919581122E+03  0.10100000352E+00 0.  1.
       -3    1    3    3    0  502 -0.12379253188E+03 -0.13373154688E+03  0.14479253551E+03  0.23275224192E+03  0.10100000352E+00 0. -1.
</event>
<event>
 5   0  0.2715483E-02  0.5015249E+03  0.7818609E-02  0.1013382E+00
        1   -1    0    0  501    0  0.00000000000E+00  0.00000000000E+00  0.22020909328E+03  0.22020909333E+03  0.50400001928E-02 0.  1.
       -1   -1    0    0    0  501  0.00000000000E+00  0.00000000000E+00 -0.28555499817E+03  0.28555499822E+03  0.50400001928E-02 0. -1.
    10030    2    1    2    0    0  0.00000000000E+00  0.00000000000E+00 -0.65345904898E+02  0.50576409155E+03  0.50152490369E+03 0.  0.
        5    1    3    3  502    0 -0.35700435216E+01  0.17915846632E+01  0.22013258194E+03  0.22021897878E+03  0.46999998093E+01 0.  1.
       -5    1    3    3    0  502  0.35700435216E+01 -0.17915846632E+01 -0.28547848683E+03  0.28554511277E+03  0.46999998093E+01 0. -1.
</event>
<event>
 5   0  0.4534223E-02  0.4975023E+03  0.7818609E-02  0.1014433E+00
        2   -1    0    0  501    0  0.00000000000E+00  0.00000000000E+00  0.86017221737E+03  0.86017221737E+03  0.25500000920E-02 0. -1.
       -2   -1    0    0    0  501  0.00000000000E+00  0.00000000000E+00 -0.71935746408E+02  0.71935746453E+02  0.25500000920E-02 0.  1.
    10030    2    1    2    0    0  0.00000000000E+00  0.00000000000E+00  0.78823647096E+03  0.93210796383E+03  0.49750228349E+03 0.  0.
        2    1    3    3  502    0  0.49376506499E+02  0.87751601284E+02 -0.32048056682E+02  0.10566674437E+03  0.25500000920E-02 0.  1.
       -2    1    3    3    0  502 -0.49376506499E+02 -0.87751601284E+02  0.82028452764E+03  0.82644121946E+03  0.25500000920E-02 0. -1.
</event>
<event>
 5   0  0.4631619E-02  0.5000168E+03  0.7818609E-02  0.1013775E+00
        2   -1    0    0  501    0  0.00000000000E+00  0.00000000000E+00  0.54352524661E+03  0.54352524661E+03  0.25500000920E-02 0.  1.
       -2   -1    0    0    0  501  0.00000000000E+00  0.00000000000E+00 -0.11499779600E+03  0.11499779603E+03  0.25500000920E-02 0. -1.
    10030    2    1    2    0    0  0.00000000000E+00  0.00000000000E+00  0.42852745061E+03  0.65852304264E+03  0.50001682148E+03 0.  0.
        5    1    3    3  502    0  0.18810028816E+03 -0.11214286297E+03  0.55542468927E+02  0.22597521097E+03  0.46999998093E+01 0. -1.
       -5    1    3    3    0  502 -0.18810028816E+03  0.11214286297E+03  0.37298498168E+03  0.43254783167E+03  0.46999998093E+01 0.  1.
</event>
<event>
 5   0  0.2723308E-02  0.5006556E+03  0.7818609E-02  0.1013608E+00
       -1   -1    0    0    0  501  0.00000000000E+00  0.00000000000E+00  0.61146481808E+02  0.61146482015E+02  0.50400001928E-02 0. -1.
        1   -1    0    0  501    0  0.00000000000E+00  0.00000000000E+00 -0.10248180309E+04  0.10248180309E+04  0.50400001928E-02 0.  1.
    10030    2    1    2    0    0  0.00000000000E+00  0.00000000000E+00 -0.96367154906E+03  0.10859645129E+04  0.50065563894E+03 0.  0.
        4    1    3    3  502    0  0.18354809338E+03 -0.68328828450E+02 -0.14368337192E+03  0.24290997436E+03  0.12699999809E+01 0. -1.
       -4    1    3    3    0  502 -0.18354809338E+03  0.68328828450E+02 -0.81998817714E+03  0.84305453853E+03  0.12699999809E+01 0.  1.
</event>
<event>
 5   0  0.4519539E-02  0.5009833E+03  0.7818609E-02  0.1013523E+00
       -2   -1    0    0    0  501  0.00000000000E+00  0.00000000000E+00  0.39645520893E+02  0.39645520975E+02  0.25500000920E-02 0. -1.
        2   -1    0    0  501    0  0.00000000000E+00  0.00000000000E+00 -0.15826774745E+04  0.15826774745E+04  0.25500000920E-02 0.  1.
    10030    2    1    2    0    0  0.00000000000E+00  0.00000000000E+00 -0.15430319536E+04  0.16223229955E+04  0.50098332488E+03 0.  0.
        4    1    3    3  502    0  0.78181306279E+02 -0.23789302328E+03 -0.75127923610E+03  0.79191382780E+03  0.12699999809E+01 0.  1.
       -4    1    3    3    0  502 -0.78181306279E+02  0.23789302328E+03 -0.79175271753E+03  0.83040916770E+03  0.12699999809E+01 0. -1.
</event>
<event>
 5   0  0.2715483E-02  0.4956949E+03  0.7818609E-02  0.1014909E+00
       -1   -1    0    0    0  501  0.00000000000E+00  0.00000000000E+00  0.32532362809E+03  0.32532362813E+03  0.50400001928E-02 0. -1.
        1   -1    0    0  501    0  0.00000000000E+00  0.00000000000E+00 -0.18882227271E+03  0.18882227278E+03  0.50400001928E-02 0.  1.
    10030    2    1    2    0    0  0.00000000000E+00  0.00000000000E+00  0.13650135538E+03  0.51414590091E+03  0.49569485311E+03 0.  0.
        5    1    3    3  502    0  0.20164190768E+03 -0.20843683523E+02 -0.79575699515E+02  0.21782630702E+03  0.46999998093E+01 0.  1.
       -5    1    3    3    0  502 -0.20164190768E+03  0.20843683523E+02  0.21607705489E+03  0.29631959390E+03  0.46999998093E+01 0. -1.
</event>
<event>
 5   0  0.4534223E-02  0.4969440E+03  0.7818609E-02  0.1014580E+00
        2   -1    0    0  501    0  0.00000000000E+00  0.00000000000E+00  0.17721482550E+03  0.17721482552E+03  0.25500000920E-02 0. -1.
       -2   -1    0    0    0  501  0.00000000000E+00  0.00000000000E+00 -0.34838131582E+03  0.34838131583E+03  0.25500000920E-02 0.  1.
    10030    2    1    2    0    0  0.00000000000E+00  0.00000000000E+00 -0.17116649031E+03  0.52559614135E+03  0.49694399724E+03 0.  0.
        2    1    3    3  502    0  0.68107689399E+02 -0.19868982256E+03  0.54818563194E+02  0.21707459046E+03  0.25500000920E-02 0. -1.
       -2    1    3    3    0  502 -0.68107689399E+02  0.19868982256E+03 -0.22598505351E+03  0.30852155089E+03  0.25500000920E-02 0.  1.
</event>
<event>
 5   0  0.4409622E-02  0.5001721E+03  0.7818609E-02  0.1013734E+00
       -2   -1    0    0    0  501  0.00000000000E+00  0.00000000000E+00  0.10800846548E+03  0.10800846551E+03  0.25500000920E-02 0.  1.
        2   -1    0    0  501    0  0.00000000000E+00  0.00000000000E+00 -0.57905669643E+03  0.57905669644E+03  0.25500000920E-02 0. -1.
    10030    2    1    2    0    0  0.00000000000E+00  0.00000000000E+00 -0.47104823095E+03  0.68706516195E+03  0.50017207128E+03 0.  0.
        3    1    3    3  502    0 -0.11930827661E+03  0.74181279501E+00  0.66393197951E+02  0.13653967222E+03  0.10100000352E+00 0.  1.
       -3    1    3    3    0  502  0.11930827661E+03 -0.74181279501E+00 -0.53744142890E+03  0.55052548974E+03  0.10100000352E+00 0. -1.
</event>
<event>
 5   0  0.2719671E-02  0.4961951E+03  0.7818609E-02  0.1014777E+00
        1   -1    0    0  501    0  0.00000000000E+00  0.00000000000E+00  0.69678365142E+03  0.69678365144E+03  0.50400001928E-02 0. -1.
       -1   -1    0    0    0  501  0.00000000000E+00  0.00000000000E+00 -0.88337878917E+02  0.88337879060E+02  0.50400001928E-02 0.  1.
    10030    2    1    2    0    0  0.00000000000E+00  0.00000000000E+00  0.60844577250E+03  0.78512153050E+03  0.49619508218E+03 0.  0.
        2    1    3    3  502    0 -0.81709351756E+02 -0.18710287276E+02 -0.65252779643E+02  0.10622814256E+03  0.25500000920E-02 0.  1.
       -2    1    3    3    0  502  0.81709351756E+02  0.18710287276E+02  0.67369855215E+03  0.67889338794E+03  0.25500000920E-02 0. -1.
</event>
<event>
 5   0  0.2715483E-02  0.5000103E+03  0.7818609E-02  0.1013776E+00
        1   -1    0    0  501    0  0.00000000000E+00  0.00000000000E+00  0.13406145635E+03  0.13406145645E+03  0.50400001928E-02 0. -1.
       -1   -1    0    0    0  501  0.00000000000E+00  0.00000000000E+00 -0.46622328993E+03  0.46622328995E+03  0.50400001928E-02 0.  1.
    10030    2    1    2    0    0  0.00000000000E+00  0.00000000000E+00 -0.33216183357E+03  0.60028474640E+03  0.50001029297E+03 0.  0.
        5    1    3    3  502    0 -0.10023033731E+03 -0.10129932795E+03  0.80463190747E+02  0.16371954503E+03  0.46999998093E+01 0. -1.
       -5    1    3    3    0  502  0.10023033731E+03  0.10129932795E+03 -0.41262502432E+03  0.43656520138E+03  0.46999998093E+01 0.  1.
</event>
<event>
 5   0  0.4409622E-02  0.4963318E+03  0.7818609E-02  0.1014741E+00
        2   -1    0    0  501    0  0.00000000000E+00  0.00000000000E+00  0.71723678325E+02  0.71723678371E+02  0.25500000920E-02 0. -1.
       -2   -1    0    0    0  501  0.00000000000E+00  0.00000000000E+00 -0.85866090399E+03  0.85866090400E+03  0.25500000920E-02 0.  1.
    10030    2    1    2    0    0  0.00000000000E+00  0.00000000000E+00 -0.78693722567E+03  0.93038458237E+03  0.49633181841E+03 0.  0.
        3    1    3    3  502    0  0.56026819327E+01 -0.19581320545E+03 -0.67906168466E+03  0.70675242005E+03  0.10100000352E+00 0.  1.
       -3    1    3    3    0  502 -0.56026819327E+01  0.19581320545E+03 -0.10787554101E+03  0.22363216232E+03  0.10100000352E+00 0. -1.
</event>
<event>
 5   0  0.4409622E-02  0.5095982E+03  0.7818609E-02  0.1011304E+00
       -2   -1    0    0    0  501  0.00000000000E+00  0.00000000000E+00  0.22790871162E+03  0.22790871163E+03  0.25500000920E-02 0. -1.
        2   -1    0    0  501    0  0.00000000000E+00  0.00000000000E+00 -0.28486221705E+03  0.28486221706E+03  0.25500000920E-02 0.  1.
    10030    2    1    2    0    0  0.00000000000E+00  0.00000000000E+00 -0.56953505427E+02  0.51277092869E+03  0.50959819812E+03 0.  0.
        3    1    3    3  502    0  0.14467765311E+02 -0.80804894089E+02 -0.27119176565E+03  0.28334383900E+03  0.10100000352E+00 0.  1.
       -3    1    3    3    0  502 -0.14467765311E+02  0.80804894089E+02  0.21423826022E+03  0.22942708969E+03  0.10100000352E+00 0. -1.
</event>
<event>
 5   0  0.4534223E-02  0.5006423E+03  0.7818609E-02  0.1013611E+00
       -2   -1    0    0    0  501  0.00000000000E+00  0.00000000000E+00  0.86916247863E+02  0.86916247900E+02  0.25500000920E-02 0. -1.
        2   -1    0    0  501    0  0.00000000000E+00  0.00000000000E+00 -0.72093158782E+03  0.72093158783E+03  0.25500000920E-02 0.  1.
    10030    2    1    2    0    0  0.00000000000E+00  0.00000000000E+00 -0.63401533996E+03  0.80784783573E+03  0.50064226189E+03 0.  0.
        2    1    3    3  502    0 -0.13807402375E+03  0.33319494039E+02  0.15594596619E+02  0.14289092402E+03  0.25500000920E-02 0. -1.
       -2    1    3    3    0  502  0.13807402375E+03 -0.33319494039E+02 -0.64960993658E+03  0.66495691171E+03  0.25500000920E-02 0.  1.
</event>
<event>
 5   0  0.2643185E-02  0.4990222E+03  0.7818609E-02  0.1014034E+00
       -1   -1    0    0    0  501  0.00000000000E+00  0.00000000000E+00  0.11648489463E+03  0.11648489474E+03  0.50400001928E-02 0.  1.
        1   -1    0    0  501    0  0.00000000000E+00  0.00000000000E+00 -0.53445382886E+03  0.53445382889E+03  0.50400001928E-02 0. -1.
    10030    2    1    2    0    0  0.00000000000E+00  0.00000000000E+00 -0.41796893423E+03  0.65093872363E+03  0.49902223592E+03 0.  0.
        1    1    3    3  502    0  0.56428849229E+02  0.24091437617E+03 -0.25088578797E+03  0.35237427588E+03  0.50400001928E-02 0. -1.
       -1    1    3    3    0  502 -0.56428849229E+02 -0.24091437617E+03 -0.16708314626E+03  0.29856444775E+03  0.50400001928E-02 0.  1.
</event>
<event>
 5   0  0.4519539E-02  0.5006337E+03  0.7818609E-02  0.1013614E+00
       -2   -1    0    0    0  501  0.00000000000E+00  0.00000000000E+00  0.21586294585E+03  0.21586294586E+03  0.25500000920E-02 0.  1.
        2   -1    0    0  501    0  0.00000000000E+00  0.00000000000E+00 -0.29026989554E+03  0.29026989556E+03  0.25500000920E-02 0. -1.
    10030    2    1    2    0    0  0.00000000000E+00  0.00000000000E+00 -0.74406949696E+02  0.50613284142E+03  0.50063365748E+03 0.  0.
        4    1    3    3  502    0  0.13759892934E+03 -0.20725406640E+03 -0.91645825217E+01  0.24894440317E+03  0.12699999809E+01 0. -1.
       -4    1    3    3    0  502 -0.13759892934E+03  0.20725406640E+03 -0.65242367174E+02  0.25718843825E+03  0.12699999809E+01 0.  1.
</event>
<event>
 5   0  0.4409622E-02  0.4989791E+03  0.7818609E-02  0.1014046E+00
        2   -1    0    0  501    0  0.00000000000E+00  0.00000000000E+00  0.87003064743E+03  0.87003064744E+03  0.25500000920E-02 0. -1.
       -2   -1    0    0    0  501  0.00000000000E+00  0.00000000000E+00 -0.71543497934E+02  0.71543497979E+02  0.25500000920E-02 0.  1.
    10030    2    1    2    0    0  0.00000000000E+00  0.00000000000E+00  0.79848714950E+03  0.94157414542E+03  0.49897910117E+03 0.  0.
        3    1    3    3  502    0  0.11324582795E+03 -0.15992024039E+03  0.69063666789E+03  0.71789840373E+03  0.10100000352E+00 0. -1.
       -3    1    3    3    0  502 -0.11324582795E+03  0.15992024039E+03  0.10785048160E+03  0.22367574169E+03  0.10100000352E+00 0.  1.
</event>
<event>
 5   0  0.1805500E-02  0.4996130E+03  0.7818609E-02  0.1013880E+00
        4   -1    0    0  501    0  0.00000000000E+00  0.00000000000E+00  0.56160346950E+03  0.56160490547E+03  0.12699999809E+01 0.  1.
       -4   -1    0    0    0  501  0.00000000000E+00  0.00000000000E+00 -0.11111109199E+03  0.11111834981E+03  0.12699999809E+01 0. -1.
    10030    2    1    2    0    0  0.00000000000E+00  0.00000000000E+00  0.45049237751E+03  0.67272325528E+03  0.49961304627E+03 0.  0.
        3    1    3    3  502    0  0.13709795599E+03 -0.49603297082E+02 -0.47885133061E+02  0.15345791862E+03  0.10100000352E+00 0. -1.
       -3    1    3    3    0  502 -0.13709795599E+03  0.49603297082E+02  0.49837751057E+03  0.51926533666E+03  0.10100000352E+00 0.  1.
</event>
<event>
 5   0  0.2723308E-02  0.5000150E+03  0.7818609E-02  0.1013775E+00
       -1   -1    0    0    0  501  0.00000000000E+00  0.00000000000E+00  0.41921904930E+02  0.41921905233E+02  0.50400001928E-02 0.  1.
        1   -1    0    0  501    0  0.00000000000E+00  0.00000000000E+00 -0.14909570394E+04  0.14909570394E+04  0.50400001928E-02 0. -1.
    10030    2    1    2    0    0  0.00000000000E+00  0.00000000000E+00 -0.14490351344E+04  0.15328789446E+04  0.50001503777E+03 0.  0.
        4    1    3    3  502    0  0.23812222746E+03  0.12000795800E+02 -0.95507381409E+03  0.98438499458E+03  0.12699999809E+01 0. -1.
       -4    1    3    3    0  502 -0.23812222746E+03 -0.12000795800E+02 -0.49396132036E+03  0.54849395003E+03  0.12699999809E+01 0.  1.
</event>
<event>
 5   0  0.4451135E-02  0.4966508E+03  0.7818609E-02  0.1014657E+00
        2   -1    0    0  501    0  0.00000000000E+00  0.00000000000E+00  0.18504236516E+03  0.18504236518E+03  0.25500000920E-02 0.  1.
       -2   -1    0    0    0  501  0.00000000000E+00  0.00000000000E+00 -0.33325068365E+03  0.33325068366E+03  0.25500000920E-02 0. -1.
    10030    2    1    2    0    0  0.00000000000E+00  0.00000000000E+00 -0.14820831849E+03  0.51829304884E+03  0.49665076140E+03 0.  0.
        1    1    3    3  502    0 -0.81790808299E+01  0.47848828043E+02  0.18004278824E+03  0.18647201755E+03  0.50400001928E-02 0.  1.
       -1    1    3    3    0  502  0.81790808299E+01 -0.47848828043E+02 -0.32825110673E+03  0.33182103128E+03  0.50400001928E-02 0. -1.
</event>
<event>
 5   0  0.2715483E-02  0.5008462E+03  0.7818609E-02  0.1013558E+00
       -1   -1    0    0    0  501  0.00000000000E+00  0.00000000000E+00  0.23548042844E+03  0.23548042849E+03  0.50400001928E-02 0.  1.
        1   -1    0    0  501    0  0.00000000000E+00  0.00000000000E+00 -0.26631401362E+03  0.26631401367E+03  0.50400001928E-02 0. -1.
    10030    2    1    2    0    0  0.00000000000E+00  0.00000000000E+00 -0.30833585179E+02  0.50179444216E+03  0.50084623609E+03 0.  0.
        5    1    3    3  502    0 -0.24940951543E+03 -0.17248325987E+02 -0.29118828372E+02  0.25173916521E+03  0.46999998093E+01 0. -1.
       -5    1    3    3    0  502  0.24940951543E+03  0.17248325987E+02 -0.17147568079E+01  0.25005527694E+03  0.46999998093E+01 0.  1.
</event>
<event>
 5   0  0.2723308E-02  0.4996129E+03  0.7818609E-02  0.1013880E+00
       -1   -1    0    0    0  501  0.00000000000E+00  0.00000000000E+00  0.35927282580E+03  0.35927282584E+03  0.50400001928E-02 0. -1.
        1   -1    0    0  501    0  0.00000000000E+00  0.00000000000E+00 -0.17369326264E+03  0.17369326271E+03  0.50400001928E-02 0.  1.
    10030    2    1    2    0    0  0.00000000000E+00  0.00000000000E+00  0.18557956317E+03  0.53296608855E+03  0.49961292745E+03 0.  0.
        4    1    3    3  502    0 -0.54276484418E+02 -0.67766046214E+02 -0.15707646656E+03  0.17947925515E+03  0.12699999809E+01 0.  1.
       -4    1    3    3    0  502  0.54276484418E+02  0.67766046214E+02  0.34265602973E+03  0.35348683340E+03  0.12699999809E+01 0. -1.
</event>
<event>
 5   0  0.4409622E-02  0.5002647E+03  0.7818609E-02  0.1013710E+00
       -2   -1    0    0    0  501  0.00000000000E+00  0.00000000000E+00  0.13460155114E+03  0.13460155116E+03  0.25500000920E-02 0.  1.
        2   -1    0    0  501    0  0.00000000000E+00  0.00000000000E+00 -0.46482528824E+03  0.46482528824E+03  0.25500000920E-02 0. -1.
    10030    2    1    2    0    0  0.00000000000E+00  0.00000000000E+00 -0.33022373710E+03  0.59942683941E+03  0.50026474917E+03 0.  0.
        3    1    3    3  502    0  0.17870194976E+03  0.10518029152E+03  0.25057421535E+01  0.20737302023E+03  0.10100000352E+00 0.  1.
       -3    1    3    3    0  502 -0.17870194976E+03 -0.10518029152E+03 -0.33272947925E+03  0.39205381918E+03  0.10100000352E+00 0. -1.
</event>
<event>
 5   0  0.2723308E-02  0.5036904E+03  0.7818609E-02  0.1012820E+00
        1   -1    0    0  501    0  0.00000000000E+00  0.00000000000E+00  0.42641017764E+03  0.42641017767E+03  0.50400001928E-02 0. -1.
       -1   -1    0    0    0  501  0.00000000000E+00  0.00000000000E+00 -0.14874412822E+03  0.14874412831E+03  0.50400001928E-02 0.  1.
    10030    2    1    2    0    0  0.00000000000E+00  0.00000000000E+00  0.27766604942E+03  0.57515430597E+03  0.50369042147E+03 0.  0.
        4    1    3    3  502    0  0.75689202336E+02 -0.20977877427E+03  0.27243016156E+03  0.35207356520E+03  0.12699999809E+01 0. -1.
       -4    1    3    3    0  502 -0.75689202336E+02  0.20977877427E+03  0.52358878524E+01  0.22308074077E+03  0.12699999809E+01 0.  1.
</event>
<event>
 5   0  0.2643185E-02  0.5037746E+03  0.7818609E-02  0.1012798E+00
       -1   -1    0    0    0  501  0.00000000000E+00  0.00000000000E+00  0.27180022159E+03  0.27180022163E+03  0.50400001928E-02 0.  1.
        1   -1    0    0  501    0  0.00000000000E+00  0.00000000000E+00 -0.23343324352E+03  0.23343324357E+03  0.50400001928E-02 0. -1.
    10030    2    1    2    0    0  0.00000000000E+00  0.00000000000E+00  0.38366978070E+02  0.50523346520E+03  0.50377458189E+03 0.  0.
        1    1    3    3  502    0 -0.12552525002E+02  0.22275400068E+03 -0.98075143964E+02  0.24371221675E+03  0.50400001928E-02 0. -1.
       -1    1    3    3    0  502  0.12552525002E+02 -0.22275400068E+03  0.13644212203E+03  0.26152124846E+03  0.50400001928E-02 0.  1.
</event>
<event>
 5   0  0.2719671E-02  0.5006795E+03  0.7818609E-02  0.1013602E+00
        1   -1    0    0  501    0  0.00000000000E+00  0.00000000000E+00  0.13341832534E+04  0.13341832534E+04  0.50400001928E-02 0.  1.
       -1   -1    0    0    0  501  0.00000000000E+00  0.00000000000E+00 -0.46972546298E+02  0.46972546569E+02  0.50400001928E-02 0. -1.
    10030    2    1    2    0    0  0.00000000000E+00  0.00000000000E+00  0.12872107071E+04  0.13811558000E+04  0.50067947764E+03 0.  0.
        2    1    3    3  502    0  0.21733525097E+03 -0.71517304434E+02  0.92384938918E+03  0.95175996451E+03  0.25500000920E-02 0. -1.
       -2    1    3    3    0  502 -0.21733525097E+03  0.71517304434E+02  0.36336131790E+03  0.42939583545E+03  0.25500000920E-02 0.  1.
</event>
<event>
 5   0  0.4451135E-02  0.4996915E+03  0.7818609E-02  0.1013859E+00
       -2   -1    0    0    0  501  0.00000000000E+00  0.00000000000E+00  0.94263287251E+03  0.94263287251E+03  0.25500000920E-02 0. -1.
        2   -1    0    0  501    0  0.00000000000E+00  0.00000000000E+00 -0.66221849412E+02  0.66221849462E+02  0.25500000920E-02 0.  1.
    10030    2    1    2    0    0  0.00000000000E+00  0.00000000000E+00  0.87641102309E+03  0.10088547220E+04  0.49969147346E+03 0.  0.
        1    1    3    3  502    0  0.10196873660E+03  0.55630261448E+02  0.88480344531E+03  0.89239536422E+03  0.50400001928E-02 0. -1.
       -1    1    3    3    0  502 -0.10196873660E+03 -0.55630261448E+02 -0.83924222126E+01  0.11645935775E+03  0.50400001928E-02 0.  1.
</event>
<event>
 5   0  0.2715483E-02  0.4961742E+03  0.7818609E-02  0.1014782E+00
       -1   -1    0    0    0  501  0.00000000000E+00  0.00000000000E+00  0.14521795506E+03  0.14521795514E+03  0.50400001928E-02 0. -1.
        1   -1    0    0  501    0  0.00000000000E+00  0.00000000000E+00 -0.42382648212E+03  0.42382648215E+03  0.50400001928E-02 0.  1.
    10030    2    1    2    0    0  0.00000000000E+00  0.00000000000E+00 -0.27860852707E+03  0.56904443730E+03  0.49617422370E+03 0.  0.
        5    1    3    3  502    0 -0.13390118791E+03  0.14995227126E+03 -0.30593503617E+03  0.36610592474E+03  0.46999998093E+01 0.  1.
       -5    1    3    3    0  502  0.13390118791E+03 -0.14995227126E+03  0.27326509101E+02  0.20293851255E+03  0.46999998093E+01 0. -1.
</event>
<event>
 5   0  0.4409622E-02  0.4997290E+03  0.7818609E-02  0.1013850E+00
       -2   -1    0    0    0  501  0.00000000000E+00  0.00000000000E+00  0.50140308803E+02  0.50140308868E+02  0.25500000920E-02 0. -1.
        2   -1    0    0  501    0  0.00000000000E+00  0.00000000000E+00 -0.12451510821E+04  0.12451510821E+04  0.25500000920E-02 0.  1.
    10030    2    1    2    0    0  0.00000000000E+00  0.00000000000E+00 -0.11950107733E+04  0.12952913910E+04  0.49972896577E+03 0.  0.
        3    1    3    3  502    0 -0.63333596892E+02 -0.21889464383E+03 -0.86318401167E+03  0.89275565403E+03  0.10100000352E+00 0.  1.
       -3    1    3    3    0  502  0.63333596892E+02  0.21889464383E+03 -0.33182676167E+03  0.40253573699E+03  0.10100000352E+00 0. -1.
</event>
<event>
 5   0  0.4534223E-02  0.5006286E+03  0.7818609E-02  0.1013615E+00
        2   -1    0    0  501    0  0.00000000000E+00  0.00000000000E+00  0.18223328966E+04  0.18223328966E+04  0.25500000920E-02 0. -1.
       -2   -1    0    0    0  501  0.00000000000E+00  0.00000000000E+00 -0.34382987854E+02  0.34382987949E+02  0.25500000920E-02 0.  1.
    10030    2    1    2    0    0  0.00000000000E+00  0.00000000000E+00  0.17879499087E+04  0.18567158845E+04  0.50062860461E+03 0.  0.
        2    1    3    3  502    0 -0.23373400618E+03  0.73889921875E+02  0.10818431900E+04  0.11092682245E+04  0.25500000920E-02 0.  1.
       -2    1    3    3    0  502  0.23373400618E+03 -0.73889921875E+02  0.70610671874E+03  0.74744766002E+03  0.25500000920E-02 0. -1.
</event>
<event>
 5   0  0.4451135E-02  0.4999133E+03  0.7818609E-02  0.1013802E+00
        2   -1    0    0  501    0  0.00000000000E+00  0.00000000000E+00  0.11984414512E+03  0.11984414514E+03  0.25500000920E-02 0.  1.
       -2   -1    0    0    0  501  0.00000000000E+00  0.00000000000E+00 -0.52132972984E+03  0.52132972985E+03  0.25500000920E-02 0. -1.
    10030    2    1    2    0    0  0.00000000000E+00  0.00000000000E+00 -0.40148558473E+03  0.64117387499E+03  0.49991325570E+03 0.  0.
        1    1    3    3  502    0  0.23219625121E+03  0.30441148270E+02 -0.88662344793E+02  0.25040521958E+03  0.50400001928E-02 0.  1.
       -1    1    3    3    0  502 -0.23219625121E+03 -0.30441148270E+02 -0.31282323993E+03  0.39076865541E+03  0.50400001928E-02 0. -1.
</event>
<event>
 5   0  0.4409622E-02  0.5019193E+03  0.7818609E-02  0.1013279E+00
       -2   -1    0    0    0  501  0.00000000000E+00  0.00000000000E+00  0.51728450268E+02  0.51728450331E+02  0.25500000920E-02 0. -1.
        2   -1    0    0  501    0  0.00000000000E+00  0.00000000000E+00 -0.12175264744E+04  0.12175264744E+04  0.25500000920E-02 0.  1.
    10030    2    1    2    0    0  0.00000000000E+00  0.00000000000E+00 -0.11657980241E+04  0.12692549247E+04  0.50191934699E+03 0.  0.
        3    1    3    3  502    0  0.19111205252E+03  0.15732975719E+03 -0.68729533238E+03  0.73051444423E+03  0.10100000352E+00 0.  1.
       -3    1    3    3    0  502 -0.19111205252E+03 -0.15732975719E+03 -0.47850269171E+03  0.53874048046E+03  0.10100000352E+00 0. -1.
</event>
<event>
 5   0  0.2643185E-02  0.5005035E+03  0.7818609E-02  0.1013648E+00
        1   -1    0    0  501    0  0.00000000000E+00  0.00000000000E+00  0.43264425482E+03  0.43264425485E+03  0.50400001928E-02 0. -1.
       -1   -1    0    0    0  501  0.00000000000E+00  0.00000000000E+00 -0.14475156703E+03  0.14475156712E+03  0.50400001928E-02 0.  1.
    10030    2    1    2    0    0  0.00000000000E+00  0.00000000000E+00  0.28789268779E+03  0.57739582196E+03  0.50050348204E+03 0.  0.
        1    1    3    3  502    0 -0.14433498265E+03 -0.13272209047E+03  0.32332817661E+03  0.37813866548E+03  0.50400001928E-02 0. -1.
       -1    1    3    3    0  502  0.14433498265E+03  0.13272209047E+03 -0.35435488820E+02  0.19925715648E+03  0.50400001928E-02 0.  1.
</event>
<event>
 5   0  0.2715483E-02  0.5146502E+03  0.7818609E-02  0.1010024E+00
        1   -1    0    0  501    0  0.00000000000E+00  0.00000000000E+00  0.25617203928E+03  0.25617203933E+03  0.50400001928E-02 0. -1.
       -1   -1    0    0    0  501  0.00000000000E+00  0.00000000000E+00 -0.25848339350E+03  0.25848339355E+03  0.50400001928E-02 0.  1.
    10030    2    1    2    0    0  0.00000000000E+00  0.00000000000E+00 -0.23113542175E+01  0.51465543288E+03  0.51465024263E+03 0.  0.
        5    1    3    3  502    0  0.16025406550E+03  0.10814255128E+03 -0.17091589746E+03  0.25809012168E+03  0.46999998093E+01 0.  1.
       -5    1    3    3    0  502 -0.16025406550E+03 -0.10814255128E+03  0.16860454324E+03  0.25656531120E+03  0.46999998093E+01 0. -1.
</event>
<event>
 5   0  0.2715483E-02  0.4970056E+03  0.7818609E-02  0.1014563E+00
        1   -1    0    0  501    0  0.00000000000E+00  0.00000000000E+00  0.11073426544E+04  0.11073426545E+04  0.50400001928E-02 0.  1.
       -1   -1    0    0    0  501  0.00000000000E+00  0.00000000000E+00 -0.55767428184E+02  0.55767428412E+02  0.50400001928E-02 0. -1.
    10030    2    1    2    0    0  0.00000000000E+00  0.00000000000E+00  0.10515752263E+04  0.11631100829E+04  0.49700564220E+03 0.  0.
        5    1    3    3  502    0 -0.13386925894E+03  0.19714312839E+03  0.36121781437E+03  0.43276643929E+03  0.46999998093E+01 0.  1.
       -5    1    3    3    0  502  0.13386925894E+03 -0.19714312839E+03  0.69035741189E+03  0.73034364357E+03  0.46999998093E+01 0. -1.
</event>
<event>
 5   0  0.4519539E-02  0.4962620E+03  0.7818609E-02  0.1014759E+00
       -2   -1    0    0    0  501  0.00000000000E+00  0.00000000000E+00  0.76080945686E+02  0.76080945728E+02  0.25500000920E-02 0. -1.
        2   -1    0    0  501    0  0.00000000000E+00  0.00000000000E+00 -0.80925657284E+03  0.80925657284E+03  0.25500000920E-02 0.  1.
    10030    2    1    2    0    0  0.00000000000E+00  0.00000000000E+00 -0.73317562715E+03  0.88533751857E+03  0.49626204926E+03 0.  0.
        4    1    3    3  502    0 -0.11689092282E+03 -0.45159177633E+02  0.15476424261E+02  0.12626944116E+03  0.12699999809E+01 0. -1.
       -4    1    3    3    0  502  0.11689092282E+03  0.45159177633E+02 -0.74865205141E+03  0.75906807741E+03  0.12699999809E+01 0.  1.
</event>
<event>
 5   0  0.4534223E-02  0.4968895E+03  0.7818609E-02  0.1014594E+00
       -2   -1    0    0    0  501  0.00000000000E+00  0.00000000000E+00  0.99812284218E+02  0.99812284250E+02  0.25500000920E-02 0. -1.
        2   -1    0    0  501    0  0.00000000000E+00  0.00000000000E+00 -0.61840870555E+03  0.61840870555E+03  0.25500000920E-02 0.  1.
    10030    2    1    2    0    0  0.00000000000E+00  0.00000000000E+00 -0.51859642133E+03  0.71822098980E+03  0.49688946656E+03 0.  0.
        2    1    3    3  502    0 -0.20205121833E+03  0.30775182362E+01 -0.46821529812E+03  0.50996051940E+03  0.25500000920E-02 0.  1.
       -2    1    3    3    0  502  0.20205121833E+03 -0.30775182362E+01 -0.50381123204E+02  0.20826047040E+03  0.25500000920E-02 0. -1.
</event>
<event>
 5   0  0.2719671E-02  0.5014431E+03  0.7818609E-02  0.1013403E+00
       -1   -1    0    0    0  501  0.00000000000E+00  0.00000000000E+00  0.25469651901E+03  0.25469651906E+03  0.50400001928E-02 0. -1.
        1   -1    0    0  501    0  0.00000000000E+00  0.00000000000E+00 -0.24680866057E+03  0.24680866063E+03  0.50400001928E-02 0.  1.
    10030    2    1    2    0    0  0.00000000000E+00  0.00000000000E+00  0.78878584377E+01  0.50150517969E+03  0.50144314428E+03 0.  0.
        2    1    3    3  502    0  0.73070957794E+02  0.97472944944E+02  0.22310790733E+03  0.25419968173E+03  0.25500000920E-02 0. -1.
       -2    1    3    3    0  502 -0.73070957794E+02 -0.97472944944E+02 -0.21522004889E+03  0.24730549796E+03  0.25500000920E-02 0.  1.
</event>
<event>
 5   0  0.1805500E-02  0.4926487E+03  0.7818609E-02  0.1015716E+00
        3   -1    0    0  501    0  0.00000000000E+00  0.00000000000E+00  0.39780987259E+03  0.39780988541E+03  0.10100000352E+00 0. -1.
       -3   -1    0    0    0  501  0.00000000000E+00  0.00000000000E+00 -0.15252427052E+03  0.15252430396E+03  0.10100000352E+00 0.  1.
    10030    2    1    2    0    0  0.00000000000E+00  0.00000000000E+00  0.24528560207E+03  0.55033418936E+03  0.49264865107E+03 0.  0.
        5    1    3    3  502    0 -0.80256441566E+02  0.90889845637E+02 -0.11682060235E+03  0.16843753615E+03  0.46999998093E+01 0.  1.
       -5    1    3    3    0  502  0.80256441566E+02 -0.90889845637E+02  0.36210620442E+03  0.38189665321E+03  0.46999998093E+01 0. -1.
</event>
<event>
 5   0  0.1805500E-02  0.5002350E+03  0.7818609E-02  0.1013718E+00
        4   -1    0    0  501    0  0.00000000000E+00  0.00000000000E+00  0.38808993220E+03  0.38809201019E+03  0.12699999809E+01 0.  1.
       -4   -1    0    0    0  501  0.00000000000E+00  0.00000000000E+00 -0.16119158396E+03  0.16119658693E+03  0.12699999809E+01 0. -1.
    10030    2    1    2    0    0  0.00000000000E+00  0.00000000000E+00  0.22689834824E+03  0.54928859713E+03  0.50023504725E+03 0.  0.
        4    1    3    3  502    0  0.27097488438E+02  0.43574056286E+02 -0.15534976819E+03  0.16360970520E+03  0.12699999809E+01 0. -1.
       -4    1    3    3    0  502 -0.27097488438E+02 -0.43574056286E+02  0.38224811643E+03  0.38567889192E+03  0.12699999809E+01 0.  1.
</event>
<event>
 5   0  0.4451135E-02  0.5019585E+03  0.7818609E-02  0.1013269E+00
       -2   -1    0    0    0  501  0.00000000000E+00  0.00000000000E+00  0.35795979855E+02  0.35795979946E+02  0.25500000920E-02 0.  1.
        2   -1    0    0  501    0  0.00000000000E+00  0.00000000000E+00 -0.17597112616E+04  0.17597112616E+04  0.25500000920E-02 0. -1.
    10030    2    1    2    0    0  0.00000000000E+00  0.00000000000E+00 -0.17239152817E+04  0.17955072415E+04  0.50195852001E+03 0.  0.
        1    1    3    3  502    0 -0.19251582471E+03 -0.85433931742E+02 -0.13501797880E+04  0.13665089679E+04  0.50400001928E-02 0. -1.
       -1    1    3    3    0  502  0.19251582471E+03  0.85433931742E+02 -0.37373549368E+03  0.42899827356E+03  0.50400001928E-02 0.  1.
</event>
<event>
 5   0  0.2723308E-02  0.4993104E+03  0.7818609E-02  0.1013959E+00
        1   -1    0    0  501    0  0.00000000000E+00  0.00000000000E+00  0.20752631139E+03  0.20752631145E+03  0.50400001928E-02 0.  1.
       -1   -1    0    0    0  501  0.00000000000E+00  0.00000000000E+00 -0.30033648117E+03  0.30033648122E+03  0.50400001928E-02 0. -1.
    10030    2    1    2    0    0  0.00000000000E+00  0.00000000000E+00 -0.92810169787E+02  0.50786279266E+03  0.49931041303E+03 0.  0.
        4    1    3    3  502    0  0.27948887657E+02  0.12890225514E+03  0.16919057180E+03  0.21453203534E+03  0.12699999809E+01 0.  1.
       -4    1    3    3    0  502 -0.27948887657E+02 -0.12890225514E+03 -0.26200074158E+03  0.29333075732E+03  0.12699999809E+01 0. -1.
</event>
<event>
 5   0  0.2715483E-02  0.5021691E+03  0.7818609E-02  0.1013214E+00
        1   -1    0    0  501    0  0.00000000000E+00  0.00000000000E+00  0.14518600601E+04  0.14518600601E+04  0.50400001928E-02 0.  1.
       -1   -1    0    0    0  501  0.00000000000E+00  0.00000000000E+00 -0.43422534343E+02  0.43422534636E+02  0.50400001928E-02 0. -1.
    10030    2    1    2    0    0  0.00000000000E+00  0.00000000000E+00  0.14084375257E+04  0.14952825947E+04  0.50216906932E+03 0.  0.
        5    1    3    3  502    0  0.59597769245E+02  0.15975397938E+03  0.12528508683E+04  0.12644091965E+04  0.46999998093E+01 0.  1.
       -5    1    3    3    0  502 -0.59597769245E+02 -0.15975397938E+03  0.15558665741E+03  0.23087339819E+03  0.46999998093E+01 0. -1.
</event>
<event>
 5   0  0.2643185E-02  0.5019289E+03  0.7818609E-02  0.1013277E+00
       -1   -1    0    0    0  501  0.00000000000E+00  0.00000000000E+00  0.53405579783E+02  0.53405580021E+02  0.50400001928E-02 0. -1.
        1   -1    0    0  501    0  0.00000000000E+00  0.00000000000E+00 -0.11793366528E+04  0.11793366528E+04  0.50400001928E-02 0.  1.
    10030    2    1    2    0    0  0.00000000000E+00  0.00000000000E+00 -0.11259310730E+04  0.12327422328E+04  0.50192891073E+03 0.  0.
        1    1    3    3  502    0 -0.12192064947E+02  0.19314521659E+03 -0.95538512634E+03  0.97478944433E+03  0.50400001928E-02 0.  1.
       -1    1    3    3    0  502  0.12192064947E+02 -0.19314521659E+03 -0.17054594668E+03  0.25795278850E+03  0.50400001928E-02 0. -1.
</event>
<event>
 5   0  0.2779445E-02  0.4949583E+03  0.7818609E-02  0.1015103E+00
       -1   -1    0    0    0  501  0.00000000000E+00  0.00000000000E+00  0.47398208882E+03  0.47398208885E+03  0.50400001928E-02 0. -1.
        1   -1    0    0  501    0  0.00000000000E+00  0.00000000000E+00 -0.12921572789E+03  0.12921572799E+03  0.50400001928E-02 0.  1.
    10030    2    1    2    0    0  0.00000000000E+00  0.00000000000E+00  0.34476636094E+03  0.60319781684E+03  0.49495834431E+03 0.  0.
        3    1    3    3  502    0  0.19494656813E+03  0.11491491359E+03  0.50293614982E+02  0.23181686673E+03  0.10100000352E+00 0. -1.
       -3    1    3    3    0  502 -0.19494656813E+03 -0.11491491359E+03  0.29447274595E+03  0.37138095011E+03  0.10100000352E+00 0.  1.
</event>
<event>
 5   0  0.1805500E-02  0.5001208E+03  0.7818609E-02  0.1013747E+00
        3   -1    0    0  501    0  0.00000000000E+00  0.00000000000E+00  0.44204761629E+03  0.44204762783E+03  0.10100000352E+00 0.  1.
       -3   -1    0    0    0  501  0.00000000000E+00  0.00000000000E+00 -0.14145576824E+03  0.14145580429E+03  0.10100000352E+00 0. -1.
    10030    2    1    2    0    0  0.00000000000E+00  0.00000000000E+00  0.30059184806E+03  0.58350343213E+03  0.50012078160E+03 0.  0.
        5    1    3    3  502    0 -0.19436372107E+03  0.53864515385E+02  0.32267719530E+03  0.38055394421E+03  0.46999998093E+01 0. -1.
       -5    1    3    3    0  502  0.19436372107E+03 -0.53864515385E+02 -0.22085347245E+02  0.20294948792E+03  0.46999998093E+01 0.  1.
</event>
<event>
 5   0  0.4409622E-02  0.4969884E+03  0.7818609E-02  0.1014568E+00
        2   -1    0    0  501    0  0.00000000000E+00  0.00000000000E+00  0.78416291189E+03  0.78416291190E+03  0.25500000920E-02 0. -1.
       -2   -1    0    0    0  501  0.00000000000E+00  0.00000000000E+00 -0.78745596958E+02  0.78745596999E+02  0.25500000920E-02 0.  1.
    10030    2    1    2    0    0  0.00000000000E+00  0.00000000000E+00  0.70541731494E+03  0.86290850890E+03  0.49698843700E+03 0.  0.
        3    1    3    3  502    0  0.59313479842E+02  0.52954878215E+02 -0.56061688184E+02  0.97289419264E+02  0.10100000352E+00 0.  1.
       -3    1    3    3    0  502 -0.59313479842E+02 -0.52954878215E+02  0.76147900312E+03  0.76561908963E+03  0.10100000352E+00 0. -1.
</event>
<event>
 5   0  0.4451135E-02  0.5003859E+03  0.7818609E-02  0.1013678E+00
       -2   -1    0    0    0  501  0.00000000000E+00  0.00000000000E+00  0.43683864155E+02  0.43683864229E+02  0.25500000920E-02 0. -1.
        2   -1    0    0  501    0  0.00000000000E+00  0.00000000000E+00 -0.14329434671E+04  0.14329434671E+04  0.25500000920E-02 0.  1.
    10030    2    1    2    0    0  0.00000000000E+00  0.00000000000E+00 -0.13892596029E+04  0.14766273313E+04  0.50038588235E+03 0.  0.
        1    1    3    3  502    0 -0.11723493067E+03 -0.14776088032E+03 -0.11796972217E+04  0.11946810627E+04  0.50400001928E-02 0.  1.
       -1    1    3    3    0  502  0.11723493067E+03  0.14776088032E+03 -0.20956238123E+03  0.28194626859E+03  0.50400001928E-02 0. -1.
</event>
<event>
 5   0  0.2715483E-02  0.5010199E+03  0.7818609E-02  0.1013513E+00
       -1   -1    0    0    0  501  0.00000000000E+00  0.00000000000E+00  0.36236934210E+02  0.36236934561E+02  0.50400001928E-02 0. -1.
        1   -1    0    0  501    0  0.00000000000E+00  0.00000000000E+00 -0.17318034247E+04  0.17318034247E+04  0.50400001928E-02 0.  1.
    10030    2    1    2    0    0  0.00000000000E+00  0.00000000000E+00 -0.16955664905E+04  0.17680403592E+04  0.50101994803E+03 0.  0.
        5    1    3    3  502    0  0.17447478300E+03  0.12729558438E+03 -0.40019157526E+03  0.45477577180E+03  0.46999998093E+01 0. -1.
       -5    1    3    3    0  502 -0.17447478300E+03 -0.12729558438E+03 -0.12953749152E+04  0.13132645874E+04  0.46999998093E+01 0.  1.
</event>
<event>
 5   0  0.4519539E-02  0.4997141E+03  0.7818609E-02  0.1013854E+00
        2   -1    0    0  501    0  0.00000000000E+00  0.00000000000E+00  0.49912777867E+03  0.49912777868E+03  0.25500000920E-02 0.  1.
       -2   -1    0    0    0  501  0.00000000000E+00  0.00000000000E+00 -0.12507529346E+03  0.12507529348E+03  0.25500000920E-02 0. -1.
    10030    2    1    2    0    0  0.00000000000E+00  0.00000000000E+00  0.37405248521E+03  0.62420307216E+03  0.49971413188E+03 0.  0.
        4    1    3    3  502    0 -0.15490451148E+03 -0.15933115436E+02  0.43109319181E+03  0.45835818392E+03  0.12699999809E+01 0.  1.
       -4    1    3    3    0  502  0.15490451148E+03  0.15933115436E+02 -0.57040706600E+02  0.16584488824E+03  0.12699999809E+01 0. -1.
</event>
<event>
 5   0  0.2719671E-02  0.5007196E+03  0.7818609E-02  0.1013591E+00
        1   -1    0    0  501    0  0.00000000000E+00  0.00000000000E+00  0.32151984760E+03  0.32151984764E+03  0.50400001928E-02 0. -1.
       -1   -1    0    0    0  501  0.00000000000E+00  0.00000000000E+00 -0.19494916242E+03  0.19494916249E+03  0.50400001928E-02 0.  1.
    10030    2    1    2    0    0  0.00000000000E+00  0.00000000000E+00  0.12657068518E+03  0.51646901013E+03  0.50071958228E+03 0.  0.
        2    1    3    3  502    0 -0.22694772821E+03 -0.81574220979E+02  0.13263401180E+03  0.27522973306E+03  0.25500000920E-02 0.  1.
       -2    1    3    3    0  502  0.22694772821E+03  0.81574220979E+02 -0.60633266180E+01  0.24123927707E+03  0.25500000920E-02 0. -1.
</event>
<event>
 5   0  0.4631619E-02  0.4994592E+03  0.7818609E-02  0.1013920E+00
       -2   -1    0    0    0  501  0.00000000000E+00  0.00000000000E+00  0.31758711845E+02  0.31758711947E+02  0.25500000920E-02 0.  1.
        2   -1    0    0  501    0  0.00000000000E+00  0.00000000000E+00 -0.19637093814E+04  0.19637093814E+04  0.25500000920E-02 0. -1.
    10030    2    1    2    0    0  0.00000000000E+00  0.00000000000E+00 -0.19319506696E+04  0.19954680934E+04  0.49945922955E+03 0.  0.
        5    1    3    3  502    0  0.56825226580E+02  0.12712558737E+02  0.40750516513E+01  0.58561178008E+02  0.46999998093E+01 0.  1.
       -5    1    3    3    0  502 -0.56825226580E+02 -0.12712558737E+02 -0.19360257212E+04  0.19369069154E+04  0.46999998093E+01 0. -1.
</event>
<event>
 5   0  0.4631619E-02  0.5078563E+03  0.7818609E-02  0.1011748E+00
       -2   -1    0    0    0  501  0.00000000000E+00  0.00000000000E+00  0.38006477749E+02  0.38006477834E+02  0.25500000920E-02 0. -1.
        2   -1    0    0  501    0  0.00000000000E+00  0.00000000000E+00 -0.16965399560E+04  0.16965399560E+04  0.25500000920E-02 0.  1.
    10030    2    1    2    0    0  0.00000000000E+00  0.00000000000E+00 -0.16585334782E+04  0.17345464338E+04  0.50785631102E+03 0.  0.
        5    1    3    3  502    0  0.94196735961E+02  0.11701270988E+03 -0.13020940719E+03  0.19885064511E+03  0.46999998093E+01 0. -1.
       -5    1    3    3    0  502 -0.94196735961E+02 -0.11701270988E+03 -0.15283240710E+04  0.15356957887E+04  0.46999998093E+01 0.  1.
</event>
<event>
 5   0  0.4409622E-02  0.5002295E+03  0.7818609E-02  0.1013719E+00
       -2   -1    0    0    0  501  0.00000000000E+00  0.00000000000E+00  0.85590855429E+02  0.85590855467E+02  0.25500000920E-02 0.  1.
        2   -1    0    0  501    0  0.00000000000E+00  0.00000000000E+00 -0.73088876702E+03  0.73088876703E+03  0.25500000920E-02 0. -1.
    10030    2    1    2    0    0  0.00000000000E+00  0.00000000000E+00 -0.64529791159E+03  0.81647962249E+03  0.50022952656E+03 0.  0.
        3    1    3    3  502    0  0.13253442017E+03  0.16632999761E+03 -0.53749605452E+03  0.57804243742E+03  0.10100000352E+00 0. -1.
       -3    1    3    3    0  502 -0.13253442017E+03 -0.16632999761E+03 -0.10780185707E+03  0.23843718507E+03  0.10100000352E+00 0.  1.
</event>
<event>
 5   0  0.4631619E-02  0.4951654E+03  0.7818609E-02  0.1015049E+00
       -2   -1    0    0    0  501  0.00000000000E+00  0.00000000000E+00  0.18812553939E+03  0.18812553941E+03  0.25500000920E-02 0. -1.
        2   -1    0    0  501    0  0.00000000000E+00  0.00000000000E+00 -0.32583131900E+03  0.32583131901E+03  0.25500000920E-02 0.  1.
    10030    2    1    2    0    0  0.00000000000E+00  0.00000000000E+00 -0.13770577960E+03  0.51395685842E+03  0.49516539720E+03 0.  0.
        5    1    3    3  502    0  0.23827101513E+03 -0.66664233459E+02 -0.76751270441E+02  0.25909466260E+03  0.46999998093E+01 0. -1.
       -5    1    3    3    0  502 -0.23827101513E+03  0.66664233459E+02 -0.60954509160E+02  0.25486219582E+03  0.46999998093E+01 0.  1.
</event>
<event>
 5   0  0.4534223E-02  0.4997814E+03  0.7818609E-02  0.1013836E+00
        2   -1    0    0  501    0  0.00000000000E+00  0.00000000000E+00  0.20254351248E+04  0.20254351248E+04  0.25500000920E-02 0.  1.
       -2   -1    0    0    0  501  0.00000000000E+00  0.00000000000E+00 -0.30830591226E+02  0.30830591331E+02  0.25500000920E-02 0. -1.
    10030    2    1    2    0    0  0.00000000000E+00  0.00000000000E+00  0.19946045336E+04  0.20562657162E+04  0.49978140221E+03 0.  0.
        2    1    3    3  502    0  0.23386340741E+03 -0.66507227532E+02  0.75987803988E+03  0.79782826482E+03  0.25500000920E-02 0. -1.
       -2    1    3    3    0  502 -0.23386340741E+03  0.66507227532E+02  0.12347264937E+04  0.12584374514E+04  0.25500000920E-02 0.  1.
</event>
<event>
 5   0  0.4631619E-02  0.4998563E+03  0.7818609E-02  0.1013816E+00
       -2   -1    0    0    0  501  0.00000000000E+00  0.00000000000E+00  0.75096566117E+02  0.75096566161E+02  0.25500000920E-02 0. -1.
        2   -1    0    0  501    0  0.00000000000E+00  0.00000000000E+00 -0.83178360105E+03  0.83178360105E+03  0.25500000920E-02 0.  1.
    10030    2    1    2    0    0  0.00000000000E+00  0.00000000000E+00 -0.75668703493E+03  0.90688016721E+03  0.49985634821E+03 0.  0.
        5    1    3    3  502    0  0.12471238470E+03  0.16994790661E+03 -0.13488793630E+03  0.25030444506E+03  0.46999998093E+01 0. -1.
       -5    1    3    3    0  502 -0.12471238470E+03 -0.16994790661E+03 -0.62179909863E+03  0.65657572215E+03  0.46999998093E+01 0.  1.
</event>
<event>
 5   0  0.4534223E-02  0.5050517E+03  0.7818609E-02  0.1012469E+00
       -2   -1    0    0    0  501  0.00000000000E+00  0.00000000000E+00  0.14441059816E+03  0.14441059818E+03  0.25500000920E-02 0.  1.
        2   -1    0    0  501    0  0.00000000000E+00  0.00000000000E+00 -0.44158333494E+03  0.44158333495E+03  0.25500000920E-02 0. -1.
    10030    2    1    2    0    0  0.00000000000E+00  0.00000000000E+00 -0.29717273678E+03  0.58599393313E+03  0.50505173416E+03 0.  0.
        2    1    3    3  502    0  0.10803736663E+02 -0.24239152089E+03 -0.22979617281E+03  0.33418056671E+03  0.25500000920E-02 0.  1.
       -2    1    3    3    0  502 -0.10803736663E+02  0.24239152089E+03 -0.67376563973E+02  0.25181336642E+03  0.25500000920E-02 0. -1.
</event>
<event>
 5   0  0.4519539E-02  0.5009783E+03  0.7818609E-02  0.1013524E+00
        2   -1    0    0  501    0  0.00000000000E+00  0.00000000000E+00  0.39447342412E+03  0.39447342412E+03  0.25500000920E-02 0.  1.
       -2   -1    0    0    0  501  0.00000000000E+00  0.00000000000E+00 -0.15905967822E+03  0.15905967824E+03  0.25500000920E-02 0. -1.
    10030    2    1    2    0    0  0.00000000000E+00  0.00000000000E+00  0.23541374590E+03  0.55353310236E+03  0.50097830657E+03 0.  0.
        4    1    3    3  502    0  0.30001522540E+02  0.11408889048E+03 -0.12644157727E+03  0.17293192778E+03  0.12699999809E+01 0. -1.
       -4    1    3    3    0  502 -0.30001522540E+02 -0.11408889048E+03  0.36185532317E+03  0.38060117458E+03  0.12699999809E+01 0.  1.
</event>
<event>
 5   0  0.4451135E-02  0.5013507E+03  0.7818609E-02  0.1013427E+00
       -2   -1    0    0    0  501  0.00000000000E+00  0.00000000000E+00  0.12349347104E+03  0.12349347107E+03  0.25500000920E-02 0. -1.
        2   -1    0    0  501    0  0.00000000000E+00  0.00000000000E+00 -0.50883771305E+03  0.50883771306E+03  0.25500000920E-02 0.  1.
    10030    2    1    2    0    0  0.00000000000E+00  0.00000000000E+00 -0.38534424201E+03  0.63233118413E+03  0.50135071713E+03 0.  0.
        1    1    3    3  502    0 -0.16068935892E+03 -0.14590138339E+02 -0.43463659729E+03  0.46361936320E+03  0.50400001928E-02 0.  1.
       -1    1    3    3    0  502  0.16068935892E+03  0.14590138339E+02  0.49292355275E+02  0.16871182093E+03  0.50400001928E-02 0. -1.
</event>
<event>
 5   0  0.2643185E-02  0.4977106E+03  0.7818609E-02  0.1014378E+00
        1   -1    0    0  501    0  0.00000000000E+00  0.00000000000E+00  0.17817955265E+04  0.17817955265E+04  0.50400001928E-02 0.  1.
       -1   -1    0    0    0  501  0.00000000000E+00  0.00000000000E+00 -0.34756497165E+02  0.34756497531E+02  0.50400001928E-02 0. -1.
    10030    2    1    2    0    0  0.00000000000E+00  0.00000000000E+00  0.17470390294E+04  0.18165520241E+04  0.49771064488E+03 0.  0.
        1    1    3    3  502    0  0.11209197614E+03 -0.11193440362E+03  0.15740088706E+04  0.15819601280E+04  0.50400001928E-02 0.  1.
       -1    1    3    3    0  502 -0.11209197614E+03  0.11193440362E+03  0.17303015873E+03  0.23459189604E+03  0.50400001928E-02 0. -1.
</event>
<event>
 5   0  0.2715483E-02  0.4985350E+03  0.7818609E-02  0.1014162E+00
        1   -1    0    0  501    0  0.00000000000E+00  0.00000000000E+00  0.30634868925E+03  0.30634868929E+03  0.50400001928E-02 0.  1.
       -1   -1    0    0    0  501  0.00000000000E+00  0.00000000000E+00 -0.20282214442E+03  0.20282214448E+03  0.50400001928E-02 0. -1.
    10030    2    1    2    0    0  0.00000000000E+00  0.00000000000E+00  0.10352654484E+03  0.50917083378E+03  0.49853504639E+03 0.  0.
        5    1    3    3  502    0  0.22053900976E+03 -0.10382674369E+03  0.10478183121E+03  0.26536535132E+03  0.46999998093E+01 0. -1.
       -5    1    3    3    0  502 -0.22053900976E+03  0.10382674369E+03 -0.12552863748E+01  0.24380548245E+03  0.46999998093E+01 0.  1.
</event>
<event>
 5   0  0.2719671E-02  0.4984088E+03  0.7818609E-02  0.1014195E+00
       -1   -1    0    0    0  501  0.00000000000E+00  0.00000000000E+00  0.15231825716E+03  0.15231825724E+03  0.50400001928E-02 0.  1.
        1   -1    0    0  501    0  0.00000000000E+00  0.00000000000E+00 -0.40771755900E+03  0.40771755903E+03  0.50400001928E-02 0. -1.
    10030    2    1    2    0    0  0.00000000000E+00  0.00000000000E+00 -0.25539930184E+03  0.56003581627E+03  0.49840878014E+03 0.  0.
        2    1    3    3  502    0  0.12664765501E+03  0.21031356856E+03 -0.17578602229E+03  0.30194726572E+03  0.25500000920E-02 0. -1.
       -2    1    3    3    0  502 -0.12664765501E+03 -0.21031356856E+03 -0.79613279556E+02  0.25808855055E+03  0.25500000920E-02 0.  1.
</event>
<event>
 5   0  0.2715483E-02  0.5010151E+03  0.7818609E-02  0.1013514E+00
       -1   -1    0    0    0  501  0.00000000000E+00  0.00000000000E+00  0.45088497711E+03  0.45088497714E+03  0.50400001928E-02 0.  1.
        1   -1    0    0  501    0  0.00000000000E+00  0.00000000000E+00 -0.13917968906E+03  0.13917968915E+03  0.50400001928E-02 0. -1.
    10030    2    1    2    0    0  0.00000000000E+00  0.00000000000E+00  0.31170528805E+03  0.59006466629E+03  0.50101509339E+03 0.  0.
        5    1    3    3  502    0  0.53439380150E+02 -0.26135178998E+02 -0.13068681583E+03  0.14366610165E+03  0.46999998093E+01 0. -1.
       -5    1    3    3    0  502 -0.53439380150E+02  0.26135178998E+02  0.44239210389E+03  0.44639856464E+03  0.46999998093E+01 0.  1.
</event>
<event>
 5   0  0.4451135E-02  0.4954981E+03  0.7818609E-02  0.1014961E+00
       -2   -1    0    0    0  501  0.00000000000E+00  0.00000000000E+00  0.16623860095E+03  0.16623860096E+03  0.25500000920E-02 0. -1.
        2   -1    0    0  501    0  0.00000000000E+00  0.00000000000E+00 -0.36922586683E+03  0.36922586684E+03  0.25500000920E-02 0.  1.
    10030    2    1    2    0    0  0.00000000000E+00  0.00000000000E+00 -0.20298726589E+03  0.53546446781E+03  0.49549809906E+03 0.  0.
        1    1    3    3  502    0  0.11383286043E+03  0.70786502199E+02  0.12366482840E+03  0.18237773662E+03  0.50400001928E-02 0. -1.
       -1    1    3    3    0  502 -0.11383286043E+03 -0.70786502199E+02 -0.32665209429E+03  0.35308673118E+03  0.50400001928E-02 0.  1.
</event>
<event>
 5   0  0.4519539E-02  0.4942752E+03  0.7818609E-02  0.1015284E+00
        2   -1    0    0  501    0  0.00000000000E+00  0.00000000000E+00  0.93079870816E+03  0.93079870817E+03  0.25500000920E-02 0.  1.
       -2   -1    0    0    0  501  0.00000000000E+00  0.00000000000E+00 -0.65617834680E+02  0.65617834730E+02  0.25500000920E-02 0. -1.
    10030    2    1    2    0    0  0.00000000000E+00  0.00000000000E+00  0.86518087348E+03  0.99641654290E+03  0.49427520990E+03 0.  0.
        4    1    3    3  502    0  0.51020051322E+02  0.15285173399E+03  0.81031861104E+03  0.82618676008E+03  0.12699999809E+01 0.  1.
       -4    1    3    3    0  502 -0.51020051322E+02 -0.15285173399E+03  0.54862262437E+02  0.17022978282E+03  0.12699999809E+01 0. -1.
</event>
<event>
 5   0  0.2723308E-02  0.5094879E+03  0.7818609E-02  0.1011332E+00
       -1   -1    0    0    0  501  0.00000000000E+00  0.00000000000E+00  0.23456070104E+03  0.23456070110E+03  0.50400001928E-02 0.  1.
        1   -1    0    0  501    0  0.00000000000E+00  0.00000000000E+00 -0.27666388237E+03  0.27666388242E+03  0.50400001928E-02 0. -1.
    10030    2    1    2    0    0  0.00000000000E+00  0.00000000000E+00 -0.42103181331E+02  0.51122458352E+03  0.50948787710E+03 0.  0.
        4    1    3    3  502    0  0.10992949169E+03 -0.21168208315E+03  0.68690763303E+02  0.24822133537E+03  0.12699999809E+01 0.  1.
       -4    1    3    3    0  502 -0.10992949169E+03  0.21168208315E+03 -0.11079394463E+03  0.26300324815E+03  0.12699999809E+01 0. -1.
</event>
<event>
 5   0  0.2719671E-02  0.4997386E+03  0.7818609E-02  0.1013847E+00
       -1   -1    0    0    0  501  0.00000000000E+00  0.00000000000E+00  0.41222592454E+02  0.41222592762E+02  0.50400001928E-02 0.  1.
        1   -1    0    0  501    0  0.00000000000E+00  0.00000000000E+00 -0.15145739818E+04  0.15145739818E+04  0.50400001928E-02 0. -1.
    10030    2    1    2    0    0  0.00000000000E+00  0.00000000000E+00 -0.14733513894E+04  0.15557965746E+04  0.49973859663E+03 0.  0.
        2    1    3    3  502    0 -0.24220357117E+03 -0.61416660634E+02 -0.73761040991E+03  0.77878346985E+03  0.25500000920E-02 0.  1.
       -2    1    3    3    0  502  0.24220357117E+03  0.61416660634E+02 -0.73574097946E+03  0.77701310475E+03  0.25500000920E-02 0. -1.
</event>
<event>
 5   0  0.2719671E-02  0.5027924E+03  0.7818609E-02  0.1013053E+00
       -1   -1    0    0    0  501  0.00000000000E+00  0.00000000000E+00  0.34415374894E+03  0.34415374898E+03  0.50400001928E-02 0.  1.
        1   -1    0    0  501    0  0.00000000000E+00  0.00000000000E+00 -0.18363902360E+03  0.18363902367E+03  0.50400001928E-02 0. -1.
    10030    2    1    2    0    0  0.00000000000E+00  0.00000000000E+00  0.16051472533E+03  0.52779277265E+03  0.50279243611E+03 0.  0.
        2    1    3    3  502    0 -0.23670347214E+03 -0.34627107496E+02 -0.86719682726E+00  0.23922441835E+03  0.25500000920E-02 0. -1.
       -2    1    3    3    0  502  0.23670347214E+03  0.34627107496E+02  0.16138192216E+03  0.28856835430E+03  0.25500000920E-02 0.  1.
</event>
<event>
 5   0  0.4534223E-02  0.4984606E+03  0.7818609E-02  0.1014181E+00
        2   -1    0    0  501    0  0.00000000000E+00  0.00000000000E+00  0.28548085638E+03  0.28548085639E+03  0.25500000920E-02 0.  1.
       -2   -1    0    0    0  501  0.00000000000E+00  0.00000000000E+00 -0.21758290678E+03  0.21758290679E+03  0.25500000920E-02 0. -1.
    10030    2    1    2    0    0  0.00000000000E+00  0.00000000000E+00  0.67897949601E+02  0.50306376319E+03  0.49846064867E+03 0.  0.
        2    1    3    3  502    0 -0.30914459690E+02 -0.90571349429E+02  0.26619771017E+03  0.28287823186E+03  0.25500000920E-02 0.  1.
       -2    1    3    3    0  502  0.30914459690E+02  0.90571349429E+02 -0.19829976057E+03  0.22018553132E+03  0.25500000920E-02 0. -1.
</event>
<event>
 5   0  0.2723308E-02  0.4989133E+03  0.7818609E-02  0.1014063E+00
        1   -1    0    0  501    0  0.00000000000E+00  0.00000000000E+00  0.17264609802E+03  0.17264609809E+03  0.50400001928E-02 0. -1.
       -1   -1    0    0    0  501  0.00000000000E+00  0.00000000000E+00 -0.36044037184E+03  0.36044037187E+03  0.50400001928E-02 0.  1.
    10030    2    1    2    0    0  0.00000000000E+00  0.00000000000E+00 -0.18779427382E+03  0.53308646997E+03  0.49891331430E+03 0.  0.
        4    1    3    3  502    0  0.71832120321E+02  0.10499368467E+03 -0.32317211106E+03  0.34731160879E+03  0.12699999809E+01 0.  1.
       -4    1    3    3    0  502 -0.71832120321E+02 -0.10499368467E+03  0.13537783725E+03  0.18577486118E+03  0.12699999809E+01 0. -1.
</event>
<event>
 5   0  0.2719671E-02  0.4991292E+03  0.7818609E-02  0.1014006E+00
       -1   -1    0    0    0  501  0.00000000000E+00  0.00000000000E+00  0.11452262565E+03  0.11452262576E+03  0.50400001928E-02 0. -1.
        1   -1    0    0  501    0  0.00000000000E+00  0.00000000000E+00 -0.54384444293E+03  0.54384444295E+03  0.50400001928E-02 0.  1.
    10030    2    1    2    0    0  0.00000000000E+00  0.00000000000E+00 -0.42932181727E+03  0.65836706871E+03  0.49912921611E+03 0.  0.
        2    1    3    3  502    0 -0.19156474234E+03 -0.68243903551E+02 -0.23842100826E+02  0.20475040088E+03  0.25500000920E-02 0. -1.
       -2    1    3    3    0  502  0.19156474234E+03  0.68243903551E+02 -0.40547971645E+03  0.45361666783E+03  0.25500000920E-02 0.  1.
</event>
<event>
 5   0  0.2779445E-02  0.4994490E+03  0.7818609E-02  0.1013923E+00
       -1   -1    0    0    0  501  0.00000000000E+00  0.00000000000E+00  0.26030807878E+03  0.26030807883E+03  0.50400001928E-02 0. -1.
        1   -1    0    0  501    0  0.00000000000E+00  0.00000000000E+00 -0.23957119482E+03  0.23957119488E+03  0.50400001928E-02 0.  1.
    10030    2    1    2    0    0  0.00000000000E+00  0.00000000000E+00  0.20736883960E+02  0.49987927371E+03  0.49944896629E+03 0.  0.
        3    1    3    3  502    0  0.10301333252E+03  0.64105532261E+02 -0.20808788854E+03  0.24087724156E+03  0.10100000352E+00 0.  1.
       -3    1    3    3    0  502 -0.10301333252E+03 -0.64105532261E+02  0.22882477250E+03  0.25900203215E+03  0.10100000352E+00 0. -1.
</event>
<event>
 5   0  0.2723308E-02  0.5007025E+03  0.7818609E-02  0.1013596E+00
        1   -1    0    0  501    0  0.00000000000E+00  0.00000000000E+00  0.16289187854E+04  0.16289187854E+04  0.50400001928E-02 0.  1.
       -1   -1    0    0    0  501  0.00000000000E+00  0.00000000000E+00 -0.38476899325E+02  0.38476899655E+02  0.50400001928E-02 0. -1.
    10030    2    1    2    0    0  0.00000000000E+00  0.00000000000E+00  0.15904418860E+04  0.16673956850E+04  0.50070248409E+03 0.  0.
        4    1    3    3  502    0  0.24035353236E+03  0.18536955620E+02  0.57032878536E+03  0.61918492839E+03  0.12699999809E+01 0. -1.
       -4    1    3    3    0  502 -0.24035353236E+03 -0.18536955620E+02  0.10201131007E+04  0.10482107566E+04  0.12699999809E+01 0.  1.
</event>
<event>
 5   0  0.4519539E-02  0.4998544E+03  0.7818609E-02  0.1013817E+00
       -2   -1    0    0    0  501  0.00000000000E+00  0.00000000000E+00  0.16197839879E+03  0.16197839881E+03  0.25500000920E-02 0.  1.
        2   -1    0    0  501    0  0.00000000000E+00  0.00000000000E+00 -0.38562925203E+03  0.38562925204E+03  0.25500000920E-02 0. -1.
    10030    2    1    2    0    0  0.00000000000E+00  0.00000000000E+00 -0.22365085325E+03  0.54760765085E+03  0.49985441391E+03 0.  0.
        4    1    3    3  502    0 -0.38179145995E+02 -0.20864896316E+03  0.32975691989E+02  0.21466496263E+03  0.12699999809E+01 0.  1.
       -4    1    3    3    0  502  0.38179145995E+02  0.20864896316E+03 -0.25662654524E+03  0.33294268822E+03  0.12699999809E+01 0. -1.
</event>
<event>
 5   0  0.4534223E-02  0.4993170E+03  0.7818609E-02  0.1013957E+00
        2   -1    0    0  501    0  0.00000000000E+00  0.00000000000E+00  0.28529704226E+04  0.28529704226E+04  0.25500000920E-02 0. -1.
       -2   -1    0    0    0  501  0.00000000000E+00  0.00000000000E+00 -0.21847183458E+02  0.21847183607E+02  0.25500000920E-02 0.  1.
    10030    2    1    2    0    0  0.00000000000E+00  0.00000000000E+00  0.28311232391E+04  0.28748176062E+04  0.49931700727E+03 0.  0.
        2    1    3    3  502    0  0.63814577512E+02  0.92634496793E+02  0.26987986643E+04  0.27011419217E+04  0.25500000920E-02 0. -1.
       -2    1    3    3    0  502 -0.63814577512E+02 -0.92634496793E+02  0.13232457479E+03  0.17367568454E+03  0.25500000920E-02 0.  1.
</event>
<event>
 5   0  0.4631619E-02  0.4970596E+03  0.7818609E-02  0.1014549E+00
        2   -1    0    0  501    0  0.00000000000E+00  0.00000000000E+00  0.12978399787E+03  0.12978399789E+03  0.25500000920E-02 0. -1.
       -2   -1    0    0    0  501  0.00000000000E+00  0.00000000000E+00 -0.47592193136E+03  0.47592193137E+03  0.25500000920E-02 0.  1.
    10030    2    1    2    0    0  0.00000000000E+00  0.00000000000E+00 -0.34613793350E+03  0.60570592926E+03  0.49705955754E+03 0.  0.
        5    1    3    3  502    0 -0.84707855843E+02 -0.39934075243E+02 -0.45354005452E+03  0.46313153883E+03  0.46999998093E+01 0.  1.
       -5    1    3    3    0  502  0.84707855843E+02  0.39934075243E+02  0.10740212103E+03  0.14257439043E+03  0.46999998093E+01 0. -1.
</event>
<event>
 5   0  0.4409622E-02  0.5007331E+03  0.7818609E-02  0.1013588E+00
       -2   -1    0    0    0  501  0.00000000000E+00  0.00000000000E+00  0.47760140027E+02  0.47760140095E+02  0.25500000920E-02 0. -1.
        2   -1    0    0  501    0  0.00000000000E+00  0.00000000000E+00 -0.13124630081E+04  0.13124630081E+04  0.25500000920E-02 0.  1.
    10030    2    1    2    0    0  0.00000000000E+00  0.00000000000E+00 -0.12647028681E+04  0.13602231482E+04  0.50073313090E+03 0.  0.
        3    1    3    3  502    0 -0.21273265491E+03 -0.22345000738E+02 -0.27890913032E+03  0.35148939486E+03  0.10100000352E+00 0. -1.
       -3    1    3    3    0  502  0.21273265491E+03  0.22345000738E+02 -0.98579373779E+03  0.10087337534E+04  0.10100000352E+00 0.  1.
</event>
<event>
 5   0  0.4451135E-02  0.4739166E+03  0.7818609E-02  0.1020821E+00
        2   -1    0    0  501    0  0.00000000000E+00  0.00000000000E+00  0.10797799723E+04  0.10797799723E+04  0.25500000920E-02 0. -1.
       -2   -1    0    0    0  501  0.00000000000E+00  0.00000000000E+00 -0.52000623300E+02  0.52000623362E+02  0.25500000920E-02 0.  1.
    10030    2    1    2    0    0  0.00000000000E+00  0.00000000000E+00  0.10277793490E+04  0.11317805957E+04  0.47391658179E+03 0.  0.
        1    1    3    3  502    0 -0.19717455064E+03 -0.12403148621E+03  0.61764668841E+03  0.66011290301E+03  0.50400001928E-02 0. -1.
       -1    1    3    3    0  502  0.19717455064E+03  0.12403148621E+03  0.41013266060E+03  0.47166769266E+03  0.50400001928E-02 0.  1.
</event>
<event>
 5   0  0.2779445E-02  0.5091853E+03  0.7818609E-02  0.1011409E+00
        1   -1    0    0  501    0  0.00000000000E+00  0.00000000000E+00  0.17665365940E+04  0.17665365940E+04  0.50400001928E-02 0.  1.
       -1   -1    0    0    0  501  0.00000000000E+00  0.00000000000E+00 -0.36691811690E+02  0.36691812036E+02  0.50400001928E-02 0. -1.
    10030    2    1    2    0    0  0.00000000000E+00  0.00000000000E+00  0.17298447823E+04  0.18032284060E+04  0.50918534295E+03 0.  0.
        3    1    3    3  502    0 -0.22206233920E+03 -0.66930219614E+02  0.49305727249E+03  0.54488239185E+03  0.10100000352E+00 0. -1.
       -3    1    3    3    0  502  0.22206233920E+03  0.66930219614E+02  0.12367875098E+04  0.12583460142E+04  0.10100000352E+00 0.  1.
</event>
<event>
 5   0  0.2643185E-02  0.4991287E+03  0.7818609E-02  0.1014007E+00
       -1   -1    0    0    0  501  0.00000000000E+00  0.00000000000E+00  0.45032316354E+03  0.45032316357E+03  0.50400001928E-02 0.  1.
        1   -1    0    0  501    0  0.00000000000E+00  0.00000000000E+00 -0.13830593520E+03  0.13830593530E+03  0.50400001928E-02 0. -1.
    10030    2    1    2    0    0  0.00000000000E+00  0.00000000000E+00  0.31201722834E+03  0.58862909887E+03  0.49912870610E+03 0.  0.
        1    1    3    3  502    0 -0.16997484588E+03 -0.15514279499E+03  0.26986965211E+03  0.35466937311E+03  0.50400001928E-02 0.  1.
       -1    1    3    3    0  502  0.16997484588E+03  0.15514279499E+03  0.42147576232E+02  0.23395972576E+03  0.50400001928E-02 0. -1.
</event>
<event>
 5   0  0.4631619E-02  0.5019265E+03  0.7818609E-02  0.1013277E+00
       -2   -1    0    0    0  501  0.00000000000E+00  0.00000000000E+00  0.21009445648E+03  0.21009445649E+03  0.25500000920E-02 0. -1.
        2   -1    0    0  501    0  0.00000000000E+00  0.00000000000E+00 -0.29978212851E+03  0.29978212852E+03  0.25500000920E-02 0.  1.
    10030    2    1    2    0    0  0.00000000000E+00  0.00000000000E+00 -0.89687672032E+02  0.50987658501E+03  0.50192654186E+03 0.  0.
        5    1    3    3  502    0 -0.15302924847E+03 -0.12621481485E+03  0.11125312502E+03  0.22748072050E+03  0.46999998093E+01 0. -1.
       -5    1    3    3    0  502  0.15302924847E+03  0.12621481485E+03 -0.20094079705E+03  0.28239586451E+03  0.46999998093E+01 0.  1.
</event>
<event>
 5   0  0.2719671E-02  0.4997206E+03  0.7818609E-02  0.1013852E+00
        1   -1    0    0  501    0  0.00000000000E+00  0.00000000000E+00  0.84925517920E+03  0.84925517922E+03  0.50400001928E-02 0. -1.
       -1   -1    0    0    0  501  0.00000000000E+00  0.00000000000E+00 -0.73511678950E+02  0.73511679122E+02  0.50400001928E-02 0.  1.
    10030    2    1    2    0    0  0.00000000000E+00  0.00000000000E+00  0.77574350025E+03  0.92276685834E+03  0.49972061861E+03 0.  0.
        2    1    3    3  502    0 -0.41902534013E+02 -0.20431023337E+03  0.64194520944E+03  0.67497566308E+03  0.25500000920E-02 0. -1.
       -2    1    3    3    0  502  0.41902534013E+02  0.20431023337E+03  0.13379829081E+03  0.24779119526E+03  0.25500000920E-02 0.  1.
</event>
<event>
 5   0  0.4451135E-02  0.4993936E+03  0.7818609E-02  0.1013937E+00
        2   -1    0    0  501    0  0.00000000000E+00  0.00000000000E+00  0.13831167412E+04  0.13831167412E+04  0.25500000920E-02 0.  1.
       -2   -1    0    0    0  501  0.00000000000E+00  0.00000000000E+00 -0.45078251666E+02  0.45078251738E+02  0.25500000920E-02 0. -1.
    10030    2    1    2    0    0  0.00000000000E+00  0.00000000000E+00  0.13380384895E+04  0.14281949929E+04  0.49939357062E+03 0.  0.
        1    1    3    3  502    0 -0.84104176827E+02  0.18428408130E+03  0.25149605701E+03  0.32293095531E+03  0.50400001928E-02 0. -1.
       -1    1    3    3    0  502  0.84104176827E+02 -0.18428408130E+03  0.10865424325E+04  0.11052640376E+04  0.50400001928E-02 0.  1.
</event>
<event>
 5   0  0.1805500E-02  0.5001787E+03  0.7818609E-02  0.1013732E+00
       -3   -1    0    0    0  501  0.00000000000E+00  0.00000000000E+00  0.11813933237E+04  0.11813933280E+04  0.10100000352E+00 0. -1.
        3   -1    0    0  501    0  0.00000000000E+00  0.00000000000E+00 -0.52941394482E+02  0.52941490824E+02  0.10100000352E+00 0.  1.
    10030    2    1    2    0    0  0.00000000000E+00  0.00000000000E+00  0.11284519292E+04  0.12343348188E+04  0.50017865653E+03 0.  0.
        3    1    3    3  502    0  0.93831747681E+02  0.22948833134E+03  0.64515175457E+03  0.69115127702E+03  0.10100000352E+00 0. -1.
       -3    1    3    3    0  502 -0.93831747681E+02 -0.22948833134E+03  0.48330017465E+03  0.54318354183E+03  0.10100000352E+00 0.  1.
</event>
<event>
 5   0  0.4409622E-02  0.5012484E+03  0.7818609E-02  0.1013454E+00
        2   -1    0    0  501    0  0.00000000000E+00  0.00000000000E+00  0.86357191317E+02  0.86357191354E+02  0.25500000920E-02 0. -1.
       -2   -1    0    0    0  501  0.00000000000E+00  0.00000000000E+00 -0.72735687934E+03  0.72735687934E+03  0.25500000920E-02 0.  1.
    10030    2    1    2    0    0  0.00000000000E+00  0.00000000000E+00 -0.64099968802E+03  0.81371407070E+03  0.50124843023E+03 0.  0.
        3    1    3    3  502    0  0.14084101639E+02 -0.24825603954E+02 -0.72470978518E+03  0.72527164254E+03  0.10100000352E+00 0.  1.
       -3    1    3    3    0  502 -0.14084101639E+02  0.24825603954E+02  0.83710097162E+02  0.88442428158E+02  0.10100000352E+00 0. -1.
</event>
<event>
 5   0  0.1805500E-02  0.5000805E+03  0.7818609E-02  0.1013758E+00
        3   -1    0    0  501    0  0.00000000000E+00  0.00000000000E+00  0.18286637636E+03  0.18286640425E+03  0.10100000352E+00 0.  1.
       -3   -1    0    0    0  501  0.00000000000E+00  0.00000000000E+00 -0.34188965471E+03  0.34188966963E+03  0.10100000352E+00 0. -1.
    10030    2    1    2    0    0  0.00000000000E+00  0.00000000000E+00 -0.15902327835E+03  0.52475607388E+03  0.50008052754E+03 0.  0.
        4    1    3    3  502    0  0.26059035271E+02 -0.10212911608E+03 -0.31743522260E+03  0.33447894271E+03  0.12699999809E+01 0. -1.
       -4    1    3    3    0  502 -0.26059035271E+02  0.10212911608E+03  0.15841194424E+03  0.19027713118E+03  0.12699999809E+01 0.  1.
</event>
<event>
 5   0  0.2643185E-02  0.5006896E+03  0.7818609E-02  0.1013599E+00
       -1   -1    0    0    0  501  0.00000000000E+00  0.00000000000E+00  0.68479849399E+02  0.68479849584E+02  0.50400001928E-02 0.  1.
        1   -1    0    0  501    0  0.00000000000E+00  0.00000000000E+00 -0.91519648836E+03  0.91519648838E+03  0.50400001928E-02 0. -1.
    10030    2    1    2    0    0  0.00000000000E+00  0.00000000000E+00 -0.84671663896E+03  0.98367633796E+03  0.50068959562E+03 0.  0.
        1    1    3    3  502    0  0.66740952563E+02  0.22619738477E+03 -0.25836448716E+03  0.34981683761E+03  0.50400001928E-02 0.  1.
       -1    1    3    3    0  502 -0.66740952563E+02 -0.22619738477E+03 -0.58835215180E+03  0.63385950035E+03  0.50400001928E-02 0. -1.
</event>
<event>
 5   0  0.4409622E-02  0.4946918E+03  0.7818609E-02  0.1015174E+00
        2   -1    0    0  501    0  0.00000000000E+00  0.00000000000E+00  0.35008688813E+03  0.35008688814E+03  0.25500000920E-02 0.  1.
       -2   -1    0    0    0  501  0.00000000000E+00  0.00000000000E+00 -0.17475657419E+03  0.17475657421E+03  0.25500000920E-02 0. -1.
    10030    2    1    2    0    0  0.00000000000E+00  0.00000000000E+00  0.17533031394E+03  0.52484346235E+03  0.49469176362E+03 0.  0.
        3    1    3    3  502    0 -0.28059209187E+01 -0.10492136570E+03  0.32528871732E+03  0.34180275890E+03  0.10100000352E+00 0.  1.
       -3    1    3    3    0  502  0.28059209187E+01  0.10492136570E+03 -0.14995840339E+03  0.18304070345E+03  0.10100000352E+00 0. -1.
</event>
<event>
 5   0  0.4451135E-02  0.5001533E+03  0.7818609E-02  0.1013739E+00
       -2   -1    0    0    0  501  0.00000000000E+00  0.00000000000E+00  0.48842355145E+02  0.48842355211E+02  0.25500000920E-02 0.  1.
        2   -1    0    0  501    0  0.00000000000E+00  0.00000000000E+00 -0.12804116690E+04  0.12804116690E+04  0.25500000920E-02 0. -1.
    10030    2    1    2    0    0  0.00000000000E+00  0.00000000000E+00 -0.12315693138E+04  0.13292540242E+04  0.50015326256E+03 0.  0.
        1    1    3    3  502    0  0.26035548476E+02 -0.24647625868E+03 -0.52724215010E+03  0.58259134970E+03  0.50400001928E-02 0.  1.
       -1    1    3    3    0  502 -0.26035548476E+02  0.24647625868E+03 -0.70432716372E+03  0.74666267448E+03  0.50400001928E-02 0. -1.
</event>
<event>
 5   0  0.2719671E-02  0.5017748E+03  0.7818609E-02  0.1013317E+00
        1   -1    0    0  501    0  0.00000000000E+00  0.00000000000E+00  0.17819416887E+04  0.17819416887E+04  0.50400001928E-02 0.  1.
       -1   -1    0    0    0  501  0.00000000000E+00  0.00000000000E+00 -0.35323532753E+02  0.35323533112E+02  0.50400001928E-02 0. -1.
    10030    2    1    2    0    0  0.00000000000E+00  0.00000000000E+00  0.17466181559E+04  0.18172652218E+04  0.50177475399E+03 0.  0.
        2    1    3    3  502    0 -0.32312782801E+02 -0.24683599025E+03  0.98624229293E+03  0.10171754924E+04  0.25500000920E-02 0.  1.
       -2    1    3    3    0  502  0.32312782801E+02  0.24683599025E+03  0.76037586298E+03  0.80008972936E+03  0.25500000920E-02 0. -1.
</event>
<event>
 5   0  0.4519539E-02  0.5004002E+03  0.7818609E-02  0.1013675E+00
       -2   -1    0    0    0  501  0.00000000000E+00  0.00000000000E+00  0.21880861444E+03  0.21880861445E+03  0.25500000920E-02 0. -1.
        2   -1    0    0  501    0  0.00000000000E+00  0.00000000000E+00 -0.28609515354E+03  0.28609515355E+03  0.25500000920E-02 0.  1.
    10030    2    1    2    0    0  0.00000000000E+00  0.00000000000E+00 -0.67286539099E+02  0.50490376801E+03  0.50040017646E+03 0.  0.
        4    1    3    3  502    0 -0.64613494898E+02 -0.33803377877E+02  0.20784501752E+03  0.22026968989E+03  0.12699999809E+01 0. -1.
       -4    1    3    3    0  502  0.64613494898E+02  0.33803377877E+02 -0.27513155661E+03  0.28463407811E+03  0.12699999809E+01 0.  1.
</event>
<event>
 5   0  0.4534223E-02  0.5064424E+03  0.7818609E-02  0.1012111E+00
       -2   -1    0    0    0  501  0.00000000000E+00  0.00000000000E+00  0.72304795425E+02  0.72304795470E+02  0.25500000920E-02 0. -1.
        2   -1    0    0  501    0  0.00000000000E+00  0.00000000000E+00 -0.88681499194E+03  0.88681499195E+03  0.25500000920E-02 0.  1.
    10030    2    1    2    0    0  0.00000000000E+00  0.00000000000E+00 -0.81451019652E+03  0.95911978742E+03  0.50644240184E+03 0.  0.
        2    1    3    3  502    0  0.21456915420E+03  0.12694185377E+03 -0.49124462712E+03  0.55088604979E+03  0.25500000920E-02 0. -1.
       -2    1    3    3    0  502 -0.21456915420E+03 -0.12694185377E+03 -0.32326556940E+03  0.40823373763E+03  0.25500000920E-02 0.  1.
</event>
<event>
 5   0  0.2779445E-02  0.5002663E+03  0.7818609E-02  0.1013709E+00
       -1   -1    0    0    0  501  0.00000000000E+00  0.00000000000E+00  0.76477689041E+03  0.76477689043E+03  0.50400001928E-02 0.  1.
        1   -1    0    0  501    0  0.00000000000E+00  0.00000000000E+00 -0.81810259841E+02  0.81810259996E+02  0.50400001928E-02 0. -1.
    10030    2    1    2    0    0  0.00000000000E+00  0.00000000000E+00  0.68296663057E+03  0.84658715043E+03  0.50026631387E+03 0.  0.
        3    1    3    3  502    0 -0.83122492053E+02 -0.63966359602E+02  0.72576546055E+03  0.73330522824E+03  0.10100000352E+00 0.  1.
       -3    1    3    3    0  502  0.83122492053E+02  0.63966359602E+02 -0.42798829972E+02  0.11328192218E+03  0.10100000352E+00 0. -1.
</event>
<event>
 5   0  0.2723308E-02  0.5001256E+03  0.7818609E-02  0.1013746E+00
        1   -1    0    0  501    0  0.00000000000E+00  0.00000000000E+00  0.43290684820E+03  0.43290684823E+03  0.50400001928E-02 0. -1.
       -1   -1    0    0    0  501  0.00000000000E+00  0.00000000000E+00 -0.14444539320E+03  0.14444539328E+03  0.50400001928E-02 0.  1.
    10030    2    1    2    0    0  0.00000000000E+00  0.00000000000E+00  0.28846145500E+03  0.57735224151E+03  0.50012558398E+03 0.  0.
        4    1    3    3  502    0  0.13200233177E+03  0.79169561429E+02  0.37173344589E+03  0.40234289200E+03  0.12699999809E+01 0. -1.
       -4    1    3    3    0  502 -0.13200233177E+03 -0.79169561429E+02 -0.83271990888E+02  0.17500934951E+03  0.12699999809E+01 0.  1.
</event>
<event>
 5   0  0.2715483E-02  0.4995612E+03  0.7818609E-02  0.1013894E+00
        1   -1    0    0  501    0  0.00000000000E+00  0.00000000000E+00  0.14274775097E+03  0.14274775106E+03  0.50400001928E-02 0.  1.
       -1   -1    0    0    0  501  0.00000000000E+00  0.00000000000E+00 -0.43706706023E+03  0.43706706026E+03  0.50400001928E-02 0. -1.
    10030    2    1    2    0    0  0.00000000000E+00  0.00000000000E+00 -0.29431930926E+03  0.57981481132E+03  0.49956116705E+03 0.  0.
        5    1    3    3  502    0  0.21520275291E+03 -0.10388023549E+03 -0.62943270084E+02  0.24715839745E+03  0.46999998093E+01 0.  1.
       -5    1    3    3    0  502 -0.21520275291E+03  0.10388023549E+03 -0.23137603918E+03  0.33265641387E+03  0.46999998093E+01 0. -1.
</event>
<event>
 5   0  0.2723308E-02  0.4985560E+03  0.7818609E-02  0.1014157E+00
       -1   -1    0    0    0  501  0.00000000000E+00  0.00000000000E+00  0.20099917387E+03  0.20099917393E+03  0.50400001928E-02 0.  1.
        1   -1    0    0  501    0  0.00000000000E+00  0.00000000000E+00 -0.30915308025E+03  0.30915308030E+03  0.50400001928E-02 0. -1.
    10030    2    1    2    0    0  0.00000000000E+00  0.00000000000E+00 -0.10815390639E+03  0.51015225423E+03  0.49855596980E+03 0.  0.
        4    1    3    3  502    0  0.11654238003E+03 -0.19961473020E+03 -0.14957364673E+03  0.27532173098E+03  0.12699999809E+01 0. -1.
       -4    1    3    3    0  502 -0.11654238003E+03  0.19961473020E+03  0.41419740343E+02  0.23483052324E+03  0.12699999809E+01 0.  1.
</event>
<event>
 5   0  0.2643185E-02  0.5053851E+03  0.7818609E-02  0.1012383E+00
        1   -1    0    0  501    0  0.00000000000E+00  0.00000000000E+00  0.45556014892E+03  0.45556014895E+03  0.50400001928E-02 0.  1.
       -1   -1    0    0    0  501  0.00000000000E+00  0.00000000000E+00 -0.14016483662E+03  0.14016483671E+03  0.50400001928E-02 0. -1.
    10030    2    1    2    0    0  0.00000000000E+00  0.00000000000E+00  0.31539531230E+03  0.59572498566E+03  0.50538505669E+03 0.  0.
        1    1    3    3  502    0  0.14846120138E+03 -0.15310012427E+03  0.31747495745E+03  0.38245355927E+03  0.50400001928E-02 0.  1.
       -1    1    3    3    0  502 -0.14846120138E+03  0.15310012427E+03 -0.20796451480E+01  0.21327142639E+03  0.50400001928E-02 0. -1.
</event>
<event>
 5   0  0.4631619E-02  0.4993504E+03  0.7818609E-02  0.1013949E+00
       -2   -1    0    0    0  501  0.00000000000E+00  0.00000000000E+00  0.34700219399E+03  0.34700219400E+03  0.25500000920E-02 0.  1.
        2   -1    0    0  501    0  0.00000000000E+00  0.00000000000E+00 -0.17964645595E+03  0.17964645597E+03  0.25500000920E-02 0. -1.
    10030    2    1    2    0    0  0.00000000000E+00  0.00000000000E+00  0.16735573804E+03  0.52664864997E+03  0.49935043553E+03 0.  0.
        5    1    3    3  502    0 -0.13053018683E+03 -0.62123685229E+02 -0.13096222547E+03  0.19511708392E+03  0.46999998093E+01 0. -1.
       -5    1    3    3    0  502  0.13053018683E+03  0.62123685229E+02  0.29831796351E+03  0.33153156605E+03  0.46999998093E+01 0.  1.
</event>
<event>
 5   0  0.2723308E-02  0.5000969E+03  0.7818609E-02  0.1013754E+00
        1   -1    0    0  501    0  0.00000000000E+00  0.00000000000E+00  0.55868112840E+03  0.55868112842E+03  0.50400001928E-02 0. -1.
       -1   -1    0    0    0  501  0.00000000000E+00  0.00000000000E+00 -0.11191396496E+03  0.11191396507E+03  0.50400001928E-02 0.  1.
    10030    2    1    2    0    0  0.00000000000E+00  0.00000000000E+00  0.44676716344E+03  0.67059509349E+03  0.50009687170E+03 0.  0.
        4    1    3    3  502    0  0.76666478899E+02  0.17320981043E+02 -0.94913983350E+02  0.12323977648E+03  0.12699999809E+01 0.  1.
       -4    1    3    3    0  502 -0.76666478899E+02 -0.17320981043E+02  0.54168114679E+03  0.54735531701E+03  0.12699999809E+01 0. -1.
</event>
<event>
 5   0  0.1805500E-02  0.5009359E+03  0.7818609E-02  0.1013535E+00
       -4   -1    0    0    0  501  0.00000000000E+00  0.00000000000E+00  0.17208491895E+03  0.17208960524E+03  0.12699999809E+01 0. -1.
        4   -1    0    0  501    0  0.00000000000E+00  0.00000000000E+00 -0.36454298002E+03  0.36454519224E+03  0.12699999809E+01 0.  1.
    10030    2    1    2    0    0  0.00000000000E+00  0.00000000000E+00 -0.19245806107E+03  0.53663479747E+03  0.50093592464E+03 0.  0.
        4    1    3    3  502    0  0.16825478294E+03  0.61540856576E+02 -0.28373284992E+03  0.33556354396E+03  0.12699999809E+01 0.  1.
       -4    1    3    3    0  502 -0.16825478294E+03 -0.61540856576E+02  0.91274788858E+02  0.20107125351E+03  0.12699999809E+01 0. -1.
</event>
<event>
 5   0  0.4409622E-02  0.5000903E+03  0.7818609E-02  0.1013755E+00
        2   -1    0    0  501    0  0.00000000000E+00  0.00000000000E+00  0.15397062193E+04  0.15397062193E+04  0.25500000920E-02 0.  1.
       -2   -1    0    0    0  501  0.00000000000E+00  0.00000000000E+00 -0.40606816950E+02  0.40606817030E+02  0.25500000920E-02 0. -1.
    10030    2    1    2    0    0  0.00000000000E+00  0.00000000000E+00  0.14990994024E+04  0.15803130364E+04  0.50009026653E+03 0.  0.
        3    1    3    3  502    0  0.22296756390E+03  0.10609525978E+03  0.62506517765E+03  0.67206936042E+03  0.10100000352E+00 0. -1.
       -3    1    3    3    0  502 -0.22296756390E+03 -0.10609525978E+03  0.87403422473E+03  0.90824367595E+03  0.10100000352E+00 0.  1.
</event>
<event>
 5   0  0.4409622E-02  0.4909467E+03  0.7818609E-02  0.1016169E+00
       -2   -1    0    0    0  501  0.00000000000E+00  0.00000000000E+00  0.14467733160E+03  0.14467733162E+03  0.25500000920E-02 0.  1.
        2   -1    0    0  501    0  0.00000000000E+00  0.00000000000E+00 -0.41649349102E+03  0.41649349103E+03  0.25500000920E-02 0. -1.
    10030    2    1    2    0    0  0.00000000000E+00  0.00000000000E+00 -0.27181615942E+03  0.56117082265E+03  0.49094670554E+03 0.  0.
        3    1    3    3  502    0  0.22928751577E+03  0.63832666179E+02 -0.20458348853E+03  0.31384994526E+03  0.10100000352E+00 0.  1.
       -3    1    3    3    0  502 -0.22928751577E+03 -0.63832666179E+02 -0.67232670888E+02  0.24732087739E+03  0.10100000352E+00 0. -1.
</event>
<event>
 5   0  0.2715483E-02  0.5009564E+03  0.7818609E-02  0.1013530E+00
        1   -1    0    0  501    0  0.00000000000E+00  0.00000000000E+00  0.42650355834E+03  0.42650355837E+03  0.50400001928E-02 0. -1.
       -1   -1    0    0    0  501  0.00000000000E+00  0.00000000000E+00 -0.14710151500E+03  0.14710151508E+03  0.50400001928E-02 0.  1.
    10030    2    1    2    0    0  0.00000000000E+00  0.00000000000E+00  0.27940204334E+03  0.57360507346E+03  0.50095636384E+03 0.  0.
        5    1    3    3  502    0 -0.19238321982E+03 -0.15672369820E+03  0.10097955267E+03  0.26794137587E+03  0.46999998093E+01 0.  1.
       -5    1    3    3    0  502  0.19238321982E+03  0.15672369820E+03  0.17842249068E+03  0.30566369759E+03  0.46999998093E+01 0. -1.
</event>
<event>
 5   0  0.4631619E-02  0.4986301E+03  0.7818609E-02  0.1014137E+00
       -2   -1    0    0    0  501  0.00000000000E+00  0.00000000000E+00  0.17443445888E+03  0.17443445890E+03  0.25500000920E-02 0. -1.
        2   -1    0    0  501    0  0.00000000000E+00  0.00000000000E+00 -0.35634017994E+03  0.35634017995E+03  0.25500000920E-02 0.  1.
    10030    2    1    2    0    0  0.00000000000E+00  0.00000000000E+00 -0.18190572106E+03  0.53077463885E+03  0.49863014940E+03 0.  0.
        5    1    3    3  502    0 -0.16934838759E+03  0.11207244286E+03  0.62923392230E+02  0.21265124527E+03  0.46999998093E+01 0. -1.
       -5    1    3    3    0  502  0.16934838759E+03 -0.11207244286E+03 -0.24482911329E+03  0.31812339357E+03  0.46999998093E+01 0.  1.
</event>
<event>
 5   0  0.4409622E-02  0.5037141E+03  0.7818609E-02  0.1012814E+00
       -2   -1    0    0    0  501  0.00000000000E+00  0.00000000000E+00  0.27423501014E+02  0.27423501133E+02  0.25500000920E-02 0. -1.
        2   -1    0    0  501    0  0.00000000000E+00  0.00000000000E+00 -0.23130518266E+04  0.23130518266E+04  0.25500000920E-02 0.  1.
    10030    2    1    2    0    0  0.00000000000E+00  0.00000000000E+00 -0.22856283256E+04  0.23404753277E+04  0.50371412231E+03 0.  0.
        3    1    3    3  502    0 -0.15338793583E+03  0.98763240717E+02 -0.19496090033E+04  0.19581259695E+04  0.10100000352E+00 0.  1.
       -3    1    3    3    0  502  0.15338793583E+03 -0.98763240717E+02 -0.33601932232E+03  0.38234935825E+03  0.10100000352E+00 0. -1.
</event>
<event>
 5   0  0.2643185E-02  0.4996956E+03  0.7818609E-02  0.1013858E+00
        1   -1    0    0  501    0  0.00000000000E+00  0.00000000000E+00  0.26161218816E+03  0.26161218821E+03  0.50400001928E-02 0.  1.
       -1   -1    0    0    0  501  0.00000000000E+00  0.00000000000E+00 -0.23861243980E+03  0.23861243985E+03  0.50400001928E-02 0. -1.
    10030    2    1    2    0    0  0.00000000000E+00  0.00000000000E+00  0.22999748367E+02  0.50022462806E+03  0.49969559744E+03 0.  0.
        1    1    3    3  502    0 -0.14154073813E+03  0.29264694590E+02  0.21551386913E+03  0.25949264096E+03  0.50400001928E-02 0.  1.
       -1    1    3    3    0  502  0.14154073813E+03 -0.29264694590E+02 -0.19251412076E+03  0.24073198711E+03  0.50400001928E-02 0. -1.
</event>
<event>
 5   0  0.2779445E-02  0.4998872E+03  0.7818609E-02  0.1013808E+00
        1   -1    0    0  501    0  0.00000000000E+00  0.00000000000E+00  0.20835342949E+03  0.20835342955E+03  0.50400001928E-02 0. -1.
       -1   -1    0    0    0  501  0.00000000000E+00  0.00000000000E+00 -0.29983569385E+03  0.29983569389E+03  0.50400001928E-02 0.  1.
    10030    2    1    2    0    0  0.00000000000E+00  0.00000000000E+00 -0.91482264363E+02  0.50818912344E+03  0.49988716776E+03 0.  0.
        3    1    3    3  502    0 -0.80840520802E+02 -0.63254826576E+02 -0.27741935330E+03  0.29580038991E+03  0.10100000352E+00 0.  1.
       -3    1    3    3    0  502  0.80840520802E+02  0.63254826576E+02  0.18593708893E+03  0.21238873353E+03  0.10100000352E+00 0. -1.
</event>
<event>
 5   0  0.2719671E-02  0.5006798E+03  0.7818609E-02  0.1013602E+00
       -1   -1    0    0    0  501  0.00000000000E+00  0.00000000000E+00  0.50028552799E+02  0.50028553053E+02  0.50400001928E-02 0.  1.
        1   -1    0    0  501    0  0.00000000000E+00  0.00000000000E+00 -0.12526859424E+04  0.12526859424E+04  0.50400001928E-02 0. -1.
    10030    2    1    2    0    0  0.00000000000E+00  0.00000000000E+00 -0.12026573896E+04  0.13027144955E+04  0.50067979780E+03 0.  0.
        2    1    3    3  502    0 -0.38807024605E+02  0.66050434838E+02 -0.12214387498E+04  0.12238387413E+04  0.25500000920E-02 0. -1.
       -2    1    3    3    0  502  0.38807024605E+02 -0.66050434838E+02  0.18781360210E+02  0.78875754188E+02  0.25500000920E-02 0.  1.
</event>
<event>
 5   0  0.1805500E-02  0.5009479E+03  0.7818609E-02  0.1013532E+00
       -3   -1    0    0    0  501  0.00000000000E+00  0.00000000000E+00  0.30608649826E+03  0.30608651492E+03  0.10100000352E+00 0. -1.
        3   -1    0    0  501    0  0.00000000000E+00  0.00000000000E+00 -0.20496551501E+03  0.20496553990E+03  0.10100000352E+00 0.  1.
    10030    2    1    2    0    0  0.00000000000E+00  0.00000000000E+00  0.10112098324E+03  0.51105205482E+03  0.50094785106E+03 0.  0.
        4    1    3    3  502    0 -0.16338399847E+03 -0.10405950967E+03 -0.11142782563E+03  0.22347368018E+03  0.12699999809E+01 0.  1.
       -4    1    3    3    0  502  0.16338399847E+03  0.10405950967E+03  0.21254880887E+03  0.28757837464E+03  0.12699999809E+01 0. -1.
</event>
<event>
 5   0  0.4451135E-02  0.5016127E+03  0.7818609E-02  0.1013359E+00
        2   -1    0    0  501    0  0.00000000000E+00  0.00000000000E+00  0.20583976764E+03  0.20583976765E+03  0.25500000920E-02 0.  1.
       -2   -1    0    0    0  501  0.00000000000E+00  0.00000000000E+00 -0.30559607266E+03  0.30559607267E+03  0.25500000920E-02 0. -1.
    10030    2    1    2    0    0  0.00000000000E+00  0.00000000000E+00 -0.99756305019E+02  0.51143584032E+03  0.50161269758E+03 0.  0.
        1    1    3    3  502    0 -0.20018155154E+03  0.11264404472E+03  0.52803993273E+02  0.23568961818E+03  0.50400001928E-02 0.  1.
       -1    1    3    3    0  502  0.20018155154E+03 -0.11264404472E+03 -0.15256029829E+03  0.27574622214E+03  0.50400001928E-02 0. -1.
</event>
<event>
 5   0  0.1805500E-02  0.5011209E+03  0.7818609E-02  0.1013487E+00
        4   -1    0    0  501    0  0.00000000000E+00  0.00000000000E+00  0.21238026229E+03  0.21238405946E+03  0.12699999809E+01 0. -1.
       -4   -1    0    0    0  501  0.00000000000E+00  0.00000000000E+00 -0.29559660430E+03  0.29559933250E+03  0.12699999809E+01 0.  1.
    10030    2    1    2    0    0  0.00000000000E+00  0.00000000000E+00 -0.83216342012E+02  0.50798339196E+03  0.50112091049E+03 0.  0.
        2    1    3    3  502    0  0.13036428235E+03 -0.18016085402E+03  0.75418703877E+02  0.23482069827E+03  0.25500000920E-02 0. -1.
       -2    1    3    3    0  502 -0.13036428235E+03  0.18016085402E+03 -0.15863504589E+03  0.27316269369E+03  0.25500000920E-02 0.  1.
</event>
<event>
 5   0  0.4534223E-02  0.5004298E+03  0.7818609E-02  0.1013667E+00
       -2   -1    0    0    0  501  0.00000000000E+00  0.00000000000E+00  0.87002319149E+02  0.87002319186E+02  0.25500000920E-02 0.  1.
        2   -1    0    0  501    0  0.00000000000E+00  0.00000000000E+00 -0.71960728271E+03  0.71960728271E+03  0.25500000920E-02 0. -1.
    10030    2    1    2    0    0  0.00000000000E+00  0.00000000000E+00 -0.63260496356E+03  0.80660960190E+03  0.50042982521E+03 0.  0.
        2    1    3    3  502    0 -0.31926754090E+02  0.48865070976E+02 -0.70847981131E+03  0.71088026828E+03  0.25500000920E-02 0. -1.
       -2    1    3    3    0  502  0.31926754090E+02 -0.48865070976E+02  0.75874847749E+02  0.95729333621E+02  0.25500000920E-02 0.  1.
</event>
<event>
 5   0  0.4409622E-02  0.5007785E+03  0.7818609E-02  0.1013576E+00
        2   -1    0    0  501    0  0.00000000000E+00  0.00000000000E+00  0.24381564834E+03  0.24381564835E+03  0.25500000920E-02 0. -1.
       -2   -1    0    0    0  501  0.00000000000E+00  0.00000000000E+00 -0.25714009915E+03  0.25714009917E+03  0.25500000920E-02 0.  1.
    10030    2    1    2    0    0  0.00000000000E+00  0.00000000000E+00 -0.13324450813E+02  0.50095574752E+03  0.50077851390E+03 0.  0.
        3    1    3    3  502    0  0.18933199217E+02 -0.24309425534E+03 -0.63616431711E+02  0.25199274513E+03  0.10100000352E+00 0.  1.
       -3    1    3    3    0  502 -0.18933199217E+02  0.24309425534E+03  0.50291980898E+02  0.24896300239E+03  0.10100000352E+00 0. -1.
</event>
<event>
 5   0  0.2719671E-02  0.5048760E+03  0.7818609E-02  0.1012514E+00
        1   -1    0    0  501    0  0.00000000000E+00  0.00000000000E+00  0.77457193248E+03  0.77457193249E+03  0.50400001928E-02 0. -1.
       -1   -1    0    0    0  501  0.00000000000E+00  0.00000000000E+00 -0.82271190458E+02  0.82271190613E+02  0.50400001928E-02 0.  1.
    10030    2    1    2    0    0  0.00000000000E+00  0.00000000000E+00  0.69230074202E+03  0.85684312310E+03  0.50487604440E+03 0.  0.
        2    1    3    3  502    0 -0.17836607505E+03  0.12745824697E+03  0.55856297137E+03  0.60004387709E+03  0.25500000920E-02 0. -1.
       -2    1    3    3    0  502  0.17836607505E+03 -0.12745824697E+03  0.13373777065E+03  0.25679924601E+03  0.25500000920E-02 0.  1.
</event>
<event>
 5   0  0.2643185E-02  0.5001232E+03  0.7818609E-02  0.1013747E+00
        1   -1    0    0  501    0  0.00000000000E+00  0.00000000000E+00  0.46843321444E+03  0.46843321446E+03  0.50400001928E-02 0.  1.
       -1   -1    0    0    0  501  0.00000000000E+00  0.00000000000E+00 -0.13348925980E+03  0.13348925990E+03  0.50400001928E-02 0. -1.
    10030    2    1    2    0    0  0.00000000000E+00  0.00000000000E+00  0.33494395463E+03  0.60192247436E+03  0.50012319722E+03 0.  0.
        1    1    3    3  502    0  0.71029558277E+02 -0.53793721612E+02 -0.11373586503E+03  0.14448117405E+03  0.50400001928E-02 0. -1.
       -1    1    3    3    0  502 -0.71029558277E+02  0.53793721612E+02  0.44867981966E+03  0.45744130031E+03  0.50400001928E-02 0.  1.
</event>
<event>
 5   0  0.4409622E-02  0.4912119E+03  0.7818609E-02  0.1016099E+00
       -2   -1    0    0    0  501  0.00000000000E+00  0.00000000000E+00  0.79401783644E+03  0.79401783644E+03  0.25500000920E-02 0.  1.
        2   -1    0    0  501    0  0.00000000000E+00  0.00000000000E+00 -0.75970955021E+02  0.75970955064E+02  0.25500000920E-02 0. -1.
    10030    2    1    2    0    0  0.00000000000E+00  0.00000000000E+00  0.71804688142E+03  0.86998879151E+03  0.49121194350E+03 0.  0.
        3    1    3    3  502    0 -0.14576429410E+02 -0.20534914193E+03  0.59625617134E+03  0.63079487510E+03  0.10100000352E+00 0.  1.
       -3    1    3    3    0  502  0.14576429410E+02  0.20534914193E+03  0.12179071007E+03  0.23919391641E+03  0.10100000352E+00 0. -1.
</event>
<event>
 5   0  0.4631619E-02  0.4999593E+03  0.7818609E-02  0.1013790E+00
       -2   -1    0    0    0  501  0.00000000000E+00  0.00000000000E+00  0.99780845434E+02  0.99780845467E+02  0.25500000920E-02 0. -1.
        2   -1    0    0  501    0  0.00000000000E+00  0.00000000000E+00 -0.62627086389E+03  0.62627086389E+03  0.25500000920E-02 0.  1.
    10030    2    1    2    0    0  0.00000000000E+00  0.00000000000E+00 -0.52649001845E+03  0.72605170936E+03  0.49995934348E+03 0.  0.
        5    1    3    3  502    0 -0.12157859427E+03  0.18641135584E+03 -0.98066714763E+02  0.24324826559E+03  0.46999998093E+01 0. -1.
       -5    1    3    3    0  502  0.12157859427E+03 -0.18641135584E+03 -0.42842330369E+03  0.48280344377E+03  0.46999998093E+01 0.  1.
</event>
<event>
 5   0  0.2779445E-02  0.4940513E+03  0.7818609E-02  0.1015343E+00
       -1   -1    0    0    0  501  0.00000000000E+00  0.00000000000E+00  0.12095728043E+03  0.12095728054E+03  0.50400001928E-02 0.  1.
        1   -1    0    0  501    0  0.00000000000E+00  0.00000000000E+00 -0.50448953526E+03  0.50448953529E+03  0.50400001928E-02 0. -1.
    10030    2    1    2    0    0  0.00000000000E+00  0.00000000000E+00 -0.38353225483E+03  0.62544681582E+03  0.49405134240E+03 0.  0.
        3    1    3    3  502    0 -0.57020387738E+02  0.14213528630E+03  0.53606891871E+02  0.16225742906E+03  0.10100000352E+00 0.  1.
       -3    1    3    3    0  502  0.57020387738E+02 -0.14213528630E+03 -0.43713914670E+03  0.46318938676E+03  0.10100000352E+00 0. -1.
</event>
<event>
 5   0  0.2719671E-02  0.4994033E+03  0.7818609E-02  0.1013935E+00
        1   -1    0    0  501    0  0.00000000000E+00  0.00000000000E+00  0.12364733247E+04  0.12364733247E+04  0.50400001928E-02 0. -1.
       -1   -1    0    0    0  501  0.00000000000E+00  0.00000000000E+00 -0.50426416284E+02  0.50426416536E+02  0.50400001928E-02 0.  1.
    10030    2    1    2    0    0  0.00000000000E+00  0.00000000000E+00  0.11860469084E+04  0.12868997412E+04  0.49940331902E+03 0.  0.
        2    1    3    3  502    0  0.35407351215E+02 -0.61152119390E+02 -0.24124066634E+02  0.74667481699E+02  0.25500000920E-02 0.  1.
       -2    1    3    3    0  502 -0.35407351215E+02  0.61152119390E+02  0.12101709750E+04  0.12122322595E+04  0.25500000920E-02 0. -1.
</event>
<event>
 5   0  0.2719671E-02  0.4950899E+03  0.7818609E-02  0.1015069E+00
        1   -1    0    0  501    0  0.00000000000E+00  0.00000000000E+00  0.90648536938E+03  0.90648536939E+03  0.50400001928E-02 0.  1.
       -1   -1    0    0    0  501  0.00000000000E+00  0.00000000000E+00 -0.67600114123E+02  0.67600114311E+02  0.50400001928E-02 0. -1.
    10030    2    1    2    0    0  0.00000000000E+00  0.00000000000E+00  0.83888525526E+03  0.97408548370E+03  0.49508994948E+03 0.  0.
        2    1    3    3  502    0  0.17751517651E+03 -0.56607432387E+02  0.74010443225E+03  0.76319762181E+03  0.25500000920E-02 0.  1.
       -2    1    3    3    0  502 -0.17751517651E+03  0.56607432387E+02  0.98780823004E+02  0.21088786189E+03  0.25500000920E-02 0. -1.
</event>
<event>
 5   0  0.1805500E-02  0.4947738E+03  0.7818609E-02  0.1015152E+00
       -3   -1    0    0    0  501  0.00000000000E+00  0.00000000000E+00  0.19421453956E+03  0.19421456582E+03  0.10100000352E+00 0. -1.
        3   -1    0    0  501    0  0.00000000000E+00  0.00000000000E+00 -0.31511683714E+03  0.31511685332E+03  0.10100000352E+00 0.  1.
    10030    2    1    2    0    0  0.00000000000E+00  0.00000000000E+00 -0.12090229757E+03  0.50933141915E+03  0.49477381597E+03 0.  0.
        5    1    3    3  502    0  0.15356564821E+03 -0.15969081453E+03  0.52760212150E+02  0.22779221791E+03  0.46999998093E+01 0. -1.
       -5    1    3    3    0  502 -0.15356564821E+03  0.15969081453E+03 -0.17366250972E+03  0.28153920124E+03  0.46999998093E+01 0.  1.
</event>
<event>
 5   0  0.4519539E-02  0.5000878E+03  0.7818609E-02  0.1013756E+00
        2   -1    0    0  501    0  0.00000000000E+00  0.00000000000E+00  0.12053592781E+03  0.12053592784E+03  0.25500000920E-02 0. -1.
       -2   -1    0    0    0  501  0.00000000000E+00  0.00000000000E+00 -0.51869963009E+03  0.51869963010E+03  0.25500000920E-02 0.  1.
    10030    2    1    2    0    0  0.00000000000E+00  0.00000000000E+00 -0.39816370229E+03  0.63923555794E+03  0.50008775701E+03 0.  0.
        4    1    3    3  502    0  0.24848470694E+03  0.24775788712E+02 -0.21534318928E+03  0.32974655625E+03  0.12699999809E+01 0. -1.
       -4    1    3    3    0  502 -0.24848470694E+03 -0.24775788712E+02 -0.18282051301E+03  0.30948900169E+03  0.12699999809E+01 0.  1.
</event>
<event>
 5   0  0.1805500E-02  0.5000069E+03  0.7818609E-02  0.1013777E+00
        3   -1    0    0  501    0  0.00000000000E+00  0.00000000000E+00  0.41763318332E+03  0.41763319553E+03  0.10100000352E+00 0. -1.
       -3   -1    0    0    0  501  0.00000000000E+00  0.00000000000E+00 -0.14965698342E+03  0.14965701751E+03  0.10100000352E+00 0.  1.
    10030    2    1    2    0    0  0.00000000000E+00  0.00000000000E+00  0.26797619989E+03  0.56729021303E+03  0.50000694205E+03 0.  0.
        1    1    3    3  502    0 -0.55651699479E+01 -0.11925360334E+03  0.38320354649E+03  0.40136934498E+03  0.50400001928E-02 0. -1.
       -1    1    3    3    0  502  0.55651699479E+01  0.11925360334E+03 -0.11522734660E+03  0.16592086805E+03  0.50400001928E-02 0.  1.
</event>
<event>
 5   0  0.2715483E-02  0.4990124E+03  0.7818609E-02  0.1014037E+00
       -1   -1    0    0    0  501  0.00000000000E+00  0.00000000000E+00  0.60579565342E+02  0.60579565552E+02  0.50400001928E-02 0. -1.
        1   -1    0    0  501    0  0.00000000000E+00  0.00000000000E+00 -0.10276292465E+04  0.10276292465E+04  0.50400001928E-02 0.  1.
    10030    2    1    2    0    0  0.00000000000E+00  0.00000000000E+00 -0.96704968119E+03  0.10882088121E+04  0.49901235740E+03 0.  0.
        5    1    3    3  502    0 -0.20155446787E+03  0.63205089614E+02 -0.77293062281E+03  0.80128829053E+03  0.46999998093E+01 0.  1.
       -5    1    3    3    0  502  0.20155446787E+03 -0.63205089614E+02 -0.19411905838E+03  0.28692052157E+03  0.46999998093E+01 0. -1.
</event>
<event>
 5   0  0.4631619E-02  0.5019571E+03  0.7818609E-02  0.1013269E+00
        2   -1    0    0  501    0  0.00000000000E+00  0.00000000000E+00  0.43636153680E+03  0.43636153680E+03  0.25500000920E-02 0.  1.
       -2   -1    0    0    0  501  0.00000000000E+00  0.00000000000E+00 -0.14435329716E+03  0.14435329718E+03  0.25500000920E-02 0. -1.
    10030    2    1    2    0    0  0.00000000000E+00  0.00000000000E+00  0.29200823964E+03  0.58071483399E+03  0.50195707625E+03 0.  0.
        5    1    3    3  502    0  0.35915849337E+02 -0.32737686205E+02 -0.13880618492E+03  0.14714262231E+03  0.46999998093E+01 0. -1.
       -5    1    3    3    0  502 -0.35915849337E+02  0.32737686205E+02  0.43081442455E+03  0.43357221167E+03  0.46999998093E+01 0.  1.
</event>
<event>
 5   0  0.2719671E-02  0.5021358E+03  0.7818609E-02  0.1013223E+00
        1   -1    0    0  501    0  0.00000000000E+00  0.00000000000E+00  0.40000692888E+03  0.40000692891E+03  0.50400001928E-02 0.  1.
       -1   -1    0    0    0  501  0.00000000000E+00  0.00000000000E+00 -0.15758499320E+03  0.15758499328E+03  0.50400001928E-02 0. -1.
    10030    2    1    2    0    0  0.00000000000E+00  0.00000000000E+00  0.24242193568E+03  0.55759192218E+03  0.50213579516E+03 0.  0.
        2    1    3    3  502    0 -0.21848588387E+03  0.40150996081E+02 -0.87006294179E+01  0.22231483283E+03  0.25500000920E-02 0. -1.
       -2    1    3    3    0  502  0.21848588387E+03 -0.40150996081E+02  0.25112256510E+03  0.33527708935E+03  0.25500000920E-02 0.  1.
</event>
<event>
 5   0  0.1805500E-02  0.5011090E+03  0.7818609E-02  0.1013490E+00
       -3   -1    0    0    0  501  0.00000000000E+00  0.00000000000E+00  0.11363874527E+03  0.11363879015E+03  0.10100000352E+00 0. -1.
        3   -1    0    0  501    0  0.00000000000E+00  0.00000000000E+00 -0.55243071647E+03  0.55243072570E+03  0.10100000352E+00 0.  1.
    10030    2    1    2    0    0  0.00000000000E+00  0.00000000000E+00 -0.43879197120E+03  0.66606951585E+03  0.50110897612E+03 0.  0.
        3    1    3    3  502    0  0.14746831356E+03 -0.20255982599E+03 -0.21887322214E+03  0.33269037283E+03  0.10100000352E+00 0.  1.
       -3    1    3    3    0  502 -0.14746831356E+03  0.20255982599E+03 -0.21991874906E+03  0.33337914301E+03  0.10100000352E+00 0. -1.
</event>
<event>
 5   0  0.1805500E-02  0.5017369E+03  0.7818609E-02  0.1013327E+00
       -3   -1    0    0    0  501  0.00000000000E+00  0.00000000000E+00  0.23014777318E+03  0.23014779534E+03  0.10100000352E+00 0.  1.
        3   -1    0    0  501    0  0.00000000000E+00  0.00000000000E+00 -0.27345463396E+03  0.27345465262E+03  0.10100000352E+00 0. -1.
    10030    2    1    2    0    0  0.00000000000E+00  0.00000000000E+00 -0.43306860785E+02  0.50360244796E+03  0.50173692449E+03 0.  0.
        1    1    3    3  502    0  0.62425992382E+02 -0.87936586776E+02 -0.24900198479E+03  0.27135186801E+03  0.50400001928E-02 0. -1.
       -1    1    3    3    0  502 -0.62425992382E+02  0.87936586776E+02  0.20569512401E+03  0.23225057994E+03  0.50400001928E-02 0.  1.
</event>
<event>
 5   0  0.4451135E-02  0.4996183E+03  0.7818609E-02  0.1013879E+00
       -2   -1    0    0    0  501  0.00000000000E+00  0.00000000000E+00  0.15399018459E+03  0.15399018461E+03  0.25500000920E-02 0. -1.
        2   -1    0    0  501    0  0.00000000000E+00  0.00000000000E+00 -0.40525055178E+03  0.40525055179E+03  0.25500000920E-02 0.  1.
    10030    2    1    2    0    0  0.00000000000E+00  0.00000000000E+00 -0.25126036719E+03  0.55924073639E+03  0.49961828341E+03 0.  0.
        1    1    3    3  502    0 -0.10940331540E+03  0.17043693171E+03 -0.28932431791E+03  0.35316624141E+03  0.50400001928E-02 0.  1.
       -1    1    3    3    0  502  0.10940331540E+03 -0.17043693171E+03  0.38063950720E+02  0.20607449498E+03  0.50400001928E-02 0. -1.
</event>
<event>
 5   0  0.2779445E-02  0.5019842E+03  0.7818609E-02  0.1013262E+00
       -1   -1    0    0    0  501  0.00000000000E+00  0.00000000000E+00  0.62594847723E+03  0.62594847725E+03  0.50400001928E-02 0.  1.
        1   -1    0    0  501    0  0.00000000000E+00  0.00000000000E+00 -0.10064253504E+03  0.10064253517E+03  0.50400001928E-02 0. -1.
    10030    2    1    2    0    0  0.00000000000E+00  0.00000000000E+00  0.52530594219E+03  0.72659101242E+03  0.50198422926E+03 0.  0.
        3    1    3    3  502    0 -0.18457564226E+03  0.17006498059E+03  0.25888794401E+03  0.36057349195E+03  0.10100000352E+00 0. -1.
       -3    1    3    3    0  502  0.18457564226E+03 -0.17006498059E+03  0.26641799818E+03  0.36601752047E+03  0.10100000352E+00 0.  1.
</event>
<event>
 5   0  0.1805500E-02  0.4982740E+03  0.7818609E-02  0.1014230E+00
       -4   -1    0    0    0  501  0.00000000000E+00  0.00000000000E+00  0.27728361817E+03  0.27728652655E+03  0.12699999809E+01 0. -1.
        4   -1    0    0  501    0  0.00000000000E+00  0.00000000000E+00 -0.22384162043E+03  0.22384522317E+03  0.12699999809E+01 0.  1.
    10030    2    1    2    0    0  0.00000000000E+00  0.00000000000E+00  0.53441997742E+02  0.50113174972E+03  0.49827400440E+03 0.  0.
        1    1    3    3  502    0 -0.10529858120E+03 -0.22497877331E+03  0.45962010753E+02  0.25261778659E+03  0.50400001928E-02 0. -1.
       -1    1    3    3    0  502  0.10529858120E+03  0.22497877331E+03  0.74799869892E+01  0.24851396314E+03  0.50400001928E-02 0.  1.
</event>
<event>
 5   0  0.4534223E-02  0.4974221E+03  0.7818609E-02  0.1014454E+00
       -2   -1    0    0    0  501  0.00000000000E+00  0.00000000000E+00  0.38917886170E+02  0.38917886253E+02  0.25500000920E-02 0. -1.
        2   -1    0    0  501    0  0.00000000000E+00  0.00000000000E+00 -0.15894285108E+04  0.15894285108E+04  0.25500000920E-02 0.  1.
    10030    2    1    2    0    0  0.00000000000E+00  0.00000000000E+00 -0.15505106246E+04  0.16283463970E+04  0.49742214638E+03 0.  0.
        2    1    3    3  502    0 -0.98688974549E+02 -0.12897612768E+03 -0.13918941629E+04  0.14013364035E+04  0.25500000920E-02 0.  1.
       -2    1    3    3    0  502  0.98688974549E+02  0.12897612768E+03 -0.15861646172E+03  0.22700999349E+03  0.25500000920E-02 0. -1.
</event>
<event>
 5   0  0.4534223E-02  0.4925803E+03  0.7818609E-02  0.1015734E+00
        2   -1    0    0  501    0  0.00000000000E+00  0.00000000000E+00  0.75409786392E+03  0.75409786393E+03  0.25500000920E-02 0.  1.
       -2   -1    0    0    0  501  0.00000000000E+00  0.00000000000E+00 -0.80438939240E+02  0.80438939280E+02  0.25500000920E-02 0. -1.
    10030    2    1    2    0    0  0.00000000000E+00  0.00000000000E+00  0.67365892468E+03  0.83453680321E+03  0.49258027681E+03 0.  0.
        2    1    3    3  502    0  0.12207134268E+03  0.15940036303E+03  0.57850873874E+03  0.61235794209E+03  0.25500000920E-02 0.  1.
       -2    1    3    3    0  502 -0.12207134268E+03 -0.15940036303E+03  0.95150185947E+02  0.22217886112E+03  0.25500000920E-02 0. -1.
</event>
<event>
 5   0  0.4519539E-02  0.4938281E+03  0.7818609E-02  0.1015403E+00
        2   -1    0    0  501    0  0.00000000000E+00  0.00000000000E+00  0.51449627286E+03  0.51449627286E+03  0.25500000920E-02 0. -1.
       -2   -1    0    0    0  501  0.00000000000E+00  0.00000000000E+00 -0.11849755084E+03  0.11849755087E+03  0.25500000920E-02 0.  1.
    10030    2    1    2    0    0  0.00000000000E+00  0.00000000000E+00  0.39599872202E+03  0.63299382373E+03  0.49382810070E+03 0.  0.
        4    1    3    3  502    0 -0.13543886178E+03  0.20297220713E+03  0.24636171985E+03  0.34675223439E+03  0.12699999809E+01 0. -1.
       -4    1    3    3    0  502  0.13543886178E+03 -0.20297220713E+03  0.14963700217E+03  0.28624158934E+03  0.12699999809E+01 0.  1.
</event>
<event>
 5   0  0.4534223E-02  0.5002123E+03  0.7818609E-02  0.1013724E+00
        2   -1    0    0  501    0  0.00000000000E+00  0.00000000000E+00  0.18665537880E+03  0.18665537882E+03  0.25500000920E-02 0. -1.
       -2   -1    0    0    0  501  0.00000000000E+00  0.00000000000E+00 -0.33512613145E+03  0.33512613146E+03  0.25500000920E-02 0.  1.
    10030    2    1    2    0    0  0.00000000000E+00  0.00000000000E+00 -0.14847075265E+03  0.52178151028E+03  0.50021233499E+03 0.  0.
        2    1    3    3  502    0  0.14508912952E+03  0.20225900391E+02  0.13722013948E+03  0.20072196999E+03  0.25500000920E-02 0. -1.
       -2    1    3    3    0  502 -0.14508912952E+03 -0.20225900391E+02 -0.28569089214E+03  0.32105954028E+03  0.25500000920E-02 0.  1.
</event>
<event>
 5   0  0.4534223E-02  0.4999842E+03  0.7818609E-02  0.1013783E+00
        2   -1    0    0  501    0  0.00000000000E+00  0.00000000000E+00  0.23305937972E+04  0.23305937972E+04  0.25500000920E-02 0. -1.
       -2   -1    0    0    0  501  0.00000000000E+00  0.00000000000E+00 -0.26815500684E+02  0.26815500806E+02  0.25500000920E-02 0.  1.
    10030    2    1    2    0    0  0.00000000000E+00  0.00000000000E+00  0.23037782965E+04  0.23574092980E+04  0.49998415858E+03 0.  0.
        2    1    3    3  502    0 -0.14047297393E+03 -0.18962159280E+03  0.76288186323E+03  0.79854726980E+03  0.25500000920E-02 0.  1.
       -2    1    3    3    0  502  0.14047297393E+03  0.18962159280E+03  0.15408964333E+04  0.15588620282E+04  0.25500000920E-02 0. -1.
</event>
<event>
 5   0  0.4409622E-02  0.4986001E+03  0.7818609E-02  0.1014145E+00
       -2   -1    0    0    0  501  0.00000000000E+00  0.00000000000E+00  0.19782013289E+03  0.19782013291E+03  0.25500000920E-02 0.  1.
        2   -1    0    0  501    0  0.00000000000E+00  0.00000000000E+00 -0.31417691309E+03  0.31417691310E+03  0.25500000920E-02 0. -1.
    10030    2    1    2    0    0  0.00000000000E+00  0.00000000000E+00 -0.11635678020E+03  0.51199704601E+03  0.49860011514E+03 0.  0.
        3    1    3    3  502    0  0.23064402677E+03 -0.70839089737E+02  0.62421158266E+01  0.24135827711E+03  0.10100000352E+00 0. -1.
       -3    1    3    3    0  502 -0.23064402677E+03  0.70839089737E+02 -0.12259889603E+03  0.27063876889E+03  0.10100000352E+00 0.  1.
</event>
<event>
 5   0  0.2719671E-02  0.5010176E+03  0.7818609E-02  0.1013514E+00
       -1   -1    0    0    0  501  0.00000000000E+00  0.00000000000E+00  0.25049576739E+03  0.25049576744E+03  0.50400001928E-02 0.  1.
        1   -1    0    0  501    0  0.00000000000E+00  0.00000000000E+00 -0.25052184182E+03  0.25052184187E+03  0.50400001928E-02 0. -1.
    10030    2    1    2    0    0  0.00000000000E+00  0.00000000000E+00 -0.26074434158E-01  0.50101760931E+03  0.50101760863E+03 0.  0.
        2    1    3    3  502    0  0.34450750193E+02  0.24770556357E+03  0.14470077911E+02  0.25050805091E+03  0.25500000920E-02 0.  1.
       -2    1    3    3    0  502 -0.34450750193E+02 -0.24770556357E+03 -0.14496152345E+02  0.25050955840E+03  0.25500000920E-02 0. -1.
</event>
<event>
 5   0  0.2643185E-02  0.5021461E+03  0.7818609E-02  0.1013220E+00
       -1   -1    0    0    0  501  0.00000000000E+00  0.00000000000E+00  0.19145605436E+03  0.19145605442E+03  0.50400001928E-02 0.  1.
        1   -1    0    0  501    0  0.00000000000E+00  0.00000000000E+00 -0.32925406569E+03  0.32925406573E+03  0.50400001928E-02 0. -1.
    10030    2    1    2    0    0  0.00000000000E+00  0.00000000000E+00 -0.13779801133E+03  0.52071012015E+03  0.50214613142E+03 0.  0.
        1    1    3    3  502    0  0.78993653680E+02 -0.51497430200E+02  0.17239575400E+03  0.19650007293E+03  0.50400001928E-02 0.  1.
       -1    1    3    3    0  502 -0.78993653680E+02  0.51497430200E+02 -0.31019376533E+03  0.32421004722E+03  0.50400001928E-02 0. -1.
</event>
<event>
 5   0  0.2779445E-02  0.5003014E+03  0.7818609E-02  0.1013700E+00
       -1   -1    0    0    0  501  0.00000000000E+00  0.00000000000E+00  0.51472420129E+03  0.51472420131E+03  0.50400001928E-02 0.  1.
        1   -1    0    0  501    0  0.00000000000E+00  0.00000000000E+00 -0.12157067305E+03  0.12157067315E+03  0.50400001928E-02 0. -1.
    10030    2    1    2    0    0  0.00000000000E+00  0.00000000000E+00  0.39315352824E+03  0.63629487447E+03  0.50030137968E+03 0.  0.
        3    1    3    3  502    0  0.56268442394E+02 -0.15460094655E+03  0.43623281903E+03  0.46622598907E+03  0.10100000352E+00 0.  1.
       -3    1    3    3    0  502 -0.56268442394E+02  0.15460094655E+03 -0.43079290789E+02  0.17006888540E+03  0.10100000352E+00 0. -1.
</event>
<event>
 5   0  0.1805500E-02  0.4980436E+03  0.7818609E-02  0.1014291E+00
        3   -1    0    0  501    0  0.00000000000E+00  0.00000000000E+00  0.10955013964E+04  0.10955014010E+04  0.10100000352E+00 0. -1.
       -3   -1    0    0    0  501  0.00000000000E+00  0.00000000000E+00 -0.56605874462E+02  0.56605964568E+02  0.10100000352E+00 0.  1.
    10030    2    1    2    0    0  0.00000000000E+00  0.00000000000E+00  0.10388955219E+04  0.11521073656E+04  0.49804364911E+03 0.  0.
        4    1    3    3  502    0  0.12074760187E+03  0.17790617679E+03  0.22886192770E+03  0.31402226983E+03  0.12699999809E+01 0.  1.
       -4    1    3    3    0  502 -0.12074760187E+03 -0.17790617679E+03  0.81003359423E+03  0.83808509579E+03  0.12699999809E+01 0. -1.
</event>
<event>
 5   0  0.2719671E-02  0.5013374E+03  0.7818609E-02  0.1013430E+00
        1   -1    0    0  501    0  0.00000000000E+00  0.00000000000E+00  0.58787239643E+03  0.58787239645E+03  0.50400001928E-02 0.  1.
       -1   -1    0    0    0  501  0.00000000000E+00  0.00000000000E+00 -0.10688507696E+03  0.10688507708E+03  0.50400001928E-02 0. -1.
    10030    2    1    2    0    0  0.00000000000E+00  0.00000000000E+00  0.48098731947E+03  0.69475747353E+03  0.50133735701E+03 0.  0.
        2    1    3    3  502    0  0.18302665829E+03  0.16063375826E+03  0.32286273459E+03  0.40440364406E+03  0.25500000920E-02 0.  1.
       -2    1    3    3    0  502 -0.18302665829E+03 -0.16063375826E+03  0.15812458488E+03  0.29035382947E+03  0.25500000920E-02 0. -1.
</event>
<event>
 5   0  0.2643185E-02  0.5088755E+03  0.7818609E-02  0.1011488E+00
       -1   -1    0    0    0  501  0.00000000000E+00  0.00000000000E+00  0.12993573812E+03  0.12993573821E+03  0.50400001928E-02 0.  1.
        1   -1    0    0  501    0  0.00000000000E+00  0.00000000000E+00 -0.49823523837E+03  0.49823523840E+03  0.50400001928E-02 0. -1.
    10030    2    1    2    0    0  0.00000000000E+00  0.00000000000E+00 -0.36829950025E+03  0.62817097661E+03  0.50887547982E+03 0.  0.
        1    1    3    3  502    0 -0.67231362706E+02  0.24467344525E+02 -0.48556262875E+03  0.49080522975E+03  0.50400001928E-02 0. -1.
       -1    1    3    3    0  502  0.67231362706E+02 -0.24467344525E+02  0.11726312850E+03  0.13736574686E+03  0.50400001928E-02 0.  1.
</event>
<event>
 5   0  0.4519539E-02  0.4968781E+03  0.7818609E-02  0.1014597E+00
       -2   -1    0    0    0  501  0.00000000000E+00  0.00000000000E+00  0.69809456681E+03  0.69809456682E+03  0.25500000920E-02 0. -1.
        2   -1    0    0  501    0  0.00000000000E+00  0.00000000000E+00 -0.88414884810E+02  0.88414884847E+02  0.25500000920E-02 0.  1.
    10030    2    1    2    0    0  0.00000000000E+00  0.00000000000E+00  0.60967968200E+03  0.78650945167E+03  0.49687805638E+03 0.  0.
        4    1    3    3  502    0  0.12457239028E+03 -0.12652842864E+02  0.64448939154E+03  0.65654136470E+03  0.12699999809E+01 0. -1.
       -4    1    3    3    0  502 -0.12457239028E+03  0.12652842864E+02 -0.34809709539E+02  0.12996808697E+03  0.12699999809E+01 0.  1.
</event>
<event>
 5   0  0.4519539E-02  0.5049119E+03  0.7818609E-02  0.1012505E+00
       -2   -1    0    0    0  501  0.00000000000E+00  0.00000000000E+00  0.12775887328E+03  0.12775887331E+03  0.25500000920E-02 0.  1.
        2   -1    0    0  501    0  0.00000000000E+00  0.00000000000E+00 -0.49886170283E+03  0.49886170283E+03  0.25500000920E-02 0. -1.
    10030    2    1    2    0    0  0.00000000000E+00  0.00000000000E+00 -0.37110282954E+03  0.62662057614E+03  0.50491190950E+03 0.  0.
        4    1    3    3  502    0 -0.17926477871E+03  0.17531283155E+03 -0.22198728668E+03  0.33488866529E+03  0.12699999809E+01 0.  1.
       -4    1    3    3    0  502  0.17926477871E+03 -0.17531283155E+03 -0.14911554286E+03  0.29173191086E+03  0.12699999809E+01 0. -1.
</event>
<event>
 5   0  0.4534223E-02  0.4994862E+03  0.7818609E-02  0.1013913E+00
       -2   -1    0    0    0  501  0.00000000000E+00  0.00000000000E+00  0.34596755057E+02  0.34596755151E+02  0.25500000920E-02 0. -1.
        2   -1    0    0  501    0  0.00000000000E+00  0.00000000000E+00 -0.18028167056E+04  0.18028167056E+04  0.25500000920E-02 0.  1.
    10030    2    1    2    0    0  0.00000000000E+00  0.00000000000E+00 -0.17682199505E+04  0.18374134607E+04  0.49948616823E+03 0.  0.
        2    1    3    3  502    0  0.14453074115E+03 -0.61373089787E+02 -0.16970382285E+03  0.23120376031E+03  0.25500000920E-02 0. -1.
       -2    1    3    3    0  502 -0.14453074115E+03  0.61373089787E+02 -0.15985161277E+04  0.16062097004E+04  0.25500000920E-02 0.  1.
</event>
<event>
 5   0  0.2715483E-02  0.4998344E+03  0.7818609E-02  0.1013822E+00
        1   -1    0    0  501    0  0.00000000000E+00  0.00000000000E+00  0.75633031051E+03  0.75633031053E+03  0.50400001928E-02 0.  1.
       -1   -1    0    0    0  501  0.00000000000E+00  0.00000000000E+00 -0.82581139691E+02  0.82581139845E+02  0.50400001928E-02 0. -1.
    10030    2    1    2    0    0  0.00000000000E+00  0.00000000000E+00  0.67374917082E+03  0.83891145037E+03  0.49983444898E+03 0.  0.
        5    1    3    3  502    0 -0.84889562537E+02 -0.17084934564E+03  0.66031947636E+02  0.20193574433E+03  0.46999998093E+01 0. -1.
       -5    1    3    3    0  502  0.84889562537E+02  0.17084934564E+03  0.60771722318E+03  0.63697570604E+03  0.46999998093E+01 0.  1.
</event>
<event>
 5   0  0.2723308E-02  0.4921708E+03  0.7818609E-02  0.1015843E+00
        1   -1    0    0  501    0  0.00000000000E+00  0.00000000000E+00  0.25693232642E+03  0.25693232647E+03  0.50400001928E-02 0.  1.
       -1   -1    0    0    0  501  0.00000000000E+00  0.00000000000E+00 -0.23569640918E+03  0.23569640924E+03  0.50400001928E-02 0. -1.
    10030    2    1    2    0    0  0.00000000000E+00  0.00000000000E+00  0.21235917231E+02  0.49262873570E+03  0.49217081086E+03 0.  0.
        4    1    3    3  502    0 -0.29066361222E+02 -0.21221147840E+03 -0.11064693630E+03  0.24108696010E+03  0.12699999809E+01 0. -1.
       -4    1    3    3    0  502  0.29066361222E+02  0.21221147840E+03  0.13188285353E+03  0.25154177560E+03  0.12699999809E+01 0.  1.
</event>
<event>
 5   0  0.2779445E-02  0.4990803E+03  0.7818609E-02  0.1014019E+00
       -1   -1    0    0    0  501  0.00000000000E+00  0.00000000000E+00  0.13175302094E+03  0.13175302104E+03  0.50400001928E-02 0.  1.
        1   -1    0    0  501    0  0.00000000000E+00  0.00000000000E+00 -0.47262888535E+03  0.47262888537E+03  0.50400001928E-02 0. -1.
    10030    2    1    2    0    0  0.00000000000E+00  0.00000000000E+00 -0.34087586441E+03  0.60438190641E+03  0.49908028799E+03 0.  0.
        3    1    3    3  502    0  0.70404910864E+02  0.23242980983E+03 -0.10097931471E+03  0.26301577932E+03  0.10100000352E+00 0. -1.
       -3    1    3    3    0  502 -0.70404910864E+02 -0.23242980983E+03 -0.23989654970E+03  0.34136612709E+03  0.10100000352E+00 0.  1.
</event>
<event>
 5   0  0.1805500E-02  0.4986518E+03  0.7818609E-02  0.1014131E+00
       -3   -1    0    0    0  501  0.00000000000E+00  0.00000000000E+00  0.39221314014E+03  0.39221315315E+03  0.10100000352E+00 0.  1.
        3   -1    0    0  501    0  0.00000000000E+00  0.00000000000E+00 -0.15849390010E+03  0.15849393228E+03  0.10100000352E+00 0. -1.
    10030    2    1    2    0    0  0.00000000000E+00  0.00000000000E+00  0.23371924004E+03  0.55070708542E+03  0.49865179311E+03 0.  0.
        2    1    3    3  502    0 -0.47103122106E+02  0.78599825353E+02  0.37294231802E+03  0.38403464588E+03  0.25500000920E-02 0.  1.
       -2    1    3    3    0  502  0.47103122106E+02 -0.78599825353E+02 -0.13922307798E+03  0.16667243955E+03  0.25500000920E-02 0. -1.
</event>
<event>
 5   0  0.2723308E-02  0.5003693E+03  0.7818609E-02  0.1013683E+00
       -1   -1    0    0    0  501  0.00000000000E+00  0.00000000000E+00  0.17013078675E+03  0.17013078683E+03  0.50400001928E-02 0.  1.
        1   -1    0    0  501    0  0.00000000000E+00  0.00000000000E+00 -0.36790727649E+03  0.36790727653E+03  0.50400001928E-02 0. -1.
    10030    2    1    2    0    0  0.00000000000E+00  0.00000000000E+00 -0.19777648974E+03  0.53803806335E+03  0.50036928135E+03 0.  0.
        4    1    3    3  502    0 -0.17391832756E+03 -0.30469992351E+02  0.91696910854E+02  0.19896216086E+03  0.12699999809E+01 0.  1.
       -4    1    3    3    0  502  0.17391832756E+03  0.30469992351E+02 -0.28947340060E+03  0.33907590249E+03  0.12699999809E+01 0. -1.
</event>
<event>
 5   0  0.2719671E-02  0.5140809E+03  0.7818609E-02  0.1010168E+00
       -1   -1    0    0    0  501  0.00000000000E+00  0.00000000000E+00  0.19587422265E+03  0.19587422272E+03  0.50400001928E-02 0. -1.
        1   -1    0    0  501    0  0.00000000000E+00  0.00000000000E+00 -0.33730725678E+03  0.33730725681E+03  0.50400001928E-02 0.  1.
    10030    2    1    2    0    0  0.00000000000E+00  0.00000000000E+00 -0.14143303412E+03  0.53318147953E+03  0.51408091481E+03 0.  0.
        2    1    3    3  502    0 -0.20785260005E+03 -0.14425242688E+03 -0.23662018124E+02  0.25410894734E+03  0.25500000920E-02 0. -1.
       -2    1    3    3    0  502  0.20785260005E+03  0.14425242688E+03 -0.11777101600E+03  0.27907253219E+03  0.25500000920E-02 0.  1.
</event>
<event>
 5   0  0.4451135E-02  0.5004440E+03  0.7818609E-02  0.1013663E+00
        2   -1    0    0  501    0  0.00000000000E+00  0.00000000000E+00  0.24116381589E+03  0.24116381591E+03  0.25500000920E-02 0. -1.
       -2   -1    0    0    0  501  0.00000000000E+00  0.00000000000E+00 -0.25962039298E+03  0.25962039299E+03  0.25500000920E-02 0.  1.
    10030    2    1    2    0    0  0.00000000000E+00  0.00000000000E+00 -0.18456577090E+02  0.50078420890E+03  0.50044398153E+03 0.  0.
        1    1    3    3  502    0  0.24341285237E+03  0.56248719716E+02 -0.23284526987E+02  0.25091015203E+03  0.50400001928E-02 0.  1.
       -1    1    3    3    0  502 -0.24341285237E+03 -0.56248719716E+02  0.48279498974E+01  0.24987405687E+03  0.50400001928E-02 0. -1.
</event>
<event>
 5   0  0.4534223E-02  0.5045063E+03  0.7818609E-02  0.1012609E+00
        2   -1    0    0  501    0  0.00000000000E+00  0.00000000000E+00  0.13408087473E+04  0.13408087473E+04  0.25500000920E-02 0. -1.
       -2   -1    0    0    0  501  0.00000000000E+00  0.00000000000E+00 -0.47457656529E+02  0.47457656597E+02  0.25500000920E-02 0.  1.
    10030    2    1    2    0    0  0.00000000000E+00  0.00000000000E+00  0.12933510907E+04  0.13882664039E+04  0.50450625783E+03 0.  0.
        2    1    3    3  502    0 -0.72847166659E+02 -0.20790439874E+03  0.30852920941E+03  0.37910581870E+03  0.25500000920E-02 0.  1.
       -2    1    3    3    0  502  0.72847166659E+02  0.20790439874E+03  0.98482188131E+03  0.10091605852E+04  0.25500000920E-02 0. -1.
</event>
<event>
 5   0  0.4409622E-02  0.5097336E+03  0.7818609E-02  0.1011269E+00
        2   -1    0    0  501    0  0.00000000000E+00  0.00000000000E+00  0.15916974237E+03  0.15916974239E+03  0.25500000920E-02 0.  1.
       -2   -1    0    0    0  501  0.00000000000E+00  0.00000000000E+00 -0.40809947715E+03  0.40809947716E+03  0.25500000920E-02 0. -1.
    10030    2    1    2    0    0  0.00000000000E+00  0.00000000000E+00 -0.24892973478E+03  0.56726921955E+03  0.50973361140E+03 0.  0.
        3    1    3    3  502    0  0.19034505029E+03 -0.15829776206E+03 -0.19186184343E+03  0.31320982872E+03  0.10100000352E+00 0. -1.
       -3    1    3    3    0  502 -0.19034505029E+03  0.15829776206E+03 -0.57067891343E+02  0.25405939082E+03  0.10100000352E+00 0.  1.
</event>
<event>
 5   0  0.4631619E-02  0.5023248E+03  0.7818609E-02  0.1013174E+00
       -2   -1    0    0    0  501  0.00000000000E+00  0.00000000000E+00  0.42868574517E+02  0.42868574593E+02  0.25500000920E-02 0. -1.
        2   -1    0    0  501    0  0.00000000000E+00  0.00000000000E+00 -0.14715337086E+04  0.14715337086E+04  0.25500000920E-02 0.  1.
    10030    2    1    2    0    0  0.00000000000E+00  0.00000000000E+00 -0.14286651341E+04  0.15144022832E+04  0.50232480529E+03 0.  0.
        5    1    3    3  502    0  0.12647306665E+03  0.85850022696E+01 -0.60802654493E+02  0.14067050737E+03  0.46999998093E+01 0. -1.
       -5    1    3    3    0  502 -0.12647306665E+03 -0.85850022696E+01 -0.13678624796E+04  0.13737317759E+04  0.46999998093E+01 0.  1.
</event>
<event>
 5   0  0.1805500E-02  0.4993320E+03  0.7818609E-02  0.1013953E+00
        3   -1    0    0  501    0  0.00000000000E+00  0.00000000000E+00  0.42599920215E+03  0.42599921413E+03  0.10100000352E+00 0.  1.
       -3   -1    0    0    0  501  0.00000000000E+00  0.00000000000E+00 -0.14632212609E+03  0.14632216095E+03  0.10100000352E+00 0. -1.
    10030    2    1    2    0    0  0.00000000000E+00  0.00000000000E+00  0.27967707606E+03  0.57232137508E+03  0.49933204333E+03 0.  0.
        1    1    3    3  502    0  0.36447536395E+02  0.17093429352E+03 -0.64509093394E+02  0.18630184853E+03  0.50400001928E-02 0. -1.
       -1    1    3    3    0  502 -0.36447536395E+02 -0.17093429352E+03  0.34418616945E+03  0.38601952655E+03  0.50400001928E-02 0.  1.
</event>
<event>
 5   0  0.2779445E-02  0.5006746E+03  0.7818609E-02  0.1013603E+00
       -1   -1    0    0    0  501  0.00000000000E+00  0.00000000000E+00  0.23262426537E+03  0.23262426543E+03  0.50400001928E-02 0. -1.
        1   -1    0    0  501    0  0.00000000000E+00  0.00000000000E+00 -0.26939907981E+03  0.26939907986E+03  0.50400001928E-02 0.  1.
    10030    2    1    2    0    0  0.00000000000E+00  0.00000000000E+00 -0.36774814441E+02  0.50202334528E+03  0.50067459715E+03 0.  0.
        3    1    3    3  502    0 -0.10483966544E+03  0.10560929458E+03  0.18346080528E+03  0.23622564600E+03  0.10100000352E+00 0. -1.
       -3    1    3    3    0  502  0.10483966544E+03 -0.10560929458E+03 -0.22023561972E+03  0.26579769929E+03  0.10100000352E+00 0.  1.
</event>
<event>
 5   0  0.1805500E-02  0.4782146E+03  0.7818609E-02  0.1019627E+00
       -3   -1    0    0    0  501  0.00000000000E+00  0.00000000000E+00  0.43747774739E+03  0.43747775905E+03  0.10100000352E+00 0.  1.
        3   -1    0    0  501    0  0.00000000000E+00  0.00000000000E+00 -0.13068614314E+03  0.13068618217E+03  0.10100000352E+00 0. -1.
    10030    2    1    2    0    0  0.00000000000E+00  0.00000000000E+00  0.30679160425E+03  0.56816394122E+03  0.47821457073E+03 0.  0.
        5    1    3    3  502    0 -0.16711864353E+03 -0.56113462107E+02  0.34523840215E+03  0.38767126017E+03  0.46999998093E+01 0.  1.
       -5    1    3    3    0  502  0.16711864353E+03  0.56113462107E+02 -0.38446797895E+02  0.18049268105E+03  0.46999998093E+01 0. -1.
</event>
<event>
 5   0  0.2719671E-02  0.4995099E+03  0.7818609E-02  0.1013907E+00
       -1   -1    0    0    0  501  0.00000000000E+00  0.00000000000E+00  0.59537122441E+02  0.59537122655E+02  0.50400001928E-02 0. -1.
        1   -1    0    0  501    0  0.00000000000E+00  0.00000000000E+00 -0.10477083508E+04  0.10477083508E+04  0.50400001928E-02 0.  1.
    10030    2    1    2    0    0  0.00000000000E+00  0.00000000000E+00 -0.98817122838E+03  0.11072454735E+04  0.49950992179E+03 0.  0.
        2    1    3    3  502    0  0.15332002174E+03 -0.13089552337E+02 -0.58021198711E+02  0.16445310868E+03  0.25500000920E-02 0. -1.
       -2    1    3    3    0  502 -0.15332002174E+03  0.13089552337E+02 -0.93015002967E+03  0.94279236481E+03  0.25500000920E-02 0.  1.
</event>
<event>
 5   0  0.2779445E-02  0.5011038E+03  0.7818609E-02  0.1013491E+00
        1   -1    0    0  501    0  0.00000000000E+00  0.00000000000E+00  0.42725661708E+03  0.42725661711E+03  0.50400001928E-02 0. -1.
       -1   -1    0    0    0  501  0.00000000000E+00  0.00000000000E+00 -0.14692870946E+03  0.14692870955E+03  0.50400001928E-02 0.  1.
    10030    2    1    2    0    0  0.00000000000E+00  0.00000000000E+00  0.28032790762E+03  0.57418532665E+03  0.50110383510E+03 0.  0.
        3    1    3    3  502    0 -0.12356059043E+03  0.15336881705E+03 -0.37301036508E+02  0.20045096926E+03  0.10100000352E+00 0.  1.
       -3    1    3    3    0  502  0.12356059043E+03 -0.15336881705E+03  0.31762894412E+03  0.37373435739E+03  0.10100000352E+00 0. -1.
</event>
<event>
 5   0  0.4534223E-02  0.5257497E+03  0.7818609E-02  0.1007268E+00
        2   -1    0    0  501    0  0.00000000000E+00  0.00000000000E+00  0.56355988539E+03  0.56355988540E+03  0.25500000920E-02 0.  1.
       -2   -1    0    0    0  501  0.00000000000E+00  0.00000000000E+00 -0.12261908151E+03  0.12261908154E+03  0.25500000920E-02 0. -1.
    10030    2    1    2    0    0  0.00000000000E+00  0.00000000000E+00  0.44094080388E+03  0.68617896694E+03  0.52574973337E+03 0.  0.
        2    1    3    3  502    0 -0.10511595720E+03 -0.24093420138E+03  0.21768898375E+03  0.34130213522E+03  0.25500000920E-02 0. -1.
       -2    1    3    3    0  502  0.10511595720E+03  0.24093420138E+03  0.22325182013E+03  0.34487683172E+03  0.25500000920E-02 0.  1.
</event>
<event>
 5   0  0.4451135E-02  0.5008797E+03  0.7818609E-02  0.1013550E+00
       -2   -1    0    0    0  501  0.00000000000E+00  0.00000000000E+00  0.95154364714E+03  0.95154364714E+03  0.25500000920E-02 0.  1.
        2   -1    0    0  501    0  0.00000000000E+00  0.00000000000E+00 -0.65914080878E+02  0.65914080927E+02  0.25500000920E-02 0. -1.
    10030    2    1    2    0    0  0.00000000000E+00  0.00000000000E+00  0.88562956626E+03  0.10174577281E+04  0.50087972585E+03 0.  0.
        1    1    3    3  502    0  0.33100527840E+02 -0.29110387715E+02  0.94360148123E+03  0.94463051772E+03  0.50400001928E-02 0.  1.
       -1    1    3    3    0  502 -0.33100527840E+02  0.29110387715E+02 -0.57971914967E+02  0.72827210344E+02  0.50400001928E-02 0. -1.
</event>
<event>
 5   0  0.4451135E-02  0.4943988E+03  0.7818609E-02  0.1015251E+00
       -2   -1    0    0    0  501  0.00000000000E+00  0.00000000000E+00  0.53927970259E+02  0.53927970319E+02  0.25500000920E-02 0.  1.
        2   -1    0    0  501    0  0.00000000000E+00  0.00000000000E+00 -0.11331327746E+04  0.11331327746E+04  0.25500000920E-02 0. -1.
    10030    2    1    2    0    0  0.00000000000E+00  0.00000000000E+00 -0.10792048043E+04  0.11870607449E+04  0.49439882931E+03 0.  0.
        1    1    3    3  502    0  0.11446907891E+03 -0.10119215593E+03 -0.73010130619E+02  0.16933251799E+03  0.50400001928E-02 0.  1.
       -1    1    3    3    0  502 -0.11446907891E+03  0.10119215593E+03 -0.10061946737E+04  0.10177282269E+04  0.50400001928E-02 0. -1.
</event>
<event>
 5   0  0.4409622E-02  0.4995091E+03  0.7818609E-02  0.1013907E+00
       -2   -1    0    0    0  501  0.00000000000E+00  0.00000000000E+00  0.13363272550E+03  0.13363272552E+03  0.25500000920E-02 0.  1.
        2   -1    0    0  501    0  0.00000000000E+00  0.00000000000E+00 -0.46678191450E+03  0.46678191450E+03  0.25500000920E-02 0. -1.
    10030    2    1    2    0    0  0.00000000000E+00  0.00000000000E+00 -0.33314918900E+03  0.60041464002E+03  0.49950911686E+03 0.  0.
        3    1    3    3  502    0 -0.23485817234E+02  0.20515633844E+03  0.22922043039E+01  0.20650901001E+03  0.10100000352E+00 0.  1.
       -3    1    3    3    0  502  0.23485817234E+02 -0.20515633844E+03 -0.33544139330E+03  0.39390563001E+03  0.10100000352E+00 0. -1.
</event>
<event>
 5   0  0.2723308E-02  0.5008674E+03  0.7818609E-02  0.1013553E+00
        1   -1    0    0  501    0  0.00000000000E+00  0.00000000000E+00  0.12316635563E+04  0.12316635564E+04  0.50400001928E-02 0. -1.
       -1   -1    0    0    0  501  0.00000000000E+00  0.00000000000E+00 -0.50920601968E+02  0.50920602218E+02  0.50400001928E-02 0.  1.
    10030    2    1    2    0    0  0.00000000000E+00  0.00000000000E+00  0.11807429544E+04  0.12825841586E+04  0.50086744705E+03 0.  0.
        4    1    3    3  502    0 -0.62514131894E+02  0.34628703053E+02  0.12049897869E+04  0.12071077679E+04  0.12699999809E+01 0. -1.
       -4    1    3    3    0  502  0.62514131894E+02 -0.34628703053E+02 -0.24246832565E+02  0.75476390686E+02  0.12699999809E+01 0.  1.
</event>
<event>
 5   0  0.4409622E-02  0.5040498E+03  0.7818609E-02  0.1012727E+00
        2   -1    0    0  501    0  0.00000000000E+00  0.00000000000E+00  0.57889045835E+03  0.57889045836E+03  0.25500000920E-02 0. -1.
       -2   -1    0    0    0  501  0.00000000000E+00  0.00000000000E+00 -0.10972118472E+03  0.10972118475E+03  0.25500000920E-02 0.  1.
    10030    2    1    2    0    0  0.00000000000E+00  0.00000000000E+00  0.46916927363E+03  0.68861164310E+03  0.50404978692E+03 0.  0.
        3    1    3    3  502    0  0.92642479198E+00 -0.89154282003E+02  0.55662488548E+03  0.56372033633E+03  0.10100000352E+00 0. -1.
       -3    1    3    3    0  502 -0.92642479198E+00  0.89154282003E+02 -0.87455611846E+02  0.12489130677E+03  0.10100000352E+00 0.  1.
</event>
<event>
 5   0  0.2719671E-02  0.4818766E+03  0.7818609E-02  0.1018621E+00
       -1   -1    0    0    0  501  0.00000000000E+00  0.00000000000E+00  0.12476709474E+03  0.12476709484E+03  0.50400001928E-02 0.  1.
        1   -1    0    0  501    0  0.00000000000E+00  0.00000000000E+00 -0.46527710815E+03  0.46527710818E+03  0.50400001928E-02 0. -1.
    10030    2    1    2    0    0  0.00000000000E+00  0.00000000000E+00 -0.34051001341E+03  0.59004420302E+03  0.48187663596E+03 0.  0.
        2    1    3    3  502    0 -0.17014220881E+03 -0.14831811884E+03 -0.67045515033E+02  0.23546069032E+03  0.25500000920E-02 0.  1.
       -2    1    3    3    0  502  0.17014220881E+03  0.14831811884E+03 -0.27346449838E+03  0.35458351269E+03  0.25500000920E-02 0. -1.
</event>
<event>
 5   0  0.1805500E-02  0.4980416E+03  0.7818609E-02  0.1014291E+00
        4   -1    0    0  501    0  0.00000000000E+00  0.00000000000E+00  0.40747651518E+03  0.40747849431E+03  0.12699999809E+01 0. -1.
       -4   -1    0    0    0  501  0.00000000000E+00  0.00000000000E+00 -0.15217890150E+03  0.15218420077E+03  0.12699999809E+01 0.  1.
    10030    2    1    2    0    0  0.00000000000E+00  0.00000000000E+00  0.25529761368E+03  0.55966269508E+03  0.49804162548E+03 0.  0.
        2    1    3    3  502    0  0.20309044614E+03 -0.39191538382E+02 -0.28179557141E+02  0.20874815794E+03  0.25500000920E-02 0.  1.
       -2    1    3    3    0  502 -0.20309044614E+03  0.39191538382E+02  0.28347717082E+03  0.35091453714E+03  0.25500000920E-02 0. -1.
</event>
<event>
 5   0  0.4409622E-02  0.5001153E+03  0.7818609E-02  0.1013749E+00
        2   -1    0    0  501    0  0.00000000000E+00  0.00000000000E+00  0.15850949628E+03  0.15850949630E+03  0.25500000920E-02 0.  1.
       -2   -1    0    0    0  501  0.00000000000E+00  0.00000000000E+00 -0.39448004432E+03  0.39448004433E+03  0.25500000920E-02 0. -1.
    10030    2    1    2    0    0  0.00000000000E+00  0.00000000000E+00 -0.23597054805E+03  0.55298954063E+03  0.50011531920E+03 0.  0.
        3    1    3    3  502    0 -0.10524166193E+03  0.72485101195E+02  0.11967834018E+03  0.17507944656E+03  0.10100000352E+00 0.  1.
       -3    1    3    3    0  502  0.10524166193E+03 -0.72485101195E+02 -0.35564888823E+03  0.37791009407E+03  0.10100000352E+00 0. -1.
</event>
<event>
 5   0  0.2719671E-02  0.5033550E+03  0.7818609E-02  0.1012907E+00
       -1   -1    0    0    0  501  0.00000000000E+00  0.00000000000E+00  0.13684552495E+03  0.13684552504E+03  0.50400001928E-02 0.  1.
        1   -1    0    0  501    0  0.00000000000E+00  0.00000000000E+00 -0.46286914325E+03  0.46286914328E+03  0.50400001928E-02 0. -1.
    10030    2    1    2    0    0  0.00000000000E+00  0.00000000000E+00 -0.32602361830E+03  0.59971466832E+03  0.50335502749E+03 0.  0.
        2    1    3    3  502    0  0.14789021917E+03  0.20308887466E+03 -0.18088186015E+03  0.30957205183E+03  0.25500000920E-02 0.  1.
       -2    1    3    3    0  502 -0.14789021917E+03 -0.20308887466E+03 -0.14514175815E+03  0.29014261649E+03  0.25500000920E-02 0. -1.
</event>
<event>
 5   0  0.2719671E-02  0.4949029E+03  0.7818609E-02  0.1015118E+00
        1   -1    0    0  501    0  0.00000000000E+00  0.00000000000E+00  0.12046812915E+04  0.12046812915E+04  0.50400001928E-02 0. -1.
       -1   -1    0    0    0  501  0.00000000000E+00  0.00000000000E+00 -0.50828570556E+02  0.50828570806E+02  0.50400001928E-02 0.  1.
    10030    2    1    2    0    0  0.00000000000E+00  0.00000000000E+00  0.11538527209E+04  0.12555098623E+04  0.49490293264E+03 0.  0.
        2    1    3    3  502    0  0.92401075549E+02 -0.94307355438E+02  0.45994117360E+02  0.13981164075E+03  0.25500000920E-02 0.  1.
       -2    1    3    3    0  502 -0.92401075549E+02  0.94307355438E+02  0.11078586035E+04  0.11156982215E+04  0.25500000920E-02 0. -1.
</event>
<event>
 5   0  0.1805500E-02  0.4951761E+03  0.7818609E-02  0.1015046E+00
        3   -1    0    0  501    0  0.00000000000E+00  0.00000000000E+00  0.36580527411E+02  0.36580666843E+02  0.10100000352E+00 0.  1.
       -3   -1    0    0    0  501  0.00000000000E+00  0.00000000000E+00 -0.16757476419E+04  0.16757476450E+04  0.10100000352E+00 0. -1.
    10030    2    1    2    0    0  0.00000000000E+00  0.00000000000E+00 -0.16391671145E+04  0.17123283118E+04  0.49517614859E+03 0.  0.
        4    1    3    3  502    0 -0.78064658359E+02 -0.11695717725E+02 -0.81098520044E+01  0.79361598379E+02  0.12699999809E+01 0.  1.
       -4    1    3    3    0  502  0.78064658359E+02  0.11695717725E+02 -0.16310572625E+04  0.16329667134E+04  0.12699999809E+01 0. -1.
</event>
<event>
 5   0  0.2715483E-02  0.5003039E+03  0.7818609E-02  0.1013700E+00
        1   -1    0    0  501    0  0.00000000000E+00  0.00000000000E+00  0.38114845898E+03  0.38114845902E+03  0.50400001928E-02 0.  1.
       -1   -1    0    0    0  501  0.00000000000E+00  0.00000000000E+00 -0.16417748748E+03  0.16417748755E+03  0.50400001928E-02 0. -1.
    10030    2    1    2    0    0  0.00000000000E+00  0.00000000000E+00  0.21697097151E+03  0.54532594657E+03  0.50030389317E+03 0.  0.
        5    1    3    3  502    0 -0.16243113365E+03  0.59172578266E+02  0.30549527282E+03  0.35104802935E+03  0.46999998093E+01 0.  1.
       -5    1    3    3    0  502  0.16243113365E+03 -0.59172578266E+02 -0.88524301314E+02  0.19427791722E+03  0.46999998093E+01 0. -1.
</event>
<event>
 5   0  0.4534223E-02  0.5013920E+03  0.7818609E-02  0.1013416E+00
       -2   -1    0    0    0  501  0.00000000000E+00  0.00000000000E+00  0.19561352743E+03  0.19561352744E+03  0.25500000920E-02 0. -1.
        2   -1    0    0  501    0  0.00000000000E+00  0.00000000000E+00 -0.32128906239E+03  0.32128906240E+03  0.25500000920E-02 0.  1.
    10030    2    1    2    0    0  0.00000000000E+00  0.00000000000E+00 -0.12567553496E+03  0.51690258984E+03  0.50139200960E+03 0.  0.
        2    1    3    3  502    0 -0.97127912648E+02 -0.43479798100E+02  0.17117350083E+03  0.20155567878E+03  0.25500000920E-02 0. -1.
       -2    1    3    3    0  502  0.97127912648E+02  0.43479798100E+02 -0.29684903579E+03  0.31534691106E+03  0.25500000920E-02 0.  1.
</event>
<event>
 5   0  0.4534223E-02  0.5004149E+03  0.7818609E-02  0.1013671E+00
       -2   -1    0    0    0  501  0.00000000000E+00  0.00000000000E+00  0.82738587143E+03  0.82738587143E+03  0.25500000920E-02 0. -1.
        2   -1    0    0  501    0  0.00000000000E+00  0.00000000000E+00 -0.75664529495E+02  0.75664529538E+02  0.25500000920E-02 0.  1.
    10030    2    1    2    0    0  0.00000000000E+00  0.00000000000E+00  0.75172134193E+03  0.90305040097E+03  0.50041487865E+03 0.  0.
        2    1    3    3  502    0  0.16753725541E+03  0.14730759740E+03  0.58031118810E+03  0.62171483435E+03  0.25500000920E-02 0. -1.
       -2    1    3    3    0  502 -0.16753725541E+03 -0.14730759740E+03  0.17141015383E+03  0.28133556662E+03  0.25500000920E-02 0.  1.
</event>
<event>
 5   0  0.2779445E-02  0.5039968E+03  0.7818609E-02  0.1012741E+00
        1   -1    0    0  501    0  0.00000000000E+00  0.00000000000E+00  0.96525867486E+03  0.96525867487E+03  0.50400001928E-02 0.  1.
       -1   -1    0    0    0  501  0.00000000000E+00  0.00000000000E+00 -0.65788793104E+02  0.65788793297E+02  0.50400001928E-02 0. -1.
    10030    2    1    2    0    0  0.00000000000E+00  0.00000000000E+00  0.89946988176E+03  0.10310474682E+04  0.50399683871E+03 0.  0.
        3    1    3    3  502    0  0.16507542996E+03 -0.16798524143E+03  0.63310297676E+03  0.67549117559E+03  0.10100000352E+00 0. -1.
       -3    1    3    3    0  502 -0.16507542996E+03  0.16798524143E+03  0.26636690499E+03  0.35555629258E+03  0.10100000352E+00 0.  1.
</event>
<event>
 5   0  0.4519539E-02  0.5009866E+03  0.7818609E-02  0.1013522E+00
       -2   -1    0    0    0  501  0.00000000000E+00  0.00000000000E+00  0.10283868827E+03  0.10283868830E+03  0.25500000920E-02 0. -1.
        2   -1    0    0  501    0  0.00000000000E+00  0.00000000000E+00 -0.61014872868E+03  0.61014872869E+03  0.25500000920E-02 0.  1.
    10030    2    1    2    0    0  0.00000000000E+00  0.00000000000E+00 -0.50731004042E+03  0.71298741699E+03  0.50098660629E+03 0.  0.
        4    1    3    3  502    0  0.15151622919E+03  0.19099728807E+03 -0.17179942631E+03  0.29825121548E+03  0.12699999809E+01 0. -1.
       -4    1    3    3    0  502 -0.15151622919E+03 -0.19099728807E+03 -0.33551061411E+03  0.41473620151E+03  0.12699999809E+01 0.  1.
</event>
<event>
 5   0  0.2643185E-02  0.5034030E+03  0.7818609E-02  0.1012894E+00
       -1   -1    0    0    0  501  0.00000000000E+00  0.00000000000E+00  0.62854034237E+02  0.62854034439E+02  0.50400001928E-02 0. -1.
        1   -1    0    0  501    0  0.00000000000E+00  0.00000000000E+00 -0.10079486509E+04  0.10079486509E+04  0.50400001928E-02 0.  1.
    10030    2    1    2    0    0  0.00000000000E+00  0.00000000000E+00 -0.94509461664E+03  0.10708026853E+04  0.50340297626E+03 0.  0.
        1    1    3    3  502    0  0.97179948260E+02  0.10365519229E+03 -0.91448500088E+03  0.92545726973E+03  0.50400001928E-02 0.  1.
       -1    1    3    3    0  502 -0.97179948260E+02 -0.10365519229E+03 -0.30609615758E+02  0.14534541560E+03  0.50400001928E-02 0. -1.
</event>
<event>
 5   0  0.4534223E-02  0.4815362E+03  0.7818609E-02  0.1018714E+00
       -2   -1    0    0    0  501  0.00000000000E+00  0.00000000000E+00  0.11164390708E+03  0.11164390711E+03  0.25500000920E-02 0. -1.
        2   -1    0    0  501    0  0.00000000000E+00  0.00000000000E+00 -0.51923368004E+03  0.51923368005E+03  0.25500000920E-02 0.  1.
    10030    2    1    2    0    0  0.00000000000E+00  0.00000000000E+00 -0.40758977296E+03  0.63087758716E+03  0.48153619485E+03 0.  0.
        2    1    3    3  502    0 -0.18705649537E+03  0.15092369669E+03 -0.18521210253E+03  0.30343305293E+03  0.25500000920E-02 0. -1.
       -2    1    3    3    0  502  0.18705649537E+03 -0.15092369669E+03 -0.22237767044E+03  0.32744453423E+03  0.25500000920E-02 0.  1.
</event>
<event>
 5   0  0.2779445E-02  0.5008472E+03  0.7818609E-02  0.1013558E+00
       -1   -1    0    0    0  501  0.00000000000E+00  0.00000000000E+00  0.70523704473E+03  0.70523704474E+03  0.50400001928E-02 0.  1.
        1   -1    0    0  501    0  0.00000000000E+00  0.00000000000E+00 -0.88923250209E+02  0.88923250351E+02  0.50400001928E-02 0. -1.
    10030    2    1    2    0    0  0.00000000000E+00  0.00000000000E+00  0.61631379452E+03  0.79416029510E+03  0.50084716331E+03 0.  0.
        3    1    3    3  502    0  0.15669005248E+03  0.17102981033E+03  0.15849294019E+03  0.28093235994E+03  0.10100000352E+00 0. -1.
       -3    1    3    3    0  502 -0.15669005248E+03 -0.17102981033E+03  0.45782085433E+03  0.51322793516E+03  0.10100000352E+00 0.  1.
</event>
<event>
 5   0  0.1805500E-02  0.5006808E+03  0.7818609E-02  0.1013601E+00
        3   -1    0    0  501    0  0.00000000000E+00  0.00000000000E+00  0.13324417430E+04  0.13324417468E+04  0.10100000352E+00 0.  1.
       -3   -1    0    0    0  501  0.00000000000E+00  0.00000000000E+00 -0.47034127932E+02  0.47034236374E+02  0.10100000352E+00 0. -1.
    10030    2    1    2    0    0  0.00000000000E+00  0.00000000000E+00  0.12854076151E+04  0.13794759832E+04  0.50068078788E+03 0.  0.
        4    1    3    3  502    0 -0.74115683632E+02  0.14417920273E+03  0.11682753593E+04  0.11794700950E+04  0.12699999809E+01 0.  1.
       -4    1    3    3    0  502  0.74115683632E+02 -0.14417920273E+03  0.11713225579E+03  0.20000588817E+03  0.12699999809E+01 0. -1.
</event>
<event>
 5   0  0.4451135E-02  0.5047797E+03  0.7818609E-02  0.1012539E+00
        2   -1    0    0  501    0  0.00000000000E+00  0.00000000000E+00  0.10836238126E+04  0.10836238126E+04  0.25500000920E-02 0. -1.
       -2   -1    0    0    0  501  0.00000000000E+00  0.00000000000E+00 -0.58784823043E+02  0.58784823098E+02  0.25500000920E-02 0.  1.
    10030    2    1    2    0    0  0.00000000000E+00  0.00000000000E+00  0.10248389896E+04  0.11424086357E+04  0.50477969097E+03 0.  0.
        1    1    3    3  502    0 -0.24583132662E+03  0.27570804677E+02  0.39909202422E+03  0.46953981113E+03  0.50400001928E-02 0.  1.
       -1    1    3    3    0  502  0.24583132662E+03 -0.27570804677E+02  0.62574696536E+03  0.67286882459E+03  0.50400001928E-02 0. -1.
</event>
<event>
 5   0  0.1805500E-02  0.5031587E+03  0.7818609E-02  0.1012958E+00
       -4   -1    0    0    0  501  0.00000000000E+00  0.00000000000E+00  0.26955598823E+03  0.26955897999E+03  0.12699999809E+01 0.  1.
        4   -1    0    0  501    0  0.00000000000E+00  0.00000000000E+00 -0.23479552929E+03  0.23479896396E+03  0.12699999809E+01 0. -1.
    10030    2    1    2    0    0  0.00000000000E+00  0.00000000000E+00  0.34760458941E+02  0.50435794395E+03  0.50315866893E+03 0.  0.
        2    1    3    3  502    0  0.25129894798E+03 -0.24843656843E+01  0.29019459934E+02  0.25298115026E+03  0.25500000920E-02 0. -1.
       -2    1    3    3    0  502 -0.25129894798E+03  0.24843656843E+01  0.57409990074E+01  0.25137679368E+03  0.25500000920E-02 0.  1.
</event>
<event>
 5   0  0.2643185E-02  0.4988842E+03  0.7818609E-02  0.1014071E+00
        1   -1    0    0  501    0  0.00000000000E+00  0.00000000000E+00  0.31550881039E+03  0.31550881043E+03  0.50400001928E-02 0.  1.
       -1   -1    0    0    0  501  0.00000000000E+00  0.00000000000E+00 -0.19720958409E+03  0.19720958415E+03  0.50400001928E-02 0. -1.
    10030    2    1    2    0    0  0.00000000000E+00  0.00000000000E+00  0.11829922630E+03  0.51271839458E+03  0.49888420019E+03 0.  0.
        1    1    3    3  502    0  0.17576084668E+03  0.58522115264E+02  0.23082871146E+03  0.29597061892E+03  0.50400001928E-02 0.  1.
       -1    1    3    3    0  502 -0.17576084668E+03 -0.58522115264E+02 -0.11252948516E+03  0.21674777567E+03  0.50400001928E-02 0. -1.
</event>
<event>
 5   0  0.2719671E-02  0.5023001E+03  0.7818609E-02  0.1013180E+00
       -1   -1    0    0    0  501  0.00000000000E+00  0.00000000000E+00  0.68681539207E+02  0.68681539392E+02  0.50400001928E-02 0.  1.
        1   -1    0    0  501    0  0.00000000000E+00  0.00000000000E+00 -0.91838850888E+03  0.91838850889E+03  0.50400001928E-02 0. -1.
    10030    2    1    2    0    0  0.00000000000E+00  0.00000000000E+00 -0.84970696967E+03  0.98707004829E+03  0.50230005566E+03 0.  0.
        2    1    3    3  502    0  0.20133344780E+03  0.12211513479E+03 -0.25321264281E+03  0.34578014088E+03  0.25500000920E-02 0.  1.
       -2    1    3    3    0  502 -0.20133344780E+03 -0.12211513479E+03 -0.59649432687E+03  0.64128990740E+03  0.25500000920E-02 0. -1.
</event>
<event>
 5   0  0.2723308E-02  0.4994683E+03  0.7818609E-02  0.1013918E+00
        1   -1    0    0  501    0  0.00000000000E+00  0.00000000000E+00  0.28068137056E+03  0.28068137061E+03  0.50400001928E-02 0.  1.
       -1   -1    0    0    0  501  0.00000000000E+00  0.00000000000E+00 -0.22219907599E+03  0.22219907605E+03  0.50400001928E-02 0. -1.
    10030    2    1    2    0    0  0.00000000000E+00  0.00000000000E+00  0.58482294570E+02  0.50288044666E+03  0.49946828213E+03 0.  0.
        4    1    3    3  502    0 -0.19353136321E+03  0.77747243046E+02  0.16753490382E+03  0.26752304433E+03  0.12699999809E+01 0.  1.
       -4    1    3    3    0  502  0.19353136321E+03 -0.77747243046E+02 -0.10905260925E+03  0.23535740233E+03  0.12699999809E+01 0. -1.
</event>
<event>
 5   0  0.4534223E-02  0.4975800E+03  0.7818609E-02  0.1014413E+00
       -2   -1    0    0    0  501  0.00000000000E+00  0.00000000000E+00  0.34228885781E+02  0.34228885876E+02  0.25500000920E-02 0.  1.
        2   -1    0    0  501    0  0.00000000000E+00  0.00000000000E+00 -0.18083107785E+04  0.18083107785E+04  0.25500000920E-02 0. -1.
    10030    2    1    2    0    0  0.00000000000E+00  0.00000000000E+00 -0.17740818927E+04  0.18425396644E+04  0.49757999631E+03 0.  0.
        2    1    3    3  502    0 -0.11419538959E+03 -0.21456745192E+02 -0.17016633561E+04  0.17056257375E+04  0.25500000920E-02 0. -1.
       -2    1    3    3    0  502  0.11419538959E+03  0.21456745192E+02 -0.72418536602E+02  0.13691392686E+03  0.25500000920E-02 0.  1.
</event>
<event>
 5   0  0.4534223E-02  0.4956738E+03  0.7818609E-02  0.1014914E+00
       -2   -1    0    0    0  501  0.00000000000E+00  0.00000000000E+00  0.87326482813E+02  0.87326482850E+02  0.25500000920E-02 0.  1.
        2   -1    0    0  501    0  0.00000000000E+00  0.00000000000E+00 -0.70337352909E+03  0.70337352910E+03  0.25500000920E-02 0. -1.
    10030    2    1    2    0    0  0.00000000000E+00  0.00000000000E+00 -0.61604704628E+03  0.79070001195E+03  0.49567382992E+03 0.  0.
        2    1    3    3  502    0  0.97158655600E+02  0.14597593724E+03 -0.58740878652E+03  0.61302354041E+03  0.25500000920E-02 0. -1.
       -2    1    3    3    0  502 -0.97158655600E+02 -0.14597593724E+03 -0.28638259764E+02  0.17767647154E+03  0.25500000920E-02 0.  1.
</event>
<event>
 5   0  0.4519539E-02  0.5014998E+03  0.7818609E-02  0.1013388E+00
       -2   -1    0    0    0  501  0.00000000000E+00  0.00000000000E+00  0.70339128482E+02  0.70339128528E+02  0.25500000920E-02 0. -1.
        2   -1    0    0  501    0  0.00000000000E+00  0.00000000000E+00 -0.89389085085E+03  0.89389085085E+03  0.25500000920E-02 0.  1.
    10030    2    1    2    0    0  0.00000000000E+00  0.00000000000E+00 -0.82355172237E+03  0.96422997938E+03  0.50149976443E+03 0.  0.
        4    1    3    3  502    0 -0.12558360514E+03  0.15060884074E+03 -0.11132088678E+03  0.22549549335E+03  0.12699999809E+01 0. -1.
       -4    1    3    3    0  502  0.12558360514E+03 -0.15060884074E+03 -0.71223083559E+03  0.73873448603E+03  0.12699999809E+01 0.  1.
</event>
<event>
 5   0  0.1805500E-02  0.4992224E+03  0.7818609E-02  0.1013982E+00
       -3   -1    0    0    0  501  0.00000000000E+00  0.00000000000E+00  0.53829114263E+02  0.53829209017E+02  0.10100000352E+00 0. -1.
        3   -1    0    0  501    0  0.00000000000E+00  0.00000000000E+00 -0.11574720023E+04  0.11574720067E+04  0.10100000352E+00 0.  1.
    10030    2    1    2    0    0  0.00000000000E+00  0.00000000000E+00 -0.11036428880E+04  0.12113012157E+04  0.49922240625E+03 0.  0.
        1    1    3    3  502    0 -0.22409488558E+02 -0.14640126530E+03 -0.64305601165E+02  0.16146431812E+03  0.50400001928E-02 0. -1.
       -1    1    3    3    0  502  0.22409488558E+02  0.14640126530E+03 -0.10393372869E+04  0.10498368976E+04  0.50400001928E-02 0.  1.
</event>
<event>
 5   0  0.4631619E-02  0.5002235E+03  0.7818609E-02  0.1013721E+00
       -2   -1    0    0    0  501  0.00000000000E+00  0.00000000000E+00  0.72485948079E+02  0.72485948124E+02  0.25500000920E-02 0.  1.
        2   -1    0    0  501    0  0.00000000000E+00  0.00000000000E+00 -0.86300697281E+03  0.86300697281E+03  0.25500000920E-02 0. -1.
    10030    2    1    2    0    0  0.00000000000E+00  0.00000000000E+00 -0.79052102473E+03  0.93549292093E+03  0.50022346464E+03 0.  0.
        5    1    3    3  502    0 -0.14211244353E+03  0.13287910113E+03 -0.10145651316E+03  0.21947281422E+03  0.46999998093E+01 0.  1.
       -5    1    3    3    0  502  0.14211244353E+03 -0.13287910113E+03 -0.68906451156E+03  0.71602010671E+03  0.46999998093E+01 0. -1.
</event>
<event>
 5   0  0.4534223E-02  0.5000424E+03  0.7818609E-02  0.1013768E+00
        2   -1    0    0  501    0  0.00000000000E+00  0.00000000000E+00  0.23230873584E+03  0.23230873586E+03  0.25500000920E-02 0.  1.
       -2   -1    0    0    0  501  0.00000000000E+00  0.00000000000E+00 -0.26908415781E+03  0.26908415782E+03  0.25500000920E-02 0. -1.
    10030    2    1    2    0    0  0.00000000000E+00  0.00000000000E+00 -0.36775421969E+02  0.50139289368E+03  0.50004240038E+03 0.  0.
        2    1    3    3  502    0  0.23909633002E+03 -0.45580670510E+02 -0.75690528307E+02  0.25489940886E+03  0.25500000920E-02 0. -1.
       -2    1    3    3    0  502 -0.23909633002E+03  0.45580670510E+02  0.38915106338E+02  0.24649348482E+03  0.25500000920E-02 0.  1.
</event>
<event>
 5   0  0.4451135E-02  0.4864855E+03  0.7818609E-02  0.1017368E+00
        2   -1    0    0  501    0  0.00000000000E+00  0.00000000000E+00  0.86098697206E+02  0.86098697244E+02  0.25500000920E-02 0.  1.
       -2   -1    0    0    0  501  0.00000000000E+00  0.00000000000E+00 -0.68720004060E+03  0.68720004061E+03  0.25500000920E-02 0. -1.
    10030    2    1    2    0    0  0.00000000000E+00  0.00000000000E+00 -0.60110134340E+03  0.77329873785E+03  0.48648547042E+03 0.  0.
        1    1    3    3  502    0  0.19153621541E+03 -0.11585330539E+03 -0.45184254216E+03  0.50425171603E+03  0.50400001928E-02 0.  1.
       -1    1    3    3    0  502 -0.19153621541E+03  0.11585330539E+03 -0.14925880124E+03  0.26904702183E+03  0.50400001928E-02 0. -1.
</event>
<event>
 5   0  0.4519539E-02  0.5029915E+03  0.7818609E-02  0.1013001E+00
       -2   -1    0    0    0  501  0.00000000000E+00  0.00000000000E+00  0.66612085156E+03  0.66612085156E+03  0.25500000920E-02 0. -1.
        2   -1    0    0  501    0  0.00000000000E+00  0.00000000000E+00 -0.94952917283E+02  0.94952917317E+02  0.25500000920E-02 0.  1.
    10030    2    1    2    0    0  0.00000000000E+00  0.00000000000E+00  0.57116793427E+03  0.76107376888E+03  0.50299152332E+03 0.  0.
        4    1    3    3  502    0  0.17556922880E+03  0.68402025699E+02  0.33549843850E+02  0.19139121230E+03  0.12699999809E+01 0.  1.
       -4    1    3    3    0  502 -0.17556922880E+03 -0.68402025699E+02  0.53761809042E+03  0.56968255658E+03  0.12699999809E+01 0. -1.
</event>
<event>
 5   0  0.4519539E-02  0.5031935E+03  0.7818609E-02  0.1012949E+00
        2   -1    0    0  501    0  0.00000000000E+00  0.00000000000E+00  0.23489060818E+03  0.23489060819E+03  0.25500000920E-02 0.  1.
       -2   -1    0    0    0  501  0.00000000000E+00  0.00000000000E+00 -0.26949109495E+03  0.26949109497E+03  0.25500000920E-02 0. -1.
    10030    2    1    2    0    0  0.00000000000E+00  0.00000000000E+00 -0.34600486774E+02  0.50438170316E+03  0.50319351029E+03 0.  0.
        4    1    3    3  502    0 -0.30789525630E+01 -0.25089684029E+03 -0.35799441964E+02  0.25345989301E+03  0.12699999809E+01 0. -1.
       -4    1    3    3    0  502  0.30789525630E+01  0.25089684029E+03  0.11989551897E+01  0.25092181015E+03  0.12699999809E+01 0.  1.
</event>
<event>
 5   0  0.4631619E-02  0.4964443E+03  0.7818609E-02  0.1014711E+00
       -2   -1    0    0    0  501  0.00000000000E+00  0.00000000000E+00  0.68481361095E+02  0.68481361142E+02  0.25500000920E-02 0.  1.
        2   -1    0    0  501    0  0.00000000000E+00  0.00000000000E+00 -0.89972256128E+03  0.89972256128E+03  0.25500000920E-02 0. -1.
    10030    2    1    2    0    0  0.00000000000E+00  0.00000000000E+00 -0.83124120019E+03  0.96820392243E+03  0.49644425922E+03 0.  0.
        5    1    3    3  502    0  0.10886523707E+03 -0.21609323429E+03 -0.30801530555E+03  0.39171857781E+03  0.46999998093E+01 0.  1.
       -5    1    3    3    0  502 -0.10886523707E+03  0.21609323429E+03 -0.52322589463E+03  0.57648534462E+03  0.46999998093E+01 0. -1.
</event>
<event>
 5   0  0.2719671E-02  0.5000761E+03  0.7818609E-02  0.1013759E+00
       -1   -1    0    0    0  501  0.00000000000E+00  0.00000000000E+00  0.10879336555E+03  0.10879336567E+03  0.50400001928E-02 0.  1.
        1   -1    0    0  501    0  0.00000000000E+00  0.00000000000E+00 -0.57465838610E+03  0.57465838612E+03  0.50400001928E-02 0. -1.
    10030    2    1    2    0    0  0.00000000000E+00  0.00000000000E+00 -0.46586502055E+03  0.68345175179E+03  0.50007607387E+03 0.  0.
        2    1    3    3  502    0 -0.14197096061E+03 -0.20281820590E+03 -0.18503881728E+03  0.30907983144E+03  0.25500000920E-02 0. -1.
       -2    1    3    3    0  502  0.14197096061E+03  0.20281820590E+03 -0.28082620327E+03  0.37437192035E+03  0.25500000920E-02 0.  1.
</event>
<event>
 5   0  0.4631619E-02  0.5026533E+03  0.7818609E-02  0.1013089E+00
       -2   -1    0    0    0  501  0.00000000000E+00  0.00000000000E+00  0.15862737845E+04  0.15862737845E+04  0.25500000920E-02 0. -1.
        2   -1    0    0  501    0  0.00000000000E+00  0.00000000000E+00 -0.39819788121E+02  0.39819788202E+02  0.25500000920E-02 0.  1.
    10030    2    1    2    0    0  0.00000000000E+00  0.00000000000E+00  0.15464539964E+04  0.16260935727E+04  0.50265330425E+03 0.  0.
        5    1    3    3  502    0  0.20245273997E+03 -0.11417549893E+03  0.46428952416E+03  0.51923983738E+03  0.46999998093E+01 0.  1.
       -5    1    3    3    0  502 -0.20245273997E+03  0.11417549893E+03  0.10821644722E+04  0.11068537353E+04  0.46999998093E+01 0. -1.
</event>
<event>
 5   0  0.4409622E-02  0.5002387E+03  0.7818609E-02  0.1013717E+00
        2   -1    0    0  501    0  0.00000000000E+00  0.00000000000E+00  0.49000839872E+03  0.49000839873E+03  0.25500000920E-02 0. -1.
       -2   -1    0    0    0  501  0.00000000000E+00  0.00000000000E+00 -0.12767064189E+03  0.12767064191E+03  0.25500000920E-02 0.  1.
    10030    2    1    2    0    0  0.00000000000E+00  0.00000000000E+00  0.36233775683E+03  0.61767904064E+03  0.50023869025E+03 0.  0.
        3    1    3    3  502    0  0.19901131899E+02 -0.17950313875E+03 -0.32493355207E+02  0.18350275259E+03  0.10100000352E+00 0.  1.
       -3    1    3    3    0  502 -0.19901131899E+02  0.17950313875E+03  0.39483111204E+03  0.43417628806E+03  0.10100000352E+00 0. -1.
</event>
<event>
 5   0  0.1805500E-02  0.5032490E+03  0.7818609E-02  0.1012934E+00
        4   -1    0    0  501    0  0.00000000000E+00  0.00000000000E+00  0.31500737545E+03  0.31500993554E+03  0.12699999809E+01 0. -1.
       -4   -1    0    0    0  501  0.00000000000E+00  0.00000000000E+00 -0.20098956945E+03  0.20099358181E+03  0.12699999809E+01 0.  1.
    10030    2    1    2    0    0  0.00000000000E+00  0.00000000000E+00  0.11401780600E+03  0.51600351734E+03  0.50324901373E+03 0.  0.
        4    1    3    3  502    0  0.11620954752E+03  0.21843131633E+03  0.10395557409E+03  0.26837524695E+03  0.12699999809E+01 0. -1.
       -4    1    3    3    0  502 -0.11620954752E+03 -0.21843131633E+03  0.10062231908E+02  0.24762827040E+03  0.12699999809E+01 0.  1.
</event>
<event>
 5   0  0.2723308E-02  0.4982051E+03  0.7818609E-02  0.1014248E+00
       -1   -1    0    0    0  501  0.00000000000E+00  0.00000000000E+00  0.28914769041E+03  0.28914769046E+03  0.50400001928E-02 0.  1.
        1   -1    0    0  501    0  0.00000000000E+00  0.00000000000E+00 -0.21460344115E+03  0.21460344121E+03  0.50400001928E-02 0. -1.
    10030    2    1    2    0    0  0.00000000000E+00  0.00000000000E+00  0.74544249260E+02  0.50375113167E+03  0.49820513602E+03 0.  0.
        4    1    3    3  502    0 -0.47626283443E+02 -0.21265994623E+03  0.15927164085E+03  0.26992885004E+03  0.12699999809E+01 0.  1.
       -4    1    3    3    0  502  0.47626283443E+02  0.21265994623E+03 -0.84727391587E+02  0.23382228163E+03  0.12699999809E+01 0. -1.
</event>
<event>
 5   0  0.2715483E-02  0.4999454E+03  0.7818609E-02  0.1013793E+00
        1   -1    0    0  501    0  0.00000000000E+00  0.00000000000E+00  0.37443272537E+03  0.37443272540E+03  0.50400001928E-02 0.  1.
       -1   -1    0    0    0  501  0.00000000000E+00  0.00000000000E+00 -0.16688270349E+03  0.16688270356E+03  0.50400001928E-02 0. -1.
    10030    2    1    2    0    0  0.00000000000E+00  0.00000000000E+00  0.20755002189E+03  0.54131542897E+03  0.49994537907E+03 0.  0.
        5    1    3    3  502    0 -0.65725151364E+02 -0.97944265770E+02  0.34235204768E+03  0.36213241952E+03  0.46999998093E+01 0.  1.
       -5    1    3    3    0  502  0.65725151364E+02  0.97944265770E+02 -0.13480202579E+03  0.17918300945E+03  0.46999998093E+01 0. -1.
</event>
<event>
 5   0  0.2715483E-02  0.4994508E+03  0.7818609E-02  0.1013922E+00
       -1   -1    0    0    0  501  0.00000000000E+00  0.00000000000E+00  0.18527470870E+03  0.18527470877E+03  0.50400001928E-02 0.  1.
        1   -1    0    0  501    0  0.00000000000E+00  0.00000000000E+00 -0.33659630184E+03  0.33659630188E+03  0.50400001928E-02 0. -1.
    10030    2    1    2    0    0  0.00000000000E+00  0.00000000000E+00 -0.15132159314E+03  0.52187101064E+03  0.49945082560E+03 0.  0.
        5    1    3    3  502    0 -0.16688491464E+03 -0.53025560283E+02  0.11031314893E+03  0.20701054467E+03  0.46999998093E+01 0.  1.
       -5    1    3    3    0  502  0.16688491464E+03  0.53025560283E+02 -0.26163474207E+03  0.31486046597E+03  0.46999998093E+01 0. -1.
</event>
<event>
 5   0  0.1805500E-02  0.4944170E+03  0.7818609E-02  0.1015247E+00
       -3   -1    0    0    0  501  0.00000000000E+00  0.00000000000E+00  0.40482996728E+03  0.40482997988E+03  0.10100000352E+00 0.  1.
        3   -1    0    0  501    0  0.00000000000E+00  0.00000000000E+00 -0.15095728986E+03  0.15095732364E+03  0.10100000352E+00 0. -1.
    10030    2    1    2    0    0  0.00000000000E+00  0.00000000000E+00  0.25387267743E+03  0.55578730352E+03  0.49441702076E+03 0.  0.
        5    1    3    3  502    0 -0.37564989179E+02 -0.71060926510E+02  0.38967714288E+03  0.39790846858E+03  0.46999998093E+01 0.  1.
       -5    1    3    3    0  502  0.37564989179E+02  0.71060926510E+02 -0.13580446545E+03  0.15787883494E+03  0.46999998093E+01 0. -1.
</event>
<event>
 5   0  0.1805500E-02  0.5213310E+03  0.7818609E-02  0.1008356E+00
       -3   -1    0    0    0  501  0.00000000000E+00  0.00000000000E+00  0.18512269444E+03  0.18512272199E+03  0.10100000352E+00 0. -1.
        3   -1    0    0  501    0  0.00000000000E+00  0.00000000000E+00 -0.36703490247E+03  0.36703491636E+03  0.10100000352E+00 0.  1.
    10030    2    1    2    0    0  0.00000000000E+00  0.00000000000E+00 -0.18191220802E+03  0.55215763836E+03  0.52133099483E+03 0.  0.
        4    1    3    3  502    0  0.21852863270E+02 -0.25972818982E+03 -0.87848602747E+02  0.27505503108E+03  0.12699999809E+01 0.  1.
       -4    1    3    3    0  502 -0.21852863270E+02  0.25972818982E+03 -0.94063605276E+02  0.27710260727E+03  0.12699999809E+01 0. -1.
</event>
<event>
 5   0  0.4451135E-02  0.5024746E+03  0.7818609E-02  0.1013135E+00
       -2   -1    0    0    0  501  0.00000000000E+00  0.00000000000E+00  0.52472752570E+02  0.52472752632E+02  0.25500000920E-02 0. -1.
        2   -1    0    0  501    0  0.00000000000E+00  0.00000000000E+00 -0.12029136684E+04  0.12029136684E+04  0.25500000920E-02 0.  1.
    10030    2    1    2    0    0  0.00000000000E+00  0.00000000000E+00 -0.11504409158E+04  0.12553864210E+04  0.50247464144E+03 0.  0.
        1    1    3    3  502    0  0.96726722029E+02 -0.11708827824E+03 -0.10752420514E+04  0.10859149104E+04  0.50400001928E-02 0.  1.
       -1    1    3    3    0  502 -0.96726722029E+02  0.11708827824E+03 -0.75198864428E+02  0.16947151056E+03  0.50400001928E-02 0. -1.
</event>
<event>
 5   0  0.4451135E-02  0.5002205E+03  0.7818609E-02  0.1013721E+00
       -2   -1    0    0    0  501  0.00000000000E+00  0.00000000000E+00  0.54756731317E+02  0.54756731376E+02  0.25500000920E-02 0. -1.
        2   -1    0    0  501    0  0.00000000000E+00  0.00000000000E+00 -0.11424190925E+04  0.11424190925E+04  0.25500000920E-02 0.  1.
    10030    2    1    2    0    0  0.00000000000E+00  0.00000000000E+00 -0.10876623612E+04  0.11971758239E+04  0.50022049274E+03 0.  0.
        1    1    3    3  502    0 -0.16632761615E+03  0.18435382694E+03 -0.47187586600E+03  0.53321481819E+03  0.50400001928E-02 0. -1.
       -1    1    3    3    0  502  0.16632761615E+03 -0.18435382694E+03 -0.61578649523E+03  0.66396100573E+03  0.50400001928E-02 0.  1.
</event>
<event>
 5   0  0.2723308E-02  0.4896084E+03  0.7818609E-02  0.1016527E+00
        1   -1    0    0  501    0  0.00000000000E+00  0.00000000000E+00  0.20051955666E+03  0.20051955673E+03  0.50400001928E-02 0. -1.
       -1   -1    0    0    0  501  0.00000000000E+00  0.00000000000E+00 -0.29886914051E+03  0.29886914055E+03  0.50400001928E-02 0.  1.
    10030    2    1    2    0    0  0.00000000000E+00  0.00000000000E+00 -0.98349583844E+02  0.49938869727E+03  0.48960844593E+03 0.  0.
        4    1    3    3  502    0 -0.15527609845E+03 -0.59516240841E+02  0.13406531849E+03  0.21360705090E+03  0.12699999809E+01 0.  1.
       -4    1    3    3    0  502  0.15527609845E+03  0.59516240841E+02 -0.23241490233E+03  0.28578164637E+03  0.12699999809E+01 0. -1.
</event>
<event>
 5   0  0.4534223E-02  0.4995730E+03  0.7818609E-02  0.1013890E+00
       -2   -1    0    0    0  501  0.00000000000E+00  0.00000000000E+00  0.44286440982E+02  0.44286441056E+02  0.25500000920E-02 0.  1.
        2   -1    0    0  501    0  0.00000000000E+00  0.00000000000E+00 -0.14088576221E+04  0.14088576221E+04  0.25500000920E-02 0. -1.
    10030    2    1    2    0    0  0.00000000000E+00  0.00000000000E+00 -0.13645711812E+04  0.14531440632E+04  0.49957297761E+03 0.  0.
        2    1    3    3  502    0 -0.71803844804E+01  0.12095927744E+03 -0.13176415459E+04  0.13232014013E+04  0.25500000920E-02 0. -1.
       -2    1    3    3    0  502  0.71803844804E+01 -0.12095927744E+03 -0.46929635206E+02  0.12994266192E+03  0.25500000920E-02 0.  1.
</event>
<event>
 5   0  0.2715483E-02  0.5000756E+03  0.7818609E-02  0.1013759E+00
       -1   -1    0    0    0  501  0.00000000000E+00  0.00000000000E+00  0.55129615682E+02  0.55129615912E+02  0.50400001928E-02 0. -1.
        1   -1    0    0  501    0  0.00000000000E+00  0.00000000000E+00 -0.11340347034E+04  0.11340347034E+04  0.50400001928E-02 0.  1.
    10030    2    1    2    0    0  0.00000000000E+00  0.00000000000E+00 -0.10789050877E+04  0.11891643193E+04  0.50007558433E+03 0.  0.
        5    1    3    3  502    0  0.19626181137E+03 -0.73727094731E+02 -0.86326196282E+03  0.88836799219E+03  0.46999998093E+01 0.  1.
       -5    1    3    3    0  502 -0.19626181137E+03  0.73727094731E+02 -0.21564312489E+03  0.30079632713E+03  0.46999998093E+01 0. -1.
</event>
<event>
 5   0  0.4631619E-02  0.5035679E+03  0.7818609E-02  0.1012852E+00
       -2   -1    0    0    0  501  0.00000000000E+00  0.00000000000E+00  0.52586852014E+02  0.52586852076E+02  0.25500000920E-02 0. -1.
        2   -1    0    0  501    0  0.00000000000E+00  0.00000000000E+00 -0.12055324719E+04  0.12055324719E+04  0.25500000920E-02 0.  1.
    10030    2    1    2    0    0  0.00000000000E+00  0.00000000000E+00 -0.11529456199E+04  0.12581193240E+04  0.50356790104E+03 0.  0.
        5    1    3    3  502    0 -0.17136457191E+03 -0.16150322887E+03 -0.79887286198E+03  0.83286796615E+03  0.46999998093E+01 0. -1.
       -5    1    3    3    0  502  0.17136457191E+03  0.16150322887E+03 -0.35407275790E+03  0.42525135782E+03  0.46999998093E+01 0.  1.
</event>
<event>
 5   0  0.4631619E-02  0.4969958E+03  0.7818609E-02  0.1014566E+00
       -2   -1    0    0    0  501  0.00000000000E+00  0.00000000000E+00  0.10507523984E+03  0.10507523987E+03  0.25500000920E-02 0. -1.
        2   -1    0    0  501    0  0.00000000000E+00  0.00000000000E+00 -0.58768558763E+03  0.58768558764E+03  0.25500000920E-02 0.  1.
    10030    2    1    2    0    0  0.00000000000E+00  0.00000000000E+00 -0.48261034779E+03  0.69276082751E+03  0.49699579106E+03 0.  0.
        5    1    3    3  502    0  0.22008056207E+03  0.11195927174E+03 -0.27970144523E+03  0.37312909400E+03  0.46999998093E+01 0. -1.
       -5    1    3    3    0  502 -0.22008056207E+03 -0.11195927174E+03 -0.20290890256E+03  0.31963173350E+03  0.46999998093E+01 0.  1.
</event>
<event>
 5   0  0.2643185E-02  0.5142719E+03  0.7818609E-02  0.1010119E+00
       -1   -1    0    0    0  501  0.00000000000E+00  0.00000000000E+00  0.76822957660E+02  0.76822957825E+02  0.50400001928E-02 0. -1.
        1   -1    0    0  501    0  0.00000000000E+00  0.00000000000E+00 -0.86066575341E+03  0.86066575343E+03  0.50400001928E-02 0.  1.
    10030    2    1    2    0    0  0.00000000000E+00  0.00000000000E+00 -0.78384279575E+03  0.93748871125E+03  0.51427186903E+03 0.  0.
        1    1    3    3  502    0  0.77428410927E+02 -0.24405237296E+03 -0.43514359219E+03  0.50488282346E+03  0.50400001928E-02 0. -1.
       -1    1    3    3    0  502 -0.77428410927E+02  0.24405237296E+03 -0.34869920356E+03  0.43260588780E+03  0.50400001928E-02 0.  1.
</event>
<event>
 5   0  0.2723308E-02  0.5007198E+03  0.7818609E-02  0.1013591E+00
       -1   -1    0    0    0  501  0.00000000000E+00  0.00000000000E+00  0.10550805147E+03  0.10550805159E+03  0.50400001928E-02 0.  1.
        1   -1    0    0  501    0  0.00000000000E+00  0.00000000000E+00 -0.59407862530E+03  0.59407862532E+03  0.50400001928E-02 0. -1.
    10030    2    1    2    0    0  0.00000000000E+00  0.00000000000E+00 -0.48857057382E+03  0.69958667691E+03  0.50071979480E+03 0.  0.
        4    1    3    3  502    0 -0.10741028725E+03 -0.18743958441E+03 -0.42105746774E+03  0.47324578355E+03  0.12699999809E+01 0. -1.
       -4    1    3    3    0  502  0.10741028725E+03  0.18743958441E+03 -0.67513106083E+02  0.22634089336E+03  0.12699999809E+01 0.  1.
</event>
<event>
 5   0  0.4409622E-02  0.5065461E+03  0.7818609E-02  0.1012084E+00
        2   -1    0    0  501    0  0.00000000000E+00  0.00000000000E+00  0.10202125285E+04  0.10202125285E+04  0.25500000920E-02 0. -1.
       -2   -1    0    0    0  501  0.00000000000E+00  0.00000000000E+00 -0.62876355108E+02  0.62876355160E+02  0.25500000920E-02 0.  1.
    10030    2    1    2    0    0  0.00000000000E+00  0.00000000000E+00  0.95733617342E+03  0.10830888837E+04  0.50654612923E+03 0.  0.
        3    1    3    3  502    0  0.18060603881E+03 -0.17042088491E+03  0.37207117467E+03  0.44732403075E+03  0.10100000352E+00 0.  1.
       -3    1    3    3    0  502 -0.18060603881E+03  0.17042088491E+03  0.58526499875E+03  0.63576485294E+03  0.10100000352E+00 0. -1.
</event>
<event>
 5   0  0.4451135E-02  0.5008814E+03  0.7818609E-02  0.1013549E+00
        2   -1    0    0  501    0  0.00000000000E+00  0.00000000000E+00  0.20102370855E+04  0.20102370855E+04  0.25500000920E-02 0.  1.
       -2   -1    0    0    0  501  0.00000000000E+00  0.00000000000E+00 -0.31200564657E+02  0.31200564761E+02  0.25500000920E-02 0. -1.
    10030    2    1    2    0    0  0.00000000000E+00  0.00000000000E+00  0.19790365208E+04  0.20414376502E+04  0.50088135230E+03 0.  0.
        1    1    3    3  502    0 -0.10974129506E+03  0.94878212925E+02  0.18215534473E+04  0.18273209867E+04  0.50400001928E-02 0.  1.
       -1    1    3    3    0  502  0.10974129506E+03 -0.94878212925E+02  0.15748307357E+03  0.21411666356E+03  0.50400001928E-02 0. -1.
</event>
<event>
 5   0  0.4631619E-02  0.5038375E+03  0.7818609E-02  0.1012782E+00
       -2   -1    0    0    0  501  0.00000000000E+00  0.00000000000E+00  0.59832451831E+02  0.59832451886E+02  0.25500000920E-02 0.  1.
        2   -1    0    0  501    0  0.00000000000E+00  0.00000000000E+00 -0.10606793583E+04  0.10606793583E+04  0.25500000920E-02 0. -1.
    10030    2    1    2    0    0  0.00000000000E+00  0.00000000000E+00 -0.10008469065E+04  0.11205118102E+04  0.50383746048E+03 0.  0.
        5    1    3    3  502    0 -0.17301766222E+03 -0.18193568995E+03 -0.45565341555E+03  0.52026707739E+03  0.46999998093E+01 0.  1.
       -5    1    3    3    0  502  0.17301766222E+03  0.18193568995E+03 -0.54519349093E+03  0.60024473281E+03  0.46999998093E+01 0. -1.
</event>
<event>
 5   0  0.1805500E-02  0.5028741E+03  0.7818609E-02  0.1013031E+00
        4   -1    0    0  501    0  0.00000000000E+00  0.00000000000E+00  0.64185775381E+02  0.64198338462E+02  0.12699999809E+01 0. -1.
       -4   -1    0    0    0  501  0.00000000000E+00  0.00000000000E+00 -0.98485337618E+03  0.98485419503E+03  0.12699999809E+01 0.  1.
    10030    2    1    2    0    0  0.00000000000E+00  0.00000000000E+00 -0.92066760080E+03  0.10490525335E+04  0.50287412627E+03 0.  0.
        4    1    3    3  502    0 -0.35799203195E+02 -0.15415298543E+03 -0.86792354470E+03  0.88223444628E+03  0.12699999809E+01 0.  1.
       -4    1    3    3    0  502  0.35799203195E+02  0.15415298543E+03 -0.52744056099E+02  0.16681808721E+03  0.12699999809E+01 0. -1.
</event>
<event>
 5   0  0.4409622E-02  0.5021254E+03  0.7818609E-02  0.1013226E+00
        2   -1    0    0  501    0  0.00000000000E+00  0.00000000000E+00  0.22329133915E+03  0.22329133916E+03  0.25500000920E-02 0.  1.
       -2   -1    0    0    0  501  0.00000000000E+00  0.00000000000E+00 -0.28228805624E+03  0.28228805625E+03  0.25500000920E-02 0. -1.
    10030    2    1    2    0    0  0.00000000000E+00  0.00000000000E+00 -0.58996717094E+02  0.50557939542E+03  0.50212539514E+03 0.  0.
        3    1    3    3  502    0  0.23588500057E+03  0.69006714505E+02  0.22126228968E+02  0.24676555746E+03  0.10100000352E+00 0.  1.
       -3    1    3    3    0  502 -0.23588500057E+03 -0.69006714505E+02 -0.81122946062E+02  0.25881383796E+03  0.10100000352E+00 0. -1.
</event>
<event>
 5   0  0.4519539E-02  0.4985421E+03  0.7818609E-02  0.1014160E+00
        2   -1    0    0  501    0  0.00000000000E+00  0.00000000000E+00  0.47313858502E+03  0.47313858503E+03  0.25500000920E-02 0. -1.
       -2   -1    0    0    0  501  0.00000000000E+00  0.00000000000E+00 -0.13132738836E+03  0.13132738839E+03  0.25500000920E-02 0.  1.
    10030    2    1    2    0    0  0.00000000000E+00  0.00000000000E+00  0.34181119666E+03  0.60446597342E+03  0.49854209337E+03 0.  0.
        4    1    3    3  502    0  0.21159541416E+03  0.66809174846E+02  0.33204559451E+02  0.22436630943E+03  0.12699999809E+01 0.  1.
       -4    1    3    3    0  502 -0.21159541416E+03 -0.66809174846E+02  0.30860663720E+03  0.38009966399E+03  0.12699999809E+01 0. -1.
</event>
<event>
 5   0  0.2715483E-02  0.4998740E+03  0.7818609E-02  0.1013812E+00
       -1   -1    0    0    0  501  0.00000000000E+00  0.00000000000E+00  0.14588744709E+03  0.14588744718E+03  0.50400001928E-02 0. -1.
        1   -1    0    0  501    0  0.00000000000E+00  0.00000000000E+00 -0.42819658049E+03  0.42819658052E+03  0.50400001928E-02 0.  1.
    10030    2    1    2    0    0  0.00000000000E+00  0.00000000000E+00 -0.28230913339E+03  0.57408402770E+03  0.49987400819E+03 0.  0.
        5    1    3    3  502    0  0.81192423081E+02  0.14670892897E+03  0.71637884086E+02  0.18240009825E+03  0.46999998093E+01 0. -1.
       -5    1    3    3    0  502 -0.81192423081E+02 -0.14670892897E+03 -0.35394701748E+03  0.39168392945E+03  0.46999998093E+01 0.  1.
</event>
<event>
 5   0  0.4409622E-02  0.4936235E+03  0.7818609E-02  0.1015457E+00
        2   -1    0    0  501    0  0.00000000000E+00  0.00000000000E+00  0.14176074668E+04  0.14176074668E+04  0.25500000920E-02 0.  1.
       -2   -1    0    0    0  501  0.00000000000E+00  0.00000000000E+00 -0.42971015783E+02  0.42971015859E+02  0.25500000920E-02 0. -1.
    10030    2    1    2    0    0  0.00000000000E+00  0.00000000000E+00  0.13746364510E+04  0.14605784826E+04  0.49362347143E+03 0.  0.
        3    1    3    3  502    0  0.63705214150E+02 -0.81378655391E+02  0.13505007750E+04  0.13544494059E+04  0.10100000352E+00 0.  1.
       -3    1    3    3    0  502 -0.63705214150E+02  0.81378655391E+02  0.24135676030E+02  0.10612907670E+03  0.10100000352E+00 0. -1.
</event>
<event>
 5   0  0.4519539E-02  0.4925299E+03  0.7818609E-02  0.1015747E+00
       -2   -1    0    0    0  501  0.00000000000E+00  0.00000000000E+00  0.61060517995E+02  0.61060518048E+02  0.25500000920E-02 0. -1.
        2   -1    0    0  501    0  0.00000000000E+00  0.00000000000E+00 -0.99321825103E+03  0.99321825104E+03  0.25500000920E-02 0.  1.
    10030    2    1    2    0    0  0.00000000000E+00  0.00000000000E+00 -0.93215773304E+03  0.10542787691E+04  0.49252988100E+03 0.  0.
        4    1    3    3  502    0 -0.24119072990E+03 -0.49684104338E+02 -0.46217298324E+03  0.52368593427E+03  0.12699999809E+01 0. -1.
       -4    1    3    3    0  502  0.24119072990E+03  0.49684104338E+02 -0.46998474980E+03  0.53059283482E+03  0.12699999809E+01 0.  1.
</event>
<event>
 5   0  0.4451135E-02  0.4956760E+03  0.7818609E-02  0.1014914E+00
        2   -1    0    0  501    0  0.00000000000E+00  0.00000000000E+00  0.27086248162E+03  0.27086248164E+03  0.25500000920E-02 0.  1.
       -2   -1    0    0    0  501  0.00000000000E+00  0.00000000000E+00 -0.22677071624E+03  0.22677071626E+03  0.25500000920E-02 0. -1.
    10030    2    1    2    0    0  0.00000000000E+00  0.00000000000E+00  0.44091765382E+02  0.49763319789E+03  0.49567601906E+03 0.  0.
        1    1    3    3  502    0 -0.11608513227E+03  0.10248268633E+03  0.21631762285E+03  0.26602964668E+03  0.50400001928E-02 0.  1.
       -1    1    3    3    0  502  0.11608513227E+03 -0.10248268633E+03 -0.17222585747E+03  0.23160355122E+03  0.50400001928E-02 0. -1.
</event>
<event>
 5   0  0.2723308E-02  0.5005107E+03  0.7818609E-02  0.1013646E+00
       -1   -1    0    0    0  501  0.00000000000E+00  0.00000000000E+00  0.44705064626E+03  0.44705064628E+03  0.50400001928E-02 0. -1.
        1   -1    0    0  501    0  0.00000000000E+00  0.00000000000E+00 -0.14009090561E+03  0.14009090570E+03  0.50400001928E-02 0.  1.
    10030    2    1    2    0    0  0.00000000000E+00  0.00000000000E+00  0.30695974064E+03  0.58714155199E+03  0.50051065892E+03 0.  0.
        4    1    3    3  502    0  0.82612321965E+01  0.13818575985E+03 -0.91081107183E+02  0.16571340672E+03  0.12699999809E+01 0.  1.
       -4    1    3    3    0  502 -0.82612321965E+01 -0.13818575985E+03  0.39804084783E+03  0.42142814526E+03  0.12699999809E+01 0. -1.
</event>
<event>
 5   0  0.4409622E-02  0.5010093E+03  0.7818609E-02  0.1013516E+00
       -2   -1    0    0    0  501  0.00000000000E+00  0.00000000000E+00  0.61567167251E+02  0.61567167304E+02  0.25500000920E-02 0. -1.
        2   -1    0    0  501    0  0.00000000000E+00  0.00000000000E+00 -0.10192541401E+04  0.10192541401E+04  0.25500000920E-02 0.  1.
    10030    2    1    2    0    0  0.00000000000E+00  0.00000000000E+00 -0.95768697283E+03  0.10808213074E+04  0.50100934180E+03 0.  0.
        3    1    3    3  502    0  0.88168307399E+02 -0.15089641240E+02 -0.98362683814E+03  0.98768573676E+03  0.10100000352E+00 0.  1.
       -3    1    3    3    0  502 -0.88168307399E+02  0.15089641240E+02  0.25939865307E+02  0.93135570624E+02  0.10100000352E+00 0. -1.
</event>
<event>
 5   0  0.4631619E-02  0.5037605E+03  0.7818609E-02  0.1012802E+00
       -2   -1    0    0    0  501  0.00000000000E+00  0.00000000000E+00  0.67661939821E+02  0.67661939869E+02  0.25500000920E-02 0. -1.
        2   -1    0    0  501    0  0.00000000000E+00  0.00000000000E+00 -0.93765646928E+03  0.93765646929E+03  0.25500000920E-02 0.  1.
    10030    2    1    2    0    0  0.00000000000E+00  0.00000000000E+00 -0.86999452946E+03  0.10053184092E+04  0.50376048127E+03 0.  0.
        5    1    3    3  502    0 -0.14373076660E+03  0.20649111628E+03 -0.45726003383E+03  0.52192522732E+03  0.46999998093E+01 0. -1.
       -5    1    3    3    0  502  0.14373076660E+03 -0.20649111628E+03 -0.41273449563E+03  0.48339318184E+03  0.46999998093E+01 0.  1.
</event>
<event>
 5   0  0.2643185E-02  0.4998401E+03  0.7818609E-02  0.1013821E+00
        1   -1    0    0  501    0  0.00000000000E+00  0.00000000000E+00  0.20657050940E+03  0.20657050947E+03  0.50400001928E-02 0. -1.
       -1   -1    0    0    0  501  0.00000000000E+00  0.00000000000E+00 -0.30236667395E+03  0.30236667399E+03  0.50400001928E-02 0.  1.
    10030    2    1    2    0    0  0.00000000000E+00  0.00000000000E+00 -0.95796164544E+02  0.50893718346E+03  0.49984012600E+03 0.  0.
        1    1    3    3  502    0  0.17662301505E+03 -0.13422204612E+03  0.69300183479E+02  0.23240861121E+03  0.50400001928E-02 0. -1.
       -1    1    3    3    0  502 -0.17662301505E+03  0.13422204612E+03 -0.16509634802E+03  0.27652857224E+03  0.50400001928E-02 0.  1.
</event>
<event>
 5   0  0.1805500E-02  0.5055818E+03  0.7818609E-02  0.1012332E+00
        3   -1    0    0  501    0  0.00000000000E+00  0.00000000000E+00  0.84832280232E+03  0.84832280833E+03  0.10100000352E+00 0. -1.
       -3   -1    0    0    0  501  0.00000000000E+00  0.00000000000E+00 -0.75328872324E+02  0.75328940033E+02  0.10100000352E+00 0.  1.
    10030    2    1    2    0    0  0.00000000000E+00  0.00000000000E+00  0.77299392999E+03  0.92365174836E+03  0.50558178018E+03 0.  0.
        2    1    3    3  502    0  0.70013943880E+02  0.15762378332E+03  0.48859600697E+02  0.17926089923E+03  0.25500000920E-02 0.  1.
       -2    1    3    3    0  502 -0.70013943880E+02 -0.15762378332E+03  0.72413432930E+03  0.74439084914E+03  0.25500000920E-02 0. -1.
</event>
<event>
 5   0  0.2723308E-02  0.5013727E+03  0.7818609E-02  0.1013421E+00
        1   -1    0    0  501    0  0.00000000000E+00  0.00000000000E+00  0.17896324232E+03  0.17896324239E+03  0.50400001928E-02 0.  1.
       -1   -1    0    0    0  501  0.00000000000E+00  0.00000000000E+00 -0.35115399955E+03  0.35115399959E+03  0.50400001928E-02 0. -1.
    10030    2    1    2    0    0  0.00000000000E+00  0.00000000000E+00 -0.17219075723E+03  0.53011724198E+03  0.50137274893E+03 0.  0.
        4    1    3    3  502    0  0.55723582508E+02 -0.58791869646E+01  0.17225372850E+03  0.18114260230E+03  0.12699999809E+01 0.  1.
       -4    1    3    3    0  502 -0.55723582508E+02  0.58791869646E+01 -0.34444448573E+03  0.34897463968E+03  0.12699999809E+01 0. -1.
</event>
<event>
 5   0  0.4519539E-02  0.4983554E+03  0.7818609E-02  0.1014209E+00
       -2   -1    0    0    0  501  0.00000000000E+00  0.00000000000E+00  0.15429534499E+03  0.15429534501E+03  0.25500000920E-02 0.  1.
        2   -1    0    0  501    0  0.00000000000E+00  0.00000000000E+00 -0.40240701319E+03  0.40240701320E+03  0.25500000920E-02 0. -1.
    10030    2    1    2    0    0  0.00000000000E+00  0.00000000000E+00 -0.24811166820E+03  0.55670235821E+03  0.49835541106E+03 0.  0.
        4    1    3    3  502    0  0.16166528274E+03 -0.32699739977E+02  0.84580848464E+02  0.18536577210E+03  0.12699999809E+01 0.  1.
       -4    1    3    3    0  502 -0.16166528274E+03  0.32699739977E+02 -0.33269251666E+03  0.37133658611E+03  0.12699999809E+01 0. -1.
</event>
<event>
 5   0  0.2779445E-02  0.5018045E+03  0.7818609E-02  0.1013309E+00
       -1   -1    0    0    0  501  0.00000000000E+00  0.00000000000E+00  0.43239290574E+02  0.43239290868E+02  0.50400001928E-02 0.  1.
        1   -1    0    0  501    0  0.00000000000E+00  0.00000000000E+00 -0.14558967369E+04  0.14558967369E+04  0.50400001928E-02 0. -1.
    10030    2    1    2    0    0  0.00000000000E+00  0.00000000000E+00 -0.14126574463E+04  0.14991360278E+04  0.50180451285E+03 0.  0.
        3    1    3    3  502    0 -0.15253993179E+03  0.12420039207E+03 -0.11716274467E+04  0.11880256951E+04  0.10100000352E+00 0. -1.
       -3    1    3    3    0  502  0.15253993179E+03 -0.12420039207E+03 -0.24102999968E+03  0.31111033272E+03  0.10100000352E+00 0.  1.
</event>
<event>
 5   0  0.4631619E-02  0.4932366E+03  0.7818609E-02  0.1015559E+00
        2   -1    0    0  501    0  0.00000000000E+00  0.00000000000E+00  0.26499682685E+03  0.26499682687E+03  0.25500000920E-02 0.  1.
       -2   -1    0    0    0  501  0.00000000000E+00  0.00000000000E+00 -0.22951440961E+03  0.22951440963E+03  0.25500000920E-02 0. -1.
    10030    2    1    2    0    0  0.00000000000E+00  0.00000000000E+00  0.35482417241E+02  0.49451123649E+03  0.49323661774E+03 0.  0.
        5    1    3    3  502    0  0.21147644662E+03  0.81512070652E+02 -0.79628223533E+02  0.24026911812E+03  0.46999998093E+01 0. -1.
       -5    1    3    3    0  502 -0.21147644662E+03 -0.81512070652E+02  0.11511064077E+03  0.25424211838E+03  0.46999998093E+01 0.  1.
</event>
<event>
 5   0  0.4534223E-02  0.4987597E+03  0.7818609E-02  0.1014103E+00
       -2   -1    0    0    0  501  0.00000000000E+00  0.00000000000E+00  0.85993171415E+02  0.85993171453E+02  0.25500000920E-02 0. -1.
        2   -1    0    0  501    0  0.00000000000E+00  0.00000000000E+00 -0.72320047452E+03  0.72320047453E+03  0.25500000920E-02 0.  1.
    10030    2    1    2    0    0  0.00000000000E+00  0.00000000000E+00 -0.63720730311E+03  0.80919364598E+03  0.49875967115E+03 0.  0.
        2    1    3    3  502    0 -0.27548769878E+02 -0.20272126099E+03 -0.87243738116E+02  0.22241023858E+03  0.25500000920E-02 0. -1.
       -2    1    3    3    0  502  0.27548769878E+02  0.20272126099E+03 -0.54996356499E+03  0.58678340740E+03  0.25500000920E-02 0.  1.
</event>
<event>
 5   0  0.4631619E-02  0.5001809E+03  0.7818609E-02  0.1013732E+00
        2   -1    0    0  501    0  0.00000000000E+00  0.00000000000E+00  0.29691466019E+03  0.29691466020E+03  0.25500000920E-02 0.  1.
       -2   -1    0    0    0  501  0.00000000000E+00  0.00000000000E+00 -0.21065053451E+03  0.21065053453E+03  0.25500000920E-02 0. -1.
    10030    2    1    2    0    0  0.00000000000E+00  0.00000000000E+00  0.86264125683E+02  0.50756519473E+03  0.50018089480E+03 0.  0.
        5    1    3    3  502    0  0.19942170438E+03 -0.16965179487E+02 -0.10896841990E+03  0.22793209521E+03  0.46999998093E+01 0. -1.
       -5    1    3    3    0  502 -0.19942170438E+03  0.16965179487E+02  0.19523254558E+03  0.27963309952E+03  0.46999998093E+01 0.  1.
</event>
<event>
 5   0  0.2779445E-02  0.5002979E+03  0.7818609E-02  0.1013701E+00
        1   -1    0    0  501    0  0.00000000000E+00  0.00000000000E+00  0.27321320538E+03  0.27321320543E+03  0.50400001928E-02 0. -1.
       -1   -1    0    0    0  501  0.00000000000E+00  0.00000000000E+00 -0.22903177318E+03  0.22903177323E+03  0.50400001928E-02 0.  1.
    10030    2    1    2    0    0  0.00000000000E+00  0.00000000000E+00  0.44181432203E+02  0.50224497866E+03  0.50029793087E+03 0.  0.
        3    1    3    3  502    0 -0.18074292644E+03 -0.14510012550E+03 -0.72362872340E+02  0.24281360623E+03  0.10100000352E+00 0.  1.
       -3    1    3    3    0  502  0.18074292644E+03  0.14510012550E+03  0.11654430454E+03  0.25943137243E+03  0.10100000352E+00 0. -1.
</event>
<event>
 5   0  0.2719671E-02  0.4954888E+03  0.7818609E-02  0.1014963E+00
        1   -1    0    0  501    0  0.00000000000E+00  0.00000000000E+00  0.28101607979E+03  0.28101607984E+03  0.50400001928E-02 0.  1.
       -1   -1    0    0    0  501  0.00000000000E+00  0.00000000000E+00 -0.21841199994E+03  0.21841200000E+03  0.50400001928E-02 0. -1.
    10030    2    1    2    0    0  0.00000000000E+00  0.00000000000E+00  0.62604079847E+02  0.49942807984E+03  0.49548878506E+03 0.  0.
        2    1    3    3  502    0  0.20309095847E+03  0.13613000802E+03 -0.90155637980E+01  0.24466016613E+03  0.25500000920E-02 0. -1.
       -2    1    3    3    0  502 -0.20309095847E+03 -0.13613000802E+03  0.71619643645E+02  0.25476791371E+03  0.25500000920E-02 0.  1.
</event>
<event>
 5   0  0.4409622E-02  0.4993198E+03  0.7818609E-02  0.1013957E+00
       -2   -1    0    0    0  501  0.00000000000E+00  0.00000000000E+00  0.32104328970E+02  0.32104329071E+02  0.25500000920E-02 0. -1.
        2   -1    0    0  501    0  0.00000000000E+00  0.00000000000E+00 -0.19414845104E+04  0.19414845104E+04  0.25500000920E-02 0.  1.
    10030    2    1    2    0    0  0.00000000000E+00  0.00000000000E+00 -0.19093801814E+04  0.19735888394E+04  0.49931976733E+03 0.  0.
        3    1    3    3  502    0  0.21577640273E+03  0.87238533426E+02 -0.13117357757E+04  0.13322239951E+04  0.10100000352E+00 0. -1.
       -3    1    3    3    0  502 -0.21577640273E+03 -0.87238533426E+02 -0.59764440575E+03  0.64136484438E+03  0.10100000352E+00 0.  1.
</event>
<event>
 5   0  0.2719671E-02  0.5044500E+03  0.7818609E-02  0.1012624E+00
        1   -1    0    0  501    0  0.00000000000E+00  0.00000000000E+00  0.60301457222E+03  0.60301457224E+03  0.50400001928E-02 0.  1.
       -1   -1    0    0    0  501  0.00000000000E+00  0.00000000000E+00 -0.10549904286E+03  0.10549904298E+03  0.50400001928E-02 0. -1.
    10030    2    1    2    0    0  0.00000000000E+00  0.00000000000E+00  0.49751552936E+03  0.70851361523E+03  0.50445003817E+03 0.  0.
        2    1    3    3  502    0  0.22900971306E+03  0.10435693719E+03  0.22518675663E+03  0.33770533663E+03  0.25500000920E-02 0. -1.
       -2    1    3    3    0  502 -0.22900971306E+03 -0.10435693719E+03  0.27232877273E+03  0.37080827860E+03  0.25500000920E-02 0.  1.
</event>
<event>
 5   0  0.4519539E-02  0.5227541E+03  0.7818609E-02  0.1008005E+00
       -2   -1    0    0    0  501  0.00000000000E+00  0.00000000000E+00  0.53013468607E+02  0.53013468668E+02  0.25500000920E-02 0.  1.
        2   -1    0    0  501    0  0.00000000000E+00  0.00000000000E+00 -0.12886908184E+04  0.12886908184E+04  0.25500000920E-02 0. -1.
    10030    2    1    2    0    0  0.00000000000E+00  0.00000000000E+00 -0.12356773498E+04  0.13417042871E+04  0.52275413070E+03 0.  0.
        4    1    3    3  502    0  0.12770843540E+03  0.13213438965E+03 -0.10948922106E+04  0.11102069659E+04  0.12699999809E+01 0. -1.
       -4    1    3    3    0  502 -0.12770843540E+03 -0.13213438965E+03 -0.14078513924E+03  0.23149732122E+03  0.12699999809E+01 0.  1.
</event>
<event>
 5   0  0.1805500E-02  0.4990641E+03  0.7818609E-02  0.1014023E+00
        3   -1    0    0  501    0  0.00000000000E+00  0.00000000000E+00  0.10242739218E+03  0.10242744197E+03  0.10100000352E+00 0. -1.
       -3   -1    0    0    0  501  0.00000000000E+00  0.00000000000E+00 -0.60790601599E+03  0.60790602438E+03  0.10100000352E+00 0.  1.
    10030    2    1    2    0    0  0.00000000000E+00  0.00000000000E+00 -0.50547862382E+03  0.71033346636E+03  0.49906411841E+03 0.  0.
        5    1    3    3  502    0 -0.97732018229E+02  0.15059639007E+03 -0.61563396327E+01  0.17969644016E+03  0.46999998093E+01 0. -1.
       -5    1    3    3    0  502  0.97732018229E+02 -0.15059639007E+03 -0.49932228419E+03  0.53063702620E+03  0.46999998093E+01 0.  1.
</event>
<event>
 5   0  0.2723308E-02  0.4982683E+03  0.7818609E-02  0.1014232E+00
        1   -1    0    0  501    0  0.00000000000E+00  0.00000000000E+00  0.10133008375E+03  0.10133008387E+03  0.50400001928E-02 0. -1.
       -1   -1    0    0    0  501  0.00000000000E+00  0.00000000000E+00 -0.61253118801E+03  0.61253118803E+03  0.50400001928E-02 0.  1.
    10030    2    1    2    0    0  0.00000000000E+00  0.00000000000E+00 -0.51120110427E+03  0.71386127191E+03  0.49826834791E+03 0.  0.
        4    1    3    3  502    0 -0.19330199264E+03  0.15157820227E+03 -0.19610339436E+03  0.31432430059E+03  0.12699999809E+01 0. -1.
       -4    1    3    3    0  502  0.19330199264E+03 -0.15157820227E+03 -0.31509770991E+03  0.39953697132E+03  0.12699999809E+01 0.  1.
</event>
<event>
 5   0  0.2643185E-02  0.4994748E+03  0.7818609E-02  0.1013916E+00
       -1   -1    0    0    0  501  0.00000000000E+00  0.00000000000E+00  0.55784867927E+02  0.55784868154E+02  0.50400001928E-02 0.  1.
        1   -1    0    0  501    0  0.00000000000E+00  0.00000000000E+00 -0.11180231270E+04  0.11180231270E+04  0.50400001928E-02 0. -1.
    10030    2    1    2    0    0  0.00000000000E+00  0.00000000000E+00 -0.10622382590E+04  0.11738079951E+04  0.49947481465E+03 0.  0.
        1    1    3    3  502    0  0.17642345087E+03  0.27358795662E+02 -0.12072793290E+03  0.21552023461E+03  0.50400001928E-02 0.  1.
       -1    1    3    3    0  502 -0.17642345087E+03 -0.27358795662E+02 -0.94151032613E+03  0.95828776051E+03  0.50400001928E-02 0. -1.
</event>
<event>
 5   0  0.2715483E-02  0.4985238E+03  0.7818609E-02  0.1014165E+00
       -1   -1    0    0    0  501  0.00000000000E+00  0.00000000000E+00  0.20809741296E+03  0.20809741302E+03  0.50400001928E-02 0.  1.
        1   -1    0    0  501    0  0.00000000000E+00  0.00000000000E+00 -0.29856926581E+03  0.29856926585E+03  0.50400001928E-02 0. -1.
    10030    2    1    2    0    0  0.00000000000E+00  0.00000000000E+00 -0.90471852846E+02  0.50666667888E+03  0.49852378812E+03 0.  0.
        5    1    3    3  502    0  0.55114315472E+01 -0.30554927413E+02  0.20607908585E+03  0.20845781129E+03  0.46999998093E+01 0.  1.
       -5    1    3    3    0  502 -0.55114315472E+01  0.30554927413E+02 -0.29655093869E+03  0.29820886758E+03  0.46999998093E+01 0. -1.
</event>
<event>
 5   0  0.2643185E-02  0.4999926E+03  0.7818609E-02  0.1013781E+00
       -1   -1    0    0    0  501  0.00000000000E+00  0.00000000000E+00  0.89086517829E+02  0.89086517971E+02  0.50400001928E-02 0. -1.
        1   -1    0    0  501    0  0.00000000000E+00  0.00000000000E+00 -0.70154434363E+03  0.70154434365E+03  0.50400001928E-02 0.  1.
    10030    2    1    2    0    0  0.00000000000E+00  0.00000000000E+00 -0.61245782580E+03  0.79063086162E+03  0.49999257090E+03 0.  0.
        1    1    3    3  502    0 -0.84377546873E+01  0.14007370736E+03  0.20934006159E+02  0.14188048434E+03  0.50400001928E-02 0. -1.
       -1    1    3    3    0  502  0.84377546873E+01 -0.14007370736E+03 -0.63339183196E+03  0.64875037728E+03  0.50400001928E-02 0.  1.
</event>
<event>
 5   0  0.4534223E-02  0.4797759E+03  0.7818609E-02  0.1019197E+00
        2   -1    0    0  501    0  0.00000000000E+00  0.00000000000E+00  0.21858416741E+03  0.21858416742E+03  0.25500000920E-02 0. -1.
       -2   -1    0    0    0  501  0.00000000000E+00  0.00000000000E+00 -0.26326805635E+03  0.26326805636E+03  0.25500000920E-02 0.  1.
    10030    2    1    2    0    0  0.00000000000E+00  0.00000000000E+00 -0.44683888940E+02  0.48185222378E+03  0.47977590147E+03 0.  0.
        2    1    3    3  502    0  0.22502997556E+03  0.57267673898E+02  0.38152877883E+02  0.23531620954E+03  0.25500000920E-02 0.  1.
       -2    1    3    3    0  502 -0.22502997556E+03 -0.57267673898E+02 -0.82836766823E+02  0.24653601424E+03  0.25500000920E-02 0. -1.
</event>
<event>
 5   0  0.2723308E-02  0.5007473E+03  0.7818609E-02  0.1013584E+00
        1   -1    0    0  501    0  0.00000000000E+00  0.00000000000E+00  0.13829031512E+04  0.13829031512E+04  0.50400001928E-02 0. -1.
       -1   -1    0    0    0  501  0.00000000000E+00  0.00000000000E+00 -0.45329969643E+02  0.45329969923E+02  0.50400001928E-02 0.  1.
    10030    2    1    2    0    0  0.00000000000E+00  0.00000000000E+00  0.13375731815E+04  0.14282331211E+04  0.50074727386E+03 0.  0.
        4    1    3    3  502    0 -0.21102320672E+03 -0.10965848440E+03  0.89209004807E+03  0.92324538653E+03  0.12699999809E+01 0. -1.
       -4    1    3    3    0  502  0.21102320672E+03  0.10965848440E+03  0.44548313346E+03  0.50498773458E+03  0.12699999809E+01 0.  1.
</event>
<event>
 5   0  0.4631619E-02  0.5000628E+03  0.7818609E-02  0.1013763E+00
       -2   -1    0    0    0  501  0.00000000000E+00  0.00000000000E+00  0.46360994261E+02  0.46360994331E+02  0.25500000920E-02 0. -1.
        2   -1    0    0  501    0  0.00000000000E+00  0.00000000000E+00 -0.13484547164E+04  0.13484547164E+04  0.25500000920E-02 0.  1.
    10030    2    1    2    0    0  0.00000000000E+00  0.00000000000E+00 -0.13020937221E+04  0.13948157107E+04  0.50006280172E+03 0.  0.
        5    1    3    3  502    0 -0.26264168451E+02  0.70760786456E+02  0.13696323461E+02  0.76854243336E+02  0.46999998093E+01 0. -1.
       -5    1    3    3    0  502  0.26264168451E+02 -0.70760786456E+02 -0.13157900456E+04  0.13179614673E+04  0.46999998093E+01 0.  1.
</event>
<event>
 5   0  0.1805500E-02  0.5082164E+03  0.7818609E-02  0.1011656E+00
        3   -1    0    0  501    0  0.00000000000E+00  0.00000000000E+00  0.43766280315E+03  0.43766281480E+03  0.10100000352E+00 0. -1.
       -3   -1    0    0    0  501  0.00000000000E+00  0.00000000000E+00 -0.14753589357E+03  0.14753592814E+03  0.10100000352E+00 0.  1.
    10030    2    1    2    0    0  0.00000000000E+00  0.00000000000E+00  0.29012690958E+03  0.58519874294E+03  0.50821643526E+03 0.  0.
        2    1    3    3  502    0 -0.82441708640E+02 -0.11713713761E+03 -0.96618161114E+02  0.17277966719E+03  0.25500000920E-02 0.  1.
       -2    1    3    3    0  502  0.82441708640E+02  0.11713713761E+03  0.38674507069E+03  0.41241907575E+03  0.25500000920E-02 0. -1.
</event>
<event>
 5   0  0.4519539E-02  0.4994007E+03  0.7818609E-02  0.1013935E+00
        2   -1    0    0  501    0  0.00000000000E+00  0.00000000000E+00  0.54317233879E+03  0.54317233880E+03  0.25500000920E-02 0. -1.
       -2   -1    0    0    0  501  0.00000000000E+00  0.00000000000E+00 -0.11478910619E+03  0.11478910622E+03  0.25500000920E-02 0.  1.
    10030    2    1    2    0    0  0.00000000000E+00  0.00000000000E+00  0.42838323261E+03  0.65796144502E+03  0.49940071000E+03 0.  0.
        4    1    3    3  502    0  0.17329052903E+03  0.17923012779E+03  0.23261820118E+03  0.34097783884E+03  0.12699999809E+01 0.  1.
       -4    1    3    3    0  502 -0.17329052903E+03 -0.17923012779E+03  0.19576503142E+03  0.31698360618E+03  0.12699999809E+01 0. -1.
</event>
<event>
 5   0  0.2643185E-02  0.4986115E+03  0.7818609E-02  0.1014142E+00
       -1   -1    0    0    0  501  0.00000000000E+00  0.00000000000E+00  0.22588566714E+03  0.22588566720E+03  0.50400001928E-02 0.  1.
        1   -1    0    0  501    0  0.00000000000E+00  0.00000000000E+00 -0.27515409287E+03  0.27515409292E+03  0.50400001928E-02 0. -1.
    10030    2    1    2    0    0  0.00000000000E+00  0.00000000000E+00 -0.49268425727E+02  0.50103976011E+03  0.49861153561E+03 0.  0.
        1    1    3    3  502    0 -0.68224249139E+02  0.20861860615E+03  0.94166302540E+02  0.23883794414E+03  0.50400001928E-02 0. -1.
       -1    1    3    3    0  502  0.68224249139E+02 -0.20861860615E+03 -0.14343472827E+03  0.26220181597E+03  0.50400001928E-02 0.  1.
</event>
<event>
 5   0  0.4631619E-02  0.5000013E+03  0.7818609E-02  0.1013779E+00
        2   -1    0    0  501    0  0.00000000000E+00  0.00000000000E+00  0.10563893104E+04  0.10563893104E+04  0.25500000920E-02 0. -1.
       -2   -1    0    0    0  501  0.00000000000E+00  0.00000000000E+00 -0.59164105599E+02  0.59164105654E+02  0.25500000920E-02 0.  1.
    10030    2    1    2    0    0  0.00000000000E+00  0.00000000000E+00  0.99722520479E+03  0.11155534160E+04  0.50000131498E+03 0.  0.
        5    1    3    3  502    0  0.32140813721E+02  0.18056189392E+03  0.87752297792E+03  0.89649556397E+03  0.46999998093E+01 0. -1.
       -5    1    3    3    0  502 -0.32140813721E+02 -0.18056189392E+03  0.11970222687E+03  0.21905785208E+03  0.46999998093E+01 0.  1.
</event>
<event>
 5   0  0.2715483E-02  0.5003083E+03  0.7818609E-02  0.1013698E+00
       -1   -1    0    0    0  501  0.00000000000E+00  0.00000000000E+00  0.22666302634E+03  0.22666302640E+03  0.50400001928E-02 0. -1.
        1   -1    0    0  501    0  0.00000000000E+00  0.00000000000E+00 -0.27607988585E+03  0.27607988589E+03  0.50400001928E-02 0.  1.
    10030    2    1    2    0    0  0.00000000000E+00  0.00000000000E+00 -0.49416859507E+02  0.50274291229E+03  0.50030831479E+03 0.  0.
        5    1    3    3  502    0 -0.25981933248E+01  0.22336653165E+03  0.88336357072E+02  0.24025977617E+03  0.46999998093E+01 0. -1.
       -5    1    3    3    0  502  0.25981933248E+01 -0.22336653165E+03 -0.13775321658E+03  0.26248313611E+03  0.46999998093E+01 0.  1.
</event>
<event>
 5   0  0.4451135E-02  0.4932723E+03  0.7818609E-02  0.1015550E+00
        2   -1    0    0  501    0  0.00000000000E+00  0.00000000000E+00  0.10726521635E+04  0.10726521635E+04  0.25500000920E-02 0.  1.
       -2   -1    0    0    0  501  0.00000000000E+00  0.00000000000E+00 -0.56709340040E+02  0.56709340098E+02  0.25500000920E-02 0. -1.
    10030    2    1    2    0    0  0.00000000000E+00  0.00000000000E+00  0.10159428235E+04  0.11293615036E+04  0.49327232365E+03 0.  0.
        1    1    3    3  502    0  0.38001152657E+02 -0.21410489499E+03  0.24151501005E+03  0.32498383617E+03  0.50400001928E-02 0. -1.
       -1    1    3    3    0  502 -0.38001152657E+02  0.21410489499E+03  0.77442781343E+03  0.80437766745E+03  0.50400001928E-02 0.  1.
</event>
<event>
 5   0  0.4409622E-02  0.5079874E+03  0.7818609E-02  0.1011715E+00
       -2   -1    0    0    0  501  0.00000000000E+00  0.00000000000E+00  0.17963261214E+03  0.17963261216E+03  0.25500000920E-02 0.  1.
        2   -1    0    0  501    0  0.00000000000E+00  0.00000000000E+00 -0.35913750562E+03  0.35913750563E+03  0.25500000920E-02 0. -1.
    10030    2    1    2    0    0  0.00000000000E+00  0.00000000000E+00 -0.17950489348E+03  0.53877011779E+03  0.50798743394E+03 0.  0.
        3    1    3    3  502    0 -0.25303546562E+03 -0.20970566328E+02 -0.96952531493E+02  0.27178394926E+03  0.10100000352E+00 0. -1.
       -3    1    3    3    0  502  0.25303546562E+03  0.20970566328E+02 -0.82552361982E+02  0.26698616853E+03  0.10100000352E+00 0.  1.
</event>
<event>
 5   0  0.2723308E-02  0.4994725E+03  0.7818609E-02  0.1013917E+00
       -1   -1    0    0    0  501  0.00000000000E+00  0.00000000000E+00  0.45364566135E+03  0.45364566138E+03  0.50400001928E-02 0.  1.
        1   -1    0    0  501    0  0.00000000000E+00  0.00000000000E+00 -0.13748218510E+03  0.13748218519E+03  0.50400001928E-02 0. -1.
    10030    2    1    2    0    0  0.00000000000E+00  0.00000000000E+00  0.31616347625E+03  0.59112784657E+03  0.49947250903E+03 0.  0.
        4    1    3    3  502    0 -0.17514805754E+02  0.57020143219E+02 -0.12892358327E+03  0.14205973524E+03  0.12699999809E+01 0. -1.
       -4    1    3    3    0  502  0.17514805754E+02 -0.57020143219E+02  0.44508705953E+03  0.44906811133E+03  0.12699999809E+01 0.  1.
</event>
<event>
 5   0  0.1805500E-02  0.4971363E+03  0.7818609E-02  0.1014529E+00
       -4   -1    0    0    0  501  0.00000000000E+00  0.00000000000E+00  0.12474096212E+03  0.12474742695E+03  0.12699999809E+01 0.  1.
        4   -1    0    0  501    0  0.00000000000E+00  0.00000000000E+00 -0.49529537700E+03  0.49529700522E+03  0.12699999809E+01 0. -1.
    10030    2    1    2    0    0  0.00000000000E+00  0.00000000000E+00 -0.37055441488E+03  0.62004443217E+03  0.49713632283E+03 0.  0.
        3    1    3    3  502    0  0.82903173701E+02  0.15676713125E+03  0.31960609012E+02  0.18019533951E+03  0.10100000352E+00 0.  1.
       -3    1    3    3    0  502 -0.82903173701E+02 -0.15676713125E+03 -0.40251502390E+03  0.43984909266E+03  0.10100000352E+00 0. -1.
</event>
<event>
 5   0  0.4451135E-02  0.4999481E+03  0.7818609E-02  0.1013792E+00
       -2   -1    0    0    0  501  0.00000000000E+00  0.00000000000E+00  0.84150540043E+02  0.84150540082E+02  0.25500000920E-02 0.  1.
        2   -1    0    0  501    0  0.00000000000E+00  0.00000000000E+00 -0.74256231558E+03  0.74256231559E+03  0.25500000920E-02 0. -1.
    10030    2    1    2    0    0  0.00000000000E+00  0.00000000000E+00 -0.65841177554E+03  0.82671285567E+03  0.49994807686E+03 0.  0.
        1    1    3    3  502    0 -0.22006867054E+03 -0.11841388952E+03 -0.31942994075E+03  0.40557065483E+03  0.50400001928E-02 0. -1.
       -1    1    3    3    0  502  0.22006867054E+03  0.11841388952E+03 -0.33898183479E+03  0.42114220084E+03  0.50400001928E-02 0.  1.
</event>
<event>
 5   0  0.4409622E-02  0.4991510E+03  0.7818609E-02  0.1014001E+00
       -2   -1    0    0    0  501  0.00000000000E+00  0.00000000000E+00  0.37605507819E+02  0.37605507906E+02  0.25500000920E-02 0.  1.
        2   -1    0    0  501    0  0.00000000000E+00  0.00000000000E+00 -0.16563510855E+04  0.16563510855E+04  0.25500000920E-02 0. -1.
    10030    2    1    2    0    0  0.00000000000E+00  0.00000000000E+00 -0.16187455777E+04  0.16939565934E+04  0.49915097425E+03 0.  0.
        3    1    3    3  502    0 -0.21628723136E+03 -0.70673672611E+01 -0.38743911353E+03  0.44377831293E+03  0.10100000352E+00 0.  1.
       -3    1    3    3    0  502  0.21628723136E+03  0.70673672611E+01 -0.12313064642E+04  0.12501782805E+04  0.10100000352E+00 0. -1.
</event>
<event>
 5   0  0.2715483E-02  0.4974875E+03  0.7818609E-02  0.1014437E+00
       -1   -1    0    0    0  501  0.00000000000E+00  0.00000000000E+00  0.12411022600E+03  0.12411022611E+03  0.50400001928E-02 0.  1.
        1   -1    0    0  501    0  0.00000000000E+00  0.00000000000E+00 -0.49853628376E+03  0.49853628378E+03  0.50400001928E-02 0. -1.
    10030    2    1    2    0    0  0.00000000000E+00  0.00000000000E+00 -0.37442605775E+03  0.62264650989E+03  0.49748749085E+03 0.  0.
        5    1    3    3  502    0 -0.17497577935E+03  0.98315053394E+02 -0.37102520454E+03  0.42185799208E+03  0.46999998093E+01 0. -1.
       -5    1    3    3    0  502  0.17497577935E+03 -0.98315053394E+02 -0.34008532099E+01  0.20078851780E+03  0.46999998093E+01 0.  1.
</event>
<event>
 5   0  0.4409622E-02  0.5010275E+03  0.7818609E-02  0.1013511E+00
       -2   -1    0    0    0  501  0.00000000000E+00  0.00000000000E+00  0.13929747194E+03  0.13929747196E+03  0.25500000920E-02 0. -1.
        2   -1    0    0  501    0  0.00000000000E+00  0.00000000000E+00 -0.45052610066E+03  0.45052610067E+03  0.25500000920E-02 0.  1.
    10030    2    1    2    0    0  0.00000000000E+00  0.00000000000E+00 -0.31122862872E+03  0.58982357263E+03  0.50102753167E+03 0.  0.
        3    1    3    3  502    0 -0.14433299649E+03 -0.23805094475E+02 -0.39502449275E+03  0.42123990370E+03  0.10100000352E+00 0.  1.
       -3    1    3    3    0  502  0.14433299649E+03  0.23805094475E+02  0.83795864025E+02  0.16858366893E+03  0.10100000352E+00 0. -1.
</event>
<event>
 5   0  0.2719671E-02  0.4981962E+03  0.7818609E-02  0.1014251E+00
        1   -1    0    0  501    0  0.00000000000E+00  0.00000000000E+00  0.14828210661E+03  0.14828210670E+03  0.50400001928E-02 0. -1.
       -1   -1    0    0    0  501  0.00000000000E+00  0.00000000000E+00 -0.41845827140E+03  0.41845827143E+03  0.50400001928E-02 0.  1.
    10030    2    1    2    0    0  0.00000000000E+00  0.00000000000E+00 -0.27017616479E+03  0.56674037813E+03  0.49819624264E+03 0.  0.
        2    1    3    3  502    0 -0.90439155845E+02  0.18281218252E+03 -0.29776800764E+03  0.36092287454E+03  0.25500000920E-02 0.  1.
       -2    1    3    3    0  502  0.90439155845E+02 -0.18281218252E+03  0.27591842847E+02  0.20581750359E+03  0.25500000920E-02 0. -1.
</event>
<event>
 5   0  0.2723308E-02  0.5000585E+03  0.7818609E-02  0.1013764E+00
       -1   -1    0    0    0  501  0.00000000000E+00  0.00000000000E+00  0.71759195248E+02  0.71759195425E+02  0.50400001928E-02 0. -1.
        1   -1    0    0  501    0  0.00000000000E+00  0.00000000000E+00 -0.87117236553E+03  0.87117236555E+03  0.50400001928E-02 0.  1.
    10030    2    1    2    0    0  0.00000000000E+00  0.00000000000E+00 -0.79941317029E+03  0.94293156097E+03  0.50005850843E+03 0.  0.
        4    1    3    3  502    0 -0.14779045071E+03  0.20085469795E+03 -0.36553595185E+03  0.44249607004E+03  0.12699999809E+01 0. -1.
       -4    1    3    3    0  502  0.14779045071E+03 -0.20085469795E+03 -0.43387721844E+03  0.50043549093E+03  0.12699999809E+01 0.  1.
</event>
<event>
 5   0  0.4409622E-02  0.4977962E+03  0.7818609E-02  0.1014356E+00
        2   -1    0    0  501    0  0.00000000000E+00  0.00000000000E+00  0.14835866760E+04  0.14835866760E+04  0.25500000920E-02 0. -1.
       -2   -1    0    0    0  501  0.00000000000E+00  0.00000000000E+00 -0.41757097175E+02  0.41757097253E+02  0.25500000920E-02 0.  1.
    10030    2    1    2    0    0  0.00000000000E+00  0.00000000000E+00  0.14418295788E+04  0.15253437733E+04  0.49779623565E+03 0.  0.
        3    1    3    3  502    0  0.19975449141E+03 -0.20501268368E+02  0.11715502362E+04  0.11886345632E+04  0.10100000352E+00 0. -1.
       -3    1    3    3    0  502 -0.19975449141E+03  0.20501268368E+02  0.27027934265E+03  0.33670921002E+03  0.10100000352E+00 0.  1.
</event>
<event>
 5   0  0.2779445E-02  0.4965298E+03  0.7818609E-02  0.1014689E+00
       -1   -1    0    0    0  501  0.00000000000E+00  0.00000000000E+00  0.25696915521E+03  0.25696915526E+03  0.50400001928E-02 0.  1.
        1   -1    0    0  501    0  0.00000000000E+00  0.00000000000E+00 -0.23985550351E+03  0.23985550356E+03  0.50400001928E-02 0. -1.
    10030    2    1    2    0    0  0.00000000000E+00  0.00000000000E+00  0.17113651700E+02  0.49682465883E+03  0.49652982241E+03 0.  0.
        3    1    3    3  502    0  0.17015087161E+03 -0.84510901243E+02 -0.15135685969E+03  0.24290393310E+03  0.10100000352E+00 0. -1.
       -3    1    3    3    0  502 -0.17015087161E+03  0.84510901243E+02  0.16847051139E+03  0.25392072572E+03  0.10100000352E+00 0.  1.
</event>
<event>
 5   0  0.2643185E-02  0.5008433E+03  0.7818609E-02  0.1013559E+00
        1   -1    0    0  501    0  0.00000000000E+00  0.00000000000E+00  0.60783645814E+03  0.60783645816E+03  0.50400001928E-02 0.  1.
       -1   -1    0    0    0  501  0.00000000000E+00  0.00000000000E+00 -0.10317084261E+03  0.10317084273E+03  0.50400001928E-02 0. -1.
    10030    2    1    2    0    0  0.00000000000E+00  0.00000000000E+00  0.50466561553E+03  0.71100730089E+03  0.50084328729E+03 0.  0.
        1    1    3    3  502    0 -0.14850438633E+03 -0.17327605623E+03  0.10594761403E+03  0.25160095661E+03  0.50400001928E-02 0. -1.
       -1    1    3    3    0  502  0.14850438633E+03  0.17327605623E+03  0.39871800150E+03  0.45940634428E+03  0.50400001928E-02 0.  1.
</event>
<event>
 5   0  0.2723308E-02  0.5009322E+03  0.7818609E-02  0.1013536E+00
       -1   -1    0    0    0  501  0.00000000000E+00  0.00000000000E+00  0.22336702548E+03  0.22336702554E+03  0.50400001928E-02 0.  1.
        1   -1    0    0  501    0  0.00000000000E+00  0.00000000000E+00 -0.28085290790E+03  0.28085290795E+03  0.50400001928E-02 0. -1.
    10030    2    1    2    0    0  0.00000000000E+00  0.00000000000E+00 -0.57485882423E+02  0.50421993348E+03  0.50093224556E+03 0.  0.
        4    1    3    3  502    0  0.97784471084E+01 -0.12068850483E+03  0.19194549912E+03  0.22694937929E+03  0.12699999809E+01 0.  1.
       -4    1    3    3    0  502 -0.97784471084E+01  0.12068850483E+03 -0.24943138154E+03  0.27727055420E+03  0.12699999809E+01 0. -1.
</event>
<event>
 5   0  0.4534223E-02  0.5107862E+03  0.7818609E-02  0.1011001E+00
       -2   -1    0    0    0  501  0.00000000000E+00  0.00000000000E+00  0.10397160462E+03  0.10397160465E+03  0.25500000920E-02 0. -1.
        2   -1    0    0  501    0  0.00000000000E+00  0.00000000000E+00 -0.62734089582E+03  0.62734089583E+03  0.25500000920E-02 0.  1.
    10030    2    1    2    0    0  0.00000000000E+00  0.00000000000E+00 -0.52336929120E+03  0.73131250048E+03  0.51078621593E+03 0.  0.
        2    1    3    3  502    0  0.17328613492E+03 -0.13497057552E+03 -0.75115832152E+02  0.23213687570E+03  0.25500000920E-02 0. -1.
       -2    1    3    3    0  502 -0.17328613492E+03  0.13497057552E+03 -0.44825345905E+03  0.49917562477E+03  0.25500000920E-02 0.  1.
</event>
<event>
 5   0  0.4534223E-02  0.4988839E+03  0.7818609E-02  0.1014071E+00
       -2   -1    0    0    0  501  0.00000000000E+00  0.00000000000E+00  0.67472067424E+02  0.67472067472E+02  0.25500000920E-02 0.  1.
        2   -1    0    0  501    0  0.00000000000E+00  0.00000000000E+00 -0.92217827710E+03  0.92217827710E+03  0.25500000920E-02 0. -1.
    10030    2    1    2    0    0  0.00000000000E+00  0.00000000000E+00 -0.85470620967E+03  0.98965034457E+03  0.49888385388E+03 0.  0.
        2    1    3    3  502    0 -0.17100132593E+03 -0.10389904619E+03 -0.13188528678E+03  0.23964597669E+03  0.25500000920E-02 0. -1.
       -2    1    3    3    0  502  0.17100132593E+03  0.10389904619E+03 -0.72282092289E+03  0.75000436788E+03  0.25500000920E-02 0.  1.
</event>
<event>
 5   0  0.4534223E-02  0.5018979E+03  0.7818609E-02  0.1013285E+00
       -2   -1    0    0    0  501  0.00000000000E+00  0.00000000000E+00  0.13759627701E+03  0.13759627703E+03  0.25500000920E-02 0.  1.
        2   -1    0    0  501    0  0.00000000000E+00  0.00000000000E+00 -0.45768221510E+03  0.45768221511E+03  0.25500000920E-02 0. -1.
    10030    2    1    2    0    0  0.00000000000E+00  0.00000000000E+00 -0.32008593809E+03  0.59527849214E+03  0.50189787352E+03 0.  0.
        2    1    3    3  502    0  0.21358805122E+03 -0.85687841078E+02 -0.27872617437E+03  0.36145614121E+03  0.25500000920E-02 0. -1.
       -2    1    3    3    0  502 -0.21358805122E+03  0.85687841078E+02 -0.41359763725E+02  0.23382235093E+03  0.25500000920E-02 0.  1.
</event>
<event>
 5   0  0.1805500E-02  0.5001650E+03  0.7818609E-02  0.1013736E+00
       -4   -1    0    0    0  501  0.00000000000E+00  0.00000000000E+00  0.56370558744E+03  0.56370701806E+03  0.12699999809E+01 0. -1.
        4   -1    0    0  501    0  0.00000000000E+00  0.00000000000E+00 -0.11094146936E+03  0.11094873827E+03  0.12699999809E+01 0.  1.
    10030    2    1    2    0    0  0.00000000000E+00  0.00000000000E+00  0.45276411808E+03  0.67465575633E+03  0.50016501569E+03 0.  0.
        3    1    3    3  502    0  0.20439537738E+02 -0.45830044073E+01 -0.10976039179E+03  0.11174136404E+03  0.10100000352E+00 0.  1.
       -3    1    3    3    0  502 -0.20439537738E+02  0.45830044073E+01  0.56252450987E+03  0.56291439228E+03  0.10100000352E+00 0. -1.
</event>
<event>
 5   0  0.2723308E-02  0.5064769E+03  0.7818609E-02  0.1012102E+00
       -1   -1    0    0    0  501  0.00000000000E+00  0.00000000000E+00  0.20021303163E+03  0.20021303169E+03  0.50400001928E-02 0. -1.
        1   -1    0    0  501    0  0.00000000000E+00  0.00000000000E+00 -0.32030739984E+03  0.32030739987E+03  0.50400001928E-02 0.  1.
    10030    2    1    2    0    0  0.00000000000E+00  0.00000000000E+00 -0.12009436821E+03  0.52052043157E+03  0.50647691201E+03 0.  0.
        4    1    3    3  502    0  0.11019314389E+03 -0.82074494893E+02 -0.27866437320E+03  0.31069952923E+03  0.12699999809E+01 0.  1.
       -4    1    3    3    0  502 -0.11019314389E+03  0.82074494893E+02  0.15857000499E+03  0.20982090234E+03  0.12699999809E+01 0. -1.
</event>
<event>
 5   0  0.2779445E-02  0.5015604E+03  0.7818609E-02  0.1013372E+00
       -1   -1    0    0    0  501  0.00000000000E+00  0.00000000000E+00  0.47648662192E+03  0.47648662194E+03  0.50400001928E-02 0.  1.
        1   -1    0    0  501    0  0.00000000000E+00  0.00000000000E+00 -0.13198838290E+03  0.13198838300E+03  0.50400001928E-02 0. -1.
    10030    2    1    2    0    0  0.00000000000E+00  0.00000000000E+00  0.34449823902E+03  0.60847500494E+03  0.50156036023E+03 0.  0.
        3    1    3    3  502    0  0.24273114026E+02 -0.21623575817E+03  0.32349911212E+03  0.38987020009E+03  0.10100000352E+00 0.  1.
       -3    1    3    3    0  502 -0.24273114026E+02  0.21623575817E+03  0.20999126898E+02  0.21860480485E+03  0.10100000352E+00 0. -1.
</event>
<event>
 5   0  0.4631619E-02  0.4990696E+03  0.7818609E-02  0.1014022E+00
       -2   -1    0    0    0  501  0.00000000000E+00  0.00000000000E+00  0.87677416044E+02  0.87677416081E+02  0.25500000920E-02 0.  1.
        2   -1    0    0  501    0  0.00000000000E+00  0.00000000000E+00 -0.71018993527E+03  0.71018993527E+03  0.25500000920E-02 0. -1.
    10030    2    1    2    0    0  0.00000000000E+00  0.00000000000E+00 -0.62251251922E+03  0.79786735135E+03  0.49906960814E+03 0.  0.
        5    1    3    3  502    0 -0.11238026545E+03  0.18457808109E+03 -0.11191611244E+03  0.24340439253E+03  0.46999998093E+01 0.  1.
       -5    1    3    3    0  502  0.11238026545E+03 -0.18457808109E+03 -0.51059640679E+03  0.55446295882E+03  0.46999998093E+01 0. -1.
</event>
<event>
 5   0  0.2719671E-02  0.4984429E+03  0.7818609E-02  0.1014186E+00
        1   -1    0    0  501    0  0.00000000000E+00  0.00000000000E+00  0.13086567857E+03  0.13086567867E+03  0.50400001928E-02 0. -1.
       -1   -1    0    0    0  501  0.00000000000E+00  0.00000000000E+00 -0.47461903935E+03  0.47461903938E+03  0.50400001928E-02 0.  1.
    10030    2    1    2    0    0  0.00000000000E+00  0.00000000000E+00 -0.34375336078E+03  0.60548471804E+03  0.49844294632E+03 0.  0.
        2    1    3    3  502    0 -0.23796787570E+02 -0.20450507840E+03 -0.34247361762E+03  0.39959578697E+03  0.25500000920E-02 0.  1.
       -2    1    3    3    0  502  0.23796787570E+02  0.20450507840E+03 -0.12797431631E+01  0.20588893108E+03  0.25500000920E-02 0. -1.
</event>
<event>
 5   0  0.4631619E-02  0.5007361E+03  0.7818609E-02  0.1013587E+00
       -2   -1    0    0    0  501  0.00000000000E+00  0.00000000000E+00  0.90873902738E+02  0.90873902774E+02  0.25500000920E-02 0.  1.
        2   -1    0    0  501    0  0.00000000000E+00  0.00000000000E+00 -0.68979278378E+03  0.68979278379E+03  0.25500000920E-02 0. -1.
    10030    2    1    2    0    0  0.00000000000E+00  0.00000000000E+00 -0.59891888105E+03  0.78066668656E+03  0.50073610758E+03 0.  0.
        5    1    3    3  502    0 -0.20866473527E+03  0.13345710996E+03 -0.35589361518E+03  0.43362902032E+03  0.46999998093E+01 0. -1.
       -5    1    3    3    0  502  0.20866473527E+03 -0.13345710996E+03 -0.24302526586E+03  0.34703766624E+03  0.46999998093E+01 0.  1.
</event>
<event>
 5   0  0.2723308E-02  0.4976223E+03  0.7818609E-02  0.1014401E+00
        1   -1    0    0  501    0  0.00000000000E+00  0.00000000000E+00  0.92900058244E+02  0.92900058380E+02  0.50400001928E-02 0. -1.
       -1   -1    0    0    0  501  0.00000000000E+00  0.00000000000E+00 -0.66638278850E+03  0.66638278851E+03  0.50400001928E-02 0.  1.
    10030    2    1    2    0    0  0.00000000000E+00  0.00000000000E+00 -0.57348273025E+03  0.75928284690E+03  0.49762234646E+03 0.  0.
        4    1    3    3  502    0  0.17253505560E+03  0.11542207652E+03 -0.49603371490E+03  0.53771894181E+03  0.12699999809E+01 0.  1.
       -4    1    3    3    0  502 -0.17253505560E+03 -0.11542207652E+03 -0.77449015351E+02  0.22156390509E+03  0.12699999809E+01 0. -1.
</event>
<event>
 5   0  0.2715483E-02  0.4971692E+03  0.7818609E-02  0.1014520E+00
       -1   -1    0    0    0  501  0.00000000000E+00  0.00000000000E+00  0.24141302394E+03  0.24141302400E+03  0.50400001928E-02 0.  1.
        1   -1    0    0  501    0  0.00000000000E+00  0.00000000000E+00 -0.25596923895E+03  0.25596923900E+03  0.50400001928E-02 0. -1.
    10030    2    1    2    0    0  0.00000000000E+00  0.00000000000E+00 -0.14556215007E+02  0.49738226300E+03  0.49716921883E+03 0.  0.
        5    1    3    3  502    0 -0.33782908986E+01 -0.14830821691E+03 -0.20677639183E+03  0.25452957838E+03  0.46999998093E+01 0. -1.
       -5    1    3    3    0  502  0.33782908986E+01  0.14830821691E+03  0.19222017682E+03  0.24285268462E+03  0.46999998093E+01 0.  1.
</event>
<event>
 5   0  0.2779445E-02  0.4962323E+03  0.7818609E-02  0.1014767E+00
        1   -1    0    0  501    0  0.00000000000E+00  0.00000000000E+00  0.21771773576E+03  0.21771773582E+03  0.50400001928E-02 0. -1.
       -1   -1    0    0    0  501  0.00000000000E+00  0.00000000000E+00 -0.28275886906E+03  0.28275886911E+03  0.50400001928E-02 0.  1.
    10030    2    1    2    0    0  0.00000000000E+00  0.00000000000E+00 -0.65041133302E+02  0.50047660493E+03  0.49623228740E+03 0.  0.
        3    1    3    3  502    0 -0.77116801523E+02 -0.10911790878E+03 -0.24337303559E+03  0.27764034964E+03  0.10100000352E+00 0.  1.
       -3    1    3    3    0  502  0.77116801523E+02  0.10911790878E+03  0.17833190229E+03  0.22283625529E+03  0.10100000352E+00 0. -1.
</event>
<event>
 5   0  0.2643185E-02  0.5009141E+03  0.7818609E-02  0.1013541E+00
       -1   -1    0    0    0  501  0.00000000000E+00  0.00000000000E+00  0.14165610669E+03  0.14165610678E+03  0.50400001928E-02 0. -1.
        1   -1    0    0  501    0  0.00000000000E+00  0.00000000000E+00 -0.44282408376E+03  0.44282408379E+03  0.50400001928E-02 0.  1.
    10030    2    1    2    0    0  0.00000000000E+00  0.00000000000E+00 -0.30116797706E+03  0.58448019057E+03  0.50091410716E+03 0.  0.
        1    1    3    3  502    0 -0.15212432532E+03  0.11458025216E+03  0.39212174779E+02  0.19444289449E+03  0.50400001928E-02 0. -1.
       -1    1    3    3    0  502  0.15212432532E+03 -0.11458025216E+03 -0.34038015184E+03  0.39003729608E+03  0.50400001928E-02 0.  1.
</event>
<event>
 5   0  0.4519539E-02  0.4947159E+03  0.7818609E-02  0.1015167E+00
       -2   -1    0    0    0  501  0.00000000000E+00  0.00000000000E+00  0.40575654942E+02  0.40575655022E+02  0.25500000920E-02 0.  1.
        2   -1    0    0  501    0  0.00000000000E+00  0.00000000000E+00 -0.15079473419E+04  0.15079473419E+04  0.25500000920E-02 0. -1.
    10030    2    1    2    0    0  0.00000000000E+00  0.00000000000E+00 -0.14673716870E+04  0.15485229969E+04  0.49471588242E+03 0.  0.
        4    1    3    3  502    0  0.20785653508E+03  0.12895127309E+03 -0.84876079066E+03  0.88330587153E+03  0.12699999809E+01 0. -1.
       -4    1    3    3    0  502 -0.20785653508E+03 -0.12895127309E+03 -0.61861089631E+03  0.66521712541E+03  0.12699999809E+01 0.  1.
</event>
<event>
 5   0  0.4534223E-02  0.5017664E+03  0.7818609E-02  0.1013319E+00
        2   -1    0    0  501    0  0.00000000000E+00  0.00000000000E+00  0.16797547768E+04  0.16797547768E+04  0.25500000920E-02 0. -1.
       -2   -1    0    0    0  501  0.00000000000E+00  0.00000000000E+00 -0.37471164656E+02  0.37471164743E+02  0.25500000920E-02 0.  1.
    10030    2    1    2    0    0  0.00000000000E+00  0.00000000000E+00  0.16422836121E+04  0.17172259415E+04  0.50176635160E+03 0.  0.
        2    1    3    3  502    0  0.12889716105E+03  0.61167912646E+02  0.15273963413E+04  0.15340454931E+04  0.25500000920E-02 0. -1.
       -2    1    3    3    0  502 -0.12889716105E+03 -0.61167912646E+02  0.11488727086E+03  0.18318044840E+03  0.25500000920E-02 0.  1.
</event>
<event>
 5   0  0.2779445E-02  0.4692236E+03  0.7818609E-02  0.1022140E+00
       -1   -1    0    0    0  501  0.00000000000E+00  0.00000000000E+00  0.13691420880E+03  0.13691420889E+03  0.50400001928E-02 0.  1.
        1   -1    0    0  501    0  0.00000000000E+00  0.00000000000E+00 -0.40202330979E+03  0.40202330983E+03  0.50400001928E-02 0. -1.
    10030    2    1    2    0    0  0.00000000000E+00  0.00000000000E+00 -0.26510910099E+03  0.53893751872E+03  0.46922362862E+03 0.  0.
        3    1    3    3  502    0  0.11279628536E+03  0.20376581841E+02  0.10256503342E+03  0.15381093382E+03  0.10100000352E+00 0.  1.
       -3    1    3    3    0  502 -0.11279628536E+03 -0.20376581841E+02 -0.36767413442E+03  0.38512658490E+03  0.10100000352E+00 0. -1.
</event>
<event>
 5   0  0.4409622E-02  0.5018751E+03  0.7818609E-02  0.1013291E+00
        2   -1    0    0  501    0  0.00000000000E+00  0.00000000000E+00  0.12055955490E+03  0.12055955492E+03  0.25500000920E-02 0. -1.
       -2   -1    0    0    0  501  0.00000000000E+00  0.00000000000E+00 -0.52231169000E+03  0.52231169001E+03  0.25500000920E-02 0.  1.
    10030    2    1    2    0    0  0.00000000000E+00  0.00000000000E+00 -0.40175213511E+03  0.64287124493E+03  0.50187514334E+03 0.  0.
        3    1    3    3  502    0 -0.43338477241E+01 -0.25058554393E+03 -0.18478727411E+03  0.31138118751E+03  0.10100000352E+00 0.  1.
       -3    1    3    3    0  502  0.43338477241E+01  0.25058554393E+03 -0.21696486100E+03  0.33149005742E+03  0.10100000352E+00 0. -1.
</event>
<event>
 5   0  0.2643185E-02  0.4996501E+03  0.7818609E-02  0.1013870E+00
       -1   -1    0    0    0  501  0.00000000000E+00  0.00000000000E+00  0.81058696264E+03  0.81058696265E+03  0.50400001928E-02 0.  1.
        1   -1    0    0  501    0  0.00000000000E+00  0.00000000000E+00 -0.76996733950E+02  0.76996734115E+02  0.50400001928E-02 0. -1.
    10030    2    1    2    0    0  0.00000000000E+00  0.00000000000E+00  0.73359022869E+03  0.88758369677E+03  0.49965007270E+03 0.  0.
        1    1    3    3  502    0  0.16460205822E+03 -0.15798095736E+03  0.54761179984E+03  0.59323730818E+03  0.50400001928E-02 0.  1.
       -1    1    3    3    0  502 -0.16460205822E+03  0.15798095736E+03  0.18597842884E+03  0.29434638859E+03  0.50400001928E-02 0. -1.
</event>
<event>
 5   0  0.2723308E-02  0.4987380E+03  0.7818609E-02  0.1014109E+00
        1   -1    0    0  501    0  0.00000000000E+00  0.00000000000E+00  0.36373942259E+03  0.36373942263E+03  0.50400001928E-02 0. -1.
       -1   -1    0    0    0  501  0.00000000000E+00  0.00000000000E+00 -0.17096004143E+03  0.17096004150E+03  0.50400001928E-02 0.  1.
    10030    2    1    2    0    0  0.00000000000E+00  0.00000000000E+00  0.19277938116E+03  0.53469946413E+03  0.49873803458E+03 0.  0.
        4    1    3    3  502    0 -0.16980751020E+03 -0.67760255796E+02 -0.85417453243E+02  0.20180138008E+03  0.12699999809E+01 0.  1.
       -4    1    3    3    0  502  0.16980751020E+03  0.67760255796E+02  0.27819683441E+03  0.33289808404E+03  0.12699999809E+01 0. -1.
</event>
<event>
 5   0  0.2715483E-02  0.4994212E+03  0.7818609E-02  0.1013930E+00
       -1   -1    0    0    0  501  0.00000000000E+00  0.00000000000E+00  0.14752492969E+03  0.14752492977E+03  0.50400001928E-02 0.  1.
        1   -1    0    0  501    0  0.00000000000E+00  0.00000000000E+00 -0.42267685240E+03  0.42267685243E+03  0.50400001928E-02 0. -1.
    10030    2    1    2    0    0  0.00000000000E+00  0.00000000000E+00 -0.27515192272E+03  0.57020178220E+03  0.49942115680E+03 0.  0.
        5    1    3    3  502    0  0.18992628027E+02  0.13794321785E+03  0.99023664091E+02  0.17092930503E+03  0.46999998093E+01 0.  1.
       -5    1    3    3    0  502 -0.18992628027E+02 -0.13794321785E+03 -0.37417558681E+03  0.39927247718E+03  0.46999998093E+01 0. -1.
</event>
<event>
 5   0  0.4409622E-02  0.4994731E+03  0.7818609E-02  0.1013917E+00
        2   -1    0    0  501    0  0.00000000000E+00  0.00000000000E+00  0.86959975141E+03  0.86959975141E+03  0.25500000920E-02 0. -1.
       -2   -1    0    0    0  501  0.00000000000E+00  0.00000000000E+00 -0.71720754845E+02  0.71720754890E+02  0.25500000920E-02 0.  1.
    10030    2    1    2    0    0  0.00000000000E+00  0.00000000000E+00  0.79787899656E+03  0.94132050630E+03  0.49947312483E+03 0.  0.
        3    1    3    3  502    0  0.15677800325E+03 -0.12435737335E+03  0.11735175096E+03  0.23198177141E+03  0.10100000352E+00 0.  1.
       -3    1    3    3    0  502 -0.15677800325E+03  0.12435737335E+03  0.68052724561E+03  0.70933873490E+03  0.10100000352E+00 0. -1.
</event>
<event>
 5   0  0.2723308E-02  0.4996091E+03  0.7818609E-02  0.1013881E+00
        1   -1    0    0  501    0  0.00000000000E+00  0.00000000000E+00  0.65994433421E+03  0.65994433423E+03  0.50400001928E-02 0.  1.
       -1   -1    0    0    0  501  0.00000000000E+00  0.00000000000E+00 -0.94556948330E+02  0.94556948464E+02  0.50400001928E-02 0. -1.
    10030    2    1    2    0    0  0.00000000000E+00  0.00000000000E+00  0.56538738588E+03  0.75450128270E+03  0.49960913670E+03 0.  0.
        4    1    3    3  502    0  0.26807595815E+02  0.19996579745E+03  0.50513573102E+03  0.54393812791E+03  0.12699999809E+01 0.  1.
       -4    1    3    3    0  502 -0.26807595815E+02 -0.19996579745E+03  0.60251654869E+02  0.21056315479E+03  0.12699999809E+01 0. -1.
</event>
<event>
 5   0  0.4451135E-02  0.4995789E+03  0.7818609E-02  0.1013889E+00
        2   -1    0    0  501    0  0.00000000000E+00  0.00000000000E+00  0.34620054674E+03  0.34620054675E+03  0.25500000920E-02 0.  1.
       -2   -1    0    0    0  501  0.00000000000E+00  0.00000000000E+00 -0.18022727582E+03  0.18022727584E+03  0.25500000920E-02 0. -1.
    10030    2    1    2    0    0  0.00000000000E+00  0.00000000000E+00  0.16597327092E+03  0.52642782259E+03  0.49957894845E+03 0.  0.
        1    1    3    3  502    0  0.81144999692E+02 -0.69578619763E+02 -0.15490990592E+03  0.18820938946E+03  0.50400001928E-02 0. -1.
       -1    1    3    3    0  502 -0.81144999692E+02  0.69578619763E+02  0.32088317684E+03  0.33821843313E+03  0.50400001928E-02 0.  1.
</event>
<event>
 5   0  0.2723308E-02  0.5016077E+03  0.7818609E-02  0.1013360E+00
        1   -1    0    0  501    0  0.00000000000E+00  0.00000000000E+00  0.14255936567E+03  0.14255936576E+03  0.50400001928E-02 0. -1.
       -1   -1    0    0    0  501  0.00000000000E+00  0.00000000000E+00 -0.44123780933E+03  0.44123780935E+03  0.50400001928E-02 0.  1.
    10030    2    1    2    0    0  0.00000000000E+00  0.00000000000E+00 -0.29867844366E+03  0.58379717511E+03  0.50160774412E+03 0.  0.
        4    1    3    3  502    0  0.93315864908E+02 -0.73202183920E+02  0.10785510892E+03  0.16031452771E+03  0.12699999809E+01 0. -1.
       -4    1    3    3    0  502 -0.93315864908E+02  0.73202183920E+02 -0.40653355258E+03  0.42348264740E+03  0.12699999809E+01 0.  1.
</event>
<event>
 5   0  0.2715483E-02  0.5002487E+03  0.7818609E-02  0.1013714E+00
        1   -1    0    0  501    0  0.00000000000E+00  0.00000000000E+00  0.22282005111E+03  0.22282005117E+03  0.50400001928E-02 0. -1.
       -1   -1    0    0    0  501  0.00000000000E+00  0.00000000000E+00 -0.28077450956E+03  0.28077450961E+03  0.50400001928E-02 0.  1.
    10030    2    1    2    0    0  0.00000000000E+00  0.00000000000E+00 -0.57954458453E+02  0.50359456077E+03  0.50024870053E+03 0.  0.
        5    1    3    3  502    0  0.43912604474E+02  0.83103198512E+02  0.20431754915E+03  0.22494934835E+03  0.46999998093E+01 0. -1.
       -5    1    3    3    0  502 -0.43912604474E+02 -0.83103198512E+02 -0.26227200760E+03  0.27864521242E+03  0.46999998093E+01 0.  1.
</event>
<event>
 5   0  0.1805500E-02  0.4993501E+03  0.7818609E-02  0.1013949E+00
        3   -1    0    0  501    0  0.00000000000E+00  0.00000000000E+00  0.22512025323E+03  0.22512027589E+03  0.10100000352E+00 0.  1.
       -3   -1    0    0    0  501  0.00000000000E+00  0.00000000000E+00 -0.27690810516E+03  0.27690812358E+03  0.10100000352E+00 0. -1.
    10030    2    1    2    0    0  0.00000000000E+00  0.00000000000E+00 -0.51787851926E+02  0.50202839947E+03  0.49935010991E+03 0.  0.
        4    1    3    3  502    0  0.80750774845E+02 -0.20339338356E+03 -0.14673203388E+03  0.26347952251E+03  0.12699999809E+01 0. -1.
       -4    1    3    3    0  502 -0.80750774845E+02  0.20339338356E+03  0.94944181950E+02  0.23854887696E+03  0.12699999809E+01 0.  1.
</event>
<event>
 5   0  0.1805500E-02  0.4997937E+03  0.7818609E-02  0.1013833E+00
        3   -1    0    0  501    0  0.00000000000E+00  0.00000000000E+00  0.85961896097E+03  0.85961896691E+03  0.10100000352E+00 0.  1.
       -3   -1    0    0    0  501  0.00000000000E+00  0.00000000000E+00 -0.72646614223E+02  0.72646684432E+02  0.10100000352E+00 0. -1.
    10030    2    1    2    0    0  0.00000000000E+00  0.00000000000E+00  0.78697234675E+03  0.93226565134E+03  0.49979372757E+03 0.  0.
        3    1    3    3  502    0  0.17664104884E+03 -0.22772034808E+02  0.66511087608E+02  0.19011670279E+03  0.10100000352E+00 0. -1.
       -3    1    3    3    0  502 -0.17664104884E+03  0.22772034808E+02  0.72046125914E+03  0.74214894855E+03  0.10100000352E+00 0.  1.
</event>
<event>
 5   0  0.2719671E-02  0.4971708E+03  0.7818609E-02  0.1014520E+00
       -1   -1    0    0    0  501  0.00000000000E+00  0.00000000000E+00  0.27786306727E+03  0.27786306732E+03  0.50400001928E-02 0.  1.
        1   -1    0    0  501    0  0.00000000000E+00  0.00000000000E+00 -0.22239267800E+03  0.22239267806E+03  0.50400001928E-02 0. -1.
    10030    2    1    2    0    0  0.00000000000E+00  0.00000000000E+00  0.55470389272E+02  0.50025574538E+03  0.49717084257E+03 0.  0.
        2    1    3    3  502    0  0.43832422949E+02  0.17865107109E+03 -0.14050643504E+03  0.23147255733E+03  0.25500000920E-02 0. -1.
       -2    1    3    3    0  502 -0.43832422949E+02 -0.17865107109E+03  0.19597682431E+03  0.26878318805E+03  0.25500000920E-02 0.  1.
</event>
<event>
 5   0  0.1805500E-02  0.4997784E+03  0.7818609E-02  0.1013837E+00
       -3   -1    0    0    0  501  0.00000000000E+00  0.00000000000E+00  0.16042481708E+03  0.16042484888E+03  0.10100000352E+00 0.  1.
        3   -1    0    0  501    0  0.00000000000E+00  0.00000000000E+00 -0.38924523183E+03  0.38924524493E+03  0.10100000352E+00 0. -1.
    10030    2    1    2    0    0  0.00000000000E+00  0.00000000000E+00 -0.22882041475E+03  0.54967009381E+03  0.49977838071E+03 0.  0.
        1    1    3    3  502    0  0.12510753295E+03  0.65096155531E+02 -0.34129269602E+03  0.36928323635E+03  0.50400001928E-02 0. -1.
       -1    1    3    3    0  502 -0.12510753295E+03 -0.65096155531E+02  0.11247228127E+03  0.18038685746E+03  0.50400001928E-02 0.  1.
</event>
<event>
 5   0  0.2719671E-02  0.4977797E+03  0.7818609E-02  0.1014360E+00
        1   -1    0    0  501    0  0.00000000000E+00  0.00000000000E+00  0.11589033787E+04  0.11589033787E+04  0.50400001928E-02 0.  1.
       -1   -1    0    0    0  501  0.00000000000E+00  0.00000000000E+00 -0.53452382183E+02  0.53452382421E+02  0.50400001928E-02 0. -1.
    10030    2    1    2    0    0  0.00000000000E+00  0.00000000000E+00  0.11054509965E+04  0.12123557611E+04  0.49777965591E+03 0.  0.
        2    1    3    3  502    0 -0.24374504919E+03 -0.41518173303E+02  0.48337758471E+03  0.54294502219E+03  0.25500000920E-02 0. -1.
       -2    1    3    3    0  502  0.24374504919E+03  0.41518173303E+02  0.62207341177E+03  0.66941073890E+03  0.25500000920E-02 0.  1.
</event>
<event>
 5   0  0.1805500E-02  0.4915836E+03  0.7818609E-02  0.1015999E+00
       -3   -1    0    0    0  501  0.00000000000E+00  0.00000000000E+00  0.11255387674E+03  0.11255392206E+03  0.10100000352E+00 0. -1.
        3   -1    0    0  501    0  0.00000000000E+00  0.00000000000E+00 -0.53675256036E+03  0.53675256986E+03  0.10100000352E+00 0.  1.
    10030    2    1    2    0    0  0.00000000000E+00  0.00000000000E+00 -0.42419868362E+03  0.64930649192E+03  0.49158356082E+03 0.  0.
        4    1    3    3  502    0  0.13610047394E+03 -0.53644559263E+02 -0.47298212987E+03  0.49509068445E+03  0.12699999809E+01 0.  1.
       -4    1    3    3    0  502 -0.13610047394E+03  0.53644559263E+02  0.48783446257E+02  0.15421580747E+03  0.12699999809E+01 0. -1.
</event>
<event>
 5   0  0.2715483E-02  0.5040367E+03  0.7818609E-02  0.1012731E+00
       -1   -1    0    0    0  501  0.00000000000E+00  0.00000000000E+00  0.66505084026E+03  0.66505084028E+03  0.50400001928E-02 0.  1.
        1   -1    0    0  501    0  0.00000000000E+00  0.00000000000E+00 -0.95501331937E+02  0.95501332070E+02  0.50400001928E-02 0. -1.
    10030    2    1    2    0    0  0.00000000000E+00  0.00000000000E+00  0.56954950833E+03  0.76055217235E+03  0.50403666973E+03 0.  0.
        5    1    3    3  502    0 -0.27490652344E+02  0.20656005766E+02  0.66142770845E+03  0.66233761032E+03  0.46999998093E+01 0.  1.
       -5    1    3    3    0  502  0.27490652344E+02 -0.20656005766E+02 -0.91878200120E+02  0.98214562036E+02  0.46999998093E+01 0. -1.
</event>
<event>
 5   0  0.1805500E-02  0.5005290E+03  0.7818609E-02  0.1013641E+00
        3   -1    0    0  501    0  0.00000000000E+00  0.00000000000E+00  0.11421030860E+04  0.11421030905E+04  0.10100000352E+00 0. -1.
       -3   -1    0    0    0  501  0.00000000000E+00  0.00000000000E+00 -0.54839416931E+02  0.54839509939E+02  0.10100000352E+00 0.  1.
    10030    2    1    2    0    0  0.00000000000E+00  0.00000000000E+00  0.10872636691E+04  0.11969426004E+04  0.50052902272E+03 0.  0.
        5    1    3    3  502    0 -0.11897999725E+03 -0.77850396118E+02  0.51260532774E+02  0.15121724816E+03  0.46999998093E+01 0.  1.
       -5    1    3    3    0  502  0.11897999725E+03  0.77850396118E+02  0.10360031363E+04  0.10457253522E+04  0.46999998093E+01 0. -1.
</event>
<event>
 5   0  0.4534223E-02  0.5008053E+03  0.7818609E-02  0.1013569E+00
        2   -1    0    0  501    0  0.00000000000E+00  0.00000000000E+00  0.13454249237E+04  0.13454249237E+04  0.25500000920E-02 0. -1.
       -2   -1    0    0    0  501  0.00000000000E+00  0.00000000000E+00 -0.46603482058E+02  0.46603482127E+02  0.25500000920E-02 0.  1.
    10030    2    1    2    0    0  0.00000000000E+00  0.00000000000E+00  0.12988214417E+04  0.13920284058E+04  0.50080529687E+03 0.  0.
        2    1    3    3  502    0 -0.18761951418E+03  0.16083277187E+03  0.53707910029E+03  0.59120404479E+03  0.25500000920E-02 0. -1.
       -2    1    3    3    0  502  0.18761951418E+03 -0.16083277187E+03  0.76174234137E+03  0.80082436105E+03  0.25500000920E-02 0.  1.
</event>
<event>
 5   0  0.2723308E-02  0.4996892E+03  0.7818609E-02  0.1013860E+00
        1   -1    0    0  501    0  0.00000000000E+00  0.00000000000E+00  0.95618969423E+02  0.95618969556E+02  0.50400001928E-02 0.  1.
       -1   -1    0    0    0  501  0.00000000000E+00  0.00000000000E+00 -0.65282375299E+03  0.65282375301E+03  0.50400001928E-02 0. -1.
    10030    2    1    2    0    0  0.00000000000E+00  0.00000000000E+00 -0.55720478357E+03  0.74844272256E+03  0.49968924156E+03 0.  0.
        4    1    3    3  502    0 -0.21536750744E+03  0.17491425726E+02 -0.90737712948E+02  0.23435882464E+03  0.12699999809E+01 0.  1.
       -4    1    3    3    0  502  0.21536750744E+03 -0.17491425726E+02 -0.46646707062E+03  0.51408389793E+03  0.12699999809E+01 0. -1.
</event>
<event>
 5   0  0.2643185E-02  0.5020569E+03  0.7818609E-02  0.1013243E+00
        1   -1    0    0  501    0  0.00000000000E+00  0.00000000000E+00  0.10161533757E+03  0.10161533769E+03  0.50400001928E-02 0. -1.
       -1   -1    0    0    0  501  0.00000000000E+00  0.00000000000E+00 -0.62013556214E+03  0.62013556216E+03  0.50400001928E-02 0.  1.
    10030    2    1    2    0    0  0.00000000000E+00  0.00000000000E+00 -0.51852022458E+03  0.72175089985E+03  0.50205690728E+03 0.  0.
        1    1    3    3  502    0  0.11708438189E+03 -0.22048175982E+03 -0.22137958793E+03  0.33366132660E+03  0.50400001928E-02 0. -1.
       -1    1    3    3    0  502 -0.11708438189E+03  0.22048175982E+03 -0.29714063665E+03  0.38808957325E+03  0.50400001928E-02 0.  1.
</event>
<event>
 5   0  0.2643185E-02  0.5005217E+03  0.7818609E-02  0.1013643E+00
        1   -1    0    0  501    0  0.00000000000E+00  0.00000000000E+00  0.49923192936E+03  0.49923192939E+03  0.50400001928E-02 0.  1.
       -1   -1    0    0    0  501  0.00000000000E+00  0.00000000000E+00 -0.12545369541E+03  0.12545369551E+03  0.50400001928E-02 0. -1.
    10030    2    1    2    0    0  0.00000000000E+00  0.00000000000E+00  0.37377823395E+03  0.62468562489E+03  0.50052168961E+03 0.  0.
        1    1    3    3  502    0  0.81108924021E+02 -0.21104375583E+03  0.32080155105E+03  0.39246880081E+03  0.50400001928E-02 0. -1.
       -1    1    3    3    0  502 -0.81108924021E+02  0.21104375583E+03  0.52976682903E+02  0.23221682408E+03  0.50400001928E-02 0.  1.
</event>
<event>
 5   0  0.1805500E-02  0.5002421E+03  0.7818609E-02  0.1013716E+00
        3   -1    0    0  501    0  0.00000000000E+00  0.00000000000E+00  0.64000978763E+02  0.64001058457E+02  0.10100000352E+00 0. -1.
       -3   -1    0    0    0  501  0.00000000000E+00  0.00000000000E+00 -0.97749265860E+03  0.97749266382E+03  0.10100000352E+00 0.  1.
    10030    2    1    2    0    0  0.00000000000E+00  0.00000000000E+00 -0.91349167984E+03  0.10414937223E+04  0.50024206581E+03 0.  0.
        2    1    3    3  502    0  0.68637737269E+02 -0.35183646910E+02  0.38623120523E+02  0.86259917880E+02  0.25500000920E-02 0. -1.
       -2    1    3    3    0  502 -0.68637737269E+02  0.35183646910E+02 -0.95211480036E+03  0.95523380439E+03  0.25500000920E-02 0.  1.
</event>
<event>
 5   0  0.4519539E-02  0.4998278E+03  0.7818609E-02  0.1013824E+00
        2   -1    0    0  501    0  0.00000000000E+00  0.00000000000E+00  0.96211625531E+03  0.96211625531E+03  0.25500000920E-02 0.  1.
       -2   -1    0    0    0  501  0.00000000000E+00  0.00000000000E+00 -0.64916219862E+02  0.64916219912E+02  0.25500000920E-02 0. -1.
    10030    2    1    2    0    0  0.00000000000E+00  0.00000000000E+00  0.89720003544E+03  0.10270324752E+04  0.49982777190E+03 0.  0.
        4    1    3    3  502    0  0.11881516887E+03 -0.16563768965E+03  0.74567246811E+03  0.77303423675E+03  0.12699999809E+01 0.  1.
       -4    1    3    3    0  502 -0.11881516887E+03  0.16563768965E+03  0.15152756733E+03  0.25399823847E+03  0.12699999809E+01 0. -1.
</event>
<event>
 5   0  0.2643185E-02  0.4992007E+03  0.7818609E-02  0.1013988E+00
        1   -1    0    0  501    0  0.00000000000E+00  0.00000000000E+00  0.28225432793E+03  0.28225432797E+03  0.50400001928E-02 0. -1.
       -1   -1    0    0    0  501  0.00000000000E+00  0.00000000000E+00 -0.22072408230E+03  0.22072408236E+03  0.50400001928E-02 0.  1.
    10030    2    1    2    0    0  0.00000000000E+00  0.00000000000E+00  0.61530245629E+02  0.50297841033E+03  0.49920067120E+03 0.  0.
        1    1    3    3  502    0 -0.15547930114E+03 -0.64677787307E+02  0.21639642168E+03  0.27419781289E+03  0.50400001928E-02 0. -1.
       -1    1    3    3    0  502  0.15547930114E+03  0.64677787307E+02 -0.15486617605E+03  0.22878059744E+03  0.50400001928E-02 0.  1.
</event>
<event>
 5   0  0.4519539E-02  0.4996335E+03  0.7818609E-02  0.1013875E+00
       -2   -1    0    0    0  501  0.00000000000E+00  0.00000000000E+00  0.72382043569E+02  0.72382043614E+02  0.25500000920E-02 0. -1.
        2   -1    0    0  501    0  0.00000000000E+00  0.00000000000E+00 -0.86220845045E+03  0.86220845045E+03  0.25500000920E-02 0.  1.
    10030    2    1    2    0    0  0.00000000000E+00  0.00000000000E+00 -0.78982640688E+03  0.93459049407E+03  0.49963350428E+03 0.  0.
        4    1    3    3  502    0 -0.57533185671E+02 -0.17437023694E+03 -0.71175927231E+03  0.73506320925E+03  0.12699999809E+01 0.  1.
       -4    1    3    3    0  502  0.57533185671E+02  0.17437023694E+03 -0.78067134573E+02  0.19952728481E+03  0.12699999809E+01 0. -1.
</event>
<event>
 5   0  0.4409622E-02  0.4999984E+03  0.7818609E-02  0.1013779E+00
        2   -1    0    0  501    0  0.00000000000E+00  0.00000000000E+00  0.18203716589E+04  0.18203716589E+04  0.25500000920E-02 0.  1.
       -2   -1    0    0    0  501  0.00000000000E+00  0.00000000000E+00 -0.34333429978E+02  0.34333430073E+02  0.25500000920E-02 0. -1.
    10030    2    1    2    0    0  0.00000000000E+00  0.00000000000E+00  0.17860382290E+04  0.18547050890E+04  0.49999841190E+03 0.  0.
        3    1    3    3  502    0 -0.14690192931E+03 -0.86984542121E+02  0.21557359239E+03  0.27498812945E+03  0.10100000352E+00 0. -1.
       -3    1    3    3    0  502  0.14690192931E+03  0.86984542121E+02  0.15704646366E+04  0.15797169596E+04  0.10100000352E+00 0.  1.
</event>
<event>
 5   0  0.4451135E-02  0.4999291E+03  0.7818609E-02  0.1013797E+00
       -2   -1    0    0    0  501  0.00000000000E+00  0.00000000000E+00  0.40556987927E+02  0.40556988007E+02  0.25500000920E-02 0. -1.
        2   -1    0    0  501    0  0.00000000000E+00  0.00000000000E+00 -0.15406043457E+04  0.15406043457E+04  0.25500000920E-02 0.  1.
    10030    2    1    2    0    0  0.00000000000E+00  0.00000000000E+00 -0.15000473578E+04  0.15811613337E+04  0.49992908263E+03 0.  0.
        1    1    3    3  502    0 -0.23569654948E+03  0.82732233903E+02 -0.77914624696E+03  0.81820923983E+03  0.50400001928E-02 0. -1.
       -1    1    3    3    0  502  0.23569654948E+03 -0.82732233903E+02 -0.72090111082E+03  0.76295209389E+03  0.50400001928E-02 0.  1.
</event>
<event>
 5   0  0.4519539E-02  0.5007771E+03  0.7818609E-02  0.1013576E+00
       -2   -1    0    0    0  501  0.00000000000E+00  0.00000000000E+00  0.11572032197E+03  0.11572032200E+03  0.25500000920E-02 0. -1.
        2   -1    0    0  501    0  0.00000000000E+00  0.00000000000E+00 -0.54177546367E+03  0.54177546368E+03  0.25500000920E-02 0.  1.
    10030    2    1    2    0    0  0.00000000000E+00  0.00000000000E+00 -0.42605514170E+03  0.65749578568E+03  0.50077712050E+03 0.  0.
        4    1    3    3  502    0  0.23467294961E+03 -0.71895931025E+02 -0.14800799215E+03  0.28661541622E+03  0.12699999809E+01 0.  1.
       -4    1    3    3    0  502 -0.23467294961E+03  0.71895931025E+02 -0.27804714955E+03  0.37088036946E+03  0.12699999809E+01 0. -1.
</event>
<event>
 5   0  0.2643185E-02  0.5005426E+03  0.7818609E-02  0.1013637E+00
        1   -1    0    0  501    0  0.00000000000E+00  0.00000000000E+00  0.20157313021E+03  0.20157313028E+03  0.50400001928E-02 0. -1.
       -1   -1    0    0    0  501  0.00000000000E+00  0.00000000000E+00 -0.31073450482E+03  0.31073450486E+03  0.50400001928E-02 0.  1.
    10030    2    1    2    0    0  0.00000000000E+00  0.00000000000E+00 -0.10916137461E+03  0.51230763514E+03  0.50054261289E+03 0.  0.
        1    1    3    3  502    0 -0.52740307128E+02 -0.42189989145E+02  0.19206944836E+03  0.20359815372E+03  0.50400001928E-02 0. -1.
       -1    1    3    3    0  502  0.52740307128E+02  0.42189989145E+02 -0.30123082297E+03  0.30870948141E+03  0.50400001928E-02 0.  1.
</event>
<event>
 5   0  0.4409622E-02  0.4984995E+03  0.7818609E-02  0.1014171E+00
       -2   -1    0    0    0  501  0.00000000000E+00  0.00000000000E+00  0.38893347333E+02  0.38893347416E+02  0.25500000920E-02 0. -1.
        2   -1    0    0  501    0  0.00000000000E+00  0.00000000000E+00 -0.15973283976E+04  0.15973283976E+04  0.25500000920E-02 0.  1.
    10030    2    1    2    0    0  0.00000000000E+00  0.00000000000E+00 -0.15584350502E+04  0.16362217450E+04  0.49849954159E+03 0.  0.
        3    1    3    3  502    0  0.15599553364E+03  0.73883727446E+02 -0.13694102594E+04  0.13802455870E+04  0.10100000352E+00 0.  1.
       -3    1    3    3    0  502 -0.15599553364E+03 -0.73883727446E+02 -0.18902479079E+03  0.25597615793E+03  0.10100000352E+00 0. -1.
</event>
<event>
 5   0  0.2643185E-02  0.5074606E+03  0.7818609E-02  0.1011850E+00
        1   -1    0    0  501    0  0.00000000000E+00  0.00000000000E+00  0.81872765116E+02  0.81872765271E+02  0.50400001928E-02 0.  1.
       -1   -1    0    0    0  501  0.00000000000E+00  0.00000000000E+00 -0.78633052105E+03  0.78633052106E+03  0.50400001928E-02 0. -1.
    10030    2    1    2    0    0  0.00000000000E+00  0.00000000000E+00 -0.70445775593E+03  0.86820328633E+03  0.50746055661E+03 0.  0.
        1    1    3    3  502    0 -0.89524914524E+02 -0.18577627244E+03 -0.60513536187E+03  0.63930926783E+03  0.50400001928E-02 0. -1.
       -1    1    3    3    0  502  0.89524914524E+02  0.18577627244E+03 -0.99322394064E+02  0.22889401851E+03  0.50400001928E-02 0.  1.
</event>
<event>
 5   0  0.4519539E-02  0.4999622E+03  0.7818609E-02  0.1013789E+00
        2   -1    0    0  501    0  0.00000000000E+00  0.00000000000E+00  0.38033534558E+03  0.38033534559E+03  0.25500000920E-02 0. -1.
       -2   -1    0    0    0  501  0.00000000000E+00  0.00000000000E+00 -0.16430380030E+03  0.16430380032E+03  0.25500000920E-02 0.  1.
    10030    2    1    2    0    0  0.00000000000E+00  0.00000000000E+00  0.21603154527E+03  0.54463914591E+03  0.49996216927E+03 0.  0.
        4    1    3    3  502    0 -0.36052905681E+02 -0.90025808229E+02 -0.14297367266E+03  0.17276441222E+03  0.12699999809E+01 0.  1.
       -4    1    3    3    0  502  0.36052905681E+02  0.90025808229E+02  0.35900521793E+03  0.37187473369E+03  0.12699999809E+01 0. -1.
</event>
<event>
 5   0  0.4534223E-02  0.4990746E+03  0.7818609E-02  0.1014021E+00
        2   -1    0    0  501    0  0.00000000000E+00  0.00000000000E+00  0.16971772708E+04  0.16971772708E+04  0.25500000920E-02 0. -1.
       -2   -1    0    0    0  501  0.00000000000E+00  0.00000000000E+00 -0.36689657948E+02  0.36689658036E+02  0.25500000920E-02 0.  1.
    10030    2    1    2    0    0  0.00000000000E+00  0.00000000000E+00  0.16604876128E+04  0.17338669288E+04  0.49907455803E+03 0.  0.
        2    1    3    3  502    0  0.42718449863E+02 -0.22845507776E+02  0.16806839215E+04  0.16813819397E+04  0.25500000920E-02 0. -1.
       -2    1    3    3    0  502 -0.42718449863E+02  0.22845507776E+02 -0.20196308717E+02  0.52484989060E+02  0.25500000920E-02 0.  1.
</event>
<event>
 5   0  0.4451135E-02  0.5014313E+03  0.7818609E-02  0.1013406E+00
       -2   -1    0    0    0  501  0.00000000000E+00  0.00000000000E+00  0.31143198793E+02  0.31143198897E+02  0.25500000920E-02 0.  1.
        2   -1    0    0  501    0  0.00000000000E+00  0.00000000000E+00 -0.20183646423E+04  0.20183646423E+04  0.25500000920E-02 0. -1.
    10030    2    1    2    0    0  0.00000000000E+00  0.00000000000E+00 -0.19872214436E+04  0.20495078412E+04  0.50143127705E+03 0.  0.
        1    1    3    3  502    0 -0.10033459628E+03 -0.15578414734E+03 -0.16839025260E+04  0.16940671324E+04  0.50400001928E-02 0. -1.
       -1    1    3    3    0  502  0.10033459628E+03  0.15578414734E+03 -0.30331891753E+03  0.35544070889E+03  0.50400001928E-02 0.  1.
</event>
<event>
 5   0  0.4409622E-02  0.5016198E+03  0.7818609E-02  0.1013357E+00
       -2   -1    0    0    0  501  0.00000000000E+00  0.00000000000E+00  0.27895850516E+02  0.27895850633E+02  0.25500000920E-02 0.  1.
        2   -1    0    0  501    0  0.00000000000E+00  0.00000000000E+00 -0.22550162478E+04  0.22550162478E+04  0.25500000920E-02 0. -1.
    10030    2    1    2    0    0  0.00000000000E+00  0.00000000000E+00 -0.22271203973E+04  0.22829120984E+04  0.50161976155E+03 0.  0.
        3    1    3    3  502    0  0.17986764528E+03  0.17207169256E+03 -0.12534309070E+04  0.12779084811E+04  0.10100000352E+00 0.  1.
       -3    1    3    3    0  502 -0.17986764528E+03 -0.17207169256E+03 -0.97368949028E+03  0.10050036173E+04  0.10100000352E+00 0. -1.
</event>
<event>
 5   0  0.1805500E-02  0.5016532E+03  0.7818609E-02  0.1013348E+00
        3   -1    0    0  501    0  0.00000000000E+00  0.00000000000E+00  0.49624402655E+02  0.49624505437E+02  0.10100000352E+00 0.  1.
       -3   -1    0    0    0  501  0.00000000000E+00  0.00000000000E+00 -0.12678020364E+04  0.12678020404E+04  0.10100000352E+00 0. -1.
    10030    2    1    2    0    0  0.00000000000E+00  0.00000000000E+00 -0.12181776337E+04  0.13174265458E+04  0.50165322323E+03 0.  0.
        2    1    3    3  502    0  0.30648719868E+02 -0.12227644497E+03 -0.11785688552E+04  0.11852912804E+04  0.25500000920E-02 0. -1.
       -2    1    3    3    0  502 -0.30648719868E+02  0.12227644497E+03 -0.39608778537E+02  0.13213526542E+03  0.25500000920E-02 0.  1.
</event>
<event>
 5   0  0.4534223E-02  0.4997871E+03  0.7818609E-02  0.1013835E+00
        2   -1    0    0  501    0  0.00000000000E+00  0.00000000000E+00  0.35820230853E+02  0.35820230944E+02  0.25500000920E-02 0.  1.
       -2   -1    0    0    0  501  0.00000000000E+00  0.00000000000E+00 -0.17433384278E+04  0.17433384278E+04  0.25500000920E-02 0. -1.
    10030    2    1    2    0    0  0.00000000000E+00  0.00000000000E+00 -0.17075181969E+04  0.17791586587E+04  0.49978709475E+03 0.  0.
        2    1    3    3  502    0  0.13597683496E+02  0.22531098201E+03 -0.47206182115E+03  0.52325165895E+03  0.25500000920E-02 0.  1.
       -2    1    3    3    0  502 -0.13597683496E+02 -0.22531098201E+03 -0.12354563758E+04  0.12559069997E+04  0.25500000920E-02 0. -1.
</event>
<event>
 5   0  0.2719671E-02  0.4988451E+03  0.7818609E-02  0.1014081E+00
       -1   -1    0    0    0  501  0.00000000000E+00  0.00000000000E+00  0.90409267344E+03  0.90409267346E+03  0.50400001928E-02 0.  1.
        1   -1    0    0  501    0  0.00000000000E+00  0.00000000000E+00 -0.68811084863E+02  0.68811085048E+02  0.50400001928E-02 0. -1.
    10030    2    1    2    0    0  0.00000000000E+00  0.00000000000E+00  0.83528158858E+03  0.97290375851E+03  0.49884505720E+03 0.  0.
        2    1    3    3  502    0 -0.12705888621E+03  0.21450919177E+03  0.40338297598E+03  0.47421090164E+03  0.25500000920E-02 0. -1.
       -2    1    3    3    0  502  0.12705888621E+03 -0.21450919177E+03  0.43189861260E+03  0.49869285687E+03  0.25500000920E-02 0.  1.
</event>
<event>
 5   0  0.2719671E-02  0.5057274E+03  0.7818609E-02  0.1012295E+00
       -1   -1    0    0    0  501  0.00000000000E+00  0.00000000000E+00  0.11092220640E+04  0.11092220640E+04  0.50400001928E-02 0.  1.
        1   -1    0    0  501    0  0.00000000000E+00  0.00000000000E+00 -0.57644051136E+02  0.57644051357E+02  0.50400001928E-02 0. -1.
    10030    2    1    2    0    0  0.00000000000E+00  0.00000000000E+00  0.10515780129E+04  0.11668661154E+04  0.50572741082E+03 0.  0.
        2    1    3    3  502    0 -0.19181576628E+03  0.16438197022E+03  0.49995822399E+03  0.56015439485E+03  0.25500000920E-02 0.  1.
       -2    1    3    3    0  502  0.19181576628E+03 -0.16438197022E+03  0.55161978887E+03  0.60671172051E+03  0.25500000920E-02 0. -1.
</event>
<event>
 5   0  0.2723308E-02  0.4996553E+03  0.7818609E-02  0.1013869E+00
       -1   -1    0    0    0  501  0.00000000000E+00  0.00000000000E+00  0.26946151415E+03  0.26946151420E+03  0.50400001928E-02 0. -1.
        1   -1    0    0  501    0  0.00000000000E+00  0.00000000000E+00 -0.23162440866E+03  0.23162440872E+03  0.50400001928E-02 0.  1.
    10030    2    1    2    0    0  0.00000000000E+00  0.00000000000E+00  0.37837105484E+02  0.50108592291E+03  0.49965533680E+03 0.  0.
        4    1    3    3  502    0  0.10082817881E+03  0.43703764005E+02 -0.20608047194E+03  0.23355323686E+03  0.12699999809E+01 0.  1.
       -4    1    3    3    0  502 -0.10082817881E+03 -0.43703764005E+02  0.24391757743E+03  0.26753268606E+03  0.12699999809E+01 0. -1.
</event>
<event>
 5   0  0.2715483E-02  0.4997885E+03  0.7818609E-02  0.1013834E+00
        1   -1    0    0  501    0  0.00000000000E+00  0.00000000000E+00  0.37317682209E+03  0.37317682212E+03  0.50400001928E-02 0. -1.
       -1   -1    0    0    0  501  0.00000000000E+00  0.00000000000E+00 -0.16733924483E+03  0.16733924491E+03  0.50400001928E-02 0.  1.
    10030    2    1    2    0    0  0.00000000000E+00  0.00000000000E+00  0.20583757726E+03  0.54051606703E+03  0.49978846576E+03 0.  0.
        5    1    3    3  502    0 -0.20261433194E+03 -0.11697796851E+03  0.19774900003E+03  0.30637096735E+03  0.46999998093E+01 0. -1.
       -5    1    3    3    0  502  0.20261433194E+03  0.11697796851E+03  0.80885772277E+01  0.23414509968E+03  0.46999998093E+01 0.  1.
</event>
<event>
 5   0  0.2715483E-02  0.5002605E+03  0.7818609E-02  0.1013711E+00
        1   -1    0    0  501    0  0.00000000000E+00  0.00000000000E+00  0.91809613039E+02  0.91809613177E+02  0.50400001928E-02 0. -1.
       -1   -1    0    0    0  501  0.00000000000E+00  0.00000000000E+00 -0.68146623765E+03  0.68146623766E+03  0.50400001928E-02 0.  1.
    10030    2    1    2    0    0  0.00000000000E+00  0.00000000000E+00 -0.58965662461E+03  0.77327585084E+03  0.50026053867E+03 0.  0.
        5    1    3    3  502    0 -0.10538083062E+03 -0.73303285911E+02 -0.62658654893E+03  0.63961807705E+03  0.46999998093E+01 0.  1.
       -5    1    3    3    0  502  0.10538083062E+03  0.73303285911E+02  0.36929924323E+02  0.13365777379E+03  0.46999998093E+01 0. -1.
</event>
<event>
 5   0  0.4409622E-02  0.4966921E+03  0.7818609E-02  0.1014646E+00
        2   -1    0    0  501    0  0.00000000000E+00  0.00000000000E+00  0.42652629491E+03  0.42652629491E+03  0.25500000920E-02 0.  1.
       -2   -1    0    0    0  501  0.00000000000E+00  0.00000000000E+00 -0.14460011521E+03  0.14460011523E+03  0.25500000920E-02 0. -1.
    10030    2    1    2    0    0  0.00000000000E+00  0.00000000000E+00  0.28192617970E+03  0.57112641014E+03  0.49669206312E+03 0.  0.
        3    1    3    3  502    0 -0.13916120309E+03 -0.57535805743E+01 -0.95463360403E+02  0.16885558183E+03  0.10100000352E+00 0. -1.
       -3    1    3    3    0  502  0.13916120309E+03  0.57535805743E+01  0.37738954010E+03  0.40227082832E+03  0.10100000352E+00 0.  1.
</event>
<event>
 5   0  0.4409622E-02  0.4843831E+03  0.7818609E-02  0.1017937E+00
        2   -1    0    0  501    0  0.00000000000E+00  0.00000000000E+00  0.15974549248E+03  0.15974549250E+03  0.25500000920E-02 0. -1.
       -2   -1    0    0    0  501  0.00000000000E+00  0.00000000000E+00 -0.36718875207E+03  0.36718875208E+03  0.25500000920E-02 0.  1.
    10030    2    1    2    0    0  0.00000000000E+00  0.00000000000E+00 -0.20744325959E+03  0.52693424459E+03  0.48438310475E+03 0.  0.
        3    1    3    3  502    0 -0.15490870470E+02 -0.12043152309E+03 -0.33168448349E+03  0.35321144603E+03  0.10100000352E+00 0.  1.
       -3    1    3    3    0  502  0.15490870470E+02  0.12043152309E+03  0.12424122390E+03  0.17372279855E+03  0.10100000352E+00 0. -1.
</event>
<event>
 5   0  0.2715483E-02  0.4994101E+03  0.7818609E-02  0.1013933E+00
       -1   -1    0    0    0  501  0.00000000000E+00  0.00000000000E+00  0.21525524756E+03  0.21525524762E+03  0.50400001928E-02 0.  1.
        1   -1    0    0  501    0  0.00000000000E+00  0.00000000000E+00 -0.28966831248E+03  0.28966831253E+03  0.50400001928E-02 0. -1.
    10030    2    1    2    0    0  0.00000000000E+00  0.00000000000E+00 -0.74413064926E+02  0.50492356014E+03  0.49941014943E+03 0.  0.
        5    1    3    3  502    0 -0.51243446003E+02  0.24131490043E+03 -0.75993615974E+02  0.25817802307E+03  0.46999998093E+01 0.  1.
       -5    1    3    3    0  502  0.51243446003E+02 -0.24131490043E+03  0.15805510480E+01  0.24674553708E+03  0.46999998093E+01 0. -1.
</event>
<event>
 5   0  0.4451135E-02  0.5087248E+03  0.7818609E-02  0.1011526E+00
       -2   -1    0    0    0  501  0.00000000000E+00  0.00000000000E+00  0.86712508303E+02  0.86712508341E+02  0.25500000920E-02 0.  1.
        2   -1    0    0  501    0  0.00000000000E+00  0.00000000000E+00 -0.74614645002E+03  0.74614645003E+03  0.25500000920E-02 0. -1.
    10030    2    1    2    0    0  0.00000000000E+00  0.00000000000E+00 -0.65943394172E+03  0.83285895837E+03  0.50872479893E+03 0.  0.
        1    1    3    3  502    0  0.46990045847E+02 -0.54092668676E+02 -0.72928277625E+03  0.73279427466E+03  0.50400001928E-02 0. -1.
       -1    1    3    3    0  502 -0.46990045847E+02  0.54092668676E+02  0.69848834536E+02  0.10006468370E+03  0.50400001928E-02 0.  1.
</event>
<event>
 5   0  0.2719671E-02  0.5023090E+03  0.7818609E-02  0.1013178E+00
        1   -1    0    0  501    0  0.00000000000E+00  0.00000000000E+00  0.12618728575E+04  0.12618728575E+04  0.50400001928E-02 0. -1.
       -1   -1    0    0    0  501  0.00000000000E+00  0.00000000000E+00 -0.49988059293E+02  0.49988059547E+02  0.50400001928E-02 0.  1.
    10030    2    1    2    0    0  0.00000000000E+00  0.00000000000E+00  0.12118847982E+04  0.13118609170E+04  0.50230897023E+03 0.  0.
        2    1    3    3  502    0  0.10538178603E+02  0.57976613357E+02  0.12435635331E+04  0.12449588755E+04  0.25500000920E-02 0. -1.
       -2    1    3    3    0  502 -0.10538178603E+02 -0.57976613357E+02 -0.31678734916E+02  0.66902041501E+02  0.25500000920E-02 0.  1.
</event>
<event>
 5   0  0.4409622E-02  0.4989970E+03  0.7818609E-02  0.1014041E+00
       -2   -1    0    0    0  501  0.00000000000E+00  0.00000000000E+00  0.97887324357E+02  0.97887324390E+02  0.25500000920E-02 0. -1.
        2   -1    0    0  501    0  0.00000000000E+00  0.00000000000E+00 -0.63593023776E+03  0.63593023777E+03  0.25500000920E-02 0.  1.
    10030    2    1    2    0    0  0.00000000000E+00  0.00000000000E+00 -0.53804291341E+03  0.73381756216E+03  0.49899703192E+03 0.  0.
        3    1    3    3  502    0  0.62857431116E+02 -0.23402820865E+03 -0.18165781156E+03  0.30285281870E+03  0.10100000352E+00 0. -1.
       -3    1    3    3    0  502 -0.62857431116E+02  0.23402820865E+03 -0.35638510184E+03  0.43096474346E+03  0.10100000352E+00 0.  1.
</event>
<event>
 5   0  0.4519539E-02  0.5005241E+03  0.7818609E-02  0.1013642E+00
       -2   -1    0    0    0  501  0.00000000000E+00  0.00000000000E+00  0.85859088081E+02  0.85859088119E+02  0.25500000920E-02 0.  1.
        2   -1    0    0  501    0  0.00000000000E+00  0.00000000000E+00 -0.72946371414E+03  0.72946371415E+03  0.25500000920E-02 0. -1.
    10030    2    1    2    0    0  0.00000000000E+00  0.00000000000E+00 -0.64360462606E+03  0.81532280227E+03  0.50052408255E+03 0.  0.
        4    1    3    3  502    0 -0.31006411891E+02 -0.18972302990E+03 -0.60799588102E+02  0.20162943353E+03  0.12699999809E+01 0.  1.
       -4    1    3    3    0  502  0.31006411891E+02  0.18972302990E+03 -0.58280503796E+03  0.61369336873E+03  0.12699999809E+01 0. -1.
</event>
<event>
 5   0  0.4631619E-02  0.5020145E+03  0.7818609E-02  0.1013254E+00
       -2   -1    0    0    0  501  0.00000000000E+00  0.00000000000E+00  0.10111563847E+03  0.10111563851E+03  0.25500000920E-02 0. -1.
        2   -1    0    0  501    0  0.00000000000E+00  0.00000000000E+00 -0.62309499538E+03  0.62309499539E+03  0.25500000920E-02 0.  1.
    10030    2    1    2    0    0  0.00000000000E+00  0.00000000000E+00 -0.52197935691E+03  0.72421063390E+03  0.50201453486E+03 0.  0.
        5    1    3    3  502    0  0.91146130170E+02 -0.20365879666E+03 -0.95258866896E+02  0.24265379499E+03  0.46999998093E+01 0. -1.
       -5    1    3    3    0  502 -0.91146130170E+02  0.20365879666E+03 -0.42672049001E+03  0.48155683891E+03  0.46999998093E+01 0.  1.
</event>
<event>
 5   0  0.2643185E-02  0.4972500E+03  0.7818609E-02  0.1014499E+00
        1   -1    0    0  501    0  0.00000000000E+00  0.00000000000E+00  0.15637136364E+04  0.15637136364E+04  0.50400001928E-02 0.  1.
       -1   -1    0    0    0  501  0.00000000000E+00  0.00000000000E+00 -0.39530499393E+02  0.39530499714E+02  0.50400001928E-02 0. -1.
    10030    2    1    2    0    0  0.00000000000E+00  0.00000000000E+00  0.15241831370E+04  0.16032441362E+04  0.49724996217E+03 0.  0.
        1    1    3    3  502    0 -0.67633807020E+02 -0.19907119133E+03  0.11899630450E+04  0.12083938594E+04  0.50400001928E-02 0.  1.
       -1    1    3    3    0  502  0.67633807020E+02  0.19907119133E+03  0.33422009209E+03  0.39485027675E+03  0.50400001928E-02 0. -1.
</event>
<event>
 5   0  0.1805500E-02  0.4994682E+03  0.7818609E-02  0.1013918E+00
       -3   -1    0    0    0  501  0.00000000000E+00  0.00000000000E+00  0.97950435501E+02  0.97950487573E+02  0.10100000352E+00 0. -1.
        3   -1    0    0  501    0  0.00000000000E+00  0.00000000000E+00 -0.63672096612E+03  0.63672097413E+03  0.10100000352E+00 0.  1.
    10030    2    1    2    0    0  0.00000000000E+00  0.00000000000E+00 -0.53877053062E+03  0.73467146171E+03  0.49946818916E+03 0.  0.
        1    1    3    3  502    0  0.57071570812E+02 -0.13405907068E+03  0.28952033609E+02  0.14855039180E+03  0.50400001928E-02 0. -1.
       -1    1    3    3    0  502 -0.57071570812E+02  0.13405907068E+03 -0.56772256423E+03  0.58612106991E+03  0.50400001928E-02 0.  1.
</event>
<event>
 5   0  0.1805500E-02  0.4989739E+03  0.7818609E-02  0.1014047E+00
        3   -1    0    0  501    0  0.00000000000E+00  0.00000000000E+00  0.22457857520E+03  0.22457859791E+03  0.10100000352E+00 0.  1.
       -3   -1    0    0    0  501  0.00000000000E+00  0.00000000000E+00 -0.27715789270E+03  0.27715791110E+03  0.10100000352E+00 0. -1.
    10030    2    1    2    0    0  0.00000000000E+00  0.00000000000E+00 -0.52579317506E+02  0.50173650901E+03  0.49897388694E+03 0.  0.
        5    1    3    3  502    0  0.15942999002E+03  0.65959821778E+02 -0.20743429498E+03  0.26985124891E+03  0.46999998093E+01 0. -1.
       -5    1    3    3    0  502 -0.15942999002E+03 -0.65959821778E+02  0.15485497747E+03  0.23188526010E+03  0.46999998093E+01 0.  1.
</event>
<event>
 5   0  0.2643185E-02  0.4979005E+03  0.7818609E-02  0.1014328E+00
        1   -1    0    0  501    0  0.00000000000E+00  0.00000000000E+00  0.12384043115E+04  0.12384043116E+04  0.50400001928E-02 0.  1.
       -1   -1    0    0    0  501  0.00000000000E+00  0.00000000000E+00 -0.50045219037E+02  0.50045219291E+02  0.50400001928E-02 0. -1.
    10030    2    1    2    0    0  0.00000000000E+00  0.00000000000E+00  0.11883590925E+04  0.12884495308E+04  0.49790045269E+03 0.  0.
        1    1    3    3  502    0  0.45205944876E+02 -0.16043114229E+03  0.10727026737E+04  0.10855748501E+04  0.50400001928E-02 0.  1.
       -1    1    3    3    0  502 -0.45205944876E+02  0.16043114229E+03  0.11565641879E+03  0.20287468078E+03  0.50400001928E-02 0. -1.
</event>
<event>
 5   0  0.1805500E-02  0.4799389E+03  0.7818609E-02  0.1019152E+00
       -3   -1    0    0    0  501  0.00000000000E+00  0.00000000000E+00  0.20038865285E+03  0.20038867830E+03  0.10100000352E+00 0. -1.
        3   -1    0    0  501    0  0.00000000000E+00  0.00000000000E+00 -0.28736816092E+03  0.28736817867E+03  0.10100000352E+00 0.  1.
    10030    2    1    2    0    0  0.00000000000E+00  0.00000000000E+00 -0.86979508070E+02  0.48775685697E+03  0.47993886767E+03 0.  0.
        5    1    3    3  502    0  0.14874046488E+03 -0.39128341374E+02 -0.23063192434E+03  0.27725065827E+03  0.46999998093E+01 0.  1.
       -5    1    3    3    0  502 -0.14874046488E+03  0.39128341374E+02  0.14365241627E+03  0.21050619869E+03  0.46999998093E+01 0. -1.
</event>
<event>
 5   0  0.2723308E-02  0.5003032E+03  0.7818609E-02  0.1013700E+00
        1   -1    0    0  501    0  0.00000000000E+00  0.00000000000E+00  0.60897750201E+03  0.60897750203E+03  0.50400001928E-02 0. -1.
       -1   -1    0    0    0  501  0.00000000000E+00  0.00000000000E+00 -0.10275555015E+03  0.10275555027E+03  0.50400001928E-02 0.  1.
    10030    2    1    2    0    0  0.00000000000E+00  0.00000000000E+00  0.50622195186E+03  0.71173305230E+03  0.50030318127E+03 0.  0.
        4    1    3    3  502    0 -0.13435360836E+03 -0.46532661732E+02  0.54589792879E+03  0.56411199442E+03  0.12699999809E+01 0. -1.
       -4    1    3    3    0  502  0.13435360836E+03  0.46532661732E+02 -0.39675976926E+02  0.14762105789E+03  0.12699999809E+01 0.  1.
</event>
<event>
 5   0  0.2779445E-02  0.4972341E+03  0.7818609E-02  0.1014503E+00
       -1   -1    0    0    0  501  0.00000000000E+00  0.00000000000E+00  0.20665686181E+03  0.20665686187E+03  0.50400001928E-02 0. -1.
        1   -1    0    0  501    0  0.00000000000E+00  0.00000000000E+00 -0.29909693847E+03  0.29909693851E+03  0.50400001928E-02 0.  1.
    10030    2    1    2    0    0  0.00000000000E+00  0.00000000000E+00 -0.92440076658E+02  0.50575380039E+03  0.49723408857E+03 0.  0.
        3    1    3    3  502    0 -0.20144681380E+03  0.42295507270E+02  0.95598877948E+02  0.22695568817E+03  0.10100000352E+00 0. -1.
       -3    1    3    3    0  502  0.20144681380E+03 -0.42295507270E+02 -0.18803895461E+03  0.27879811222E+03  0.10100000352E+00 0.  1.
</event>
<event>
 5   0  0.4409622E-02  0.4994584E+03  0.7818609E-02  0.1013920E+00
       -2   -1    0    0    0  501  0.00000000000E+00  0.00000000000E+00  0.99615582670E+02  0.99615582702E+02  0.25500000920E-02 0.  1.
        2   -1    0    0  501    0  0.00000000000E+00  0.00000000000E+00 -0.62605338087E+03  0.62605338087E+03  0.25500000920E-02 0. -1.
    10030    2    1    2    0    0  0.00000000000E+00  0.00000000000E+00 -0.52643779820E+03  0.72566896358E+03  0.49945839599E+03 0.  0.
        3    1    3    3  502    0  0.10263959162E+03 -0.40916388373E+02  0.62167245743E+02  0.12678254316E+03  0.10100000352E+00 0.  1.
       -3    1    3    3    0  502 -0.10263959162E+03  0.40916388373E+02 -0.58860504394E+03  0.59888642042E+03  0.10100000352E+00 0. -1.
</event>
<event>
 5   0  0.2719671E-02  0.4993905E+03  0.7818609E-02  0.1013938E+00
       -1   -1    0    0    0  501  0.00000000000E+00  0.00000000000E+00  0.27963607161E+03  0.27963607166E+03  0.50400001928E-02 0. -1.
        1   -1    0    0  501    0  0.00000000000E+00  0.00000000000E+00 -0.22296024235E+03  0.22296024241E+03  0.50400001928E-02 0.  1.
    10030    2    1    2    0    0  0.00000000000E+00  0.00000000000E+00  0.56675829258E+02  0.50259631407E+03  0.49939053385E+03 0.  0.
        2    1    3    3  502    0  0.40384861748E+02 -0.11991362962E+03  0.24498125483E+03  0.27572818291E+03  0.25500000920E-02 0. -1.
       -2    1    3    3    0  502 -0.40384861748E+02  0.11991362962E+03 -0.18830542558E+03  0.22686813116E+03  0.25500000920E-02 0.  1.
</event>
<event>
 5   0  0.2723308E-02  0.4995874E+03  0.7818609E-02  0.1013887E+00
        1   -1    0    0  501    0  0.00000000000E+00  0.00000000000E+00  0.15385004742E+04  0.15385004742E+04  0.50400001928E-02 0. -1.
       -1   -1    0    0    0  501  0.00000000000E+00  0.00000000000E+00 -0.40556958379E+02  0.40556958693E+02  0.50400001928E-02 0.  1.
    10030    2    1    2    0    0  0.00000000000E+00  0.00000000000E+00  0.14979435158E+04  0.15790574329E+04  0.49958742959E+03 0.  0.
        4    1    3    3  502    0 -0.16242002940E+03 -0.18429135116E+03  0.60580395405E+03  0.65371523747E+03  0.12699999809E+01 0.  1.
       -4    1    3    3    0  502  0.16242002940E+03  0.18429135116E+03  0.89213956174E+03  0.92534219539E+03  0.12699999809E+01 0. -1.
</event>
<event>
 5   0  0.2779445E-02  0.5033988E+03  0.7818609E-02  0.1012896E+00
        1   -1    0    0  501    0  0.00000000000E+00  0.00000000000E+00  0.52240830208E+03  0.52240830210E+03  0.50400001928E-02 0.  1.
       -1   -1    0    0    0  501  0.00000000000E+00  0.00000000000E+00 -0.12127027107E+03  0.12127027117E+03  0.50400001928E-02 0. -1.
    10030    2    1    2    0    0  0.00000000000E+00  0.00000000000E+00  0.40113803101E+03  0.64367857328E+03  0.50339883370E+03 0.  0.
        3    1    3    3  502    0 -0.34324845639E+02  0.24933702086E+03  0.19758634070E+03  0.31998049508E+03  0.10100000352E+00 0.  1.
       -3    1    3    3    0  502  0.34324845639E+02 -0.24933702086E+03  0.20355169031E+03  0.32369807820E+03  0.10100000352E+00 0. -1.
</event>
<event>
 5   0  0.2723308E-02  0.5002356E+03  0.7818609E-02  0.1013717E+00
        1   -1    0    0  501    0  0.00000000000E+00  0.00000000000E+00  0.61289428372E+03  0.61289428374E+03  0.50400001928E-02 0. -1.
       -1   -1    0    0    0  501  0.00000000000E+00  0.00000000000E+00 -0.10207128276E+03  0.10207128289E+03  0.50400001928E-02 0.  1.
    10030    2    1    2    0    0  0.00000000000E+00  0.00000000000E+00  0.51082300095E+03  0.71496556662E+03  0.50023556766E+03 0.  0.
        4    1    3    3  502    0  0.15270708512E+03  0.19454110225E+03  0.20209427436E+03  0.31938910899E+03  0.12699999809E+01 0.  1.
       -4    1    3    3    0  502 -0.15270708512E+03 -0.19454110225E+03  0.30872872660E+03  0.39557645764E+03  0.12699999809E+01 0. -1.
</event>
<event>
 5   0  0.4534223E-02  0.5006943E+03  0.7818609E-02  0.1013598E+00
        2   -1    0    0  501    0  0.00000000000E+00  0.00000000000E+00  0.19042282459E+03  0.19042282460E+03  0.25500000920E-02 0.  1.
       -2   -1    0    0    0  501  0.00000000000E+00  0.00000000000E+00 -0.32912912116E+03  0.32912912117E+03  0.25500000920E-02 0. -1.
    10030    2    1    2    0    0  0.00000000000E+00  0.00000000000E+00 -0.13870629657E+03  0.51955194577E+03  0.50069430559E+03 0.  0.
        2    1    3    3  502    0 -0.26130472528E+02  0.22572597647E+03 -0.17837533104E+03  0.28888194263E+03  0.25500000920E-02 0. -1.
       -2    1    3    3    0  502  0.26130472528E+02 -0.22572597647E+03  0.39669034468E+02  0.23067000314E+03  0.25500000920E-02 0.  1.
</event>
<event>
 5   0  0.4631619E-02  0.4899780E+03  0.7818609E-02  0.1016428E+00
       -2   -1    0    0    0  501  0.00000000000E+00  0.00000000000E+00  0.46208231902E+03  0.46208231903E+03  0.25500000920E-02 0. -1.
        2   -1    0    0  501    0  0.00000000000E+00  0.00000000000E+00 -0.12988941445E+03  0.12988941447E+03  0.25500000920E-02 0.  1.
    10030    2    1    2    0    0  0.00000000000E+00  0.00000000000E+00  0.33219290457E+03  0.59197173350E+03  0.48997796626E+03 0.  0.
        5    1    3    3  502    0 -0.65392207857E+02  0.98453283265E+02  0.42529764191E+03  0.44144010245E+03  0.46999998093E+01 0. -1.
       -5    1    3    3    0  502  0.65392207857E+02 -0.98453283265E+02 -0.93104737342E+02  0.15053163105E+03  0.46999998093E+01 0.  1.
</event>
<event>
 5   0  0.4409622E-02  0.5107647E+03  0.7818609E-02  0.1011007E+00
       -2   -1    0    0    0  501  0.00000000000E+00  0.00000000000E+00  0.66015967085E+02  0.66015967134E+02  0.25500000920E-02 0. -1.
        2   -1    0    0  501    0  0.00000000000E+00  0.00000000000E+00 -0.98794504232E+03  0.98794504233E+03  0.25500000920E-02 0.  1.
    10030    2    1    2    0    0  0.00000000000E+00  0.00000000000E+00 -0.92192907524E+03  0.10539610095E+04  0.51076471070E+03 0.  0.
        3    1    3    3  502    0  0.26456756593E+02 -0.23440610690E+03 -0.66287058926E+03  0.70359335644E+03  0.10100000352E+00 0. -1.
       -3    1    3    3    0  502 -0.26456756593E+02  0.23440610690E+03 -0.25905848598E+03  0.35036765302E+03  0.10100000352E+00 0.  1.
</event>
<event>
 5   0  0.4631619E-02  0.4995900E+03  0.7818609E-02  0.1013886E+00
       -2   -1    0    0    0  501  0.00000000000E+00  0.00000000000E+00  0.19726851572E+03  0.19726851574E+03  0.25500000920E-02 0. -1.
        2   -1    0    0  501    0  0.00000000000E+00  0.00000000000E+00 -0.31630760551E+03  0.31630760552E+03  0.25500000920E-02 0.  1.
    10030    2    1    2    0    0  0.00000000000E+00  0.00000000000E+00 -0.11903908979E+03  0.51357612125E+03  0.49958995929E+03 0.  0.
        5    1    3    3  502    0  0.16592475077E+03  0.13176338795E+02 -0.25093326861E+03  0.30115483412E+03  0.46999998093E+01 0.  1.
       -5    1    3    3    0  502 -0.16592475077E+03 -0.13176338795E+02  0.13189417882E+03  0.21242128713E+03  0.46999998093E+01 0. -1.
</event>
<event>
 5   0  0.2723308E-02  0.5004300E+03  0.7818609E-02  0.1013667E+00
       -1   -1    0    0    0  501  0.00000000000E+00  0.00000000000E+00  0.18856929414E+03  0.18856929420E+03  0.50400001928E-02 0.  1.
        1   -1    0    0  501    0  0.00000000000E+00  0.00000000000E+00 -0.33201352473E+03  0.33201352477E+03  0.50400001928E-02 0. -1.
    10030    2    1    2    0    0  0.00000000000E+00  0.00000000000E+00 -0.14344423059E+03  0.52058281897E+03  0.50043003919E+03 0.  0.
        4    1    3    3  502    0 -0.10428596120E+03  0.18161352030E+03 -0.21415534257E+03  0.29953823814E+03  0.12699999809E+01 0. -1.
       -4    1    3    3    0  502  0.10428596120E+03 -0.18161352030E+03  0.70711111974E+02  0.22104458083E+03  0.12699999809E+01 0.  1.
</event>
<event>
 5   0  0.2779445E-02  0.4994088E+03  0.7818609E-02  0.1013933E+00
        1   -1    0    0  501    0  0.00000000000E+00  0.00000000000E+00  0.41715398899E+03  0.41715398903E+03  0.50400001928E-02 0.  1.
       -1   -1    0    0    0  501  0.00000000000E+00  0.00000000000E+00 -0.14947066192E+03  0.14947066201E+03  0.50400001928E-02 0. -1.
    10030    2    1    2    0    0  0.00000000000E+00  0.00000000000E+00  0.26768332707E+03  0.56662465103E+03  0.49940878203E+03 0.  0.
        3    1    3    3  502    0  0.13363406807E+02  0.18858750003E+03 -0.51233888059E+02  0.19587942029E+03  0.10100000352E+00 0. -1.
       -3    1    3    3    0  502 -0.13363406807E+02 -0.18858750003E+03  0.31891721513E+03  0.37074523074E+03  0.10100000352E+00 0.  1.
</event>
<event>
 5   0  0.2779445E-02  0.4985949E+03  0.7818609E-02  0.1014146E+00
        1   -1    0    0  501    0  0.00000000000E+00  0.00000000000E+00  0.12807630463E+04  0.12807630463E+04  0.50400001928E-02 0. -1.
       -1   -1    0    0    0  501  0.00000000000E+00  0.00000000000E+00 -0.48525152531E+02  0.48525152793E+02  0.50400001928E-02 0.  1.
    10030    2    1    2    0    0  0.00000000000E+00  0.00000000000E+00  0.12322378938E+04  0.13292881991E+04  0.49859491517E+03 0.  0.
        3    1    3    3  502    0 -0.10199298882E+03  0.22027145945E+03  0.76757244251E+03  0.80504009236E+03  0.10100000352E+00 0. -1.
       -3    1    3    3    0  502  0.10199298882E+03 -0.22027145945E+03  0.46466545125E+03  0.52424810672E+03  0.10100000352E+00 0.  1.
</event>
<event>
 5   0  0.2715483E-02  0.4992317E+03  0.7818609E-02  0.1013980E+00
        1   -1    0    0  501    0  0.00000000000E+00  0.00000000000E+00  0.59094253842E+03  0.59094253844E+03  0.50400001928E-02 0. -1.
       -1   -1    0    0    0  501  0.00000000000E+00  0.00000000000E+00 -0.10543847315E+03  0.10543847327E+03  0.50400001928E-02 0.  1.
    10030    2    1    2    0    0  0.00000000000E+00  0.00000000000E+00  0.48550406528E+03  0.69638101171E+03  0.49923172583E+03 0.  0.
        5    1    3    3  502    0 -0.68374489460E+02  0.21228254559E+03  0.86503708207E+02  0.23925704066E+03  0.46999998093E+01 0.  1.
       -5    1    3    3    0  502  0.68374489460E+02 -0.21228254559E+03  0.39900035707E+03  0.45712397105E+03  0.46999998093E+01 0. -1.
</event>
<event>
 5   0  0.4534223E-02  0.4995935E+03  0.7818609E-02  0.1013885E+00
        2   -1    0    0  501    0  0.00000000000E+00  0.00000000000E+00  0.60778976230E+03  0.60778976230E+03  0.25500000920E-02 0.  1.
       -2   -1    0    0    0  501  0.00000000000E+00  0.00000000000E+00 -0.10266446343E+03  0.10266446346E+03  0.25500000920E-02 0. -1.
    10030    2    1    2    0    0  0.00000000000E+00  0.00000000000E+00  0.50512529887E+03  0.71045422576E+03  0.49959347408E+03 0.  0.
        2    1    3    3  502    0 -0.85298764958E+02  0.14944131260E+02 -0.80635335778E+02  0.11832693584E+03  0.25500000920E-02 0. -1.
       -2    1    3    3    0  502  0.85298764958E+02 -0.14944131260E+02  0.58576063465E+03  0.59212728992E+03  0.25500000920E-02 0.  1.
</event>
<event>
 5   0  0.4409622E-02  0.4995154E+03  0.7818609E-02  0.1013905E+00
       -2   -1    0    0    0  501  0.00000000000E+00  0.00000000000E+00  0.20540282141E+03  0.20540282142E+03  0.25500000920E-02 0.  1.
        2   -1    0    0  501    0  0.00000000000E+00  0.00000000000E+00 -0.30369058498E+03  0.30369058499E+03  0.25500000920E-02 0. -1.
    10030    2    1    2    0    0  0.00000000000E+00  0.00000000000E+00 -0.98287763576E+02  0.50909340642E+03  0.49951537713E+03 0.  0.
        3    1    3    3  502    0  0.16652108018E+03  0.16751461351E+03 -0.13186971008E+03  0.27051810757E+03  0.10100000352E+00 0. -1.
       -3    1    3    3    0  502 -0.16652108018E+03 -0.16751461351E+03  0.33581946509E+02  0.23857529884E+03  0.10100000352E+00 0.  1.
</event>
<event>
 5   0  0.4409622E-02  0.5007435E+03  0.7818609E-02  0.1013585E+00
       -2   -1    0    0    0  501  0.00000000000E+00  0.00000000000E+00  0.76227945390E+02  0.76227945433E+02  0.25500000920E-02 0. -1.
        2   -1    0    0  501    0  0.00000000000E+00  0.00000000000E+00 -0.82234957539E+03  0.82234957539E+03  0.25500000920E-02 0.  1.
    10030    2    1    2    0    0  0.00000000000E+00  0.00000000000E+00 -0.74612163000E+03  0.89857752083E+03  0.50074352136E+03 0.  0.
        3    1    3    3  502    0  0.10389003986E+03 -0.34749365769E+02  0.30939248858E+02  0.11383279899E+03  0.10100000352E+00 0. -1.
       -3    1    3    3    0  502 -0.10389003986E+03  0.34749365769E+02 -0.77706087886E+03  0.78474472184E+03  0.10100000352E+00 0.  1.
</event>
<event>
 5   0  0.2719671E-02  0.4979142E+03  0.7818609E-02  0.1014325E+00
       -1   -1    0    0    0  501  0.00000000000E+00  0.00000000000E+00  0.15899267921E+03  0.15899267929E+03  0.50400001928E-02 0.  1.
        1   -1    0    0  501    0  0.00000000000E+00  0.00000000000E+00 -0.38982704512E+03  0.38982704515E+03  0.50400001928E-02 0. -1.
    10030    2    1    2    0    0  0.00000000000E+00  0.00000000000E+00 -0.23083436590E+03  0.54881972444E+03  0.49791423504E+03 0.  0.
        2    1    3    3  502    0  0.38478844014E+01 -0.40382175465E+02  0.15532545762E+03  0.16053511797E+03  0.25500000920E-02 0.  1.
       -2    1    3    3    0  502 -0.38478844014E+01  0.40382175465E+02 -0.38615982353E+03  0.38828460647E+03  0.25500000920E-02 0. -1.
</event>
<event>
 5   0  0.4519539E-02  0.5014806E+03  0.7818609E-02  0.1013393E+00
       -2   -1    0    0    0  501  0.00000000000E+00  0.00000000000E+00  0.22919499244E+02  0.22919499386E+02  0.25500000920E-02 0.  1.
        2   -1    0    0  501    0  0.00000000000E+00  0.00000000000E+00 -0.27431098338E+04  0.27431098338E+04  0.25500000920E-02 0. -1.
    10030    2    1    2    0    0  0.00000000000E+00  0.00000000000E+00 -0.27201903346E+04  0.27660293332E+04  0.50148062359E+03 0.  0.
        4    1    3    3  502    0  0.24209537242E+03 -0.32186291715E+02 -0.16732292742E+04  0.16909594743E+04  0.12699999809E+01 0. -1.
       -4    1    3    3    0  502 -0.24209537242E+03  0.32186291715E+02 -0.10469610603E+04  0.10750698589E+04  0.12699999809E+01 0.  1.
</event>
<event>
 5   0  0.4409622E-02  0.4897545E+03  0.7818609E-02  0.1016488E+00
       -2   -1    0    0    0  501  0.00000000000E+00  0.00000000000E+00  0.34548401075E+03  0.34548401076E+03  0.25500000920E-02 0.  1.
        2   -1    0    0  501    0  0.00000000000E+00  0.00000000000E+00 -0.17356771631E+03  0.17356771633E+03  0.25500000920E-02 0. -1.
    10030    2    1    2    0    0  0.00000000000E+00  0.00000000000E+00  0.17191629445E+03  0.51905172709E+03  0.48975451310E+03 0.  0.
        3    1    3    3  502    0  0.21015254084E+03 -0.71771327207E+02  0.19532854579E+03  0.29575068019E+03  0.10100000352E+00 0.  1.
       -3    1    3    3    0  502 -0.21015254084E+03  0.71771327207E+02 -0.23412251344E+02  0.22330104690E+03  0.10100000352E+00 0. -1.
</event>
<event>
 5   0  0.4409622E-02  0.4989227E+03  0.7818609E-02  0.1014060E+00
        2   -1    0    0  501    0  0.00000000000E+00  0.00000000000E+00  0.76248756758E+03  0.76248756759E+03  0.25500000920E-02 0. -1.
       -2   -1    0    0    0  501  0.00000000000E+00  0.00000000000E+00 -0.81615711036E+02  0.81615711076E+02  0.25500000920E-02 0.  1.
    10030    2    1    2    0    0  0.00000000000E+00  0.00000000000E+00  0.68087185655E+03  0.84410327866E+03  0.49892269944E+03 0.  0.
        3    1    3    3  502    0 -0.59225446401E+02  0.26469970577E+02 -0.67095469052E+02  0.93328050510E+02  0.10100000352E+00 0.  1.
       -3    1    3    3    0  502  0.59225446401E+02 -0.26469970577E+02  0.74796732560E+03  0.75077522815E+03  0.10100000352E+00 0. -1.
</event>
<event>
 5   0  0.1805500E-02  0.5004386E+03  0.7818609E-02  0.1013665E+00
        3   -1    0    0  501    0  0.00000000000E+00  0.00000000000E+00  0.31533736937E+03  0.31533738555E+03  0.10100000352E+00 0.  1.
       -3   -1    0    0    0  501  0.00000000000E+00  0.00000000000E+00 -0.19854823500E+03  0.19854826069E+03  0.10100000352E+00 0. -1.
    10030    2    1    2    0    0  0.00000000000E+00  0.00000000000E+00  0.11678913437E+03  0.51388564624E+03  0.50043856317E+03 0.  0.
        4    1    3    3  502    0 -0.10616854453E+03  0.17750464767E+03 -0.86202582326E+02  0.22408069504E+03  0.12699999809E+01 0. -1.
       -4    1    3    3    0  502  0.10616854453E+03 -0.17750464767E+03  0.20299171670E+03  0.28980495120E+03  0.12699999809E+01 0.  1.
</event>
<event>
 5   0  0.4409622E-02  0.5002748E+03  0.7818609E-02  0.1013707E+00
        2   -1    0    0  501    0  0.00000000000E+00  0.00000000000E+00  0.49367908571E+03  0.49367908572E+03  0.25500000920E-02 0.  1.
       -2   -1    0    0    0  501  0.00000000000E+00  0.00000000000E+00 -0.12673964491E+03  0.12673964494E+03  0.25500000920E-02 0. -1.
    10030    2    1    2    0    0  0.00000000000E+00  0.00000000000E+00  0.36693944080E+03  0.62041873065E+03  0.50027477263E+03 0.  0.
        3    1    3    3  502    0 -0.11026210674E+02  0.54578087312E+02 -0.11895637834E+03  0.13134296740E+03  0.10100000352E+00 0. -1.
       -3    1    3    3    0  502  0.11026210674E+02 -0.54578087312E+02  0.48589581915E+03  0.48907576325E+03  0.10100000352E+00 0.  1.
</event>
<event>
 5   0  0.4631619E-02  0.5001099E+03  0.7818609E-02  0.1013750E+00
        2   -1    0    0  501    0  0.00000000000E+00  0.00000000000E+00  0.41228726857E+03  0.41228726857E+03  0.25500000920E-02 0.  1.
       -2   -1    0    0    0  501  0.00000000000E+00  0.00000000000E+00 -0.15165998993E+03  0.15165998995E+03  0.25500000920E-02 0. -1.
    10030    2    1    2    0    0  0.00000000000E+00  0.00000000000E+00  0.26062727864E+03  0.56394725852E+03  0.50010991994E+03 0.  0.
        5    1    3    3  502    0 -0.12382518810E+03 -0.17253861527E+03 -0.18446594780E+02  0.21322433685E+03  0.46999998093E+01 0. -1.
       -5    1    3    3    0  502  0.12382518810E+03  0.17253861527E+03  0.27907387342E+03  0.35072292168E+03  0.46999998093E+01 0.  1.
</event>
<event>
 5   0  0.2779445E-02  0.4989778E+03  0.7818609E-02  0.1014046E+00
        1   -1    0    0  501    0  0.00000000000E+00  0.00000000000E+00  0.56656070604E+03  0.56656070606E+03  0.50400001928E-02 0. -1.
       -1   -1    0    0    0  501  0.00000000000E+00  0.00000000000E+00 -0.10986415900E+03  0.10986415912E+03  0.50400001928E-02 0.  1.
    10030    2    1    2    0    0  0.00000000000E+00  0.00000000000E+00  0.45669654703E+03  0.67642486518E+03  0.49897781730E+03 0.  0.
        3    1    3    3  502    0  0.82209730256E+02  0.27434989359E+02  0.54549868561E+03  0.55234042455E+03  0.10100000352E+00 0. -1.
       -3    1    3    3    0  502 -0.82209730256E+02 -0.27434989359E+02 -0.88802138576E+02  0.12408444063E+03  0.10100000352E+00 0.  1.
</event>
<event>
 5   0  0.1805500E-02  0.5106447E+03  0.7818609E-02  0.1011037E+00
        3   -1    0    0  501    0  0.00000000000E+00  0.00000000000E+00  0.57034552982E+02  0.57034642410E+02  0.10100000352E+00 0.  1.
       -3   -1    0    0    0  501  0.00000000000E+00  0.00000000000E+00 -0.11429814636E+04  0.11429814681E+04  0.10100000352E+00 0. -1.
    10030    2    1    2    0    0  0.00000000000E+00  0.00000000000E+00 -0.10859469106E+04  0.12000161105E+04  0.51064466385E+03 0.  0.
        2    1    3    3  502    0  0.10617598740E+03 -0.15979307251E+03 -0.14706727884E+03  0.24173529083E+03  0.25500000920E-02 0.  1.
       -2    1    3    3    0  502 -0.10617598740E+03  0.15979307251E+03 -0.93887963180E+03  0.95828081966E+03  0.25500000920E-02 0. -1.
</event>
<event>
 5   0  0.2719671E-02  0.4993520E+03  0.7818609E-02  0.1013948E+00
        1   -1    0    0  501    0  0.00000000000E+00  0.00000000000E+00  0.10486392180E+04  0.10486392181E+04  0.50400001928E-02 0.  1.
       -1   -1    0    0    0  501  0.00000000000E+00  0.00000000000E+00 -0.59446662272E+02  0.59446662485E+02  0.50400001928E-02 0. -1.
    10030    2    1    2    0    0  0.00000000000E+00  0.00000000000E+00  0.98919255577E+03  0.11080858805E+04  0.49935198634E+03 0.  0.
        2    1    3    3  502    0 -0.22879559575E+03  0.92027487880E+02  0.40803582600E+03  0.47677008973E+03  0.25500000920E-02 0. -1.
       -2    1    3    3    0  502  0.22879559575E+03 -0.92027487880E+02  0.58115672977E+03  0.63131579081E+03  0.25500000920E-02 0.  1.
</event>
<event>
 5   0  0.2723308E-02  0.4991610E+03  0.7818609E-02  0.1013998E+00
       -1   -1    0    0    0  501  0.00000000000E+00  0.00000000000E+00  0.18058684790E+03  0.18058684797E+03  0.50400001928E-02 0. -1.
        1   -1    0    0  501    0  0.00000000000E+00  0.00000000000E+00 -0.34493333500E+03  0.34493333504E+03  0.50400001928E-02 0.  1.
    10030    2    1    2    0    0  0.00000000000E+00  0.00000000000E+00 -0.16434648710E+03  0.52552018301E+03  0.49916099099E+03 0.  0.
        4    1    3    3  502    0  0.21436136453E+03 -0.49068561433E+01  0.52297615338E+02  0.22070687644E+03  0.12699999809E+01 0. -1.
       -4    1    3    3    0  502 -0.21436136453E+03  0.49068561433E+01 -0.21664410244E+03  0.30481330657E+03  0.12699999809E+01 0.  1.
</event>
<event>
 5   0  0.4409622E-02  0.5008321E+03  0.7818609E-02  0.1013562E+00
       -2   -1    0    0    0  501  0.00000000000E+00  0.00000000000E+00  0.38240552808E+02  0.38240552893E+02  0.25500000920E-02 0. -1.
        2   -1    0    0  501    0  0.00000000000E+00  0.00000000000E+00 -0.16398347022E+04  0.16398347022E+04  0.25500000920E-02 0.  1.
    10030    2    1    2    0    0  0.00000000000E+00  0.00000000000E+00 -0.16015941494E+04  0.16780752551E+04  0.50083205009E+03 0.  0.
        3    1    3    3  502    0  0.12771946426E+03  0.51228374722E+02 -0.99801349316E+02  0.16999096286E+03  0.10100000352E+00 0. -1.
       -3    1    3    3    0  502 -0.12771946426E+03 -0.51228374722E+02 -0.15017928001E+04  0.15080842922E+04  0.10100000352E+00 0.  1.
</event>
<event>
 5   0  0.4409622E-02  0.5011744E+03  0.7818609E-02  0.1013473E+00
        2   -1    0    0  501    0  0.00000000000E+00  0.00000000000E+00  0.48187395815E+03  0.48187395816E+03  0.25500000920E-02 0. -1.
       -2   -1    0    0    0  501  0.00000000000E+00  0.00000000000E+00 -0.13031197051E+03  0.13031197053E+03  0.25500000920E-02 0.  1.
    10030    2    1    2    0    0  0.00000000000E+00  0.00000000000E+00  0.35156198764E+03  0.61218592869E+03  0.50117440091E+03 0.  0.
        3    1    3    3  502    0 -0.37863232979E+02 -0.13055460936E+03  0.43292344618E+03  0.45376298978E+03  0.10100000352E+00 0. -1.
       -3    1    3    3    0  502  0.37863232979E+02  0.13055460936E+03 -0.81361458539E+02  0.15842293891E+03  0.10100000352E+00 0.  1.
</event>
<event>
 5   0  0.4451135E-02  0.4997414E+03  0.7818609E-02  0.1013846E+00
       -2   -1    0    0    0  501  0.00000000000E+00  0.00000000000E+00  0.17512478056E+03  0.17512478058E+03  0.25500000920E-02 0.  1.
        2   -1    0    0  501    0  0.00000000000E+00  0.00000000000E+00 -0.35651930138E+03  0.35651930139E+03  0.25500000920E-02 0. -1.
    10030    2    1    2    0    0  0.00000000000E+00  0.00000000000E+00 -0.18139452082E+03  0.53164408197E+03  0.49974139083E+03 0.  0.
        1    1    3    3  502    0 -0.87814212958E+02 -0.19914714796E+03 -0.22126990057E+03  0.31037282655E+03  0.50400001928E-02 0.  1.
       -1    1    3    3    0  502  0.87814212958E+02  0.19914714796E+03  0.39875379753E+02  0.22127125542E+03  0.50400001928E-02 0. -1.
</event>
<event>
 5   0  0.2643185E-02  0.5214596E+03  0.7818609E-02  0.1008325E+00
        1   -1    0    0  501    0  0.00000000000E+00  0.00000000000E+00  0.35413683471E+03  0.35413683475E+03  0.50400001928E-02 0.  1.
       -1   -1    0    0    0  501  0.00000000000E+00  0.00000000000E+00 -0.19195979708E+03  0.19195979714E+03  0.50400001928E-02 0. -1.
    10030    2    1    2    0    0  0.00000000000E+00  0.00000000000E+00  0.16217703764E+03  0.54609663189E+03  0.52145962435E+03 0.  0.
        1    1    3    3  502    0 -0.22928969143E+03  0.35860739441E+02  0.20553151539E+03  0.31000477266E+03  0.50400001928E-02 0.  1.
       -1    1    3    3    0  502  0.22928969143E+03 -0.35860739441E+02 -0.43354477749E+02  0.23609185923E+03  0.50400001928E-02 0. -1.
</event>
<event>
 5   0  0.4534223E-02  0.4991099E+03  0.7818609E-02  0.1014012E+00
       -2   -1    0    0    0  501  0.00000000000E+00  0.00000000000E+00  0.92435467142E+02  0.92435467177E+02  0.25500000920E-02 0.  1.
        2   -1    0    0  501    0  0.00000000000E+00  0.00000000000E+00 -0.67374213106E+03  0.67374213106E+03  0.25500000920E-02 0. -1.
    10030    2    1    2    0    0  0.00000000000E+00  0.00000000000E+00 -0.58130666391E+03  0.76617759824E+03  0.49910988222E+03 0.  0.
        2    1    3    3  502    0 -0.19579069502E+03 -0.39950555797E+02 -0.52013551520E+03  0.55719924384E+03  0.25500000920E-02 0. -1.
       -2    1    3    3    0  502  0.19579069502E+03  0.39950555797E+02 -0.61171148718E+02  0.20897835439E+03  0.25500000920E-02 0.  1.
</event>
<event>
 5   0  0.4409622E-02  0.4991483E+03  0.7818609E-02  0.1014001E+00
        2   -1    0    0  501    0  0.00000000000E+00  0.00000000000E+00  0.12438600619E+04  0.12438600619E+04  0.25500000920E-02 0. -1.
       -2   -1    0    0    0  501  0.00000000000E+00  0.00000000000E+00 -0.50075767516E+02  0.50075767581E+02  0.25500000920E-02 0.  1.
    10030    2    1    2    0    0  0.00000000000E+00  0.00000000000E+00  0.11937842944E+04  0.12939358295E+04  0.49914826384E+03 0.  0.
        3    1    3    3  502    0  0.20199322251E+03  0.30970776234E+02  0.96829364714E+03  0.98962267972E+03  0.10100000352E+00 0. -1.
       -3    1    3    3    0  502 -0.20199322251E+03 -0.30970776234E+02  0.22549064721E+03  0.30431314973E+03  0.10100000352E+00 0.  1.
</event>
<event>
 5   0  0.2643185E-02  0.5000804E+03  0.7818609E-02  0.1013758E+00
        1   -1    0    0  501    0  0.00000000000E+00  0.00000000000E+00  0.72142871714E+03  0.72142871716E+03  0.50400001928E-02 0. -1.
       -1   -1    0    0    0  501  0.00000000000E+00  0.00000000000E+00 -0.86661504207E+02  0.86661504354E+02  0.50400001928E-02 0.  1.
    10030    2    1    2    0    0  0.00000000000E+00  0.00000000000E+00  0.63476721294E+03  0.80809022151E+03  0.50008038503E+03 0.  0.
        1    1    3    3  502    0 -0.16531692196E+03 -0.47992428685E+02  0.61042777564E+03  0.63423578202E+03  0.50400001928E-02 0. -1.
       -1    1    3    3    0  502  0.16531692196E+03  0.47992428685E+02  0.24339437293E+02  0.17385443949E+03  0.50400001928E-02 0.  1.
</event>
<event>
 5   0  0.4519539E-02  0.5048654E+03  0.7818609E-02  0.1012517E+00
       -2   -1    0    0    0  501  0.00000000000E+00  0.00000000000E+00  0.25656813993E+03  0.25656813995E+03  0.25500000920E-02 0. -1.
        2   -1    0    0  501    0  0.00000000000E+00  0.00000000000E+00 -0.24836388974E+03  0.24836388976E+03  0.25500000920E-02 0.  1.
    10030    2    1    2    0    0  0.00000000000E+00  0.00000000000E+00  0.82042501905E+01  0.50493202970E+03  0.50486537304E+03 0.  0.
        4    1    3    3  502    0 -0.16953969964E+03  0.13058358051E+03 -0.12979933335E+03  0.25029035357E+03  0.12699999809E+01 0.  1.
       -4    1    3    3    0  502  0.16953969964E+03 -0.13058358051E+03  0.13800358354E+03  0.25464167613E+03  0.12699999809E+01 0. -1.
</event>
<event>
 5   0  0.2715483E-02  0.4987278E+03  0.7818609E-02  0.1014112E+00
        1   -1    0    0  501    0  0.00000000000E+00  0.00000000000E+00  0.20569532940E+03  0.20569532947E+03  0.50400001928E-02 0.  1.
       -1   -1    0    0    0  501  0.00000000000E+00  0.00000000000E+00 -0.30230314677E+03  0.30230314682E+03  0.50400001928E-02 0. -1.
    10030    2    1    2    0    0  0.00000000000E+00  0.00000000000E+00 -0.96607817370E+02  0.50799847628E+03  0.49872776294E+03 0.  0.
        5    1    3    3  502    0 -0.77415676054E+02  0.12513804611E+03 -0.25331001075E+03  0.29298595364E+03  0.46999998093E+01 0. -1.
       -5    1    3    3    0  502  0.77415676054E+02 -0.12513804611E+03  0.15670219338E+03  0.21501252264E+03  0.46999998093E+01 0.  1.
</event>
<event>
 5   0  0.4631619E-02  0.4979122E+03  0.7818609E-02  0.1014325E+00
        2   -1    0    0  501    0  0.00000000000E+00  0.00000000000E+00  0.83802078060E+03  0.83802078061E+03  0.25500000920E-02 0.  1.
       -2   -1    0    0    0  501  0.00000000000E+00  0.00000000000E+00 -0.73958940138E+02  0.73958940182E+02  0.25500000920E-02 0. -1.
    10030    2    1    2    0    0  0.00000000000E+00  0.00000000000E+00  0.76406184047E+03  0.91197972079E+03  0.49791215598E+03 0.  0.
        5    1    3    3  502    0 -0.40938763016E+01 -0.13417469113E+03  0.76595891733E+03  0.77764693826E+03  0.46999998093E+01 0.  1.
       -5    1    3    3    0  502  0.40938763016E+01  0.13417469113E+03 -0.18970768608E+01  0.13433278252E+03  0.46999998093E+01 0. -1.
</event>
<event>
 5   0  0.4519539E-02  0.5049675E+03  0.7818609E-02  0.1012490E+00
       -2   -1    0    0    0  501  0.00000000000E+00  0.00000000000E+00  0.87985299911E+02  0.87985299948E+02  0.25500000920E-02 0. -1.
        2   -1    0    0  501    0  0.00000000000E+00  0.00000000000E+00 -0.72453054927E+03  0.72453054927E+03  0.25500000920E-02 0.  1.
    10030    2    1    2    0    0  0.00000000000E+00  0.00000000000E+00 -0.63654524936E+03  0.81251584922E+03  0.50496747495E+03 0.  0.
        4    1    3    3  502    0  0.13825656705E+03 -0.37700276701E+01  0.21603173327E+02  0.13999071912E+03  0.12699999809E+01 0. -1.
       -4    1    3    3    0  502 -0.13825656705E+03  0.37700276701E+01 -0.65814842269E+03  0.67252513011E+03  0.12699999809E+01 0.  1.
</event>
<event>
 5   0  0.4409622E-02  0.5045373E+03  0.7818609E-02  0.1012601E+00
       -2   -1    0    0    0  501  0.00000000000E+00  0.00000000000E+00  0.85961101554E+02  0.85961101592E+02  0.25500000920E-02 0.  1.
        2   -1    0    0  501    0  0.00000000000E+00  0.00000000000E+00 -0.74032867919E+03  0.74032867920E+03  0.25500000920E-02 0. -1.
    10030    2    1    2    0    0  0.00000000000E+00  0.00000000000E+00 -0.65436757764E+03  0.82628978079E+03  0.50453728819E+03 0.  0.
        3    1    3    3  502    0  0.19743082617E+03 -0.28987174756E+02 -0.74421392758E+02  0.21297356954E+03  0.10100000352E+00 0.  1.
       -3    1    3    3    0  502 -0.19743082617E+03  0.28987174756E+02 -0.57994618488E+03  0.61331621125E+03  0.10100000352E+00 0. -1.
</event>
<event>
 5   0  0.4409622E-02  0.5017387E+03  0.7818609E-02  0.1013326E+00
       -2   -1    0    0    0  501  0.00000000000E+00  0.00000000000E+00  0.42934069543E+02  0.42934069618E+02  0.25500000920E-02 0.  1.
        2   -1    0    0  501    0  0.00000000000E+00  0.00000000000E+00 -0.14658619609E+04  0.14658619609E+04  0.25500000920E-02 0. -1.
    10030    2    1    2    0    0  0.00000000000E+00  0.00000000000E+00 -0.14229278914E+04  0.15087960305E+04  0.50173865479E+03 0.  0.
        3    1    3    3  502    0  0.88843162343E+02 -0.14242805154E+03 -0.15084042568E+03  0.22568052991E+03  0.10100000352E+00 0.  1.
       -3    1    3    3    0  502 -0.88843162343E+02  0.14242805154E+03 -0.12720874657E+04  0.12831155006E+04  0.10100000352E+00 0. -1.
</event>
<event>
 5   0  0.1805500E-02  0.5000552E+03  0.7818609E-02  0.1013765E+00
        3   -1    0    0  501    0  0.00000000000E+00  0.00000000000E+00  0.11265771931E+04  0.11265771976E+04  0.10100000352E+00 0. -1.
       -3   -1    0    0    0  501  0.00000000000E+00  0.00000000000E+00 -0.55489974358E+02  0.55490066275E+02  0.10100000352E+00 0.  1.
    10030    2    1    2    0    0  0.00000000000E+00  0.00000000000E+00  0.10710872187E+04  0.11820672639E+04  0.50005518319E+03 0.  0.
        3    1    3    3  502    0  0.11812784125E+03  0.16797273967E+03  0.19837236920E+03  0.28551818718E+03  0.10100000352E+00 0.  1.
       -3    1    3    3    0  502 -0.11812784125E+03 -0.16797273967E+03  0.87271484955E+03  0.89654907673E+03  0.10100000352E+00 0. -1.
</event>
<event>
 5   0  0.4519539E-02  0.5016996E+03  0.7818609E-02  0.1013336E+00
       -2   -1    0    0    0  501  0.00000000000E+00  0.00000000000E+00  0.16447209956E+03  0.16447209958E+03  0.25500000920E-02 0.  1.
        2   -1    0    0  501    0  0.00000000000E+00  0.00000000000E+00 -0.38259140084E+03  0.38259140085E+03  0.25500000920E-02 0. -1.
    10030    2    1    2    0    0  0.00000000000E+00  0.00000000000E+00 -0.21811930129E+03  0.54706350043E+03  0.50169955542E+03 0.  0.
        4    1    3    3  502    0  0.23202860845E+03  0.70875642021E+02 -0.39551295526E+02  0.24581812311E+03  0.12699999809E+01 0.  1.
       -4    1    3    3    0  502 -0.23202860845E+03 -0.70875642021E+02 -0.17856800576E+03  0.30124537732E+03  0.12699999809E+01 0. -1.
</event>
<event>
 5   0  0.4409622E-02  0.4999671E+03  0.7818609E-02  0.1013788E+00
        2   -1    0    0  501    0  0.00000000000E+00  0.00000000000E+00  0.23612832822E+03  0.23612832824E+03  0.25500000920E-02 0.  1.
       -2   -1    0    0    0  501  0.00000000000E+00  0.00000000000E+00 -0.26465173568E+03  0.26465173570E+03  0.25500000920E-02 0. -1.
    10030    2    1    2    0    0  0.00000000000E+00  0.00000000000E+00 -0.28523407460E+02  0.50078006394E+03  0.49996708658E+03 0.  0.
        3    1    3    3  502    0 -0.32683209218E+02  0.20381338232E+03  0.12697707096E+03  0.24234536044E+03  0.10100000352E+00 0.  1.
       -3    1    3    3    0  502  0.32683209218E+02 -0.20381338232E+03 -0.15550047842E+03  0.25843470349E+03  0.10100000352E+00 0. -1.
</event>
<event>
 5   0  0.1805500E-02  0.5019764E+03  0.7818609E-02  0.1013264E+00
       -3   -1    0    0    0  501  0.00000000000E+00  0.00000000000E+00  0.29286306406E+03  0.29286308148E+03  0.10100000352E+00 0.  1.
        3   -1    0    0  501    0  0.00000000000E+00  0.00000000000E+00 -0.21510076970E+03  0.21510079341E+03  0.10100000352E+00 0. -1.
    10030    2    1    2    0    0  0.00000000000E+00  0.00000000000E+00  0.77762294363E+02  0.50796387489E+03  0.50197641754E+03 0.  0.
        2    1    3    3  502    0 -0.14151538836E+02 -0.10195330926E+03  0.27052274674E+03  0.28944308565E+03  0.25500000920E-02 0.  1.
       -2    1    3    3    0  502  0.14151538836E+02  0.10195330926E+03 -0.19276045238E+03  0.21852078924E+03  0.25500000920E-02 0. -1.
</event>
<event>
 5   0  0.2779445E-02  0.4988031E+03  0.7818609E-02  0.1014092E+00
        1   -1    0    0  501    0  0.00000000000E+00  0.00000000000E+00  0.40899682333E+03  0.40899682336E+03  0.50400001928E-02 0.  1.
       -1   -1    0    0    0  501  0.00000000000E+00  0.00000000000E+00 -0.15208220719E+03  0.15208220727E+03  0.50400001928E-02 0. -1.
    10030    2    1    2    0    0  0.00000000000E+00  0.00000000000E+00  0.25691461614E+03  0.56107903063E+03  0.49880312612E+03 0.  0.
        3    1    3    3  502    0 -0.11113423630E+03  0.18318096639E+03 -0.15132180009E+02  0.21479077726E+03  0.10100000352E+00 0. -1.
       -3    1    3    3    0  502  0.11113423630E+03 -0.18318096639E+03  0.27204679615E+03  0.34628825337E+03  0.10100000352E+00 0.  1.
</event>
<event>
 5   0  0.4451135E-02  0.5007466E+03  0.7818609E-02  0.1013584E+00
       -2   -1    0    0    0  501  0.00000000000E+00  0.00000000000E+00  0.27195050800E+03  0.27195050802E+03  0.25500000920E-02 0.  1.
        2   -1    0    0  501    0  0.00000000000E+00  0.00000000000E+00 -0.23050810273E+03  0.23050810275E+03  0.25500000920E-02 0. -1.
    10030    2    1    2    0    0  0.00000000000E+00  0.00000000000E+00  0.41442405269E+02  0.50245861076E+03  0.50074662513E+03 0.  0.
        1    1    3    3  502    0  0.19418343048E+03 -0.27745658544E+02 -0.13540564411E+03  0.23835208143E+03  0.50400001928E-02 0. -1.
       -1    1    3    3    0  502 -0.19418343048E+03  0.27745658544E+02  0.17684804938E+03  0.26410652933E+03  0.50400001928E-02 0.  1.
</event>
<event>
 5   0  0.2643185E-02  0.5000574E+03  0.7818609E-02  0.1013764E+00
       -1   -1    0    0    0  501  0.00000000000E+00  0.00000000000E+00  0.12730570457E+03  0.12730570467E+03  0.50400001928E-02 0. -1.
        1   -1    0    0  501    0  0.00000000000E+00  0.00000000000E+00 -0.49105698367E+03  0.49105698370E+03  0.50400001928E-02 0.  1.
    10030    2    1    2    0    0  0.00000000000E+00  0.00000000000E+00 -0.36375127910E+03  0.61836268837E+03  0.50005741803E+03 0.  0.
        1    1    3    3  502    0 -0.43153157584E+01 -0.12344369755E+03 -0.45069358300E+03  0.46731325061E+03  0.50400001928E-02 0.  1.
       -1    1    3    3    0  502  0.43153157584E+01  0.12344369755E+03  0.86942303899E+02  0.15104943776E+03  0.50400001928E-02 0. -1.
</event>
<event>
 5   0  0.4519539E-02  0.4985945E+03  0.7818609E-02  0.1014146E+00
        2   -1    0    0  501    0  0.00000000000E+00  0.00000000000E+00  0.26210127839E+03  0.26210127840E+03  0.25500000920E-02 0.  1.
       -2   -1    0    0    0  501  0.00000000000E+00  0.00000000000E+00 -0.23711871188E+03  0.23711871189E+03  0.25500000920E-02 0. -1.
    10030    2    1    2    0    0  0.00000000000E+00  0.00000000000E+00  0.24982566509E+02  0.49921999029E+03  0.49859449463E+03 0.  0.
        4    1    3    3  502    0  0.17152933892E+03 -0.13626088882E+03  0.13162862541E+03  0.25557200915E+03  0.12699999809E+01 0.  1.
       -4    1    3    3    0  502 -0.17152933892E+03  0.13626088882E+03 -0.10664605890E+03  0.24364798114E+03  0.12699999809E+01 0. -1.
</event>
<event>
 5   0  0.4519539E-02  0.4996079E+03  0.7818609E-02  0.1013881E+00
       -2   -1    0    0    0  501  0.00000000000E+00  0.00000000000E+00  0.17863920478E+03  0.17863920480E+03  0.25500000920E-02 0. -1.
        2   -1    0    0  501    0  0.00000000000E+00  0.00000000000E+00 -0.34931867626E+03  0.34931867626E+03  0.25500000920E-02 0.  1.
    10030    2    1    2    0    0  0.00000000000E+00  0.00000000000E+00 -0.17067947148E+03  0.52795788106E+03  0.49960788844E+03 0.  0.
        4    1    3    3  502    0  0.93134643351E+01  0.13977883682E+03 -0.30389823967E+03  0.33463505018E+03  0.12699999809E+01 0.  1.
       -4    1    3    3    0  502 -0.93134643351E+01 -0.13977883682E+03  0.13321876819E+03  0.19332283088E+03  0.12699999809E+01 0. -1.
</event>
<event>
 5   0  0.2715483E-02  0.5035129E+03  0.7818609E-02  0.1012866E+00
       -1   -1    0    0    0  501  0.00000000000E+00  0.00000000000E+00  0.17296645214E+03  0.17296645221E+03  0.50400001928E-02 0. -1.
        1   -1    0    0  501    0  0.00000000000E+00  0.00000000000E+00 -0.36643706342E+03  0.36643706345E+03  0.50400001928E-02 0.  1.
    10030    2    1    2    0    0  0.00000000000E+00  0.00000000000E+00 -0.19347061128E+03  0.53940351566E+03  0.50351293457E+03 0.  0.
        5    1    3    3  502    0 -0.83316219771E+02  0.21676738093E+03 -0.20076285547E+03  0.30701384993E+03  0.46999998093E+01 0.  1.
       -5    1    3    3    0  502  0.83316219771E+02 -0.21676738093E+03  0.72922441977E+01  0.23238966573E+03  0.46999998093E+01 0. -1.
</event>
<event>
 5   0  0.4519539E-02  0.5008057E+03  0.7818609E-02  0.1013569E+00
        2   -1    0    0  501    0  0.00000000000E+00  0.00000000000E+00  0.20723622118E+04  0.20723622119E+04  0.25500000920E-02 0.  1.
       -2   -1    0    0    0  501  0.00000000000E+00  0.00000000000E+00 -0.30256097061E+02  0.30256097169E+02  0.25500000920E-02 0. -1.
    10030    2    1    2    0    0  0.00000000000E+00  0.00000000000E+00  0.20421061148E+04  0.21026183090E+04  0.50080572018E+03 0.  0.
        4    1    3    3  502    0 -0.17154530417E+03 -0.12976940489E+03  0.15592454546E+04  0.15740126717E+04  0.12699999809E+01 0.  1.
       -4    1    3    3    0  502  0.17154530417E+03  0.12976940489E+03  0.48286066015E+03  0.52860563736E+03  0.12699999809E+01 0. -1.
</event>
<event>
 5   0  0.4451135E-02  0.5010646E+03  0.7818609E-02  0.1013501E+00
       -2   -1    0    0    0  501  0.00000000000E+00  0.00000000000E+00  0.24399421400E+03  0.24399421402E+03  0.25500000920E-02 0.  1.
        2   -1    0    0  501    0  0.00000000000E+00  0.00000000000E+00 -0.25724555259E+03  0.25724555261E+03  0.25500000920E-02 0. -1.
    10030    2    1    2    0    0  0.00000000000E+00  0.00000000000E+00 -0.13251338589E+02  0.50123976662E+03  0.50106457236E+03 0.  0.
        1    1    3    3  502    0 -0.17796998514E+03  0.17545250930E+03  0.10973883275E+02  0.25015460173E+03  0.50400001928E-02 0.  1.
       -1    1    3    3    0  502  0.17796998514E+03 -0.17545250930E+03 -0.24225221864E+02  0.25108516489E+03  0.50400001928E-02 0. -1.
</event>
<event>
 5   0  0.2723308E-02  0.5004445E+03  0.7818609E-02  0.1013663E+00
       -1   -1    0    0    0  501  0.00000000000E+00  0.00000000000E+00  0.24859603970E+03  0.24859603975E+03  0.50400001928E-02 0. -1.
        1   -1    0    0  501    0  0.00000000000E+00  0.00000000000E+00 -0.25185909244E+03  0.25185909249E+03  0.50400001928E-02 0.  1.
    10030    2    1    2    0    0  0.00000000000E+00  0.00000000000E+00 -0.32630527370E+01  0.50045513224E+03  0.50044449429E+03 0.  0.
        4    1    3    3  502    0  0.23046387385E+03 -0.18578280030E+02  0.94030375494E+02  0.24960383422E+03  0.12699999809E+01 0. -1.
       -4    1    3    3    0  502 -0.23046387385E+03  0.18578280030E+02 -0.97293428231E+02  0.25085129802E+03  0.12699999809E+01 0.  1.
</event>
<event>
 5   0  0.2715483E-02  0.5012085E+03  0.7818609E-02  0.1013464E+00
        1   -1    0    0  501    0  0.00000000000E+00  0.00000000000E+00  0.42623343544E+03  0.42623343547E+03  0.50400001928E-02 0. -1.
       -1   -1    0    0    0  501  0.00000000000E+00  0.00000000000E+00 -0.14734296152E+03  0.14734296161E+03  0.50400001928E-02 0.  1.
    10030    2    1    2    0    0  0.00000000000E+00  0.00000000000E+00  0.27889047392E+03  0.57357639707E+03  0.50120852630E+03 0.  0.
        5    1    3    3  502    0 -0.16633252685E+03 -0.75622841444E+02  0.33565028062E+03  0.38218912140E+03  0.46999998093E+01 0. -1.
       -5    1    3    3    0  502  0.16633252685E+03  0.75622841444E+02 -0.56759806695E+02  0.19138727568E+03  0.46999998093E+01 0.  1.
</event>
<event>
 5   0  0.2779445E-02  0.5011843E+03  0.7818609E-02  0.1013470E+00
        1   -1    0    0  501    0  0.00000000000E+00  0.00000000000E+00  0.73136351338E+03  0.73136351339E+03  0.50400001928E-02 0. -1.
       -1   -1    0    0    0  501  0.00000000000E+00  0.00000000000E+00 -0.85862134872E+02  0.85862135020E+02  0.50400001928E-02 0.  1.
    10030    2    1    2    0    0  0.00000000000E+00  0.00000000000E+00  0.64550137850E+03  0.81722564841E+03  0.50118432814E+03 0.  0.
        3    1    3    3  502    0 -0.13314262827E+03 -0.14755235466E+03  0.73864016172E+02  0.21202490400E+03  0.10100000352E+00 0.  1.
       -3    1    3    3    0  502  0.13314262827E+03  0.14755235466E+03  0.57163736233E+03  0.60520074442E+03  0.10100000352E+00 0. -1.
</event>
<event>
 5   0  0.4519539E-02  0.5003917E+03  0.7818609E-02  0.1013677E+00
       -2   -1    0    0    0  501  0.00000000000E+00  0.00000000000E+00  0.15298001162E+04  0.15298001162E+04  0.25500000920E-02 0.  1.
        2   -1    0    0  501    0  0.00000000000E+00  0.00000000000E+00 -0.40919040913E+02  0.40919040993E+02  0.25500000920E-02 0. -1.
    10030    2    1    2    0    0  0.00000000000E+00  0.00000000000E+00  0.14888810753E+04  0.15707191572E+04  0.50039166103E+03 0.  0.
        4    1    3    3  502    0  0.14070040871E+03  0.48824105794E+02  0.13754920791E+04  0.13835318829E+04  0.12699999809E+01 0.  1.
       -4    1    3    3    0  502 -0.14070040871E+03 -0.48824105794E+02  0.11338899619E+03  0.18718727434E+03  0.12699999809E+01 0. -1.
</event>
<event>
 5   0  0.4451135E-02  0.4998185E+03  0.7818609E-02  0.1013826E+00
        2   -1    0    0  501    0  0.00000000000E+00  0.00000000000E+00  0.59377221332E+03  0.59377221332E+03  0.25500000920E-02 0. -1.
       -2   -1    0    0    0  501  0.00000000000E+00  0.00000000000E+00 -0.10518282233E+03  0.10518282236E+03  0.25500000920E-02 0.  1.
    10030    2    1    2    0    0  0.00000000000E+00  0.00000000000E+00  0.48858939099E+03  0.69895503568E+03  0.49981851598E+03 0.  0.
        1    1    3    3  502    0 -0.53719205043E+02  0.11355438394E+03  0.54641209612E+03  0.56066614836E+03  0.50400001928E-02 0. -1.
       -1    1    3    3    0  502  0.53719205043E+02 -0.11355438394E+03 -0.57822705131E+02  0.13828888732E+03  0.50400001928E-02 0.  1.
</event>
<event>
 5   0  0.4534223E-02  0.4997543E+03  0.7818609E-02  0.1013843E+00
       -2   -1    0    0    0  501  0.00000000000E+00  0.00000000000E+00  0.74351067845E+02  0.74351067889E+02  0.25500000920E-02 0. -1.
        2   -1    0    0  501    0  0.00000000000E+00  0.00000000000E+00 -0.83978073410E+03  0.83978073411E+03  0.25500000920E-02 0.  1.
    10030    2    1    2    0    0  0.00000000000E+00  0.00000000000E+00 -0.76542966626E+03  0.91413180200E+03  0.49975431707E+03 0.  0.
        2    1    3    3  502    0 -0.13069546025E+03  0.13437103816E+02 -0.77149999818E+03  0.78260724906E+03  0.25500000920E-02 0.  1.
       -2    1    3    3    0  502  0.13069546025E+03 -0.13437103816E+02  0.60703319229E+01  0.13152455293E+03  0.25500000920E-02 0. -1.
</event>
<event>
 5   0  0.4631619E-02  0.5004440E+03  0.7818609E-02  0.1013663E+00
        2   -1    0    0  501    0  0.00000000000E+00  0.00000000000E+00  0.12683829571E+04  0.12683829571E+04  0.25500000920E-02 0.  1.
       -2   -1    0    0    0  501  0.00000000000E+00  0.00000000000E+00 -0.49362897811E+02  0.49362897877E+02  0.25500000920E-02 0. -1.
    10030    2    1    2    0    0  0.00000000000E+00  0.00000000000E+00  0.12190200593E+04  0.13177458550E+04  0.50044403619E+03 0.  0.
        5    1    3    3  502    0 -0.37297209974E+02 -0.19932350022E+02 -0.39766987218E+02  0.58239880836E+02  0.46999998093E+01 0. -1.
       -5    1    3    3    0  502  0.37297209974E+02  0.19932350022E+02  0.12587870465E+04  0.12595059741E+04  0.46999998093E+01 0.  1.
</event>
<event>
 5   0  0.4534223E-02  0.5003085E+03  0.7818609E-02  0.1013698E+00
        2   -1    0    0  501    0  0.00000000000E+00  0.00000000000E+00  0.92305924047E+02  0.92305924082E+02  0.25500000920E-02 0. -1.
       -2   -1    0    0    0  501  0.00000000000E+00  0.00000000000E+00 -0.67793217130E+03  0.67793217131E+03  0.25500000920E-02 0.  1.
    10030    2    1    2    0    0  0.00000000000E+00  0.00000000000E+00 -0.58562624726E+03  0.77023809539E+03  0.50030852693E+03 0.  0.
        2    1    3    3  502    0 -0.13432306949E+03  0.95581515696E+02 -0.58246769901E+03  0.60534877016E+03  0.25500000920E-02 0.  1.
       -2    1    3    3    0  502  0.13432306949E+03 -0.95581515696E+02 -0.31585482461E+01  0.16488932523E+03  0.25500000920E-02 0. -1.
</event>
<event>
 5   0  0.2779445E-02  0.5019516E+03  0.7818609E-02  0.1013271E+00
        1   -1    0    0  501    0  0.00000000000E+00  0.00000000000E+00  0.96412100476E+03  0.96412100477E+03  0.50400001928E-02 0.  1.
       -1   -1    0    0    0  501  0.00000000000E+00  0.00000000000E+00 -0.65332935361E+02  0.65332935555E+02  0.50400001928E-02 0. -1.
    10030    2    1    2    0    0  0.00000000000E+00  0.00000000000E+00  0.89878806940E+03  0.10294539403E+04  0.50195161277E+03 0.  0.
        3    1    3    3  502    0 -0.50417655872E+02 -0.86943888885E+01  0.95331262001E+03  0.95468449977E+03  0.10100000352E+00 0.  1.
       -3    1    3    3    0  502  0.50417655872E+02  0.86943888885E+01 -0.54524550611E+02  0.74769440563E+02  0.10100000352E+00 0. -1.
</event>
<event>
 5   0  0.4451135E-02  0.5007322E+03  0.7818609E-02  0.1013588E+00
        2   -1    0    0  501    0  0.00000000000E+00  0.00000000000E+00  0.22182067543E+04  0.22182067543E+04  0.25500000920E-02 0.  1.
       -2   -1    0    0    0  501  0.00000000000E+00  0.00000000000E+00 -0.28258495720E+02  0.28258495835E+02  0.25500000920E-02 0. -1.
    10030    2    1    2    0    0  0.00000000000E+00  0.00000000000E+00  0.21899482586E+04  0.22464652502E+04  0.50073220869E+03 0.  0.
        1    1    3    3  502    0  0.58896327018E+02  0.95997007454E+02  0.91803601261E+02  0.14530004820E+03  0.50400001928E-02 0. -1.
       -1    1    3    3    0  502 -0.58896327018E+02 -0.95997007454E+02  0.20981446573E+04  0.21011652020E+04  0.50400001928E-02 0.  1.
</event>
<event>
 5   0  0.2719671E-02  0.4954005E+03  0.7818609E-02  0.1014986E+00
       -1   -1    0    0    0  501  0.00000000000E+00  0.00000000000E+00  0.63552779554E+02  0.63552779754E+02  0.50400001928E-02 0. -1.
        1   -1    0    0  501    0  0.00000000000E+00  0.00000000000E+00 -0.96542465545E+03  0.96542465547E+03  0.50400001928E-02 0.  1.
    10030    2    1    2    0    0  0.00000000000E+00  0.00000000000E+00 -0.90187187590E+03  0.10289774352E+04  0.49540052650E+03 0.  0.
        2    1    3    3  502    0 -0.20212696658E+02 -0.95578441116E+02 -0.92372019888E+03  0.92887178735E+03  0.25500000920E-02 0.  1.
       -2    1    3    3    0  502  0.20212696658E+02  0.95578441116E+02  0.21848322977E+02  0.10010564787E+03  0.25500000920E-02 0. -1.
</event>
<event>
 5   0  0.2723308E-02  0.4983345E+03  0.7818609E-02  0.1014215E+00
        1   -1    0    0  501    0  0.00000000000E+00  0.00000000000E+00  0.43187587425E+03  0.43187587428E+03  0.50400001928E-02 0.  1.
       -1   -1    0    0    0  501  0.00000000000E+00  0.00000000000E+00 -0.14375498826E+03  0.14375498835E+03  0.50400001928E-02 0. -1.
    10030    2    1    2    0    0  0.00000000000E+00  0.00000000000E+00  0.28812088599E+03  0.57563086263E+03  0.49833447108E+03 0.  0.
        4    1    3    3  502    0  0.22952848839E+03 -0.96432045426E+02  0.15562492908E+03  0.29360381097E+03  0.12699999809E+01 0. -1.
       -4    1    3    3    0  502 -0.22952848839E+03  0.96432045426E+02  0.13249595691E+03  0.28202705166E+03  0.12699999809E+01 0.  1.
</event>
<event>
 5   0  0.4409622E-02  0.5005604E+03  0.7818609E-02  0.1013633E+00
        2   -1    0    0  501    0  0.00000000000E+00  0.00000000000E+00  0.13385820584E+03  0.13385820587E+03  0.25500000920E-02 0. -1.
       -2   -1    0    0    0  501  0.00000000000E+00  0.00000000000E+00 -0.46795922046E+03  0.46795922047E+03  0.25500000920E-02 0.  1.
    10030    2    1    2    0    0  0.00000000000E+00  0.00000000000E+00 -0.33410101462E+03  0.60181742634E+03  0.50056041261E+03 0.  0.
        3    1    3    3  502    0  0.12587061326E+03 -0.20375186905E+03 -0.79671958383E+02  0.25240021113E+03  0.10100000352E+00 0. -1.
       -3    1    3    3    0  502 -0.12587061326E+03  0.20375186905E+03 -0.25442905623E+03  0.34941721520E+03  0.10100000352E+00 0.  1.
</event>
<event>
 5   0  0.4631619E-02  0.5003484E+03  0.7818609E-02  0.1013688E+00
        2   -1    0    0  501    0  0.00000000000E+00  0.00000000000E+00  0.12827519092E+04  0.12827519092E+04  0.25500000920E-02 0.  1.
       -2   -1    0    0    0  501  0.00000000000E+00  0.00000000000E+00 -0.48791303989E+02  0.48791304056E+02  0.25500000920E-02 0. -1.
    10030    2    1    2    0    0  0.00000000000E+00  0.00000000000E+00  0.12339606052E+04  0.13315432133E+04  0.50034843216E+03 0.  0.
        5    1    3    3  502    0  0.94972513893E+01  0.24009798547E+03  0.43207144463E+03  0.49441385870E+03  0.46999998093E+01 0. -1.
       -5    1    3    3    0  502 -0.94972513893E+01 -0.24009798547E+03  0.80188916058E+03  0.83712935456E+03  0.46999998093E+01 0.  1.
</event>
<event>
 5   0  0.1805500E-02  0.4942828E+03  0.7818609E-02  0.1015282E+00
        3   -1    0    0  501    0  0.00000000000E+00  0.00000000000E+00  0.14293170059E+03  0.14293173628E+03  0.10100000352E+00 0. -1.
       -3   -1    0    0    0  501  0.00000000000E+00  0.00000000000E+00 -0.42732900326E+03  0.42732901520E+03  0.10100000352E+00 0.  1.
    10030    2    1    2    0    0  0.00000000000E+00  0.00000000000E+00 -0.28439730267E+03  0.57026075147E+03  0.49428281267E+03 0.  0.
        4    1    3    3  502    0  0.19317642817E+03 -0.11296398433E+03 -0.21200187099E+02  0.22478668775E+03  0.12699999809E+01 0. -1.
       -4    1    3    3    0  502 -0.19317642817E+03  0.11296398433E+03 -0.26319711557E+03  0.34547406372E+03  0.12699999809E+01 0.  1.
</event>
<event>
 5   0  0.2715483E-02  0.5013907E+03  0.7818609E-02  0.1013417E+00
       -1   -1    0    0    0  501  0.00000000000E+00  0.00000000000E+00  0.44002227663E+03  0.44002227666E+03  0.50400001928E-02 0. -1.
        1   -1    0    0  501    0  0.00000000000E+00  0.00000000000E+00 -0.14282946775E+03  0.14282946784E+03  0.50400001928E-02 0.  1.
    10030    2    1    2    0    0  0.00000000000E+00  0.00000000000E+00  0.29719280888E+03  0.58285174450E+03  0.50139065649E+03 0.  0.
        5    1    3    3  502    0  0.14371238707E+03 -0.20323702273E+03  0.11435736189E+03  0.27396757805E+03  0.46999998093E+01 0.  1.
       -5    1    3    3    0  502 -0.14371238707E+03  0.20323702273E+03  0.18283544699E+03  0.30888416645E+03  0.46999998093E+01 0. -1.
</event>
<event>
 5   0  0.4631619E-02  0.4986430E+03  0.7818609E-02  0.1014134E+00
        2   -1    0    0  501    0  0.00000000000E+00  0.00000000000E+00  0.16864231155E+03  0.16864231157E+03  0.25500000920E-02 0. -1.
       -2   -1    0    0    0  501  0.00000000000E+00  0.00000000000E+00 -0.36859793382E+03  0.36859793383E+03  0.25500000920E-02 0.  1.
    10030    2    1    2    0    0  0.00000000000E+00  0.00000000000E+00 -0.19995562227E+03  0.53724024540E+03  0.49864298892E+03 0.  0.
        5    1    3    3  502    0 -0.24275743213E+03  0.39862002196E+02 -0.56626933853E+02  0.25248534553E+03  0.46999998093E+01 0. -1.
       -5    1    3    3    0  502  0.24275743213E+03 -0.39862002196E+02 -0.14332868842E+03  0.28475489986E+03  0.46999998093E+01 0.  1.
</event>
<event>
 5   0  0.4451135E-02  0.4940886E+03  0.7818609E-02  0.1015333E+00
       -2   -1    0    0    0  501  0.00000000000E+00  0.00000000000E+00  0.30904097346E+02  0.30904097451E+02  0.25500000920E-02 0.  1.
        2   -1    0    0  501    0  0.00000000000E+00  0.00000000000E+00 -0.19748476847E+04  0.19748476847E+04  0.25500000920E-02 0. -1.
    10030    2    1    2    0    0  0.00000000000E+00  0.00000000000E+00 -0.19439435873E+04  0.20057517821E+04  0.49408859610E+03 0.  0.
        1    1    3    3  502    0 -0.11026114447E+03  0.20156067505E+03 -0.60332421369E+03  0.64558836154E+03  0.50400001928E-02 0.  1.
       -1    1    3    3    0  502  0.11026114447E+03 -0.20156067505E+03 -0.13406193736E+04  0.13601634206E+04  0.50400001928E-02 0. -1.
</event>
<event>
 5   0  0.2723308E-02  0.5005534E+03  0.7818609E-02  0.1013635E+00
        1   -1    0    0  501    0  0.00000000000E+00  0.00000000000E+00  0.16537777131E+04  0.16537777131E+04  0.50400001928E-02 0.  1.
       -1   -1    0    0    0  501  0.00000000000E+00  0.00000000000E+00 -0.37875958222E+02  0.37875958558E+02  0.50400001928E-02 0. -1.
    10030    2    1    2    0    0  0.00000000000E+00  0.00000000000E+00  0.16159017549E+04  0.16916536717E+04  0.50055335724E+03 0.  0.
        4    1    3    3  502    0  0.22161270132E+02 -0.70827659354E+02  0.16157248555E+04  0.16174288550E+04  0.12699999809E+01 0.  1.
       -4    1    3    3    0  502 -0.22161270132E+02  0.70827659354E+02  0.17689937320E+00  0.74224816718E+02  0.12699999809E+01 0. -1.
</event>
<event>
 5   0  0.1805500E-02  0.4896485E+03  0.7818609E-02  0.1016517E+00
        3   -1    0    0  501    0  0.00000000000E+00  0.00000000000E+00  0.32407235837E+03  0.32407237411E+03  0.10100000352E+00 0. -1.
       -3   -1    0    0    0  501  0.00000000000E+00  0.00000000000E+00 -0.18495531964E+03  0.18495534722E+03  0.10100000352E+00 0.  1.
    10030    2    1    2    0    0  0.00000000000E+00  0.00000000000E+00  0.13911703873E+03  0.50902772133E+03  0.48964851742E+03 0.  0.
        1    1    3    3  502    0 -0.79452498406E+02  0.62546858265E+02  0.30134965276E+03  0.31786226927E+03  0.50400001928E-02 0. -1.
       -1    1    3    3    0  502  0.79452498406E+02 -0.62546858265E+02 -0.16223261403E+03  0.19116545206E+03  0.50400001928E-02 0.  1.
</event>
<event>
 5   0  0.2715483E-02  0.5000750E+03  0.7818609E-02  0.1013759E+00
        1   -1    0    0  501    0  0.00000000000E+00  0.00000000000E+00  0.17022087197E+04  0.17022087197E+04  0.50400001928E-02 0. -1.
       -1   -1    0    0    0  501  0.00000000000E+00  0.00000000000E+00 -0.36728011003E+02  0.36728011349E+02  0.50400001928E-02 0.  1.
    10030    2    1    2    0    0  0.00000000000E+00  0.00000000000E+00  0.16654807087E+04  0.17389367310E+04  0.50007495796E+03 0.  0.
        5    1    3    3  502    0  0.93200940360E+02 -0.17249522483E+03  0.13720734471E+04  0.13860189942E+04  0.46999998093E+01 0. -1.
       -5    1    3    3    0  502 -0.93200940360E+02  0.17249522483E+03  0.29340726155E+03  0.35291773688E+03  0.46999998093E+01 0.  1.
</event>
<event>
 5   0  0.4631619E-02  0.5006627E+03  0.7818609E-02  0.1013606E+00
       -2   -1    0    0    0  501  0.00000000000E+00  0.00000000000E+00  0.10892290345E+03  0.10892290348E+03  0.25500000920E-02 0.  1.
        2   -1    0    0  501    0  0.00000000000E+00  0.00000000000E+00 -0.57532248030E+03  0.57532248031E+03  0.25500000920E-02 0. -1.
    10030    2    1    2    0    0  0.00000000000E+00  0.00000000000E+00 -0.46639957685E+03  0.68424538379E+03  0.50066274072E+03 0.  0.
        5    1    3    3  502    0 -0.84958390667E+02 -0.15672825872E+03 -0.47329242818E+03  0.50577612419E+03  0.46999998093E+01 0. -1.
       -5    1    3    3    0  502  0.84958390667E+02  0.15672825872E+03  0.68928513269E+01  0.17846925960E+03  0.46999998093E+01 0.  1.
</event>
<event>
 5   0  0.4534223E-02  0.4930054E+03  0.7818609E-02  0.1015621E+00
       -2   -1    0    0    0  501  0.00000000000E+00  0.00000000000E+00  0.61332217977E+02  0.61332218030E+02  0.25500000920E-02 0.  1.
        2   -1    0    0  501    0  0.00000000000E+00  0.00000000000E+00 -0.99072874964E+03  0.99072874965E+03  0.25500000920E-02 0. -1.
    10030    2    1    2    0    0  0.00000000000E+00  0.00000000000E+00 -0.92939653167E+03  0.10520609677E+04  0.49300544280E+03 0.  0.
        2    1    3    3  502    0  0.13431832189E+03  0.13217260479E+03 -0.12558709646E+03  0.22645778383E+03  0.25500000920E-02 0.  1.
       -2    1    3    3    0  502 -0.13431832189E+03 -0.13217260479E+03 -0.80380943520E+03  0.82560318385E+03  0.25500000920E-02 0. -1.
</event>
<event>
 5   0  0.4409622E-02  0.4980496E+03  0.7818609E-02  0.1014289E+00
        2   -1    0    0  501    0  0.00000000000E+00  0.00000000000E+00  0.13319396297E+04  0.13319396297E+04  0.25500000920E-02 0.  1.
       -2   -1    0    0    0  501  0.00000000000E+00  0.00000000000E+00 -0.46558677001E+02  0.46558677071E+02  0.25500000920E-02 0. -1.
    10030    2    1    2    0    0  0.00000000000E+00  0.00000000000E+00  0.12853809527E+04  0.13784983068E+04  0.49804958410E+03 0.  0.
        3    1    3    3  502    0 -0.24594113691E+03  0.27727004017E+02  0.71886803682E+03  0.76028093106E+03  0.10100000352E+00 0.  1.
       -3    1    3    3    0  502  0.24594113691E+03 -0.27727004017E+02  0.56651291591E+03  0.61821737574E+03  0.10100000352E+00 0. -1.
</event>
<event>
 5   0  0.2643185E-02  0.5041439E+03  0.7818609E-02  0.1012703E+00
       -1   -1    0    0    0  501  0.00000000000E+00  0.00000000000E+00  0.95146901323E+02  0.95146901456E+02  0.50400001928E-02 0.  1.
        1   -1    0    0  501    0  0.00000000000E+00  0.00000000000E+00 -0.66781235278E+03  0.66781235280E+03  0.50400001928E-02 0. -1.
    10030    2    1    2    0    0  0.00000000000E+00  0.00000000000E+00 -0.57266545145E+03  0.76295925425E+03  0.50414393219E+03 0.  0.
        1    1    3    3  502    0  0.43832946350E+02 -0.18574835994E+03 -0.53554164541E+03  0.56853199945E+03  0.50400001928E-02 0. -1.
       -1    1    3    3    0  502 -0.43832946350E+02  0.18574835994E+03 -0.37123806042E+02  0.19442725480E+03  0.50400001928E-02 0.  1.
</event>
<event>
 5   0  0.4409622E-02  0.4985979E+03  0.7818609E-02  0.1014146E+00
       -2   -1    0    0    0  501  0.00000000000E+00  0.00000000000E+00  0.16074913849E+03  0.16074913851E+03  0.25500000920E-02 0.  1.
        2   -1    0    0  501    0  0.00000000000E+00  0.00000000000E+00 -0.38662705479E+03  0.38662705480E+03  0.25500000920E-02 0. -1.
    10030    2    1    2    0    0  0.00000000000E+00  0.00000000000E+00 -0.22587791630E+03  0.54737619331E+03  0.49859789804E+03 0.  0.
        3    1    3    3  502    0  0.37001910001E+02 -0.20520300076E+03 -0.26295482465E+03  0.33559300182E+03  0.10100000352E+00 0.  1.
       -3    1    3    3    0  502 -0.37001910001E+02  0.20520300076E+03  0.37076908349E+02  0.21178319149E+03  0.10100000352E+00 0. -1.
</event>
<event>
 5   0  0.4631619E-02  0.5054958E+03  0.7818609E-02  0.1012354E+00
       -2   -1    0    0    0  501  0.00000000000E+00  0.00000000000E+00  0.62121308715E+03  0.62121308716E+03  0.25500000920E-02 0. -1.
        2   -1    0    0  501    0  0.00000000000E+00  0.00000000000E+00 -0.10283348137E+03  0.10283348141E+03  0.25500000920E-02 0.  1.
    10030    2    1    2    0    0  0.00000000000E+00  0.00000000000E+00  0.51837960578E+03  0.72404656856E+03  0.50549581379E+03 0.  0.
        5    1    3    3  502    0 -0.83891911722E+02 -0.41412792975E+02 -0.77051079438E+02  0.12129233741E+03  0.46999998093E+01 0.  1.
       -5    1    3    3    0  502  0.83891911722E+02  0.41412792975E+02  0.59543068521E+03  0.60275423115E+03  0.46999998093E+01 0. -1.
</event>
<event>
 5   0  0.2723308E-02  0.4982957E+03  0.7818609E-02  0.1014225E+00
       -1   -1    0    0    0  501  0.00000000000E+00  0.00000000000E+00  0.29593653689E+03  0.29593653693E+03  0.50400001928E-02 0. -1.
        1   -1    0    0  501    0  0.00000000000E+00  0.00000000000E+00 -0.20975659533E+03  0.20975659539E+03  0.50400001928E-02 0.  1.
    10030    2    1    2    0    0  0.00000000000E+00  0.00000000000E+00  0.86179941553E+02  0.50569313232E+03  0.49829565697E+03 0.  0.
        4    1    3    3  502    0 -0.13155906702E+03  0.11260648866E+03  0.22487206324E+03  0.28382576897E+03  0.12699999809E+01 0. -1.
       -4    1    3    3    0  502  0.13155906702E+03 -0.11260648866E+03 -0.13869212169E+03  0.22186736335E+03  0.12699999809E+01 0.  1.
</event>
<event>
 5   0  0.2719671E-02  0.5000309E+03  0.7818609E-02  0.1013771E+00
        1   -1    0    0  501    0  0.00000000000E+00  0.00000000000E+00  0.57882381029E+03  0.57882381031E+03  0.50400001928E-02 0.  1.
       -1   -1    0    0    0  501  0.00000000000E+00  0.00000000000E+00 -0.10799094272E+03  0.10799094283E+03  0.50400001928E-02 0. -1.
    10030    2    1    2    0    0  0.00000000000E+00  0.00000000000E+00  0.47083286757E+03  0.68681475314E+03  0.50003091499E+03 0.  0.
        2    1    3    3  502    0  0.23047668899E+03 -0.80393131107E+02  0.30970436457E+03  0.39433406287E+03  0.25500000920E-02 0. -1.
       -2    1    3    3    0  502 -0.23047668899E+03  0.80393131107E+02  0.16112850300E+03  0.29248069027E+03  0.25500000920E-02 0.  1.
</event>
<event>
 5   0  0.4519539E-02  0.4995002E+03  0.7818609E-02  0.1013909E+00
       -2   -1    0    0    0  501  0.00000000000E+00  0.00000000000E+00  0.60949954891E+03  0.60949954892E+03  0.25500000920E-02 0.  1.
        2   -1    0    0  501    0  0.00000000000E+00  0.00000000000E+00 -0.10233826171E+03  0.10233826175E+03  0.25500000920E-02 0. -1.
    10030    2    1    2    0    0  0.00000000000E+00  0.00000000000E+00  0.50716128720E+03  0.71183781067E+03  0.49950024771E+03 0.  0.
        4    1    3    3  502    0  0.10292625375E+03  0.20511849704E+03  0.39398084277E+03  0.45594948065E+03  0.12699999809E+01 0.  1.
       -4    1    3    3    0  502 -0.10292625375E+03 -0.20511849704E+03  0.11318044443E+03  0.25588833002E+03  0.12699999809E+01 0. -1.
</event>
<event>
 5   0  0.4519539E-02  0.4915418E+03  0.7818609E-02  0.1016011E+00
       -2   -1    0    0    0  501  0.00000000000E+00  0.00000000000E+00  0.16702315311E+03  0.16702315313E+03  0.25500000920E-02 0. -1.
        2   -1    0    0  501    0  0.00000000000E+00  0.00000000000E+00 -0.36164645088E+03  0.36164645089E+03  0.25500000920E-02 0.  1.
    10030    2    1    2    0    0  0.00000000000E+00  0.00000000000E+00 -0.19462329776E+03  0.52866960402E+03  0.49154178071E+03 0.  0.
        4    1    3    3  502    0  0.11817157802E+03 -0.75651766173E+02  0.11970638337E+03  0.18444224759E+03  0.12699999809E+01 0. -1.
       -4    1    3    3    0  502 -0.11817157802E+03  0.75651766173E+02 -0.31432968113E+03  0.34422735643E+03  0.12699999809E+01 0.  1.
</event>
<event>
 5   0  0.4534223E-02  0.4998361E+03  0.7818609E-02  0.1013822E+00
       -2   -1    0    0    0  501  0.00000000000E+00  0.00000000000E+00  0.83623084801E+02  0.83623084840E+02  0.25500000920E-02 0.  1.
        2   -1    0    0  501    0  0.00000000000E+00  0.00000000000E+00 -0.74691134472E+03  0.74691134473E+03  0.25500000920E-02 0. -1.
    10030    2    1    2    0    0  0.00000000000E+00  0.00000000000E+00 -0.66328825992E+03  0.83053442957E+03  0.49983609608E+03 0.  0.
        2    1    3    3  502    0 -0.16201652302E+03  0.77101189679E+02 -0.42575500470E+02  0.18440884043E+03  0.25500000920E-02 0.  1.
       -2    1    3    3    0  502  0.16201652302E+03 -0.77101189679E+02 -0.62071275945E+03  0.64612558914E+03  0.25500000920E-02 0. -1.
</event>
<event>
 5   0  0.4451135E-02  0.4950358E+03  0.7818609E-02  0.1015083E+00
       -2   -1    0    0    0  501  0.00000000000E+00  0.00000000000E+00  0.73001369020E+02  0.73001369064E+02  0.25500000920E-02 0. -1.
        2   -1    0    0  501    0  0.00000000000E+00  0.00000000000E+00 -0.83923225399E+03  0.83923225400E+03  0.25500000920E-02 0.  1.
    10030    2    1    2    0    0  0.00000000000E+00  0.00000000000E+00 -0.76623088497E+03  0.91223362306E+03  0.49503577038E+03 0.  0.
        1    1    3    3  502    0  0.56265783133E+02 -0.14312937755E+03 -0.74050339093E+03  0.75630491805E+03  0.50400001928E-02 0.  1.
       -1    1    3    3    0  502 -0.56265783133E+02  0.14312937755E+03 -0.25727494047E+02  0.15592870501E+03  0.50400001928E-02 0. -1.
</event>
<event>
 5   0  0.4519539E-02  0.4999068E+03  0.7818609E-02  0.1013803E+00
        2   -1    0    0  501    0  0.00000000000E+00  0.00000000000E+00  0.15134002215E+04  0.15134002215E+04  0.25500000920E-02 0. -1.
       -2   -1    0    0    0  501  0.00000000000E+00  0.00000000000E+00 -0.41282335980E+02  0.41282336059E+02  0.25500000920E-02 0.  1.
    10030    2    1    2    0    0  0.00000000000E+00  0.00000000000E+00  0.14721178855E+04  0.15546825576E+04  0.49990677723E+03 0.  0.
        4    1    3    3  502    0  0.14182744421E+02  0.37890486531E+02  0.15031396113E+04  0.15036845225E+04  0.12699999809E+01 0. -1.
       -4    1    3    3    0  502 -0.14182744421E+02 -0.37890486531E+02 -0.31021725794E+02  0.50998035060E+02  0.12699999809E+01 0.  1.
</event>
<event>
 5   0  0.4409622E-02  0.5007657E+03  0.7818609E-02  0.1013579E+00
       -2   -1    0    0    0  501  0.00000000000E+00  0.00000000000E+00  0.46259744296E+02  0.46259744367E+02  0.25500000920E-02 0.  1.
        2   -1    0    0  501    0  0.00000000000E+00  0.00000000000E+00 -0.13552079885E+04  0.13552079885E+04  0.25500000920E-02 0. -1.
    10030    2    1    2    0    0  0.00000000000E+00  0.00000000000E+00 -0.13089482442E+04  0.14014677329E+04  0.50076571396E+03 0.  0.
        3    1    3    3  502    0  0.20102347199E+03 -0.14506397417E+03 -0.75292820933E+03  0.79268839496E+03  0.10100000352E+00 0.  1.
       -3    1    3    3    0  502 -0.20102347199E+03  0.14506397417E+03 -0.55602003492E+03  0.60877933796E+03  0.10100000352E+00 0. -1.
</event>
<event>
 5   0  0.1805500E-02  0.4997047E+03  0.7818609E-02  0.1013856E+00
       -3   -1    0    0    0  501  0.00000000000E+00  0.00000000000E+00  0.21679362915E+03  0.21679365267E+03  0.10100000352E+00 0.  1.
        3   -1    0    0  501    0  0.00000000000E+00  0.00000000000E+00 -0.28795213919E+03  0.28795215690E+03  0.10100000352E+00 0. -1.
    10030    2    1    2    0    0  0.00000000000E+00  0.00000000000E+00 -0.71158510044E+02  0.50474580958E+03  0.49970471154E+03 0.  0.
        1    1    3    3  502    0  0.83754566192E+02  0.17317145284E+03 -0.19663374961E+03  0.27507819060E+03  0.50400001928E-02 0. -1.
       -1    1    3    3    0  502 -0.83754566192E+02 -0.17317145284E+03  0.12547523957E+03  0.22966761897E+03  0.50400001928E-02 0.  1.
</event>
<event>
 5   0  0.2643185E-02  0.5014087E+03  0.7818609E-02  0.1013412E+00
       -1   -1    0    0    0  501  0.00000000000E+00  0.00000000000E+00  0.13143946926E+03  0.13143946935E+03  0.50400001928E-02 0. -1.
        1   -1    0    0  501    0  0.00000000000E+00  0.00000000000E+00 -0.47818711956E+03  0.47818711958E+03  0.50400001928E-02 0.  1.
    10030    2    1    2    0    0  0.00000000000E+00  0.00000000000E+00 -0.34674765030E+03  0.60962658894E+03  0.50140866063E+03 0.  0.
        1    1    3    3  502    0  0.24379806759E+03  0.46842054617E+02 -0.21585801096E+03  0.32897774509E+03  0.50400001928E-02 0. -1.
       -1    1    3    3    0  502 -0.24379806759E+03 -0.46842054617E+02 -0.13088963934E+03  0.28064884385E+03  0.50400001928E-02 0.  1.
</event>
<event>
 5   0  0.2643185E-02  0.4968458E+03  0.7818609E-02  0.1014606E+00
        1   -1    0    0  501    0  0.00000000000E+00  0.00000000000E+00  0.32678530086E+03  0.32678530089E+03  0.50400001928E-02 0.  1.
       -1   -1    0    0    0  501  0.00000000000E+00  0.00000000000E+00 -0.18885160255E+03  0.18885160262E+03  0.50400001928E-02 0. -1.
    10030    2    1    2    0    0  0.00000000000E+00  0.00000000000E+00  0.13793369830E+03  0.51563690351E+03  0.49684576192E+03 0.  0.
        1    1    3    3  502    0  0.22451138048E+03  0.55872700713E+02  0.16286990684E+03  0.28293767022E+03  0.50400001928E-02 0.  1.
       -1    1    3    3    0  502 -0.22451138048E+03 -0.55872700713E+02 -0.24936208537E+02  0.23269923329E+03  0.50400001928E-02 0. -1.
</event>
<event>
 5   0  0.2723308E-02  0.5012398E+03  0.7818609E-02  0.1013456E+00
       -1   -1    0    0    0  501  0.00000000000E+00  0.00000000000E+00  0.65950855741E+02  0.65950855934E+02  0.50400001928E-02 0. -1.
        1   -1    0    0  501    0  0.00000000000E+00  0.00000000000E+00 -0.95238091078E+03  0.95238091080E+03  0.50400001928E-02 0.  1.
    10030    2    1    2    0    0  0.00000000000E+00  0.00000000000E+00 -0.88643005504E+03  0.10183317667E+04  0.50123980753E+03 0.  0.
        4    1    3    3  502    0  0.16425305940E+02 -0.28848216275E+02  0.61457825013E+02  0.69861916755E+02  0.12699999809E+01 0. -1.
       -4    1    3    3    0  502 -0.16425305940E+02  0.28848216275E+02 -0.94788788006E+03  0.94846984998E+03  0.12699999809E+01 0.  1.
</event>
<event>
 5   0  0.2643185E-02  0.5006232E+03  0.7818609E-02  0.1013616E+00
        1   -1    0    0  501    0  0.00000000000E+00  0.00000000000E+00  0.70014058755E+03  0.70014058757E+03  0.50400001928E-02 0. -1.
       -1   -1    0    0    0  501  0.00000000000E+00  0.00000000000E+00 -0.89490437785E+02  0.89490437927E+02  0.50400001928E-02 0.  1.
    10030    2    1    2    0    0  0.00000000000E+00  0.00000000000E+00  0.61065014976E+03  0.78963102550E+03  0.50062316269E+03 0.  0.
        1    1    3    3  502    0 -0.15944188997E+03  0.12574177087E+03  0.74461605611E+02  0.21628046596E+03  0.50400001928E-02 0.  1.
       -1    1    3    3    0  502  0.15944188997E+03 -0.12574177087E+03  0.53618854415E+03  0.57335055954E+03  0.50400001928E-02 0. -1.
</event>
<event>
 5   0  0.4451135E-02  0.5006378E+03  0.7818609E-02  0.1013613E+00
        2   -1    0    0  501    0  0.00000000000E+00  0.00000000000E+00  0.11661064860E+04  0.11661064860E+04  0.25500000920E-02 0. -1.
       -2   -1    0    0    0  501  0.00000000000E+00  0.00000000000E+00 -0.53733977562E+02  0.53733977623E+02  0.25500000920E-02 0.  1.
    10030    2    1    2    0    0  0.00000000000E+00  0.00000000000E+00  0.11123725084E+04  0.12198404636E+04  0.50063775244E+03 0.  0.
        1    1    3    3  502    0  0.24845654026E+03  0.21614725552E+02  0.60854089057E+03  0.65766242426E+03  0.50400001928E-02 0.  1.
       -1    1    3    3    0  502 -0.24845654026E+03 -0.21614725552E+02  0.50383161786E+03  0.56217803936E+03  0.50400001928E-02 0. -1.
</event>
<event>
 5   0  0.4519539E-02  0.4963096E+03  0.7818609E-02  0.1014747E+00
        2   -1    0    0  501    0  0.00000000000E+00  0.00000000000E+00  0.92568021928E+03  0.92568021928E+03  0.25500000920E-02 0. -1.
       -2   -1    0    0    0  501  0.00000000000E+00  0.00000000000E+00 -0.66524927748E+02  0.66524927797E+02  0.25500000920E-02 0.  1.
    10030    2    1    2    0    0  0.00000000000E+00  0.00000000000E+00  0.85915529153E+03  0.99220514708E+03  0.49630962002E+03 0.  0.
        4    1    3    3  502    0  0.99366100051E+02 -0.18125359590E+02  0.88271863549E+03  0.88847957367E+03  0.12699999809E+01 0. -1.
       -4    1    3    3    0  502 -0.99366100051E+02  0.18125359590E+02 -0.23563343956E+02  0.10372557340E+03  0.12699999809E+01 0.  1.
</event>
<event>
 5   0  0.4534223E-02  0.4965181E+03  0.7818609E-02  0.1014692E+00
       -2   -1    0    0    0  501  0.00000000000E+00  0.00000000000E+00  0.17183767838E+03  0.17183767840E+03  0.25500000920E-02 0. -1.
        2   -1    0    0  501    0  0.00000000000E+00  0.00000000000E+00 -0.35866736499E+03  0.35866736500E+03  0.25500000920E-02 0.  1.
    10030    2    1    2    0    0  0.00000000000E+00  0.00000000000E+00 -0.18682968661E+03  0.53050504340E+03  0.49651814596E+03 0.  0.
        2    1    3    3  502    0  0.66285098709E+02  0.18142215504E+03 -0.26005494387E+03  0.32393870791E+03  0.25500000920E-02 0.  1.
       -2    1    3    3    0  502 -0.66285098709E+02 -0.18142215504E+03  0.73225257254E+02  0.20656633548E+03  0.25500000920E-02 0. -1.
</event>
<event>
 5   0  0.2715483E-02  0.4975630E+03  0.7818609E-02  0.1014417E+00
        1   -1    0    0  501    0  0.00000000000E+00  0.00000000000E+00  0.49310905594E+03  0.49310905597E+03  0.50400001928E-02 0.  1.
       -1   -1    0    0    0  501  0.00000000000E+00  0.00000000000E+00 -0.12551426974E+03  0.12551426985E+03  0.50400001928E-02 0. -1.
    10030    2    1    2    0    0  0.00000000000E+00  0.00000000000E+00  0.36759478620E+03  0.61862332582E+03  0.49756295321E+03 0.  0.
        5    1    3    3  502    0 -0.38681051783E+02 -0.10547544895E+03  0.45971299139E+03  0.47326463903E+03  0.46999998093E+01 0.  1.
       -5    1    3    3    0  502  0.38681051783E+02  0.10547544895E+03 -0.92118205195E+02  0.14535868679E+03  0.46999998093E+01 0. -1.
</event>
<event>
 5   0  0.2779445E-02  0.5011267E+03  0.7818609E-02  0.1013485E+00
       -1   -1    0    0    0  501  0.00000000000E+00  0.00000000000E+00  0.85641096241E+02  0.85641096390E+02  0.50400001928E-02 0. -1.
        1   -1    0    0  501    0  0.00000000000E+00  0.00000000000E+00 -0.73308246395E+03  0.73308246397E+03  0.50400001928E-02 0.  1.
    10030    2    1    2    0    0  0.00000000000E+00  0.00000000000E+00 -0.64744136771E+03  0.81872356036E+03  0.50112667427E+03 0.  0.
        3    1    3    3  502    0 -0.31616968547E+02 -0.13503688157E+03 -0.66465506677E+03  0.67897051488E+03  0.10100000352E+00 0.  1.
       -3    1    3    3    0  502  0.31616968547E+02  0.13503688157E+03  0.17213699065E+02  0.13975304548E+03  0.10100000352E+00 0. -1.
</event>
<event>
 5   0  0.4451135E-02  0.4988956E+03  0.7818609E-02  0.1014068E+00
        2   -1    0    0  501    0  0.00000000000E+00  0.00000000000E+00  0.72353525713E+03  0.72353525714E+03  0.25500000920E-02 0. -1.
       -2   -1    0    0    0  501  0.00000000000E+00  0.00000000000E+00 -0.86000224695E+02  0.86000224732E+02  0.25500000920E-02 0.  1.
    10030    2    1    2    0    0  0.00000000000E+00  0.00000000000E+00  0.63753503244E+03  0.80953548187E+03  0.49889555903E+03 0.  0.
        1    1    3    3  502    0  0.17861133665E+03 -0.15011986302E+03  0.46194982397E+03  0.51752837868E+03  0.50400001928E-02 0. -1.
       -1    1    3    3    0  502 -0.17861133665E+03  0.15011986302E+03  0.17558520847E+03  0.29200710319E+03  0.50400001928E-02 0.  1.
</event>
<event>
 5   0  0.1805500E-02  0.4905915E+03  0.7818609E-02  0.1016264E+00
        3   -1    0    0  501    0  0.00000000000E+00  0.00000000000E+00  0.39968404693E+03  0.39968405969E+03  0.10100000352E+00 0.  1.
       -3   -1    0    0    0  501  0.00000000000E+00  0.00000000000E+00 -0.15054387038E+03  0.15054390426E+03  0.10100000352E+00 0. -1.
    10030    2    1    2    0    0  0.00000000000E+00  0.00000000000E+00  0.24914017655E+03  0.55022796395E+03  0.49059146420E+03 0.  0.
        5    1    3    3  502    0  0.15011720645E+03 -0.78676187867E+02  0.32338320260E+03  0.36513545971E+03  0.46999998093E+01 0.  1.
       -5    1    3    3    0  502 -0.15011720645E+03  0.78676187867E+02 -0.74243026055E+02  0.18509250424E+03  0.46999998093E+01 0. -1.
</event>
<event>
 5   0  0.2723308E-02  0.5003511E+03  0.7818609E-02  0.1013687E+00
       -1   -1    0    0    0  501  0.00000000000E+00  0.00000000000E+00  0.20383752371E+03  0.20383752377E+03  0.50400001928E-02 0.  1.
        1   -1    0    0  501    0  0.00000000000E+00  0.00000000000E+00 -0.30704757767E+03  0.30704757771E+03  0.50400001928E-02 0. -1.
    10030    2    1    2    0    0  0.00000000000E+00  0.00000000000E+00 -0.10321005396E+03  0.51088510147E+03  0.50035114837E+03 0.  0.
        4    1    3    3  502    0 -0.81468321485E+02  0.37123921647E+02  0.18691729184E+03  0.20725578364E+03  0.12699999809E+01 0.  1.
       -4    1    3    3    0  502  0.81468321485E+02 -0.37123921647E+02 -0.29012734580E+03  0.30362931783E+03  0.12699999809E+01 0. -1.
</event>
<event>
 5   0  0.2643185E-02  0.5002945E+03  0.7818609E-02  0.1013702E+00
       -1   -1    0    0    0  501  0.00000000000E+00  0.00000000000E+00  0.31777153232E+03  0.31777153236E+03  0.50400001928E-02 0.  1.
        1   -1    0    0  501    0  0.00000000000E+00  0.00000000000E+00 -0.19691396136E+03  0.19691396143E+03  0.50400001928E-02 0. -1.
    10030    2    1    2    0    0  0.00000000000E+00  0.00000000000E+00  0.12085757096E+03  0.51468549379E+03  0.50029451832E+03 0.  0.
        1    1    3    3  502    0  0.11792763537E+03 -0.65209507553E+02 -0.15638071028E+03  0.20643191040E+03  0.50400001928E-02 0. -1.
       -1    1    3    3    0  502 -0.11792763537E+03  0.65209507553E+02  0.27723828125E+03  0.30825358339E+03  0.50400001928E-02 0.  1.
</event>
<event>
 5   0  0.2643185E-02  0.5006907E+03  0.7818609E-02  0.1013599E+00
        1   -1    0    0  501    0  0.00000000000E+00  0.00000000000E+00  0.34357698343E+03  0.34357698346E+03  0.50400001928E-02 0.  1.
       -1   -1    0    0    0  501  0.00000000000E+00  0.00000000000E+00 -0.18241266822E+03  0.18241266829E+03  0.50400001928E-02 0. -1.
    10030    2    1    2    0    0  0.00000000000E+00  0.00000000000E+00  0.16116431521E+03  0.52598965175E+03  0.50069070019E+03 0.  0.
        1    1    3    3  502    0  0.15165466628E+03  0.74817158262E+02  0.27450648513E+03  0.32241364019E+03  0.50400001928E-02 0.  1.
       -1    1    3    3    0  502 -0.15165466628E+03 -0.74817158262E+02 -0.11334216993E+03  0.20357601156E+03  0.50400001928E-02 0. -1.
</event>
<event>
 5   0  0.1805500E-02  0.5004545E+03  0.7818609E-02  0.1013660E+00
        3   -1    0    0  501    0  0.00000000000E+00  0.00000000000E+00  0.27806214520E+03  0.27806216354E+03  0.10100000352E+00 0.  1.
       -3   -1    0    0    0  501  0.00000000000E+00  0.00000000000E+00 -0.22517865219E+03  0.22517867484E+03  0.10100000352E+00 0. -1.
    10030    2    1    2    0    0  0.00000000000E+00  0.00000000000E+00  0.52883493011E+02  0.50324083838E+03  0.50045447104E+03 0.  0.
        4    1    3    3  502    0 -0.22714248604E+03  0.41008664910E+02  0.12360600465E+03  0.26183100819E+03  0.12699999809E+01 0.  1.
       -4    1    3    3    0  502  0.22714248604E+03 -0.41008664910E+02 -0.70722511640E+02  0.24140983020E+03  0.12699999809E+01 0. -1.
</event>
<event>
 5   0  0.2715483E-02  0.5008003E+03  0.7818609E-02  0.1013570E+00
        1   -1    0    0  501    0  0.00000000000E+00  0.00000000000E+00  0.78515892678E+03  0.78515892680E+03  0.50400001928E-02 0.  1.
       -1   -1    0    0    0  501  0.00000000000E+00  0.00000000000E+00 -0.79856755867E+02  0.79856756026E+02  0.50400001928E-02 0. -1.
    10030    2    1    2    0    0  0.00000000000E+00  0.00000000000E+00  0.70530217091E+03  0.86501568282E+03  0.50080033869E+03 0.  0.
        5    1    3    3  502    0  0.21685053172E+03 -0.45708522395E+02  0.15148026496E+03  0.26848050729E+03  0.46999998093E+01 0. -1.
       -5    1    3    3    0  502 -0.21685053172E+03  0.45708522395E+02  0.55382190596E+03  0.59653517553E+03  0.46999998093E+01 0.  1.
</event>
<event>
 5   0  0.2779445E-02  0.5005034E+03  0.7818609E-02  0.1013648E+00
        1   -1    0    0  501    0  0.00000000000E+00  0.00000000000E+00  0.86663951439E+03  0.86663951441E+03  0.50400001928E-02 0. -1.
       -1   -1    0    0    0  501  0.00000000000E+00  0.00000000000E+00 -0.72262946196E+02  0.72262946372E+02  0.50400001928E-02 0.  1.
    10030    2    1    2    0    0  0.00000000000E+00  0.00000000000E+00  0.79437656820E+03  0.93890246078E+03  0.50050344530E+03 0.  0.
        3    1    3    3  502    0  0.15392403398E+03  0.47337138099E+02  0.75652539103E+03  0.77347533273E+03  0.10100000352E+00 0.  1.
       -3    1    3    3    0  502 -0.15392403398E+03 -0.47337138099E+02  0.37851177170E+02  0.16542712805E+03  0.10100000352E+00 0. -1.
</event>
<event>
 5   0  0.4519539E-02  0.4998924E+03  0.7818609E-02  0.1013807E+00
       -2   -1    0    0    0  501  0.00000000000E+00  0.00000000000E+00  0.29525241415E+03  0.29525241416E+03  0.25500000920E-02 0.  1.
        2   -1    0    0  501    0  0.00000000000E+00  0.00000000000E+00 -0.21159222347E+03  0.21159222348E+03  0.25500000920E-02 0. -1.
    10030    2    1    2    0    0  0.00000000000E+00  0.00000000000E+00  0.83660190682E+02  0.50684463765E+03  0.49989244764E+03 0.  0.
        4    1    3    3  502    0  0.23728244002E+02 -0.19202545510E+03  0.20225413556E+03  0.27990204219E+03  0.12699999809E+01 0.  1.
       -4    1    3    3    0  502 -0.23728244002E+02  0.19202545510E+03 -0.11859394488E+03  0.22694259546E+03  0.12699999809E+01 0. -1.
</event>
<event>
 5   0  0.4451135E-02  0.5007006E+03  0.7818609E-02  0.1013596E+00
        2   -1    0    0  501    0  0.00000000000E+00  0.00000000000E+00  0.49258650748E+03  0.49258650748E+03  0.25500000920E-02 0. -1.
       -2   -1    0    0    0  501  0.00000000000E+00  0.00000000000E+00 -0.12723707298E+03  0.12723707300E+03  0.25500000920E-02 0.  1.
    10030    2    1    2    0    0  0.00000000000E+00  0.00000000000E+00  0.36534943450E+03  0.61982358048E+03  0.50070057083E+03 0.  0.
        1    1    3    3  502    0  0.23839123789E+03  0.75378801434E+02  0.16687401544E+03  0.30059820868E+03  0.50400001928E-02 0. -1.
       -1    1    3    3    0  502 -0.23839123789E+03 -0.75378801434E+02  0.19847541906E+03  0.31922537180E+03  0.50400001928E-02 0.  1.
</event>
<event>
 5   0  0.2723308E-02  0.4983120E+03  0.7818609E-02  0.1014220E+00
        1   -1    0    0  501    0  0.00000000000E+00  0.00000000000E+00  0.16286285490E+04  0.16286285490E+04  0.50400001928E-02 0. -1.
       -1   -1    0    0    0  501  0.00000000000E+00  0.00000000000E+00 -0.38117170294E+02  0.38117170627E+02  0.50400001928E-02 0.  1.
    10030    2    1    2    0    0  0.00000000000E+00  0.00000000000E+00  0.15905113787E+04  0.16667457196E+04  0.49831199877E+03 0.  0.
        4    1    3    3  502    0 -0.66826604383E+01  0.22185623308E+03  0.11738558181E+04  0.11946564111E+04  0.12699999809E+01 0. -1.
       -4    1    3    3    0  502  0.66826604383E+01 -0.22185623308E+03  0.41665556061E+03  0.47208930850E+03  0.12699999809E+01 0.  1.
</event>
<event>
 5   0  0.4631619E-02  0.4992029E+03  0.7818609E-02  0.1013987E+00
       -2   -1    0    0    0  501  0.00000000000E+00  0.00000000000E+00  0.43647334128E+02  0.43647334202E+02  0.25500000920E-02 0.  1.
        2   -1    0    0  501    0  0.00000000000E+00  0.00000000000E+00 -0.14273699462E+04  0.14273699462E+04  0.25500000920E-02 0. -1.
    10030    2    1    2    0    0  0.00000000000E+00  0.00000000000E+00 -0.13837226121E+04  0.14710172804E+04  0.49920293678E+03 0.  0.
        5    1    3    3  502    0  0.11754035868E+03  0.11379435727E+03 -0.13654567766E+03  0.21314714108E+03  0.46999998093E+01 0.  1.
       -5    1    3    3    0  502 -0.11754035868E+03 -0.11379435727E+03 -0.12471769344E+04  0.12578701394E+04  0.46999998093E+01 0. -1.
</event>
<event>
 5   0  0.2723308E-02  0.4829376E+03  0.7818609E-02  0.1018331E+00
        1   -1    0    0  501    0  0.00000000000E+00  0.00000000000E+00  0.66173167047E+03  0.66173167049E+03  0.50400001928E-02 0.  1.
       -1   -1    0    0    0  501  0.00000000000E+00  0.00000000000E+00 -0.88113035820E+02  0.88113035964E+02  0.50400001928E-02 0. -1.
    10030    2    1    2    0    0  0.00000000000E+00  0.00000000000E+00  0.57361863465E+03  0.74984470645E+03  0.48293762100E+03 0.  0.
        4    1    3    3  502    0  0.30987673418E+02  0.19515053392E+03  0.50229903268E+03  0.53976837433E+03  0.12699999809E+01 0.  1.
       -4    1    3    3    0  502 -0.30987673418E+02 -0.19515053392E+03  0.71319601966E+02  0.21007633212E+03  0.12699999809E+01 0. -1.
</event>
<event>
 5   0  0.2643185E-02  0.4964821E+03  0.7818609E-02  0.1014701E+00
       -1   -1    0    0    0  501  0.00000000000E+00  0.00000000000E+00  0.36841583960E+02  0.36841584304E+02  0.50400001928E-02 0.  1.
        1   -1    0    0  501    0  0.00000000000E+00  0.00000000000E+00 -0.16726645281E+04  0.16726645281E+04  0.50400001928E-02 0. -1.
    10030    2    1    2    0    0  0.00000000000E+00  0.00000000000E+00 -0.16358229441E+04  0.17095061124E+04  0.49648206795E+03 0.  0.
        1    1    3    3  502    0 -0.15326161389E+03  0.33477264586E+02 -0.14803547557E+04  0.14886436956E+04  0.50400001928E-02 0. -1.
       -1    1    3    3    0  502  0.15326161389E+03 -0.33477264586E+02 -0.15546818840E+03  0.22086241683E+03  0.50400001928E-02 0.  1.
</event>
<event>
 5   0  0.2643185E-02  0.5021746E+03  0.7818609E-02  0.1013213E+00
        1   -1    0    0  501    0  0.00000000000E+00  0.00000000000E+00  0.21005312123E+03  0.21005312129E+03  0.50400001928E-02 0. -1.
       -1   -1    0    0    0  501  0.00000000000E+00  0.00000000000E+00 -0.30013755383E+03  0.30013755387E+03  0.50400001928E-02 0.  1.
    10030    2    1    2    0    0  0.00000000000E+00  0.00000000000E+00 -0.90084432593E+02  0.51019067516E+03  0.50217459118E+03 0.  0.
        1    1    3    3  502    0  0.14975986772E+03 -0.87986932793E+02  0.13916701925E+03  0.22256948936E+03  0.50400001928E-02 0. -1.
       -1    1    3    3    0  502 -0.14975986772E+03  0.87986932793E+02 -0.22925145185E+03  0.28762118580E+03  0.50400001928E-02 0.  1.
</event>
<event>
 5   0  0.2779445E-02  0.4990402E+03  0.7818609E-02  0.1014030E+00
       -1   -1    0    0    0  501  0.00000000000E+00  0.00000000000E+00  0.75403500077E+02  0.75403500245E+02  0.50400001928E-02 0.  1.
        1   -1    0    0  501    0  0.00000000000E+00  0.00000000000E+00 -0.82569493211E+03  0.82569493212E+03  0.50400001928E-02 0. -1.
    10030    2    1    2    0    0  0.00000000000E+00  0.00000000000E+00 -0.75029143203E+03  0.90109843237E+03  0.49904023068E+03 0.  0.
        3    1    3    3  502    0  0.39227521855E+02  0.10978024082E+03  0.23205693944E+02  0.11886552981E+03  0.10100000352E+00 0.  1.
       -3    1    3    3    0  502 -0.39227521855E+02 -0.10978024082E+03 -0.77349712598E+03  0.78223290256E+03  0.10100000352E+00 0. -1.
</event>
<event>
 5   0  0.1805500E-02  0.4957206E+03  0.7818609E-02  0.1014902E+00
        3   -1    0    0  501    0  0.00000000000E+00  0.00000000000E+00  0.21913019623E+03  0.21913021950E+03  0.10100000352E+00 0.  1.
       -3   -1    0    0    0  501  0.00000000000E+00  0.00000000000E+00 -0.28035714610E+03  0.28035716429E+03  0.10100000352E+00 0. -1.
    10030    2    1    2    0    0  0.00000000000E+00  0.00000000000E+00 -0.61226949873E+02  0.49948738380E+03  0.49572059386E+03 0.  0.
        5    1    3    3  502    0  0.91499367102E+01 -0.16785990565E+03  0.15284687436E+03  0.22725520075E+03  0.46999998093E+01 0.  1.
       -5    1    3    3    0  502 -0.91499367102E+01  0.16785990565E+03 -0.21407382424E+03  0.27223218305E+03  0.46999998093E+01 0. -1.
</event>
<event>
 5   0  0.4631619E-02  0.4960485E+03  0.7818609E-02  0.1014815E+00
        2   -1    0    0  501    0  0.00000000000E+00  0.00000000000E+00  0.20969262167E+03  0.20969262169E+03  0.25500000920E-02 0.  1.
       -2   -1    0    0    0  501  0.00000000000E+00  0.00000000000E+00 -0.29336289500E+03  0.29336289501E+03  0.25500000920E-02 0. -1.
    10030    2    1    2    0    0  0.00000000000E+00  0.00000000000E+00 -0.83670273327E+02  0.50305551669E+03  0.49604852407E+03 0.  0.
        5    1    3    3  502    0  0.17428207149E+03  0.17633970399E+03 -0.46804653500E+02  0.25235430893E+03  0.46999998093E+01 0.  1.
       -5    1    3    3    0  502 -0.17428207149E+03 -0.17633970399E+03 -0.36865619826E+02  0.25070120776E+03  0.46999998093E+01 0. -1.
</event>
<event>
 5   0  0.4451135E-02  0.4989606E+03  0.7818609E-02  0.1014051E+00
       -2   -1    0    0    0  501  0.00000000000E+00  0.00000000000E+00  0.95548267444E+02  0.95548267478E+02  0.25500000920E-02 0. -1.
        2   -1    0    0  501    0  0.00000000000E+00  0.00000000000E+00 -0.65140281640E+03  0.65140281641E+03  0.25500000920E-02 0.  1.
    10030    2    1    2    0    0  0.00000000000E+00  0.00000000000E+00 -0.55585454896E+03  0.74695108389E+03  0.49896056169E+03 0.  0.
        1    1    3    3  502    0 -0.15958084500E+03  0.19126553691E+03 -0.25719166481E+03  0.35804483542E+03  0.50400001928E-02 0. -1.
       -1    1    3    3    0  502  0.15958084500E+03 -0.19126553691E+03 -0.29866288415E+03  0.38890624846E+03  0.50400001928E-02 0.  1.
</event>
<event>
 5   0  0.2723308E-02  0.5022374E+03  0.7818609E-02  0.1013197E+00
       -1   -1    0    0    0  501  0.00000000000E+00  0.00000000000E+00  0.68468832236E+02  0.68468832422E+02  0.50400001928E-02 0.  1.
        1   -1    0    0  501    0  0.00000000000E+00  0.00000000000E+00 -0.92101166764E+03  0.92101166766E+03  0.50400001928E-02 0. -1.
    10030    2    1    2    0    0  0.00000000000E+00  0.00000000000E+00 -0.85254283541E+03  0.98948050008E+03  0.50223736802E+03 0.  0.
        4    1    3    3  502    0  0.15025159235E+03 -0.18958139281E+03 -0.55905298797E+03  0.60914571472E+03  0.12699999809E+01 0. -1.
       -4    1    3    3    0  502 -0.15025159235E+03  0.18958139281E+03 -0.29348984744E+03  0.38033478536E+03  0.12699999809E+01 0.  1.
</event>
<event>
 5   0  0.2779445E-02  0.5011029E+03  0.7818609E-02  0.1013491E+00
        1   -1    0    0  501    0  0.00000000000E+00  0.00000000000E+00  0.28244417417E+03  0.28244417422E+03  0.50400001928E-02 0.  1.
       -1   -1    0    0    0  501  0.00000000000E+00  0.00000000000E+00 -0.22225995749E+03  0.22225995755E+03  0.50400001928E-02 0. -1.
    10030    2    1    2    0    0  0.00000000000E+00  0.00000000000E+00  0.60184216683E+02  0.50470413176E+03  0.50110290428E+03 0.  0.
        3    1    3    3  502    0  0.11948246132E+03 -0.12934630425E+03 -0.14942882433E+03  0.23094481749E+03  0.10100000352E+00 0. -1.
       -3    1    3    3    0  502 -0.11948246132E+03  0.12934630425E+03  0.20961304101E+03  0.27375931427E+03  0.10100000352E+00 0.  1.
</event>
<event>
 5   0  0.4631619E-02  0.4999829E+03  0.7818609E-02  0.1013783E+00
        2   -1    0    0  501    0  0.00000000000E+00  0.00000000000E+00  0.11539742794E+04  0.11539742794E+04  0.25500000920E-02 0. -1.
       -2   -1    0    0    0  501  0.00000000000E+00  0.00000000000E+00 -0.54156956259E+02  0.54156956319E+02  0.25500000920E-02 0.  1.
    10030    2    1    2    0    0  0.00000000000E+00  0.00000000000E+00  0.10998173232E+04  0.12081312358E+04  0.49998293816E+03 0.  0.
        5    1    3    3  502    0  0.18071412784E+03 -0.34418508894E+02  0.14104328670E+03  0.23185669816E+03  0.46999998093E+01 0. -1.
       -5    1    3    3    0  502 -0.18071412784E+03  0.34418508894E+02  0.95877403648E+03  0.97627453761E+03  0.46999998093E+01 0.  1.
</event>
<event>
 5   0  0.2779445E-02  0.4996344E+03  0.7818609E-02  0.1013874E+00
       -1   -1    0    0    0  501  0.00000000000E+00  0.00000000000E+00  0.21299125638E+03  0.21299125644E+03  0.50400001928E-02 0.  1.
        1   -1    0    0  501    0  0.00000000000E+00  0.00000000000E+00 -0.29301028288E+03  0.29301028293E+03  0.50400001928E-02 0. -1.
    10030    2    1    2    0    0  0.00000000000E+00  0.00000000000E+00 -0.80019026503E+02  0.50600153937E+03  0.49963437956E+03 0.  0.
        3    1    3    3  502    0  0.11473066202E+03 -0.99992417043E+02  0.16062369177E+03  0.22127265722E+03  0.10100000352E+00 0.  1.
       -3    1    3    3    0  502 -0.11473066202E+03  0.99992417043E+02 -0.24064271827E+03  0.28472888215E+03  0.10100000352E+00 0. -1.
</event>
<event>
 5   0  0.2643185E-02  0.4854598E+03  0.7818609E-02  0.1017645E+00
        1   -1    0    0  501    0  0.00000000000E+00  0.00000000000E+00  0.33003428955E+03  0.33003428959E+03  0.50400001928E-02 0.  1.
       -1   -1    0    0    0  501  0.00000000000E+00  0.00000000000E+00 -0.17852026671E+03  0.17852026678E+03  0.50400001928E-02 0. -1.
    10030    2    1    2    0    0  0.00000000000E+00  0.00000000000E+00  0.15151402285E+03  0.50855455637E+03  0.48545982088E+03 0.  0.
        1    1    3    3  502    0 -0.43172155185E+02  0.11651227864E+03 -0.14267855311E+03  0.18919861416E+03  0.50400001928E-02 0. -1.
       -1    1    3    3    0  502  0.43172155185E+02 -0.11651227864E+03  0.29419257595E+03  0.31935594221E+03  0.50400001928E-02 0.  1.
</event>
<event>
 5   0  0.4519539E-02  0.5005236E+03  0.7818609E-02  0.1013642E+00
        2   -1    0    0  501    0  0.00000000000E+00  0.00000000000E+00  0.32519394323E+03  0.32519394324E+03  0.25500000920E-02 0.  1.
       -2   -1    0    0    0  501  0.00000000000E+00  0.00000000000E+00 -0.19259576147E+03  0.19259576149E+03  0.25500000920E-02 0. -1.
    10030    2    1    2    0    0  0.00000000000E+00  0.00000000000E+00  0.13259818176E+03  0.51778970474E+03  0.50052362634E+03 0.  0.
        4    1    3    3  502    0  0.60752540993E+02 -0.24162214387E+03  0.41879054789E+02  0.25264124718E+03  0.12699999809E+01 0. -1.
       -4    1    3    3    0  502 -0.60752540993E+02  0.24162214387E+03  0.90719126971E+02  0.26514845756E+03  0.12699999809E+01 0.  1.
</event>
<event>
 5   0  0.4534223E-02  0.4994579E+03  0.7818609E-02  0.1013921E+00
       -2   -1    0    0    0  501  0.00000000000E+00  0.00000000000E+00  0.45124374980E+02  0.45124375052E+02  0.25500000920E-02 0. -1.
        2   -1    0    0  501    0  0.00000000000E+00  0.00000000000E+00 -0.13820587802E+04  0.13820587802E+04  0.25500000920E-02 0.  1.
    10030    2    1    2    0    0  0.00000000000E+00  0.00000000000E+00 -0.13369344053E+04  0.14271831553E+04  0.49945786087E+03 0.  0.
        2    1    3    3  502    0  0.16138957080E+03 -0.18972584788E+03 -0.71974637527E+03  0.76162808223E+03  0.25500000920E-02 0. -1.
       -2    1    3    3    0  502 -0.16138957080E+03  0.18972584788E+03 -0.61718802998E+03  0.66555507306E+03  0.25500000920E-02 0.  1.
</event>
<event>
 5   0  0.2719671E-02  0.5008758E+03  0.7818609E-02  0.1013551E+00
       -1   -1    0    0    0  501  0.00000000000E+00  0.00000000000E+00  0.19091768373E+03  0.19091768379E+03  0.50400001928E-02 0. -1.
        1   -1    0    0  501    0  0.00000000000E+00  0.00000000000E+00 -0.32851408249E+03  0.32851408253E+03  0.50400001928E-02 0.  1.
    10030    2    1    2    0    0  0.00000000000E+00  0.00000000000E+00 -0.13759639877E+03  0.51943176632E+03  0.50087582384E+03 0.  0.
        2    1    3    3  502    0  0.11569718980E+03  0.10829618942E+03 -0.26990309255E+03  0.31298815272E+03  0.25500000920E-02 0.  1.
       -2    1    3    3    0  502 -0.11569718980E+03 -0.10829618942E+03  0.13230669378E+03  0.20644361360E+03  0.25500000920E-02 0. -1.
</event>
<event>
 5   0  0.4534223E-02  0.4997713E+03  0.7818609E-02  0.1013839E+00
       -2   -1    0    0    0  501  0.00000000000E+00  0.00000000000E+00  0.10131534116E+03  0.10131534119E+03  0.25500000920E-02 0. -1.
        2   -1    0    0  501    0  0.00000000000E+00  0.00000000000E+00 -0.61632172177E+03  0.61632172178E+03  0.25500000920E-02 0.  1.
    10030    2    1    2    0    0  0.00000000000E+00  0.00000000000E+00 -0.51500638061E+03  0.71763706297E+03  0.49977132978E+03 0.  0.
        2    1    3    3  502    0 -0.11146680502E+03 -0.35514018754E+02 -0.57457008716E+03  0.58635900199E+03  0.25500000920E-02 0.  1.
       -2    1    3    3    0  502  0.11146680502E+03  0.35514018754E+02  0.59563706546E+02  0.13127806098E+03  0.25500000920E-02 0. -1.
</event>
<event>
 5   0  0.2719671E-02  0.4983584E+03  0.7818609E-02  0.1014208E+00
        1   -1    0    0  501    0  0.00000000000E+00  0.00000000000E+00  0.12661324479E+04  0.12661324479E+04  0.50400001928E-02 0.  1.
       -1   -1    0    0    0  501  0.00000000000E+00  0.00000000000E+00 -0.49039313819E+02  0.49039314078E+02  0.50400001928E-02 0. -1.
    10030    2    1    2    0    0  0.00000000000E+00  0.00000000000E+00  0.12170931341E+04  0.13151717620E+04  0.49835837156E+03 0.  0.
        2    1    3    3  502    0 -0.11760890570E+03 -0.11800018934E+03  0.10975424937E+04  0.11101150503E+04  0.25500000920E-02 0.  1.
       -2    1    3    3    0  502  0.11760890570E+03  0.11800018934E+03  0.11955064034E+03  0.20505671166E+03  0.25500000920E-02 0. -1.
</event>
<event>
 5   0  0.2715483E-02  0.5038649E+03  0.7818609E-02  0.1012775E+00
        1   -1    0    0  501    0  0.00000000000E+00  0.00000000000E+00  0.68506032665E+03  0.68506032667E+03  0.50400001928E-02 0. -1.
       -1   -1    0    0    0  501  0.00000000000E+00  0.00000000000E+00 -0.92648697329E+02  0.92648697466E+02  0.50400001928E-02 0.  1.
    10030    2    1    2    0    0  0.00000000000E+00  0.00000000000E+00  0.59241162932E+03  0.77770902414E+03  0.50386485060E+03 0.  0.
        5    1    3    3  502    0 -0.16257269137E+03 -0.87485320710E+02  0.31713614821E+02  0.18738037433E+03  0.46999998093E+01 0.  1.
       -5    1    3    3    0  502  0.16257269137E+03  0.87485320710E+02  0.56069801450E+03  0.59032864981E+03  0.46999998093E+01 0. -1.
</event>
<event>
 5   0  0.2643185E-02  0.5014460E+03  0.7818609E-02  0.1013402E+00
       -1   -1    0    0    0  501  0.00000000000E+00  0.00000000000E+00  0.28797404449E+03  0.28797404453E+03  0.50400001928E-02 0.  1.
        1   -1    0    0  501    0  0.00000000000E+00  0.00000000000E+00 -0.21829054670E+03  0.21829054676E+03  0.50400001928E-02 0. -1.
    10030    2    1    2    0    0  0.00000000000E+00  0.00000000000E+00  0.69683497783E+02  0.50626459129E+03  0.50144595574E+03 0.  0.
        1    1    3    3  502    0  0.20932072115E+03 -0.12193758513E+03  0.10010089900E+03  0.26211472483E+03  0.50400001928E-02 0.  1.
       -1    1    3    3    0  502 -0.20932072115E+03  0.12193758513E+03 -0.30417401217E+02  0.24414986646E+03  0.50400001928E-02 0. -1.
</event>
<event>
 5   0  0.4534223E-02  0.5002418E+03  0.7818609E-02  0.1013716E+00
       -2   -1    0    0    0  501  0.00000000000E+00  0.00000000000E+00  0.11589345321E+03  0.11589345323E+03  0.25500000920E-02 0.  1.
        2   -1    0    0  501    0  0.00000000000E+00  0.00000000000E+00 -0.53981012513E+03  0.53981012514E+03  0.25500000920E-02 0. -1.
    10030    2    1    2    0    0  0.00000000000E+00  0.00000000000E+00 -0.42391667193E+03  0.65570357837E+03  0.50024177949E+03 0.  0.
        2    1    3    3  502    0 -0.13576481311E+03  0.19126700232E+03 -0.98099666824E+02  0.25424141144E+03  0.25500000920E-02 0.  1.
       -2    1    3    3    0  502  0.13576481311E+03 -0.19126700232E+03 -0.32581700510E+03  0.40146216693E+03  0.25500000920E-02 0. -1.
</event>
<event>
 5   0  0.4519539E-02  0.5083738E+03  0.7818609E-02  0.1011616E+00
       -2   -1    0    0    0  501  0.00000000000E+00  0.00000000000E+00  0.55181684744E+02  0.55181684803E+02  0.25500000920E-02 0. -1.
        2   -1    0    0  501    0  0.00000000000E+00  0.00000000000E+00 -0.11708773420E+04  0.11708773420E+04  0.25500000920E-02 0.  1.
    10030    2    1    2    0    0  0.00000000000E+00  0.00000000000E+00 -0.11156956573E+04  0.12260590268E+04  0.50837381679E+03 0.  0.
        4    1    3    3  502    0 -0.94233273630E+02  0.54749845512E+02 -0.40324891794E+01  0.10906571098E+03  0.12699999809E+01 0. -1.
       -4    1    3    3    0  502  0.94233273630E+02 -0.54749845512E+02 -0.11116631681E+04  0.11169933159E+04  0.12699999809E+01 0.  1.
</event>
<event>
 5   0  0.4451135E-02  0.4985028E+03  0.7818609E-02  0.1014170E+00
        2   -1    0    0  501    0  0.00000000000E+00  0.00000000000E+00  0.71954794942E+03  0.71954794942E+03  0.25500000920E-02 0.  1.
       -2   -1    0    0    0  501  0.00000000000E+00  0.00000000000E+00 -0.86340680083E+02  0.86340680121E+02  0.25500000920E-02 0. -1.
    10030    2    1    2    0    0  0.00000000000E+00  0.00000000000E+00  0.63320726934E+03  0.80588862954E+03  0.49850279567E+03 0.  0.
        1    1    3    3  502    0  0.13398633950E+02  0.76115534912E+02 -0.66480825693E+02  0.10194507471E+03  0.50400001928E-02 0. -1.
       -1    1    3    3    0  502 -0.13398633950E+02 -0.76115534912E+02  0.69968809503E+03  0.70394355484E+03  0.50400001928E-02 0.  1.
</event>
<event>
 5   0  0.4451135E-02  0.4972373E+03  0.7818609E-02  0.1014503E+00
       -2   -1    0    0    0  501  0.00000000000E+00  0.00000000000E+00  0.46974993425E+03  0.46974993425E+03  0.25500000920E-02 0.  1.
        2   -1    0    0  501    0  0.00000000000E+00  0.00000000000E+00 -0.13158325282E+03  0.13158325285E+03  0.25500000920E-02 0. -1.
    10030    2    1    2    0    0  0.00000000000E+00  0.00000000000E+00  0.33816668142E+03  0.60133318710E+03  0.49723726478E+03 0.  0.
        1    1    3    3  502    0  0.20663422640E+03  0.11722607215E+03  0.25771769330E+03  0.35051114815E+03  0.50400001928E-02 0. -1.
       -1    1    3    3    0  502 -0.20663422640E+03 -0.11722607215E+03  0.80448988124E+02  0.25082203895E+03  0.50400001928E-02 0.  1.
</event>
<event>
 5   0  0.1805500E-02  0.4953880E+03  0.7818609E-02  0.1014990E+00
       -4   -1    0    0    0  501  0.00000000000E+00  0.00000000000E+00  0.19174058635E+03  0.19174479224E+03  0.12699999809E+01 0.  1.
        4   -1    0    0  501    0  0.00000000000E+00  0.00000000000E+00 -0.31996669022E+03  0.31996921063E+03  0.12699999809E+01 0. -1.
    10030    2    1    2    0    0  0.00000000000E+00  0.00000000000E+00 -0.12822610387E+03  0.51171400287E+03  0.49538801663E+03 0.  0.
        5    1    3    3  502    0  0.70053911708E+02 -0.95301515175E+02  0.16063571545E+03  0.19953909997E+03  0.46999998093E+01 0.  1.
       -5    1    3    3    0  502 -0.70053911708E+02  0.95301515175E+02 -0.28886181933E+03  0.31217490290E+03  0.46999998093E+01 0. -1.
</event>
<event>
 5   0  0.1805500E-02  0.5079710E+03  0.7818609E-02  0.1011719E+00
        4   -1    0    0  501    0  0.00000000000E+00  0.00000000000E+00  0.53011564642E+03  0.53011716769E+03  0.12699999809E+01 0.  1.
       -4   -1    0    0    0  501  0.00000000000E+00  0.00000000000E+00 -0.12168284528E+03  0.12168947258E+03  0.12699999809E+01 0. -1.
    10030    2    1    2    0    0  0.00000000000E+00  0.00000000000E+00  0.40843280113E+03  0.65180664027E+03  0.50797100631E+03 0.  0.
        4    1    3    3  502    0 -0.22717382558E+03 -0.10314122366E+03  0.14320279825E+03  0.28767118968E+03  0.12699999809E+01 0. -1.
       -4    1    3    3    0  502  0.22717382558E+03  0.10314122366E+03  0.26523000288E+03  0.36413545059E+03  0.12699999809E+01 0.  1.
</event>
<event>
 5   0  0.4451135E-02  0.5011789E+03  0.7818609E-02  0.1013472E+00
        2   -1    0    0  501    0  0.00000000000E+00  0.00000000000E+00  0.93923414204E+03  0.93923414204E+03  0.25500000920E-02 0.  1.
       -2   -1    0    0    0  501  0.00000000000E+00  0.00000000000E+00 -0.66857742320E+02  0.66857742369E+02  0.25500000920E-02 0. -1.
    10030    2    1    2    0    0  0.00000000000E+00  0.00000000000E+00  0.87237639972E+03  0.10060918844E+04  0.50117890727E+03 0.  0.
        1    1    3    3  502    0 -0.13230882202E+03 -0.15450235421E+03  0.72997961930E+03  0.75779076694E+03  0.50400001928E-02 0.  1.
       -1    1    3    3    0  502  0.13230882202E+03  0.15450235421E+03  0.14239678042E+03  0.24830111748E+03  0.50400001928E-02 0. -1.
</event>
<event>
 5   0  0.4631619E-02  0.4987787E+03  0.7818609E-02  0.1014098E+00
       -2   -1    0    0    0  501  0.00000000000E+00  0.00000000000E+00  0.63615874372E+03  0.63615874373E+03  0.25500000920E-02 0. -1.
        2   -1    0    0  501    0  0.00000000000E+00  0.00000000000E+00 -0.97766564488E+02  0.97766564521E+02  0.25500000920E-02 0.  1.
    10030    2    1    2    0    0  0.00000000000E+00  0.00000000000E+00  0.53839217924E+03  0.73392530825E+03  0.49877872792E+03 0.  0.
        5    1    3    3  502    0  0.40780066667E+00 -0.23032386620E+03  0.12864642904E+03  0.26385837744E+03  0.46999998093E+01 0.  1.
       -5    1    3    3    0  502 -0.40780066667E+00  0.23032386620E+03  0.40974575019E+03  0.47006693081E+03  0.46999998093E+01 0. -1.
</event>
<event>
 5   0  0.4519539E-02  0.4990742E+03  0.7818609E-02  0.1014021E+00
        2   -1    0    0  501    0  0.00000000000E+00  0.00000000000E+00  0.41681892406E+03  0.41681892406E+03  0.25500000920E-02 0.  1.
       -2   -1    0    0    0  501  0.00000000000E+00  0.00000000000E+00 -0.14939044331E+03  0.14939044333E+03  0.25500000920E-02 0. -1.
    10030    2    1    2    0    0  0.00000000000E+00  0.00000000000E+00  0.26742848075E+03  0.56620936739E+03  0.49907419830E+03 0.  0.
        4    1    3    3  502    0 -0.27492053644E+02  0.67981483983E+02 -0.13688672938E+03  0.15529611959E+03  0.12699999809E+01 0. -1.
       -4    1    3    3    0  502  0.27492053644E+02 -0.67981483983E+02  0.40431521013E+03  0.41091324781E+03  0.12699999809E+01 0.  1.
</event>
<event>
 5   0  0.2643185E-02  0.5002031E+03  0.7818609E-02  0.1013726E+00
        1   -1    0    0  501    0  0.00000000000E+00  0.00000000000E+00  0.57321905198E+03  0.57321905200E+03  0.50400001928E-02 0.  1.
       -1   -1    0    0    0  501  0.00000000000E+00  0.00000000000E+00 -0.10912195476E+03  0.10912195488E+03  0.50400001928E-02 0. -1.
    10030    2    1    2    0    0  0.00000000000E+00  0.00000000000E+00  0.46409709722E+03  0.68234100688E+03  0.50020309278E+03 0.  0.
        1    1    3    3  502    0  0.37902314813E+01  0.92169031711E+02  0.54916439312E+03  0.55685817491E+03  0.50400001928E-02 0.  1.
       -1    1    3    3    0  502 -0.37902314813E+01 -0.92169031711E+02 -0.85067295909E+02  0.12548283197E+03  0.50400001928E-02 0. -1.
</event>
<event>
 5   0  0.4409622E-02  0.5013111E+03  0.7818609E-02  0.1013437E+00
       -2   -1    0    0    0  501  0.00000000000E+00  0.00000000000E+00  0.37672916030E+02  0.37672916117E+02  0.25500000920E-02 0. -1.
        2   -1    0    0  501    0  0.00000000000E+00  0.00000000000E+00 -0.16677289650E+04  0.16677289650E+04  0.25500000920E-02 0.  1.
    10030    2    1    2    0    0  0.00000000000E+00  0.00000000000E+00 -0.16300560490E+04  0.17054018811E+04  0.50131113427E+03 0.  0.
        3    1    3    3  502    0 -0.14701142572E+03  0.10637146672E+03 -0.22677805110E+03  0.29044025700E+03  0.10100000352E+00 0. -1.
       -3    1    3    3    0  502  0.14701142572E+03 -0.10637146672E+03 -0.14032779979E+04  0.14149616241E+04  0.10100000352E+00 0.  1.
</event>
<event>
 5   0  0.4451135E-02  0.5002677E+03  0.7818609E-02  0.1013709E+00
       -2   -1    0    0    0  501  0.00000000000E+00  0.00000000000E+00  0.70770308556E+02  0.70770308602E+02  0.25500000920E-02 0. -1.
        2   -1    0    0  501    0  0.00000000000E+00  0.00000000000E+00 -0.88408480666E+03  0.88408480666E+03  0.25500000920E-02 0.  1.
    10030    2    1    2    0    0  0.00000000000E+00  0.00000000000E+00 -0.81331449810E+03  0.95485511527E+03  0.50026774664E+03 0.  0.
        1    1    3    3  502    0 -0.16511811593E+03  0.10628892947E+03 -0.11092989925E+03  0.22553662964E+03  0.50400001928E-02 0. -1.
       -1    1    3    3    0  502  0.16511811593E+03 -0.10628892947E+03 -0.70238459886E+03  0.72931848562E+03  0.50400001928E-02 0.  1.
</event>
<event>
 5   0  0.2723308E-02  0.5006686E+03  0.7818609E-02  0.1013605E+00
       -1   -1    0    0    0  501  0.00000000000E+00  0.00000000000E+00  0.21529223352E+03  0.21529223358E+03  0.50400001928E-02 0. -1.
        1   -1    0    0  501    0  0.00000000000E+00  0.00000000000E+00 -0.29108004662E+03  0.29108004666E+03  0.50400001928E-02 0.  1.
    10030    2    1    2    0    0  0.00000000000E+00  0.00000000000E+00 -0.75787813099E+02  0.50637228024E+03  0.50066864650E+03 0.  0.
        4    1    3    3  502    0 -0.12304651374E+03  0.68889264270E+02  0.17129435242E+03  0.22187731598E+03  0.12699999809E+01 0. -1.
       -4    1    3    3    0  502  0.12304651374E+03 -0.68889264270E+02 -0.24708216552E+03  0.28449496427E+03  0.12699999809E+01 0.  1.
</event>
<event>
 5   0  0.4409622E-02  0.5003254E+03  0.7818609E-02  0.1013694E+00
       -2   -1    0    0    0  501  0.00000000000E+00  0.00000000000E+00  0.13783829244E+03  0.13783829247E+03  0.25500000920E-02 0. -1.
        2   -1    0    0  501    0  0.00000000000E+00  0.00000000000E+00 -0.45402026565E+03  0.45402026565E+03  0.25500000920E-02 0.  1.
    10030    2    1    2    0    0  0.00000000000E+00  0.00000000000E+00 -0.31618197321E+03  0.59185855812E+03  0.50032540675E+03 0.  0.
        3    1    3    3  502    0  0.91993612747E+02  0.20360583660E+03 -0.24972853371E+02  0.22481506865E+03  0.10100000352E+00 0. -1.
       -3    1    3    3    0  502 -0.91993612747E+02 -0.20360583660E+03 -0.29120911983E+03  0.36704348947E+03  0.10100000352E+00 0.  1.
</event>
<event>
 5   0  0.4451135E-02  0.4954871E+03  0.7818609E-02  0.1014964E+00
        2   -1    0    0  501    0  0.00000000000E+00  0.00000000000E+00  0.97648966210E+03  0.97648966210E+03  0.25500000920E-02 0. -1.
       -2   -1    0    0    0  501  0.00000000000E+00  0.00000000000E+00 -0.62854609435E+02  0.62854609487E+02  0.25500000920E-02 0.  1.
    10030    2    1    2    0    0  0.00000000000E+00  0.00000000000E+00  0.91363505266E+03  0.10393442716E+04  0.49548713952E+03 0.  0.
        1    1    3    3  502    0 -0.26035191011E+02  0.86077400976E+02  0.94104428421E+03  0.94533142072E+03  0.50400001928E-02 0. -1.
       -1    1    3    3    0  502  0.26035191011E+02 -0.86077400976E+02 -0.27409231544E+02  0.94012850872E+02  0.50400001928E-02 0.  1.
</event>
<event>
 5   0  0.2719671E-02  0.5004558E+03  0.7818609E-02  0.1013660E+00
        1   -1    0    0  501    0  0.00000000000E+00  0.00000000000E+00  0.58109490987E+03  0.58109490990E+03  0.50400001928E-02 0.  1.
       -1   -1    0    0    0  501  0.00000000000E+00  0.00000000000E+00 -0.10775178227E+03  0.10775178238E+03  0.50400001928E-02 0. -1.
    10030    2    1    2    0    0  0.00000000000E+00  0.00000000000E+00  0.47334312761E+03  0.68884669228E+03  0.50045584122E+03 0.  0.
        2    1    3    3  502    0 -0.17193616539E+02  0.21927556344E+03  0.40090449614E+03  0.45727651176E+03  0.25500000920E-02 0.  1.
       -2    1    3    3    0  502  0.17193616539E+02 -0.21927556344E+03  0.72438631467E+02  0.23157018052E+03  0.25500000920E-02 0. -1.
</event>
<event>
 5   0  0.4631619E-02  0.5014213E+03  0.7818609E-02  0.1013409E+00
        2   -1    0    0  501    0  0.00000000000E+00  0.00000000000E+00  0.17644199064E+04  0.17644199064E+04  0.25500000920E-02 0. -1.
       -2   -1    0    0    0  501  0.00000000000E+00  0.00000000000E+00 -0.35624071914E+02  0.35624072006E+02  0.25500000920E-02 0.  1.
    10030    2    1    2    0    0  0.00000000000E+00  0.00000000000E+00  0.17287958345E+04  0.18000439784E+04  0.50142126687E+03 0.  0.
        5    1    3    3  502    0  0.43569487583E+02  0.18459677637E+03  0.27605704812E+03  0.33496843718E+03  0.46999998093E+01 0.  1.
       -5    1    3    3    0  502 -0.43569487583E+02 -0.18459677637E+03  0.14527387864E+04  0.14650755412E+04  0.46999998093E+01 0. -1.
</event>
<event>
 5   0  0.2643185E-02  0.4991803E+03  0.7818609E-02  0.1013993E+00
        1   -1    0    0  501    0  0.00000000000E+00  0.00000000000E+00  0.15978676623E+04  0.15978676623E+04  0.50400001928E-02 0.  1.
       -1   -1    0    0    0  501  0.00000000000E+00  0.00000000000E+00 -0.38986490852E+02  0.38986491177E+02  0.50400001928E-02 0. -1.
    10030    2    1    2    0    0  0.00000000000E+00  0.00000000000E+00  0.15588811715E+04  0.16368541535E+04  0.49918034125E+03 0.  0.
        1    1    3    3  502    0  0.17814807660E+03  0.85153557397E+02  0.12800503446E+04  0.12951898511E+04  0.50400001928E-02 0.  1.
       -1    1    3    3    0  502 -0.17814807660E+03 -0.85153557397E+02  0.27883082687E+03  0.34166430245E+03  0.50400001928E-02 0. -1.
</event>
<event>
 5   0  0.4451135E-02  0.4997099E+03  0.7818609E-02  0.1013855E+00
       -2   -1    0    0    0  501  0.00000000000E+00  0.00000000000E+00  0.74938516740E+02  0.74938516783E+02  0.25500000920E-02 0. -1.
        2   -1    0    0  501    0  0.00000000000E+00  0.00000000000E+00 -0.83304944401E+03  0.83304944402E+03  0.25500000920E-02 0.  1.
    10030    2    1    2    0    0  0.00000000000E+00  0.00000000000E+00 -0.75811092727E+03  0.90798796080E+03  0.49970987473E+03 0.  0.
        1    1    3    3  502    0 -0.17880550245E+03  0.17234958315E+03 -0.32923757092E+03  0.41239927819E+03  0.50400001928E-02 0.  1.
       -1    1    3    3    0  502  0.17880550245E+03 -0.17234958315E+03 -0.42887335635E+03  0.49558868261E+03  0.50400001928E-02 0. -1.
</event>
<event>
 5   0  0.4534223E-02  0.4977471E+03  0.7818609E-02  0.1014369E+00
       -2   -1    0    0    0  501  0.00000000000E+00  0.00000000000E+00  0.22042959751E+03  0.22042959753E+03  0.25500000920E-02 0. -1.
        2   -1    0    0  501    0  0.00000000000E+00  0.00000000000E+00 -0.28098782411E+03  0.28098782412E+03  0.25500000920E-02 0.  1.
    10030    2    1    2    0    0  0.00000000000E+00  0.00000000000E+00 -0.60558226600E+02  0.50141742165E+03  0.49774705617E+03 0.  0.
        2    1    3    3  502    0  0.15907585487E+03 -0.17857435910E+03 -0.99664466509E+02  0.25908866286E+03  0.25500000920E-02 0.  1.
       -2    1    3    3    0  502 -0.15907585487E+03  0.17857435910E+03  0.39106239909E+02  0.24232875879E+03  0.25500000920E-02 0. -1.
</event>
<event>
 5   0  0.2715483E-02  0.5003856E+03  0.7818609E-02  0.1013678E+00
        1   -1    0    0  501    0  0.00000000000E+00  0.00000000000E+00  0.18733923092E+03  0.18733923099E+03  0.50400001928E-02 0.  1.
       -1   -1    0    0    0  501  0.00000000000E+00  0.00000000000E+00 -0.33413421950E+03  0.33413421954E+03  0.50400001928E-02 0. -1.
    10030    2    1    2    0    0  0.00000000000E+00  0.00000000000E+00 -0.14679498858E+03  0.52147345053E+03  0.50038564221E+03 0.  0.
        5    1    3    3  502    0 -0.19655998496E+03 -0.68846110115E+02 -0.21779635343E+03  0.30138506289E+03  0.46999998093E+01 0. -1.
       -5    1    3    3    0  502  0.19655998496E+03  0.68846110115E+02  0.71001364856E+02  0.22008838764E+03  0.46999998093E+01 0.  1.
</event>
<event>
 5   0  0.2779445E-02  0.4990724E+03  0.7818609E-02  0.1014021E+00
       -1   -1    0    0    0  501  0.00000000000E+00  0.00000000000E+00  0.10088898477E+03  0.10088898490E+03  0.50400001928E-02 0.  1.
        1   -1    0    0  501    0  0.00000000000E+00  0.00000000000E+00 -0.61719624589E+03  0.61719624591E+03  0.50400001928E-02 0. -1.
    10030    2    1    2    0    0  0.00000000000E+00  0.00000000000E+00 -0.51630726111E+03  0.71808523081E+03  0.49907235029E+03 0.  0.
        3    1    3    3  502    0 -0.20888768045E+03  0.51732757077E+02 -0.76392484425E+02  0.22835534388E+03  0.10100000352E+00 0.  1.
       -3    1    3    3    0  502  0.20888768045E+03 -0.51732757077E+02 -0.43991477669E+03  0.48972988693E+03  0.10100000352E+00 0. -1.
</event>
<event>
 5   0  0.4409622E-02  0.5007894E+03  0.7818609E-02  0.1013573E+00
       -2   -1    0    0    0  501  0.00000000000E+00  0.00000000000E+00  0.13403675471E+03  0.13403675474E+03  0.25500000920E-02 0. -1.
        2   -1    0    0  501    0  0.00000000000E+00  0.00000000000E+00 -0.46776347724E+03  0.46776347725E+03  0.25500000920E-02 0.  1.
    10030    2    1    2    0    0  0.00000000000E+00  0.00000000000E+00 -0.33372672253E+03  0.60180023199E+03  0.50078937078E+03 0.  0.
        3    1    3    3  502    0 -0.56024052352E+02 -0.25809008243E+02 -0.45849050231E+03  0.46262117360E+03  0.10100000352E+00 0.  1.
       -3    1    3    3    0  502  0.56024052352E+02  0.25809008243E+02  0.12476377978E+03  0.13917905839E+03  0.10100000352E+00 0. -1.
</event>
<event>
 5   0  0.4631619E-02  0.5019824E+03  0.7818609E-02  0.1013263E+00
        2   -1    0    0  501    0  0.00000000000E+00  0.00000000000E+00  0.46455868585E+03  0.46455868586E+03  0.25500000920E-02 0.  1.
       -2   -1    0    0    0  501  0.00000000000E+00  0.00000000000E+00 -0.13560521581E+03  0.13560521583E+03  0.25500000920E-02 0. -1.
    10030    2    1    2    0    0  0.00000000000E+00  0.00000000000E+00  0.32895347004E+03  0.60016390169E+03  0.50198239355E+03 0.  0.
        5    1    3    3  502    0 -0.22580943851E+02  0.18593853625E+03  0.36414863546E+03  0.40952332900E+03  0.46999998093E+01 0.  1.
       -5    1    3    3    0  502  0.22580943851E+02 -0.18593853625E+03 -0.35195165413E+02  0.19064057269E+03  0.46999998093E+01 0. -1.
</event>
<event>
 5   0  0.2715483E-02  0.4938010E+03  0.7818609E-02  0.1015410E+00
        1   -1    0    0  501    0  0.00000000000E+00  0.00000000000E+00  0.43450259203E+03  0.43450259206E+03  0.50400001928E-02 0. -1.
       -1   -1    0    0    0  501  0.00000000000E+00  0.00000000000E+00 -0.14029803660E+03  0.14029803669E+03  0.50400001928E-02 0.  1.
    10030    2    1    2    0    0  0.00000000000E+00  0.00000000000E+00  0.29420455544E+03  0.57480062875E+03  0.49380101495E+03 0.  0.
        5    1    3    3  502    0 -0.12867485627E+02  0.22161314907E+03  0.21409303293E+02  0.22306592813E+03  0.46999998093E+01 0.  1.
       -5    1    3    3    0  502  0.12867485627E+02 -0.22161314907E+03  0.27279525214E+03  0.35173470062E+03  0.46999998093E+01 0. -1.
</event>
<event>
 5   0  0.4451135E-02  0.5013600E+03  0.7818609E-02  0.1013425E+00
       -2   -1    0    0    0  501  0.00000000000E+00  0.00000000000E+00  0.18207008074E+03  0.18207008076E+03  0.25500000920E-02 0. -1.
        2   -1    0    0  501    0  0.00000000000E+00  0.00000000000E+00 -0.34514431808E+03  0.34514431809E+03  0.25500000920E-02 0.  1.
    10030    2    1    2    0    0  0.00000000000E+00  0.00000000000E+00 -0.16307423734E+03  0.52721439885E+03  0.50135996596E+03 0.  0.
        1    1    3    3  502    0  0.15717634100E+03 -0.19104223594E+03 -0.38965915339E+02  0.25043937523E+03  0.50400001928E-02 0. -1.
       -1    1    3    3    0  502 -0.15717634100E+03  0.19104223594E+03 -0.12410832200E+03  0.27677502362E+03  0.50400001928E-02 0.  1.
</event>
<event>
 5   0  0.2723308E-02  0.4961045E+03  0.7818609E-02  0.1014801E+00
       -1   -1    0    0    0  501  0.00000000000E+00  0.00000000000E+00  0.72930449283E+02  0.72930449458E+02  0.50400001928E-02 0. -1.
        1   -1    0    0  501    0  0.00000000000E+00  0.00000000000E+00 -0.84367935089E+03  0.84367935091E+03  0.50400001928E-02 0.  1.
    10030    2    1    2    0    0  0.00000000000E+00  0.00000000000E+00 -0.77074890161E+03  0.91660980037E+03  0.49610448173E+03 0.  0.
        4    1    3    3  502    0 -0.42596732105E+02 -0.87753599399E+02 -0.80674853515E+03  0.81262536735E+03  0.12699999809E+01 0.  1.
       -4    1    3    3    0  502  0.42596732105E+02  0.87753599399E+02  0.35999633544E+02  0.10398443301E+03  0.12699999809E+01 0. -1.
</event>
<event>
 5   0  0.4409622E-02  0.5002835E+03  0.7818609E-02  0.1013705E+00
       -2   -1    0    0    0  501  0.00000000000E+00  0.00000000000E+00  0.14765531051E+03  0.14765531054E+03  0.25500000920E-02 0. -1.
        2   -1    0    0  501    0  0.00000000000E+00  0.00000000000E+00 -0.42376323294E+03  0.42376323295E+03  0.25500000920E-02 0.  1.
    10030    2    1    2    0    0  0.00000000000E+00  0.00000000000E+00 -0.27610792243E+03  0.57141854349E+03  0.50028348665E+03 0.  0.
        3    1    3    3  502    0  0.22189651469E+03 -0.80560905197E+02 -0.23253698424E+03  0.33136321751E+03  0.10100000352E+00 0.  1.
       -3    1    3    3    0  502 -0.22189651469E+03  0.80560905197E+02 -0.43570938192E+02  0.24005532598E+03  0.10100000352E+00 0. -1.
</event>
<event>
 5   0  0.1805500E-02  0.4997374E+03  0.7818609E-02  0.1013847E+00
        3   -1    0    0  501    0  0.00000000000E+00  0.00000000000E+00  0.24431014477E+03  0.24431016565E+03  0.10100000352E+00 0.  1.
       -3   -1    0    0    0  501  0.00000000000E+00  0.00000000000E+00 -0.25555371062E+03  0.25555373058E+03  0.10100000352E+00 0. -1.
    10030    2    1    2    0    0  0.00000000000E+00  0.00000000000E+00 -0.11243565850E+02  0.49986389623E+03  0.49973742804E+03 0.  0.
        1    1    3    3  502    0  0.49176084068E+02 -0.23159795166E+03 -0.85507354614E+02  0.25172883461E+03  0.50400001928E-02 0. -1.
       -1    1    3    3    0  502 -0.49176084068E+02  0.23159795166E+03  0.74263788764E+02  0.24813506162E+03  0.50400001928E-02 0.  1.
</event>
<event>
 5   0  0.4519539E-02  0.5006109E+03  0.7818609E-02  0.1013620E+00
        2   -1    0    0  501    0  0.00000000000E+00  0.00000000000E+00  0.12447172492E+04  0.12447172492E+04  0.25500000920E-02 0. -1.
       -2   -1    0    0    0  501  0.00000000000E+00  0.00000000000E+00 -0.50334978953E+02  0.50334979018E+02  0.25500000920E-02 0.  1.
    10030    2    1    2    0    0  0.00000000000E+00  0.00000000000E+00  0.11943822702E+04  0.12950522282E+04  0.50061089315E+03 0.  0.
        4    1    3    3  502    0 -0.18713716425E+02  0.19271405521E+03  0.10075483742E+04  0.10259845270E+04  0.12699999809E+01 0.  1.
       -4    1    3    3    0  502  0.18713716425E+02 -0.19271405521E+03  0.18683389601E+03  0.26906770125E+03  0.12699999809E+01 0. -1.
</event>
<event>
 5   0  0.4534223E-02  0.4995426E+03  0.7818609E-02  0.1013898E+00
       -2   -1    0    0    0  501  0.00000000000E+00  0.00000000000E+00  0.11727535690E+03  0.11727535692E+03  0.25500000920E-02 0.  1.
        2   -1    0    0  501    0  0.00000000000E+00  0.00000000000E+00 -0.53195912224E+03  0.53195912224E+03  0.25500000920E-02 0. -1.
    10030    2    1    2    0    0  0.00000000000E+00  0.00000000000E+00 -0.41468376534E+03  0.64923447917E+03  0.49954257446E+03 0.  0.
        2    1    3    3  502    0  0.11832962407E+03  0.19148899965E+03 -0.34801602727E+03  0.41446965168E+03  0.25500000920E-02 0. -1.
       -2    1    3    3    0  502 -0.11832962407E+03 -0.19148899965E+03 -0.66667738067E+02  0.23476482749E+03  0.25500000920E-02 0.  1.
</event>
<event>
 5   0  0.4534223E-02  0.4988584E+03  0.7818609E-02  0.1014077E+00
        2   -1    0    0  501    0  0.00000000000E+00  0.00000000000E+00  0.30459937125E+03  0.30459937126E+03  0.25500000920E-02 0.  1.
       -2   -1    0    0    0  501  0.00000000000E+00  0.00000000000E+00 -0.20425161509E+03  0.20425161511E+03  0.25500000920E-02 0. -1.
    10030    2    1    2    0    0  0.00000000000E+00  0.00000000000E+00  0.10034775616E+03  0.50885098637E+03  0.49885835080E+03 0.  0.
        2    1    3    3  502    0 -0.61609107399E+02 -0.71254385970E+02  0.28575918478E+03  0.30088399979E+03  0.25500000920E-02 0.  1.
       -2    1    3    3    0  502  0.61609107399E+02  0.71254385970E+02 -0.18541142863E+03  0.20796698658E+03  0.25500000920E-02 0. -1.
</event>
<event>
 5   0  0.4451135E-02  0.4984212E+03  0.7818609E-02  0.1014192E+00
        2   -1    0    0  501    0  0.00000000000E+00  0.00000000000E+00  0.41498693136E+03  0.41498693137E+03  0.25500000920E-02 0. -1.
       -2   -1    0    0    0  501  0.00000000000E+00  0.00000000000E+00 -0.14965752442E+03  0.14965752444E+03  0.25500000920E-02 0.  1.
    10030    2    1    2    0    0  0.00000000000E+00  0.00000000000E+00  0.26532940694E+03  0.56464445581E+03  0.49842117459E+03 0.  0.
        1    1    3    3  502    0 -0.20360102460E+03  0.54115651147E+02 -0.18155629104E+02  0.21145095841E+03  0.50400001928E-02 0.  1.
       -1    1    3    3    0  502  0.20360102460E+03 -0.54115651147E+02  0.28348503604E+03  0.35319349740E+03  0.50400001928E-02 0. -1.
</event>
<event>
 5   0  0.2715483E-02  0.5007885E+03  0.7818609E-02  0.1013573E+00
       -1   -1    0    0    0  501  0.00000000000E+00  0.00000000000E+00  0.12587706158E+03  0.12587706168E+03  0.50400001928E-02 0.  1.
        1   -1    0    0  501    0  0.00000000000E+00  0.00000000000E+00 -0.49808338623E+03  0.49808338626E+03  0.50400001928E-02 0. -1.
    10030    2    1    2    0    0  0.00000000000E+00  0.00000000000E+00 -0.37220632465E+03  0.62396044794E+03  0.50078847080E+03 0.  0.
        5    1    3    3  502    0 -0.13563021247E+03 -0.13779090908E+02  0.75517254001E+02  0.15591781018E+03  0.46999998093E+01 0.  1.
       -5    1    3    3    0  502  0.13563021247E+03  0.13779090908E+02 -0.44772357866E+03  0.46804263776E+03  0.46999998093E+01 0. -1.
</event>
<event>
 5   0  0.2643185E-02  0.5012066E+03  0.7818609E-02  0.1013464E+00
       -1   -1    0    0    0  501  0.00000000000E+00  0.00000000000E+00  0.87226674231E+02  0.87226674377E+02  0.50400001928E-02 0. -1.
        1   -1    0    0  501    0  0.00000000000E+00  0.00000000000E+00 -0.71998635417E+03  0.71998635419E+03  0.50400001928E-02 0.  1.
    10030    2    1    2    0    0  0.00000000000E+00  0.00000000000E+00 -0.63275967994E+03  0.80721302856E+03  0.50120660503E+03 0.  0.
        1    1    3    3  502    0 -0.18963631133E+03 -0.79195814953E+02 -0.85402942094E+02  0.22254790546E+03  0.50400001928E-02 0. -1.
       -1    1    3    3    0  502  0.18963631133E+03  0.79195814953E+02 -0.54735673784E+03  0.58466512310E+03  0.50400001928E-02 0.  1.
</event>
<event>
 5   0  0.4451135E-02  0.4991764E+03  0.7818609E-02  0.1013994E+00
       -2   -1    0    0    0  501  0.00000000000E+00  0.00000000000E+00  0.92876549159E+02  0.92876549194E+02  0.25500000920E-02 0. -1.
        2   -1    0    0  501    0  0.00000000000E+00  0.00000000000E+00 -0.67072123493E+03  0.67072123493E+03  0.25500000920E-02 0.  1.
    10030    2    1    2    0    0  0.00000000000E+00  0.00000000000E+00 -0.57784468577E+03  0.76359778413E+03  0.49917641676E+03 0.  0.
        1    1    3    3  502    0 -0.24878635525E+03  0.50221110323E+01 -0.31852150633E+03  0.40419775132E+03  0.50400001928E-02 0.  1.
       -1    1    3    3    0  502  0.24878635525E+03 -0.50221110323E+01 -0.25932317944E+03  0.35940003280E+03  0.50400001928E-02 0. -1.
</event>
<event>
 5   0  0.2719671E-02  0.5001938E+03  0.7818609E-02  0.1013728E+00
        1   -1    0    0  501    0  0.00000000000E+00  0.00000000000E+00  0.93410059854E+03  0.93410059855E+03  0.50400001928E-02 0.  1.
       -1   -1    0    0    0  501  0.00000000000E+00  0.00000000000E+00 -0.66961153572E+02  0.66961153761E+02  0.50400001928E-02 0. -1.
    10030    2    1    2    0    0  0.00000000000E+00  0.00000000000E+00  0.86713944497E+03  0.10010617523E+04  0.50019377738E+03 0.  0.
        2    1    3    3  502    0 -0.19399204826E+02  0.23497675913E+02 -0.63232321344E+02  0.70191141822E+02  0.25500000920E-02 0. -1.
       -2    1    3    3    0  502  0.19399204826E+02 -0.23497675913E+02  0.93037176631E+03  0.93087061049E+03  0.25500000920E-02 0.  1.
</event>
<event>
 5   0  0.2779445E-02  0.4991347E+03  0.7818609E-02  0.1014005E+00
       -1   -1    0    0    0  501  0.00000000000E+00  0.00000000000E+00  0.63438319415E+02  0.63438319615E+02  0.50400001928E-02 0.  1.
        1   -1    0    0  501    0  0.00000000000E+00  0.00000000000E+00 -0.98180189872E+03  0.98180189873E+03  0.50400001928E-02 0. -1.
    10030    2    1    2    0    0  0.00000000000E+00  0.00000000000E+00 -0.91836357930E+03  0.10452402183E+04  0.49913470152E+03 0.  0.
        3    1    3    3  502    0 -0.60049374859E+01 -0.15210767528E+03 -0.45040935138E+02  0.15874980375E+03  0.10100000352E+00 0.  1.
       -3    1    3    3    0  502  0.60049374859E+01  0.15210767528E+03 -0.87332264417E+03  0.88649041459E+03  0.10100000352E+00 0. -1.
</event>
<event>
 5   0  0.2723308E-02  0.5008493E+03  0.7818609E-02  0.1013557E+00
        1   -1    0    0  501    0  0.00000000000E+00  0.00000000000E+00  0.53158991885E+03  0.53158991887E+03  0.50400001928E-02 0. -1.
       -1   -1    0    0    0  501  0.00000000000E+00  0.00000000000E+00 -0.11797158268E+03  0.11797158279E+03  0.50400001928E-02 0.  1.
    10030    2    1    2    0    0  0.00000000000E+00  0.00000000000E+00  0.41361833617E+03  0.64956150166E+03  0.50084929512E+03 0.  0.
        4    1    3    3  502    0  0.24023041155E+03 -0.12391891943E+02  0.11652004092E+03  0.26728775216E+03  0.12699999809E+01 0.  1.
       -4    1    3    3    0  502 -0.24023041155E+03  0.12391891943E+02  0.29709829525E+03  0.38227374950E+03  0.12699999809E+01 0. -1.
</event>
<event>
 5   0  0.4451135E-02  0.4996328E+03  0.7818609E-02  0.1013875E+00
       -2   -1    0    0    0  501  0.00000000000E+00  0.00000000000E+00  0.16204210690E+03  0.16204210692E+03  0.25500000920E-02 0. -1.
        2   -1    0    0  501    0  0.00000000000E+00  0.00000000000E+00 -0.38513597535E+03  0.38513597536E+03  0.25500000920E-02 0.  1.
    10030    2    1    2    0    0  0.00000000000E+00  0.00000000000E+00 -0.22309386845E+03  0.54717808228E+03  0.49963284479E+03 0.  0.
        1    1    3    3  502    0  0.58395518176E+02 -0.18677602845E+03  0.58513250769E+02  0.20425259334E+03  0.50400001928E-02 0. -1.
       -1    1    3    3    0  502 -0.58395518176E+02  0.18677602845E+03 -0.28160711922E+03  0.34292548894E+03  0.50400001928E-02 0.  1.
</event>
<event>
 5   0  0.2719671E-02  0.5080080E+03  0.7818609E-02  0.1011710E+00
        1   -1    0    0  501    0  0.00000000000E+00  0.00000000000E+00  0.15970106642E+03  0.15970106650E+03  0.50400001928E-02 0. -1.
       -1   -1    0    0    0  501  0.00000000000E+00  0.00000000000E+00 -0.40399249601E+03  0.40399249604E+03  0.50400001928E-02 0.  1.
    10030    2    1    2    0    0  0.00000000000E+00  0.00000000000E+00 -0.24429142959E+03  0.56369356254E+03  0.50800800179E+03 0.  0.
        2    1    3    3  502    0  0.84520082533E+02  0.24428466141E+02  0.14225412244E+03  0.16726215850E+03  0.25500000920E-02 0. -1.
       -2    1    3    3    0  502 -0.84520082533E+02 -0.24428466141E+02 -0.38654555203E+03  0.39643140404E+03  0.25500000920E-02 0.  1.
</event>
<event>
 5   0  0.2779445E-02  0.5154969E+03  0.7818609E-02  0.1009811E+00
        1   -1    0    0  501    0  0.00000000000E+00  0.00000000000E+00  0.76657198393E+03  0.76657198395E+03  0.50400001928E-02 0.  1.
       -1   -1    0    0    0  501  0.00000000000E+00  0.00000000000E+00 -0.86664087547E+02  0.86664087694E+02  0.50400001928E-02 0. -1.
    10030    2    1    2    0    0  0.00000000000E+00  0.00000000000E+00  0.67990789638E+03  0.85323607164E+03  0.51549689270E+03 0.  0.
        3    1    3    3  502    0  0.16697130117E+03  0.17901211385E+03  0.20641223588E+03  0.32020426862E+03  0.10100000352E+00 0. -1.
       -3    1    3    3    0  502 -0.16697130117E+03 -0.17901211385E+03  0.47349566050E+03  0.53303180302E+03  0.10100000352E+00 0.  1.
</event>
<event>
 5   0  0.2715483E-02  0.4977243E+03  0.7818609E-02  0.1014375E+00
        1   -1    0    0  501    0  0.00000000000E+00  0.00000000000E+00  0.76373868094E+03  0.76373868096E+03  0.50400001928E-02 0.  1.
       -1   -1    0    0    0  501  0.00000000000E+00  0.00000000000E+00 -0.81091048464E+02  0.81091048620E+02  0.50400001928E-02 0. -1.
    10030    2    1    2    0    0  0.00000000000E+00  0.00000000000E+00  0.68264763248E+03  0.84482972958E+03  0.49772430306E+03 0.  0.
        5    1    3    3  502    0 -0.10445138401E+03  0.12379482410E+03  0.20724555280E+02  0.16336109477E+03  0.46999998093E+01 0. -1.
       -5    1    3    3    0  502  0.10445138401E+03 -0.12379482410E+03  0.66192307720E+03  0.68146863481E+03  0.46999998093E+01 0.  1.
</event>
<event>
 5   0  0.4451135E-02  0.5000392E+03  0.7818609E-02  0.1013769E+00
       -2   -1    0    0    0  501  0.00000000000E+00  0.00000000000E+00  0.14023278679E+03  0.14023278682E+03  0.25500000920E-02 0.  1.
        2   -1    0    0  501    0  0.00000000000E+00  0.00000000000E+00 -0.44575735536E+03  0.44575735537E+03  0.25500000920E-02 0. -1.
    10030    2    1    2    0    0  0.00000000000E+00  0.00000000000E+00 -0.30552456857E+03  0.58599014218E+03  0.50003918320E+03 0.  0.
        1    1    3    3  502    0 -0.21176817604E+03  0.25837605439E+02 -0.30554190715E+03  0.37265157895E+03  0.50400001928E-02 0. -1.
       -1    1    3    3    0  502  0.21176817604E+03 -0.25837605439E+02  0.17338588396E-01  0.21333856324E+03  0.50400001928E-02 0.  1.
</event>
<event>
 5   0  0.1805500E-02  0.4997840E+03  0.7818609E-02  0.1013835E+00
       -3   -1    0    0    0  501  0.00000000000E+00  0.00000000000E+00  0.47735304589E+02  0.47735411439E+02  0.10100000352E+00 0. -1.
        3   -1    0    0  501    0  0.00000000000E+00  0.00000000000E+00 -0.13081709630E+04  0.13081709669E+04  0.10100000352E+00 0.  1.
    10030    2    1    2    0    0  0.00000000000E+00  0.00000000000E+00 -0.12604356584E+04  0.13559063783E+04  0.49978401116E+03 0.  0.
        2    1    3    3  502    0 -0.12109407112E+02  0.21289016169E+02 -0.13049069323E+04  0.13051367598E+04  0.25500000920E-02 0.  1.
       -2    1    3    3    0  502  0.12109407112E+02 -0.21289016169E+02  0.44471273905E+02  0.50769618467E+02  0.25500000920E-02 0. -1.
</event>
<event>
 5   0  0.2779445E-02  0.4993915E+03  0.7818609E-02  0.1013938E+00
       -1   -1    0    0    0  501  0.00000000000E+00  0.00000000000E+00  0.18409494014E+03  0.18409494021E+03  0.50400001928E-02 0. -1.
        1   -1    0    0  501    0  0.00000000000E+00  0.00000000000E+00 -0.33867295130E+03  0.33867295133E+03  0.50400001928E-02 0.  1.
    10030    2    1    2    0    0  0.00000000000E+00  0.00000000000E+00 -0.15457801115E+03  0.52276789155E+03  0.49939153667E+03 0.  0.
        3    1    3    3  502    0 -0.14504170150E+03  0.17207753389E+02  0.13471195995E+03  0.19869706667E+03  0.10100000352E+00 0. -1.
       -3    1    3    3    0  502  0.14504170150E+03 -0.17207753389E+02 -0.28928997110E+03  0.32407082487E+03  0.10100000352E+00 0.  1.
</event>
<event>
 5   0  0.1805500E-02  0.4983462E+03  0.7818609E-02  0.1014211E+00
       -3   -1    0    0    0  501  0.00000000000E+00  0.00000000000E+00  0.24746785894E+03  0.24746787955E+03  0.10100000352E+00 0. -1.
        3   -1    0    0  501    0  0.00000000000E+00  0.00000000000E+00 -0.25089000664E+03  0.25089002697E+03  0.10100000352E+00 0.  1.
    10030    2    1    2    0    0  0.00000000000E+00  0.00000000000E+00 -0.34221477053E+01  0.49835790652E+03  0.49834615670E+03 0.  0.
        4    1    3    3  502    0  0.21495839507E+03  0.36215487859E+02 -0.12240748564E+03  0.25000775711E+03  0.12699999809E+01 0.  1.
       -4    1    3    3    0  502 -0.21495839507E+03 -0.36215487859E+02  0.11898533793E+03  0.24835014942E+03  0.12699999809E+01 0. -1.
</event>
<event>
 5   0  0.4534223E-02  0.4999986E+03  0.7818609E-02  0.1013779E+00
       -2   -1    0    0    0  501  0.00000000000E+00  0.00000000000E+00  0.39462303129E+02  0.39462303211E+02  0.25500000920E-02 0. -1.
        2   -1    0    0  501    0  0.00000000000E+00  0.00000000000E+00 -0.15837808882E+04  0.15837808882E+04  0.25500000920E-02 0.  1.
    10030    2    1    2    0    0  0.00000000000E+00  0.00000000000E+00 -0.15443185850E+04  0.16232431914E+04  0.49999856627E+03 0.  0.
        2    1    3    3  502    0  0.14317549849E+03  0.71124832743E+02 -0.13961428281E+04  0.14052660821E+04  0.25500000920E-02 0.  1.
       -2    1    3    3    0  502 -0.14317549849E+03 -0.71124832743E+02 -0.14817575698E+03  0.21797710927E+03  0.25500000920E-02 0. -1.
</event>
<event>
 5   0  0.2719671E-02  0.5004347E+03  0.7818609E-02  0.1013666E+00
       -1   -1    0    0    0  501  0.00000000000E+00  0.00000000000E+00  0.42119812377E+03  0.42119812380E+03  0.50400001928E-02 0. -1.
        1   -1    0    0  501    0  0.00000000000E+00  0.00000000000E+00 -0.14864436514E+03  0.14864436523E+03  0.50400001928E-02 0.  1.
    10030    2    1    2    0    0  0.00000000000E+00  0.00000000000E+00  0.27255375863E+03  0.56984248903E+03  0.50043472198E+03 0.  0.
        2    1    3    3  502    0 -0.10773716652E+03  0.18043918550E+03  0.29091790411E+03  0.35888553001E+03  0.25500000920E-02 0. -1.
       -2    1    3    3    0  502  0.10773716652E+03 -0.18043918550E+03 -0.18364145484E+02  0.21095695902E+03  0.25500000920E-02 0.  1.
</event>
<event>
 5   0  0.4631619E-02  0.4994967E+03  0.7818609E-02  0.1013910E+00
        2   -1    0    0  501    0  0.00000000000E+00  0.00000000000E+00  0.16226156664E+03  0.16226156666E+03  0.25500000920E-02 0.  1.
       -2   -1    0    0    0  501  0.00000000000E+00  0.00000000000E+00 -0.38440547346E+03  0.38440547347E+03  0.25500000920E-02 0. -1.
    10030    2    1    2    0    0  0.00000000000E+00  0.00000000000E+00 -0.22214390682E+03  0.54666704012E+03  0.49949668409E+03 0.  0.
        5    1    3    3  502    0 -0.19523633331E+03  0.55349082911E+02 -0.27031667430E+03  0.33804428885E+03  0.46999998093E+01 0. -1.
       -5    1    3    3    0  502  0.19523633331E+03 -0.55349082911E+02  0.48172767475E+02  0.20862275127E+03  0.46999998093E+01 0.  1.
</event>
<event>
 5   0  0.4519539E-02  0.5136710E+03  0.7818609E-02  0.1010271E+00
       -2   -1    0    0    0  501  0.00000000000E+00  0.00000000000E+00  0.50146871919E+03  0.50146871920E+03  0.25500000920E-02 0.  1.
        2   -1    0    0  501    0  0.00000000000E+00  0.00000000000E+00 -0.13154255291E+03  0.13154255293E+03  0.25500000920E-02 0. -1.
    10030    2    1    2    0    0  0.00000000000E+00  0.00000000000E+00  0.36992616628E+03  0.63301127213E+03  0.51367100574E+03 0.  0.
        4    1    3    3  502    0  0.16864335373E+03  0.15713868863E+03  0.32454684084E+03  0.39807714456E+03  0.12699999809E+01 0.  1.
       -4    1    3    3    0  502 -0.16864335373E+03 -0.15713868863E+03  0.45379325443E+02  0.23493412757E+03  0.12699999809E+01 0. -1.
</event>
<event>
 5   0  0.4519539E-02  0.5002755E+03  0.7818609E-02  0.1013707E+00
        2   -1    0    0  501    0  0.00000000000E+00  0.00000000000E+00  0.31506260831E+03  0.31506260832E+03  0.25500000920E-02 0. -1.
       -2   -1    0    0    0  501  0.00000000000E+00  0.00000000000E+00 -0.19859197659E+03  0.19859197661E+03  0.25500000920E-02 0.  1.
    10030    2    1    2    0    0  0.00000000000E+00  0.00000000000E+00  0.11647063172E+03  0.51365458493E+03  0.50027554864E+03 0.  0.
        4    1    3    3  502    0 -0.17360685660E+03 -0.28685883511E+02  0.24076785230E+03  0.29821635129E+03  0.12699999809E+01 0. -1.
       -4    1    3    3    0  502  0.17360685660E+03  0.28685883511E+02 -0.12429722059E+03  0.21543823365E+03  0.12699999809E+01 0.  1.
</event>
<event>
 5   0  0.2715483E-02  0.4999460E+03  0.7818609E-02  0.1013793E+00
        1   -1    0    0  501    0  0.00000000000E+00  0.00000000000E+00  0.83016307546E+02  0.83016307699E+02  0.50400001928E-02 0.  1.
       -1   -1    0    0    0  501  0.00000000000E+00  0.00000000000E+00 -0.75270162662E+03  0.75270162664E+03  0.50400001928E-02 0. -1.
    10030    2    1    2    0    0  0.00000000000E+00  0.00000000000E+00 -0.66968531907E+03  0.83571793434E+03  0.49994603628E+03 0.  0.
        5    1    3    3  502    0 -0.15704463334E+02  0.30112995783E+02  0.79067210105E+02  0.86180835431E+02  0.46999998093E+01 0.  1.
       -5    1    3    3    0  502  0.15704463334E+02 -0.30112995783E+02 -0.74875252918E+03  0.74953709890E+03  0.46999998093E+01 0. -1.
</event>
<event>
 5   0  0.2715483E-02  0.5013125E+03  0.7818609E-02  0.1013437E+00
       -1   -1    0    0    0  501  0.00000000000E+00  0.00000000000E+00  0.65829093506E+02  0.65829093699E+02  0.50400001928E-02 0.  1.
        1   -1    0    0  501    0  0.00000000000E+00  0.00000000000E+00 -0.95441916610E+03  0.95441916611E+03  0.50400001928E-02 0. -1.
    10030    2    1    2    0    0  0.00000000000E+00  0.00000000000E+00 -0.88859007259E+03  0.10202482598E+04  0.50131247196E+03 0.  0.
        5    1    3    3  502    0  0.11591374649E+02  0.25027805129E+03 -0.45598534819E+03  0.52030586263E+03  0.46999998093E+01 0.  1.
       -5    1    3    3    0  502 -0.11591374649E+02 -0.25027805129E+03 -0.43260472440E+03  0.49994239718E+03  0.46999998093E+01 0. -1.
</event>
<event>
 5   0  0.2715483E-02  0.4976319E+03  0.7818609E-02  0.1014399E+00
        1   -1    0    0  501    0  0.00000000000E+00  0.00000000000E+00  0.43327856841E+02  0.43327857134E+02  0.50400001928E-02 0.  1.
       -1   -1    0    0    0  501  0.00000000000E+00  0.00000000000E+00 -0.14288583232E+04  0.14288583232E+04  0.50400001928E-02 0. -1.
    10030    2    1    2    0    0  0.00000000000E+00  0.00000000000E+00 -0.13855304663E+04  0.14721861803E+04  0.49763186833E+03 0.  0.
        5    1    3    3  502    0  0.19886158779E+03  0.57432227667E+02 -0.11010103038E+04  0.11203080697E+04  0.46999998093E+01 0. -1.
       -5    1    3    3    0  502 -0.19886158779E+03 -0.57432227667E+02 -0.28452016250E+03  0.35187811063E+03  0.46999998093E+01 0.  1.
</event>
<event>
 5   0  0.4451135E-02  0.5014071E+03  0.7818609E-02  0.1013412E+00
        2   -1    0    0  501    0  0.00000000000E+00  0.00000000000E+00  0.80983986913E+03  0.80983986913E+03  0.25500000920E-02 0.  1.
       -2   -1    0    0    0  501  0.00000000000E+00  0.00000000000E+00 -0.77610748110E+02  0.77610748152E+02  0.25500000920E-02 0. -1.
    10030    2    1    2    0    0  0.00000000000E+00  0.00000000000E+00  0.73222912102E+03  0.88745061728E+03  0.50140713243E+03 0.  0.
        1    1    3    3  502    0  0.24878766832E+03  0.65738036166E+01  0.41961650784E+03  0.48786938055E+03  0.50400001928E-02 0.  1.
       -1    1    3    3    0  502 -0.24878766832E+03 -0.65738036166E+01  0.31261261317E+03  0.39958123673E+03  0.50400001928E-02 0. -1.
</event>
<event>
 5   0  0.4631619E-02  0.5005720E+03  0.7818609E-02  0.1013630E+00
       -2   -1    0    0    0  501  0.00000000000E+00  0.00000000000E+00  0.26411485621E+03  0.26411485622E+03  0.25500000920E-02 0.  1.
        2   -1    0    0  501    0  0.00000000000E+00  0.00000000000E+00 -0.23718119710E+03  0.23718119711E+03  0.25500000920E-02 0. -1.
    10030    2    1    2    0    0  0.00000000000E+00  0.00000000000E+00  0.26933659113E+02  0.50129605333E+03  0.50057198393E+03 0.  0.
        5    1    3    3  502    0 -0.23996026207E+03  0.31969572200E+02 -0.50012609850E+02  0.24723740021E+03  0.46999998093E+01 0.  1.
       -5    1    3    3    0  502  0.23996026207E+03 -0.31969572200E+02  0.76946268963E+02  0.25405865312E+03  0.46999998093E+01 0. -1.
</event>
<event>
 5   0  0.2779445E-02  0.4962746E+03  0.7818609E-02  0.1014756E+00
        1   -1    0    0  501    0  0.00000000000E+00  0.00000000000E+00  0.33193342105E+03  0.33193342109E+03  0.50400001928E-02 0. -1.
       -1   -1    0    0    0  501  0.00000000000E+00  0.00000000000E+00 -0.18549537243E+03  0.18549537250E+03  0.50400001928E-02 0.  1.
    10030    2    1    2    0    0  0.00000000000E+00  0.00000000000E+00  0.14643804862E+03  0.51742879359E+03  0.49627457557E+03 0.  0.
        3    1    3    3  502    0 -0.59626410372E+02  0.21081634761E+03 -0.48251437993E+02  0.22433691783E+03  0.10100000352E+00 0.  1.
       -3    1    3    3    0  502  0.59626410372E+02 -0.21081634761E+03  0.19468948662E+03  0.29309187576E+03  0.10100000352E+00 0. -1.
</event>
<event>
 5   0  0.4519539E-02  0.5017658E+03  0.7818609E-02  0.1013319E+00
       -2   -1    0    0    0  501  0.00000000000E+00  0.00000000000E+00  0.19867966044E+03  0.19867966045E+03  0.25500000920E-02 0.  1.
        2   -1    0    0  501    0  0.00000000000E+00  0.00000000000E+00 -0.31680258905E+03  0.31680258906E+03  0.25500000920E-02 0. -1.
    10030    2    1    2    0    0  0.00000000000E+00  0.00000000000E+00 -0.11812292861E+03  0.51548224951E+03  0.50176580523E+03 0.  0.
        4    1    3    3  502    0  0.28387487343E+02  0.17607582538E+03 -0.24032759661E+03  0.29927831915E+03  0.12699999809E+01 0. -1.
       -4    1    3    3    0  502 -0.28387487343E+02 -0.17607582538E+03  0.12220466801E+03  0.21620393036E+03  0.12699999809E+01 0.  1.
</event>
<event>
 5   0  0.4451135E-02  0.4996589E+03  0.7818609E-02  0.1013868E+00
       -2   -1    0    0    0  501  0.00000000000E+00  0.00000000000E+00  0.18121659246E+03  0.18121659248E+03  0.25500000920E-02 0.  1.
        2   -1    0    0  501    0  0.00000000000E+00  0.00000000000E+00 -0.34442068838E+03  0.34442068839E+03  0.25500000920E-02 0. -1.
    10030    2    1    2    0    0  0.00000000000E+00  0.00000000000E+00 -0.16320409592E+03  0.52563728087E+03  0.49965885774E+03 0.  0.
        1    1    3    3  502    0 -0.12238307157E+03 -0.18073492321E+03 -0.20946138160E+03  0.30251743600E+03  0.50400001928E-02 0. -1.
       -1    1    3    3    0  502  0.12238307157E+03  0.18073492321E+03  0.46257285681E+02  0.22311984488E+03  0.50400001928E-02 0.  1.
</event>
<event>
 5   0  0.1805500E-02  0.4995075E+03  0.7818609E-02  0.1013908E+00
        3   -1    0    0  501    0  0.00000000000E+00  0.00000000000E+00  0.38861267657E+03  0.38861268969E+03  0.10100000352E+00 0. -1.
       -3   -1    0    0    0  501  0.00000000000E+00  0.00000000000E+00 -0.16051180400E+03  0.16051183578E+03  0.10100000352E+00 0.  1.
    10030    2    1    2    0    0  0.00000000000E+00  0.00000000000E+00  0.22810087256E+03  0.54912452547E+03  0.49950749385E+03 0.  0.
        1    1    3    3  502    0 -0.20057878303E+03 -0.14860136040E+03  0.12275680918E+03  0.27817880355E+03  0.50400001928E-02 0.  1.
       -1    1    3    3    0  502  0.20057878303E+03  0.14860136040E+03  0.10534406338E+03  0.27094572193E+03  0.50400001928E-02 0. -1.
</event>
<event>
 5   0  0.2643185E-02  0.4919164E+03  0.7818609E-02  0.1015911E+00
       -1   -1    0    0    0  501  0.00000000000E+00  0.00000000000E+00  0.52159890264E+03  0.52159890267E+03  0.50400001928E-02 0.  1.
        1   -1    0    0  501    0  0.00000000000E+00  0.00000000000E+00 -0.11598075020E+03  0.11598075031E+03  0.50400001928E-02 0. -1.
    10030    2    1    2    0    0  0.00000000000E+00  0.00000000000E+00  0.40561815244E+03  0.63757965298E+03  0.49191638345E+03 0.  0.
        1    1    3    3  502    0 -0.73147648094E+02 -0.10741383962E+03 -0.67849546660E+02  0.14660106538E+03  0.50400001928E-02 0. -1.
       -1    1    3    3    0  502  0.73147648094E+02  0.10741383962E+03  0.47346769910E+03  0.49097858760E+03  0.50400001928E-02 0.  1.
</event>
<event>
 5   0  0.4409622E-02  0.5016842E+03  0.7818609E-02  0.1013340E+00
       -2   -1    0    0    0  501  0.00000000000E+00  0.00000000000E+00  0.15305953799E+03  0.15305953801E+03  0.25500000920E-02 0.  1.
        2   -1    0    0  501    0  0.00000000000E+00  0.00000000000E+00 -0.41109331681E+03  0.41109331681E+03  0.25500000920E-02 0. -1.
    10030    2    1    2    0    0  0.00000000000E+00  0.00000000000E+00 -0.25803377882E+03  0.56415285482E+03  0.50168417615E+03 0.  0.
        3    1    3    3  502    0 -0.48541648042E+02 -0.14159561790E+03  0.97333047490E+02  0.17854787296E+03  0.10100000352E+00 0.  1.
       -3    1    3    3    0  502  0.48541648042E+02  0.14159561790E+03 -0.35536682631E+03  0.38560498187E+03  0.10100000352E+00 0. -1.
</event>
<event>
 5   0  0.2779445E-02  0.5006182E+03  0.7818609E-02  0.1013618E+00
       -1   -1    0    0    0  501  0.00000000000E+00  0.00000000000E+00  0.21335469175E+03  0.21335469181E+03  0.50400001928E-02 0.  1.
        1   -1    0    0  501    0  0.00000000000E+00  0.00000000000E+00 -0.29366420733E+03  0.29366420738E+03  0.50400001928E-02 0. -1.
    10030    2    1    2    0    0  0.00000000000E+00  0.00000000000E+00 -0.80309515580E+02  0.50701889919E+03  0.50061816372E+03 0.  0.
        3    1    3    3  502    0  0.21203882758E+03  0.12890612897E+03 -0.69117476999E+01  0.24824390616E+03  0.10100000352E+00 0.  1.
       -3    1    3    3    0  502 -0.21203882758E+03 -0.12890612897E+03 -0.73397767880E+02  0.25877499303E+03  0.10100000352E+00 0. -1.
</event>
<event>
 5   0  0.2715483E-02  0.5100556E+03  0.7818609E-02  0.1011187E+00
       -1   -1    0    0    0  501  0.00000000000E+00  0.00000000000E+00  0.22397942739E+03  0.22397942745E+03  0.50400001928E-02 0.  1.
        1   -1    0    0  501    0  0.00000000000E+00  0.00000000000E+00 -0.29038017856E+03  0.29038017861E+03  0.50400001928E-02 0. -1.
    10030    2    1    2    0    0  0.00000000000E+00  0.00000000000E+00 -0.66400751170E+02  0.51435960606E+03  0.51005562891E+03 0.  0.
        5    1    3    3  502    0 -0.22319306049E+03 -0.12325319130E+03 -0.29916405625E+02  0.25675586213E+03  0.46999998093E+01 0.  1.
       -5    1    3    3    0  502  0.22319306049E+03  0.12325319130E+03 -0.36484345545E+02  0.25760374392E+03  0.46999998093E+01 0. -1.
</event>
<event>
 5   0  0.1805500E-02  0.4742146E+03  0.7818609E-02  0.1020737E+00
       -3   -1    0    0    0  501  0.00000000000E+00  0.00000000000E+00  0.12147767580E+03  0.12147771778E+03  0.10100000352E+00 0. -1.
        3   -1    0    0  501    0  0.00000000000E+00  0.00000000000E+00 -0.46279992921E+03  0.46279994023E+03  0.10100000352E+00 0.  1.
    10030    2    1    2    0    0  0.00000000000E+00  0.00000000000E+00 -0.34132225341E+03  0.58427765801E+03  0.47421461489E+03 0.  0.
        4    1    3    3  502    0 -0.12450914055E+03  0.15293183578E+03 -0.84751033933E+01  0.19739329460E+03  0.12699999809E+01 0. -1.
       -4    1    3    3    0  502  0.12450914055E+03 -0.15293183578E+03 -0.33284715002E+03  0.38688436341E+03  0.12699999809E+01 0.  1.
</event>
<event>
 5   0  0.2643185E-02  0.4980736E+03  0.7818609E-02  0.1014283E+00
        1   -1    0    0  501    0  0.00000000000E+00  0.00000000000E+00  0.49009844619E+03  0.49009844622E+03  0.50400001928E-02 0. -1.
       -1   -1    0    0    0  501  0.00000000000E+00  0.00000000000E+00 -0.12654462479E+03  0.12654462489E+03  0.50400001928E-02 0.  1.
    10030    2    1    2    0    0  0.00000000000E+00  0.00000000000E+00  0.36355382140E+03  0.61664307111E+03  0.49807358501E+03 0.  0.
        1    1    3    3  502    0 -0.39767911140E+02  0.22794545797E+03  0.67776840278E+02  0.24111059427E+03  0.50400001928E-02 0.  1.
       -1    1    3    3    0  502  0.39767911140E+02 -0.22794545797E+03  0.29577698112E+03  0.37553247683E+03  0.50400001928E-02 0. -1.
</event>
<event>
 5   0  0.2643185E-02  0.4996196E+03  0.7818609E-02  0.1013878E+00
       -1   -1    0    0    0  501  0.00000000000E+00  0.00000000000E+00  0.11067601718E+03  0.11067601729E+03  0.50400001928E-02 0. -1.
        1   -1    0    0  501    0  0.00000000000E+00  0.00000000000E+00 -0.56385244505E+03  0.56385244507E+03  0.50400001928E-02 0.  1.
    10030    2    1    2    0    0  0.00000000000E+00  0.00000000000E+00 -0.45317642787E+03  0.67452846236E+03  0.49961962708E+03 0.  0.
        1    1    3    3  502    0 -0.65401100828E+02 -0.24108905331E+03 -0.22398871457E+03  0.33551777880E+03  0.50400001928E-02 0. -1.
       -1    1    3    3    0  502  0.65401100828E+02  0.24108905331E+03 -0.22918771330E+03  0.33901068356E+03  0.50400001928E-02 0.  1.
</event>
<event>
 5   0  0.1805500E-02  0.5012243E+03  0.7818609E-02  0.1013460E+00
       -3   -1    0    0    0  501  0.00000000000E+00  0.00000000000E+00  0.14092762214E+03  0.14092765833E+03  0.10100000352E+00 0. -1.
        3   -1    0    0  501    0  0.00000000000E+00  0.00000000000E+00 -0.44566451621E+03  0.44566452765E+03  0.10100000352E+00 0.  1.
    10030    2    1    2    0    0  0.00000000000E+00  0.00000000000E+00 -0.30473689407E+03  0.58659218599E+03  0.50122431910E+03 0.  0.
        4    1    3    3  502    0  0.15863631208E+02  0.25001292988E+03 -0.14436893449E+03  0.28914031550E+03  0.12699999809E+01 0.  1.
       -4    1    3    3    0  502 -0.15863631208E+02 -0.25001292988E+03 -0.16036795957E+03  0.29745187049E+03  0.12699999809E+01 0. -1.
</event>
<event>
 5   0  0.4409622E-02  0.4946765E+03  0.7818609E-02  0.1015178E+00
        2   -1    0    0  501    0  0.00000000000E+00  0.00000000000E+00  0.15186393782E+04  0.15186393782E+04  0.25500000920E-02 0. -1.
       -2   -1    0    0    0  501  0.00000000000E+00  0.00000000000E+00 -0.40283564161E+02  0.40283564242E+02  0.25500000920E-02 0.  1.
    10030    2    1    2    0    0  0.00000000000E+00  0.00000000000E+00  0.14783558140E+04  0.15589229424E+04  0.49467648779E+03 0.  0.
        3    1    3    3  502    0  0.15587318714E+03 -0.99951299684E+02  0.12559447177E+04  0.12695211132E+04  0.10100000352E+00 0. -1.
       -3    1    3    3    0  502 -0.15587318714E+03  0.99951299684E+02  0.22241109628E+03  0.28940182917E+03  0.10100000352E+00 0.  1.
</event>
<event>
 5   0  0.1805500E-02  0.5006454E+03  0.7818609E-02  0.1013611E+00
       -3   -1    0    0    0  501  0.00000000000E+00  0.00000000000E+00  0.34596861988E+03  0.34596863462E+03  0.10100000352E+00 0. -1.
        3   -1    0    0  501    0  0.00000000000E+00  0.00000000000E+00 -0.18111888652E+03  0.18111891468E+03  0.10100000352E+00 0.  1.
    10030    2    1    2    0    0  0.00000000000E+00  0.00000000000E+00  0.16484973336E+03  0.52708754930E+03  0.50064543345E+03 0.  0.
        1    1    3    3  502    0 -0.63460550498E+02 -0.23912920542E+03  0.12253486646E+03  0.27608841316E+03  0.50400001928E-02 0.  1.
       -1    1    3    3    0  502  0.63460550498E+02  0.23912920542E+03  0.42314866896E+02  0.25099913614E+03  0.50400001928E-02 0. -1.
</event>
<event>
 5   0  0.2643185E-02  0.4960678E+03  0.7818609E-02  0.1014810E+00
        1   -1    0    0  501    0  0.00000000000E+00  0.00000000000E+00  0.81463566513E+03  0.81463566514E+03  0.50400001928E-02 0. -1.
       -1   -1    0    0    0  501  0.00000000000E+00  0.00000000000E+00 -0.75519434351E+02  0.75519434519E+02  0.50400001928E-02 0.  1.
    10030    2    1    2    0    0  0.00000000000E+00  0.00000000000E+00  0.73911623078E+03  0.89015509966E+03  0.49606783695E+03 0.  0.
        1    1    3    3  502    0 -0.44329319073E+02  0.24049588481E+03  0.29519310696E+03  0.38333057478E+03  0.50400001928E-02 0.  1.
       -1    1    3    3    0  502  0.44329319073E+02 -0.24049588481E+03  0.44392312382E+03  0.50682452489E+03  0.50400001928E-02 0. -1.
</event>
<event>
 5   0  0.2719671E-02  0.5002580E+03  0.7818609E-02  0.1013712E+00
        1   -1    0    0  501    0  0.00000000000E+00  0.00000000000E+00  0.73701462161E+03  0.73701462163E+03  0.50400001928E-02 0. -1.
       -1   -1    0    0    0  501  0.00000000000E+00  0.00000000000E+00 -0.84889101970E+02  0.84889102120E+02  0.50400001928E-02 0.  1.
    10030    2    1    2    0    0  0.00000000000E+00  0.00000000000E+00  0.65212551964E+03  0.82190372375E+03  0.50025797119E+03 0.  0.
        2    1    3    3  502    0 -0.18132152263E+03  0.70427241098E+02  0.58441534290E+03  0.61593732139E+03  0.25500000920E-02 0. -1.
       -2    1    3    3    0  502  0.18132152263E+03 -0.70427241098E+02  0.67710176739E+02  0.20596640236E+03  0.25500000920E-02 0.  1.
</event>
<event>
 5   0  0.2779445E-02  0.4975751E+03  0.7818609E-02  0.1014414E+00
        1   -1    0    0  501    0  0.00000000000E+00  0.00000000000E+00  0.79684077785E+03  0.79684077787E+03  0.50400001928E-02 0.  1.
       -1   -1    0    0    0  501  0.00000000000E+00  0.00000000000E+00 -0.77675801817E+02  0.77675801981E+02  0.50400001928E-02 0. -1.
    10030    2    1    2    0    0  0.00000000000E+00  0.00000000000E+00  0.71916497603E+03  0.87451657985E+03  0.49757510556E+03 0.  0.
        3    1    3    3  502    0  0.11649535044E+03  0.74808849673E+02 -0.37165014770E+01  0.13849676259E+03  0.10100000352E+00 0. -1.
       -3    1    3    3    0  502 -0.11649535044E+03 -0.74808849673E+02  0.72288147751E+03  0.73601981726E+03  0.10100000352E+00 0.  1.
</event>
<event>
 5   0  0.4451135E-02  0.4969469E+03  0.7818609E-02  0.1014579E+00
        2   -1    0    0  501    0  0.00000000000E+00  0.00000000000E+00  0.20653103625E+03  0.20653103626E+03  0.25500000920E-02 0.  1.
       -2   -1    0    0    0  501  0.00000000000E+00  0.00000000000E+00 -0.29893350550E+03  0.29893350551E+03  0.25500000920E-02 0. -1.
    10030    2    1    2    0    0  0.00000000000E+00  0.00000000000E+00 -0.92402469256E+02  0.50546454177E+03  0.49694686503E+03 0.  0.
        1    1    3    3  502    0  0.31894501905E+02  0.13496961670E+02 -0.29646650335E+03  0.29848252019E+03  0.50400001928E-02 0. -1.
       -1    1    3    3    0  502 -0.31894501905E+02 -0.13496961670E+02  0.20406403409E+03  0.20698202159E+03  0.50400001928E-02 0.  1.
</event>
<event>
 5   0  0.4409622E-02  0.5005413E+03  0.7818609E-02  0.1013638E+00
        2   -1    0    0  501    0  0.00000000000E+00  0.00000000000E+00  0.22961547513E+03  0.22961547514E+03  0.25500000920E-02 0.  1.
       -2   -1    0    0    0  501  0.00000000000E+00  0.00000000000E+00 -0.27278381983E+03  0.27278381984E+03  0.25500000920E-02 0. -1.
    10030    2    1    2    0    0  0.00000000000E+00  0.00000000000E+00 -0.43168344706E+02  0.50239929498E+03  0.50054125266E+03 0.  0.
        3    1    3    3  502    0  0.13802663288E+03  0.23980297754E+02  0.18657169972E+03  0.23331398458E+03  0.10100000352E+00 0.  1.
       -3    1    3    3    0  502 -0.13802663288E+03 -0.23980297754E+02 -0.22974004442E+03  0.26908531040E+03  0.10100000352E+00 0. -1.
</event>
<event>
 5   0  0.1805500E-02  0.4984458E+03  0.7818609E-02  0.1014185E+00
        3   -1    0    0  501    0  0.00000000000E+00  0.00000000000E+00  0.20065546929E+03  0.20065549471E+03  0.10100000352E+00 0. -1.
       -3   -1    0    0    0  501  0.00000000000E+00  0.00000000000E+00 -0.30954575611E+03  0.30954577258E+03  0.10100000352E+00 0.  1.
    10030    2    1    2    0    0  0.00000000000E+00  0.00000000000E+00 -0.10889028682E+03  0.51020126729E+03  0.49844582311E+03 0.  0.
        5    1    3    3  502    0  0.86978916756E+02 -0.18754635081E+03  0.87943490431E+02  0.22471117722E+03  0.46999998093E+01 0. -1.
       -5    1    3    3    0  502 -0.86978916756E+02  0.18754635081E+03 -0.19683377725E+03  0.28549009007E+03  0.46999998093E+01 0.  1.
</event>
<event>
 5   0  0.2723308E-02  0.4971818E+03  0.7818609E-02  0.1014517E+00
       -1   -1    0    0    0  501  0.00000000000E+00  0.00000000000E+00  0.30311047144E+03  0.30311047149E+03  0.50400001928E-02 0. -1.
        1   -1    0    0  501    0  0.00000000000E+00  0.00000000000E+00 -0.20387759282E+03  0.20387759288E+03  0.50400001928E-02 0.  1.
    10030    2    1    2    0    0  0.00000000000E+00  0.00000000000E+00  0.99232878624E+02  0.50698806437E+03  0.49718179091E+03 0.  0.
        4    1    3    3  502    0  0.68837263651E+02  0.22936439179E+03  0.11763458974E+03  0.26680723882E+03  0.12699999809E+01 0.  1.
       -4    1    3    3    0  502 -0.68837263651E+02 -0.22936439179E+03 -0.18401711113E+02  0.24018082554E+03  0.12699999809E+01 0. -1.
</event>
<event>
 5   0  0.2719671E-02  0.5026945E+03  0.7818609E-02  0.1013078E+00
       -1   -1    0    0    0  501  0.00000000000E+00  0.00000000000E+00  0.25869107135E+03  0.25869107140E+03  0.50400001928E-02 0.  1.
        1   -1    0    0  501    0  0.00000000000E+00  0.00000000000E+00 -0.24421193356E+03  0.24421193361E+03  0.50400001928E-02 0. -1.
    10030    2    1    2    0    0  0.00000000000E+00  0.00000000000E+00  0.14479137791E+02  0.50290300501E+03  0.50269452654E+03 0.  0.
        2    1    3    3  502    0 -0.22969702782E+02 -0.22858596934E+03  0.10924407395E+03  0.25438832585E+03  0.25500000920E-02 0.  1.
       -2    1    3    3    0  502  0.22969702782E+02  0.22858596934E+03 -0.94764936159E+02  0.24851467916E+03  0.25500000920E-02 0. -1.
</event>
<event>
 5   0  0.2719671E-02  0.4982806E+03  0.7818609E-02  0.1014229E+00
       -1   -1    0    0    0  501  0.00000000000E+00  0.00000000000E+00  0.34582131890E+03  0.34582131894E+03  0.50400001928E-02 0. -1.
        1   -1    0    0  501    0  0.00000000000E+00  0.00000000000E+00 -0.17948830884E+03  0.17948830891E+03  0.50400001928E-02 0.  1.
    10030    2    1    2    0    0  0.00000000000E+00  0.00000000000E+00  0.16633301006E+03  0.52530962785E+03  0.49828057847E+03 0.  0.
        2    1    3    3  502    0  0.10399861501E+03  0.21012968030E+03  0.17200304885E+03  0.29078384289E+03  0.25500000920E-02 0. -1.
       -2    1    3    3    0  502 -0.10399861501E+03 -0.21012968030E+03 -0.56700387873E+01  0.23452578496E+03  0.25500000920E-02 0.  1.
</event>
<event>
 5   0  0.2643185E-02  0.5012842E+03  0.7818609E-02  0.1013444E+00
        1   -1    0    0  501    0  0.00000000000E+00  0.00000000000E+00  0.13710831905E+04  0.13710831905E+04  0.50400001928E-02 0.  1.
       -1   -1    0    0    0  501  0.00000000000E+00  0.00000000000E+00 -0.45818853283E+02  0.45818853560E+02  0.50400001928E-02 0. -1.
    10030    2    1    2    0    0  0.00000000000E+00  0.00000000000E+00  0.13252643372E+04  0.14169020441E+04  0.50128418985E+03 0.  0.
        1    1    3    3  502    0 -0.94592811473E+02  0.23062316656E+03  0.58856727637E+03  0.63917625408E+03  0.50400001928E-02 0.  1.
       -1    1    3    3    0  502  0.94592811473E+02 -0.23062316656E+03  0.73669706087E+03  0.77772579002E+03  0.50400001928E-02 0. -1.
</event>
<event>
 5   0  0.2715483E-02  0.4985205E+03  0.7818609E-02  0.1014166E+00
       -1   -1    0    0    0  501  0.00000000000E+00  0.00000000000E+00  0.53696575013E+02  0.53696575250E+02  0.50400001928E-02 0.  1.
        1   -1    0    0  501    0  0.00000000000E+00  0.00000000000E+00 -0.11570694760E+04  0.11570694761E+04  0.50400001928E-02 0. -1.
    10030    2    1    2    0    0  0.00000000000E+00  0.00000000000E+00 -0.11033729010E+04  0.12107660513E+04  0.49852048329E+03 0.  0.
        5    1    3    3  502    0 -0.15826843756E+03  0.92352490670E+02 -0.14145077991E+03  0.23153464966E+03  0.46999998093E+01 0.  1.
       -5    1    3    3    0  502  0.15826843756E+03 -0.92352490670E+02 -0.96192212113E+03  0.97923140165E+03  0.46999998093E+01 0. -1.
</event>
<event>
 5   0  0.2723308E-02  0.5005703E+03  0.7818609E-02  0.1013630E+00
        1   -1    0    0  501    0  0.00000000000E+00  0.00000000000E+00  0.86107905693E+03  0.86107905695E+03  0.50400001928E-02 0. -1.
       -1   -1    0    0    0  501  0.00000000000E+00  0.00000000000E+00 -0.72749018246E+02  0.72749018420E+02  0.50400001928E-02 0.  1.
    10030    2    1    2    0    0  0.00000000000E+00  0.00000000000E+00  0.78833003869E+03  0.93382807537E+03  0.50057029921E+03 0.  0.
        4    1    3    3  502    0  0.26333837537E+02  0.17439016352E+03  0.62879315493E+02  0.18724535067E+03  0.12699999809E+01 0.  1.
       -4    1    3    3    0  502 -0.26333837537E+02 -0.17439016352E+03  0.72545072319E+03  0.74658272469E+03  0.12699999809E+01 0. -1.
</event>
<event>
 5   0  0.4519539E-02  0.4998055E+03  0.7818609E-02  0.1013830E+00
        2   -1    0    0  501    0  0.00000000000E+00  0.00000000000E+00  0.49402145368E+03  0.49402145368E+03  0.25500000920E-02 0. -1.
       -2   -1    0    0    0  501  0.00000000000E+00  0.00000000000E+00 -0.12641433446E+03  0.12641433448E+03  0.25500000920E-02 0.  1.
    10030    2    1    2    0    0  0.00000000000E+00  0.00000000000E+00  0.36760711922E+03  0.62043578816E+03  0.49980553532E+03 0.  0.
        4    1    3    3  502    0  0.16482491989E+02  0.24767671494E+03  0.21966028477E+03  0.33146294102E+03  0.12699999809E+01 0.  1.
       -4    1    3    3    0  502 -0.16482491989E+02 -0.24767671494E+03  0.14794683445E+03  0.28897284715E+03  0.12699999809E+01 0. -1.
</event>
<event>
 5   0  0.1805500E-02  0.4975126E+03  0.7818609E-02  0.1014430E+00
        3   -1    0    0  501    0  0.00000000000E+00  0.00000000000E+00  0.44208658635E+03  0.44208659789E+03  0.10100000352E+00 0. -1.
       -3   -1    0    0    0  501  0.00000000000E+00  0.00000000000E+00 -0.13997185982E+03  0.13997189626E+03  0.10100000352E+00 0.  1.
    10030    2    1    2    0    0  0.00000000000E+00  0.00000000000E+00  0.30211472653E+03  0.58205849415E+03  0.49751259545E+03 0.  0.
        2    1    3    3  502    0  0.18498834696E+03  0.80709317493E+02  0.32118173392E+03  0.37933150231E+03  0.25500000920E-02 0. -1.
       -2    1    3    3    0  502 -0.18498834696E+03 -0.80709317493E+02 -0.19067007390E+02  0.20272699183E+03  0.25500000920E-02 0.  1.
</event>
<event>
 5   0  0.4519539E-02  0.5042693E+03  0.7818609E-02  0.1012671E+00
       -2   -1    0    0    0  501  0.00000000000E+00  0.00000000000E+00  0.11922497773E+03  0.11922497776E+03  0.25500000920E-02 0.  1.
        2   -1    0    0  501    0  0.00000000000E+00  0.00000000000E+00 -0.53320939797E+03  0.53320939798E+03  0.25500000920E-02 0. -1.
    10030    2    1    2    0    0  0.00000000000E+00  0.00000000000E+00 -0.41398442024E+03  0.65243437574E+03  0.50426928763E+03 0.  0.
        4    1    3    3  502    0  0.92420778060E+02  0.97831794004E+02  0.68860715866E+02  0.15118224507E+03  0.12699999809E+01 0.  1.
       -4    1    3    3    0  502 -0.92420778060E+02 -0.97831794004E+02 -0.48284513611E+03  0.50125213067E+03  0.12699999809E+01 0. -1.
</event>
<event>
 5   0  0.2643185E-02  0.4861731E+03  0.7818609E-02  0.1017452E+00
       -1   -1    0    0    0  501  0.00000000000E+00  0.00000000000E+00  0.16707112438E+03  0.16707112446E+03  0.50400001928E-02 0.  1.
        1   -1    0    0  501    0  0.00000000000E+00  0.00000000000E+00 -0.35368810502E+03  0.35368810505E+03  0.50400001928E-02 0. -1.
    10030    2    1    2    0    0  0.00000000000E+00  0.00000000000E+00 -0.18661698064E+03  0.52075922951E+03  0.48617309434E+03 0.  0.
        1    1    3    3  502    0  0.40388297954E+02  0.22839118963E+03 -0.17126890310E+03  0.28831716443E+03  0.50400001928E-02 0.  1.
       -1    1    3    3    0  502 -0.40388297954E+02 -0.22839118963E+03 -0.15348077542E+02  0.23244206508E+03  0.50400001928E-02 0. -1.
</event>
<event>
 5   0  0.2723308E-02  0.4884877E+03  0.7818609E-02  0.1016828E+00
        1   -1    0    0  501    0  0.00000000000E+00  0.00000000000E+00  0.13918683690E+04  0.13918683690E+04  0.50400001928E-02 0. -1.
       -1   -1    0    0    0  501  0.00000000000E+00  0.00000000000E+00 -0.42859692266E+02  0.42859692562E+02  0.50400001928E-02 0.  1.
    10030    2    1    2    0    0  0.00000000000E+00  0.00000000000E+00  0.13490086768E+04  0.14347280616E+04  0.48848766695E+03 0.  0.
        4    1    3    3  502    0  0.21795965777E+03  0.90282519790E+02  0.86017090269E+03  0.89193774476E+03  0.12699999809E+01 0. -1.
       -4    1    3    3    0  502 -0.21795965777E+03 -0.90282519790E+02  0.48883777408E+03  0.54279031685E+03  0.12699999809E+01 0.  1.
</event>
<event>
 5   0  0.4519539E-02  0.5024631E+03  0.7818609E-02  0.1013138E+00
       -2   -1    0    0    0  501  0.00000000000E+00  0.00000000000E+00  0.43478648840E+02  0.43478648915E+02  0.25500000920E-02 0. -1.
        2   -1    0    0  501    0  0.00000000000E+00  0.00000000000E+00 -0.14516849544E+04  0.14516849544E+04  0.25500000920E-02 0.  1.
    10030    2    1    2    0    0  0.00000000000E+00  0.00000000000E+00 -0.14082063055E+04  0.14951636033E+04  0.50246313463E+03 0.  0.
        4    1    3    3  502    0 -0.58196044760E+02  0.24351633019E+03 -0.64249138119E+03  0.68955331229E+03  0.12699999809E+01 0. -1.
       -4    1    3    3    0  502  0.58196044760E+02 -0.24351633019E+03 -0.76571492434E+03  0.80561029099E+03  0.12699999809E+01 0.  1.
</event>
<event>
 5   0  0.4519539E-02  0.4971401E+03  0.7818609E-02  0.1014528E+00
       -2   -1    0    0    0  501  0.00000000000E+00  0.00000000000E+00  0.62819404822E+03  0.62819404822E+03  0.25500000920E-02 0. -1.
        2   -1    0    0  501    0  0.00000000000E+00  0.00000000000E+00 -0.98356649862E+02  0.98356649895E+02  0.25500000920E-02 0.  1.
    10030    2    1    2    0    0  0.00000000000E+00  0.00000000000E+00  0.52983739835E+03  0.72655069812E+03  0.49714006903E+03 0.  0.
        4    1    3    3  502    0 -0.18881957116E+03  0.38429370621E+02  0.49439969435E+03  0.53062446010E+03  0.12699999809E+01 0. -1.
       -4    1    3    3    0  502  0.18881957116E+03 -0.38429370621E+02  0.35437704001E+02  0.19592623802E+03  0.12699999809E+01 0.  1.
</event>
<event>
 5   0  0.4631619E-02  0.5024061E+03  0.7818609E-02  0.1013153E+00
       -2   -1    0    0    0  501  0.00000000000E+00  0.00000000000E+00  0.15337145101E+03  0.15337145103E+03  0.25500000920E-02 0.  1.
        2   -1    0    0  501    0  0.00000000000E+00  0.00000000000E+00 -0.41143889243E+03  0.41143889244E+03  0.25500000920E-02 0. -1.
    10030    2    1    2    0    0  0.00000000000E+00  0.00000000000E+00 -0.25806744142E+03  0.56481034348E+03  0.50240613031E+03 0.  0.
        5    1    3    3  502    0  0.50865889519E+02  0.19571858864E+03  0.38423812251E+02  0.20589216595E+03  0.46999998093E+01 0.  1.
       -5    1    3    3    0  502 -0.50865889519E+02 -0.19571858864E+03 -0.29649125367E+03  0.35891817752E+03  0.46999998093E+01 0. -1.
</event>
<event>
 5   0  0.4451135E-02  0.4991366E+03  0.7818609E-02  0.1014005E+00
        2   -1    0    0  501    0  0.00000000000E+00  0.00000000000E+00  0.64574571833E+03  0.64574571833E+03  0.25500000920E-02 0. -1.
       -2   -1    0    0    0  501  0.00000000000E+00  0.00000000000E+00 -0.96453344751E+02  0.96453344785E+02  0.25500000920E-02 0.  1.
    10030    2    1    2    0    0  0.00000000000E+00  0.00000000000E+00  0.54929237358E+03  0.74219906312E+03  0.49913659215E+03 0.  0.
        1    1    3    3  502    0 -0.87668653302E+02 -0.17311221916E+03  0.41279220785E+02  0.19838751798E+03  0.50400001928E-02 0.  1.
       -1    1    3    3    0  502  0.87668653302E+02  0.17311221916E+03  0.50801315279E+03  0.54381154514E+03  0.50400001928E-02 0. -1.
</event>
<event>
 5   0  0.2715483E-02  0.4849348E+03  0.7818609E-02  0.1017788E+00
        1   -1    0    0  501    0  0.00000000000E+00  0.00000000000E+00  0.19165901112E+03  0.19165901119E+03  0.50400001928E-02 0. -1.
       -1   -1    0    0    0  501  0.00000000000E+00  0.00000000000E+00 -0.30674500052E+03  0.30674500056E+03  0.50400001928E-02 0.  1.
    10030    2    1    2    0    0  0.00000000000E+00  0.00000000000E+00 -0.11508598940E+03  0.49840401175E+03  0.48493481414E+03 0.  0.
        5    1    3    3  502    0  0.12265377340E+03  0.99084636699E+02  0.13170903416E+03  0.20550200252E+03  0.46999998093E+01 0. -1.
       -5    1    3    3    0  502 -0.12265377340E+03 -0.99084636699E+02 -0.24679502356E+03  0.29290200923E+03  0.46999998093E+01 0.  1.
</event>
<event>
 5   0  0.4631619E-02  0.5014586E+03  0.7818609E-02  0.1013399E+00
        2   -1    0    0  501    0  0.00000000000E+00  0.00000000000E+00  0.13012153217E+03  0.13012153220E+03  0.25500000920E-02 0.  1.
       -2   -1    0    0    0  501  0.00000000000E+00  0.00000000000E+00 -0.48312658255E+03  0.48312658256E+03  0.25500000920E-02 0. -1.
    10030    2    1    2    0    0  0.00000000000E+00  0.00000000000E+00 -0.35300505038E+03  0.61324811476E+03  0.50145855727E+03 0.  0.
        5    1    3    3  502    0  0.87123158978E+02  0.19225033546E+03 -0.11101936049E+02  0.21141423627E+03  0.46999998093E+01 0.  1.
       -5    1    3    3    0  502 -0.87123158978E+02 -0.19225033546E+03 -0.34190311433E+03  0.40183387849E+03  0.46999998093E+01 0. -1.
</event>
<event>
 5   0  0.1805500E-02  0.4998476E+03  0.7818609E-02  0.1013819E+00
       -4   -1    0    0    0  501  0.00000000000E+00  0.00000000000E+00  0.68382208688E+02  0.68394000943E+02  0.12699999809E+01 0. -1.
        4   -1    0    0  501    0  0.00000000000E+00  0.00000000000E+00 -0.91333224425E+03  0.91333312723E+03  0.12699999809E+01 0.  1.
    10030    2    1    2    0    0  0.00000000000E+00  0.00000000000E+00 -0.84495003556E+03  0.98172712817E+03  0.49984756835E+03 0.  0.
        3    1    3    3  502    0 -0.23246477514E+03  0.79271183205E+02 -0.51329193604E+03  0.56902760388E+03  0.10100000352E+00 0.  1.
       -3    1    3    3    0  502  0.23246477514E+03 -0.79271183205E+02 -0.33165809952E+03  0.41269952429E+03  0.10100000352E+00 0. -1.
</event>
<event>
 5   0  0.4631619E-02  0.4989329E+03  0.7818609E-02  0.1014058E+00
       -2   -1    0    0    0  501  0.00000000000E+00  0.00000000000E+00  0.13784399591E+03  0.13784399594E+03  0.25500000920E-02 0. -1.
        2   -1    0    0  501    0  0.00000000000E+00  0.00000000000E+00 -0.45147783997E+03  0.45147783998E+03  0.25500000920E-02 0.  1.
    10030    2    1    2    0    0  0.00000000000E+00  0.00000000000E+00 -0.31363384406E+03  0.58932183592E+03  0.49893289945E+03 0.  0.
        5    1    3    3  502    0 -0.77350099937E+02 -0.20280054731E+03 -0.30196238351E+03  0.37190653531E+03  0.46999998093E+01 0.  1.
       -5    1    3    3    0  502  0.77350099937E+02  0.20280054731E+03 -0.11671460551E+02  0.21741530061E+03  0.46999998093E+01 0. -1.
</event>
<event>
 5   0  0.2643185E-02  0.4905034E+03  0.7818609E-02  0.1016288E+00
       -1   -1    0    0    0  501  0.00000000000E+00  0.00000000000E+00  0.35739735655E+03  0.35739735658E+03  0.50400001928E-02 0. -1.
        1   -1    0    0  501    0  0.00000000000E+00  0.00000000000E+00 -0.16829556084E+03  0.16829556091E+03  0.50400001928E-02 0.  1.
    10030    2    1    2    0    0  0.00000000000E+00  0.00000000000E+00  0.18910179571E+03  0.52569291750E+03  0.49050336835E+03 0.  0.
        1    1    3    3  502    0  0.20626553751E+02  0.12376904697E+03  0.32039145988E+03  0.34408562785E+03  0.50400001928E-02 0. -1.
       -1    1    3    3    0  502 -0.20626553751E+02 -0.12376904697E+03 -0.13128966417E+03  0.18160728964E+03  0.50400001928E-02 0.  1.
</event>
<event>
 5   0  0.2719671E-02  0.5009525E+03  0.7818609E-02  0.1013531E+00
       -1   -1    0    0    0  501  0.00000000000E+00  0.00000000000E+00  0.68492450144E+02  0.68492450330E+02  0.50400001928E-02 0. -1.
        1   -1    0    0  501    0  0.00000000000E+00  0.00000000000E+00 -0.91598926779E+03  0.91598926780E+03  0.50400001928E-02 0.  1.
    10030    2    1    2    0    0  0.00000000000E+00  0.00000000000E+00 -0.84749681765E+03  0.98448171813E+03  0.50095249018E+03 0.  0.
        2    1    3    3  502    0 -0.20456652653E+03  0.29491930459E+02 -0.14567772222E+03  0.25286208987E+03  0.25500000920E-02 0. -1.
       -2    1    3    3    0  502  0.20456652653E+03 -0.29491930459E+02 -0.70181909543E+03  0.73161962826E+03  0.25500000920E-02 0.  1.
</event>
<event>
 5   0  0.2779445E-02  0.4917579E+03  0.7818609E-02  0.1015953E+00
       -1   -1    0    0    0  501  0.00000000000E+00  0.00000000000E+00  0.20981337952E+03  0.20981337958E+03  0.50400001928E-02 0. -1.
        1   -1    0    0  501    0  0.00000000000E+00  0.00000000000E+00 -0.28814400087E+03  0.28814400092E+03  0.50400001928E-02 0.  1.
    10030    2    1    2    0    0  0.00000000000E+00  0.00000000000E+00 -0.78330621359E+02  0.49795738050E+03  0.49175793491E+03 0.  0.
        3    1    3    3  502    0  0.19717095596E+02 -0.14387221581E+03  0.16175096094E+03  0.21737378386E+03  0.10100000352E+00 0. -1.
       -3    1    3    3    0  502 -0.19717095596E+02  0.14387221581E+03 -0.24008158230E+03  0.28058359664E+03  0.10100000352E+00 0.  1.
</event>
<event>
 5   0  0.1805500E-02  0.5019241E+03  0.7818609E-02  0.1013278E+00
        3   -1    0    0  501    0  0.00000000000E+00  0.00000000000E+00  0.94611138486E+02  0.94611192396E+02  0.10100000352E+00 0. -1.
       -3   -1    0    0    0  501  0.00000000000E+00  0.00000000000E+00 -0.66569239888E+03  0.66569240654E+03  0.10100000352E+00 0.  1.
    10030    2    1    2    0    0  0.00000000000E+00  0.00000000000E+00 -0.57108126040E+03  0.76030359894E+03  0.50192405460E+03 0.  0.
        5    1    3    3  502    0  0.31712486238E+02 -0.49573626027E+02 -0.65502425408E+03  0.65767932126E+03  0.46999998093E+01 0.  1.
       -5    1    3    3    0  502 -0.31712486238E+02  0.49573626027E+02  0.83942993689E+02  0.10262427768E+03  0.46999998093E+01 0. -1.
</event>
<event>
 5   0  0.2779445E-02  0.5005248E+03  0.7818609E-02  0.1013642E+00
        1   -1    0    0  501    0  0.00000000000E+00  0.00000000000E+00  0.12408588133E+04  0.12408588133E+04  0.50400001928E-02 0. -1.
       -1   -1    0    0    0  501  0.00000000000E+00  0.00000000000E+00 -0.50474123735E+02  0.50474123987E+02  0.50400001928E-02 0.  1.
    10030    2    1    2    0    0  0.00000000000E+00  0.00000000000E+00  0.11903846895E+04  0.12913329373E+04  0.50052477041E+03 0.  0.
        3    1    3    3  502    0  0.60227205261E+02  0.15549734074E+03  0.10766467592E+04  0.10894838198E+04  0.10100000352E+00 0. -1.
       -3    1    3    3    0  502 -0.60227205261E+02 -0.15549734074E+03  0.11373793030E+03  0.20184911746E+03  0.10100000352E+00 0.  1.
</event>
<event>
 5   0  0.4534223E-02  0.4980827E+03  0.7818609E-02  0.1014281E+00
        2   -1    0    0  501    0  0.00000000000E+00  0.00000000000E+00  0.10757465298E+04  0.10757465298E+04  0.25500000920E-02 0. -1.
       -2   -1    0    0    0  501  0.00000000000E+00  0.00000000000E+00 -0.57654458388E+02  0.57654458444E+02  0.25500000920E-02 0.  1.
    10030    2    1    2    0    0  0.00000000000E+00  0.00000000000E+00  0.10180920715E+04  0.11334009883E+04  0.49808265810E+03 0.  0.
        2    1    3    3  502    0 -0.47804220409E+02  0.12357057043E+03  0.98888928861E+03  0.99772589146E+03  0.25500000920E-02 0. -1.
       -2    1    3    3    0  502  0.47804220409E+02 -0.12357057043E+03  0.29202782847E+02  0.13567509683E+03  0.25500000920E-02 0.  1.
</event>
<event>
 5   0  0.2779445E-02  0.5006201E+03  0.7818609E-02  0.1013617E+00
       -1   -1    0    0    0  501  0.00000000000E+00  0.00000000000E+00  0.17845886344E+03  0.17845886351E+03  0.50400001928E-02 0.  1.
        1   -1    0    0  501    0  0.00000000000E+00  0.00000000000E+00 -0.35108996264E+03  0.35108996268E+03  0.50400001928E-02 0. -1.
    10030    2    1    2    0    0  0.00000000000E+00  0.00000000000E+00 -0.17263109921E+03  0.52954882619E+03  0.50062007840E+03 0.  0.
        3    1    3    3  502    0 -0.15570513936E+03 -0.16250299589E+03  0.29577386624E+02  0.22699371378E+03  0.10100000352E+00 0.  1.
       -3    1    3    3    0  502  0.15570513936E+03  0.16250299589E+03 -0.20220848583E+03  0.30255511240E+03  0.10100000352E+00 0. -1.
</event>
<event>
 5   0  0.2719671E-02  0.5003530E+03  0.7818609E-02  0.1013687E+00
        1   -1    0    0  501    0  0.00000000000E+00  0.00000000000E+00  0.21568674505E+03  0.21568674511E+03  0.50400001928E-02 0.  1.
       -1   -1    0    0    0  501  0.00000000000E+00  0.00000000000E+00 -0.29018139902E+03  0.29018139907E+03  0.50400001928E-02 0. -1.
    10030    2    1    2    0    0  0.00000000000E+00  0.00000000000E+00 -0.74494653970E+02  0.50586814418E+03  0.50035300122E+03 0.  0.
        2    1    3    3  502    0 -0.17947483881E+03  0.17139770172E+02 -0.21260448642E+03  0.27875734455E+03  0.25500000920E-02 0.  1.
       -2    1    3    3    0  502  0.17947483881E+03 -0.17139770172E+02  0.13810983245E+03  0.22711079964E+03  0.25500000920E-02 0. -1.
</event>
<event>
 5   0  0.2643185E-02  0.5031453E+03  0.7818609E-02  0.1012961E+00
        1   -1    0    0  501    0  0.00000000000E+00  0.00000000000E+00  0.61778732412E+03  0.61778732414E+03  0.50400001928E-02 0. -1.
       -1   -1    0    0    0  501  0.00000000000E+00  0.00000000000E+00 -0.10244431964E+03  0.10244431976E+03  0.50400001928E-02 0.  1.
    10030    2    1    2    0    0  0.00000000000E+00  0.00000000000E+00  0.51534300448E+03  0.72023164390E+03  0.50314531560E+03 0.  0.
        1    1    3    3  502    0  0.13094325751E+03  0.20582464277E+03  0.16967601048E+03  0.29715293843E+03  0.50400001928E-02 0.  1.
       -1    1    3    3    0  502 -0.13094325751E+03 -0.20582464277E+03  0.34566699400E+03  0.42307870548E+03  0.50400001928E-02 0. -1.
</event>
<event>
 5   0  0.4451135E-02  0.5006085E+03  0.7818609E-02  0.1013620E+00
       -2   -1    0    0    0  501  0.00000000000E+00  0.00000000000E+00  0.71522417446E+03  0.71522417447E+03  0.25500000920E-02 0.  1.
        2   -1    0    0  501    0  0.00000000000E+00  0.00000000000E+00 -0.87598018262E+02  0.87598018299E+02  0.25500000920E-02 0. -1.
    10030    2    1    2    0    0  0.00000000000E+00  0.00000000000E+00  0.62762615620E+03  0.80282219277E+03  0.50060851096E+03 0.  0.
        1    1    3    3  502    0  0.24593241913E+03  0.26949259230E+02  0.25288957857E+03  0.35378263995E+03  0.50400001928E-02 0. -1.
       -1    1    3    3    0  502 -0.24593241913E+03 -0.26949259230E+02  0.37473657763E+03  0.44903955282E+03  0.50400001928E-02 0.  1.
</event>
<event>
 5   0  0.4534223E-02  0.5012827E+03  0.7818609E-02  0.1013445E+00
        2   -1    0    0  501    0  0.00000000000E+00  0.00000000000E+00  0.19245807062E+04  0.19245807062E+04  0.25500000920E-02 0. -1.
       -2   -1    0    0    0  501  0.00000000000E+00  0.00000000000E+00 -0.32641442828E+02  0.32641442928E+02  0.25500000920E-02 0.  1.
    10030    2    1    2    0    0  0.00000000000E+00  0.00000000000E+00  0.18919392634E+04  0.19572221491E+04  0.50128271939E+03 0.  0.
        2    1    3    3  502    0  0.23757624223E+03 -0.54704368617E+02  0.11731674848E+04  0.11982307734E+04  0.25500000920E-02 0. -1.
       -2    1    3    3    0  502 -0.23757624223E+03  0.54704368617E+02  0.71877177856E+03  0.75899137576E+03  0.25500000920E-02 0.  1.
</event>
<event>
 5   0  0.1805500E-02  0.5005283E+03  0.7818609E-02  0.1013641E+00
        3   -1    0    0  501    0  0.00000000000E+00  0.00000000000E+00  0.76902322131E+03  0.76902322794E+03  0.10100000352E+00 0. -1.
       -3   -1    0    0    0  501  0.00000000000E+00  0.00000000000E+00 -0.81443717510E+02  0.81443780136E+02  0.10100000352E+00 0.  1.
    10030    2    1    2    0    0  0.00000000000E+00  0.00000000000E+00  0.68757950380E+03  0.85046700808E+03  0.50052827871E+03 0.  0.
        3    1    3    3  502    0  0.82020636083E+02 -0.13872532345E+03  0.66912060690E+03  0.68825467444E+03  0.10100000352E+00 0. -1.
       -3    1    3    3    0  502 -0.82020636083E+02  0.13872532345E+03  0.18458896904E+02  0.16221233364E+03  0.10100000352E+00 0.  1.
</event>
<event>
 5   0  0.2779445E-02  0.4971355E+03  0.7818609E-02  0.1014529E+00
       -1   -1    0    0    0  501  0.00000000000E+00  0.00000000000E+00  0.51272886786E+02  0.51272887033E+02  0.50400001928E-02 0. -1.
        1   -1    0    0  501    0  0.00000000000E+00  0.00000000000E+00 -0.12050410604E+04  0.12050410604E+04  0.50400001928E-02 0.  1.
    10030    2    1    2    0    0  0.00000000000E+00  0.00000000000E+00 -0.11537681736E+04  0.12563139475E+04  0.49713553092E+03 0.  0.
        3    1    3    3  502    0 -0.11348247730E+03  0.18860647273E+03 -0.28505810713E+03  0.36015109170E+03  0.10100000352E+00 0.  1.
       -3    1    3    3    0  502  0.11348247730E+03 -0.18860647273E+03 -0.86871006651E+03  0.89616285578E+03  0.10100000352E+00 0. -1.
</event>
<event>
 5   0  0.4451135E-02  0.5022020E+03  0.7818609E-02  0.1013206E+00
        2   -1    0    0  501    0  0.00000000000E+00  0.00000000000E+00  0.59428316011E+03  0.59428316012E+03  0.25500000920E-02 0.  1.
       -2   -1    0    0    0  501  0.00000000000E+00  0.00000000000E+00 -0.10609709526E+03  0.10609709529E+03  0.25500000920E-02 0. -1.
    10030    2    1    2    0    0  0.00000000000E+00  0.00000000000E+00  0.48818606485E+03  0.70038025541E+03  0.50220201936E+03 0.  0.
        1    1    3    3  502    0 -0.20144614080E+03  0.13849094225E+03  0.32410365316E+03  0.40595993243E+03  0.50400001928E-02 0.  1.
       -1    1    3    3    0  502  0.20144614080E+03 -0.13849094225E+03  0.16408241170E+03  0.29442032298E+03  0.50400001928E-02 0. -1.
</event>
<event>
 5   0  0.2643185E-02  0.4943561E+03  0.7818609E-02  0.1015263E+00
       -1   -1    0    0    0  501  0.00000000000E+00  0.00000000000E+00  0.41246365676E+02  0.41246365984E+02  0.50400001928E-02 0. -1.
        1   -1    0    0  501    0  0.00000000000E+00  0.00000000000E+00 -0.14812697976E+04  0.14812697976E+04  0.50400001928E-02 0.  1.
    10030    2    1    2    0    0  0.00000000000E+00  0.00000000000E+00 -0.14400234320E+04  0.15225161636E+04  0.49435613066E+03 0.  0.
        1    1    3    3  502    0 -0.10656876552E+03  0.15168097628E+03 -0.12235652389E+04  0.12375281468E+04  0.50400001928E-02 0.  1.
       -1    1    3    3    0  502  0.10656876552E+03 -0.15168097628E+03 -0.21645819309E+03  0.28498801682E+03  0.50400001928E-02 0. -1.
</event>
<event>
 5   0  0.2779445E-02  0.5000413E+03  0.7818609E-02  0.1013768E+00
        1   -1    0    0  501    0  0.00000000000E+00  0.00000000000E+00  0.23346306491E+03  0.23346306496E+03  0.50400001928E-02 0. -1.
       -1   -1    0    0    0  501  0.00000000000E+00  0.00000000000E+00 -0.26775253922E+03  0.26775253927E+03  0.50400001928E-02 0.  1.
    10030    2    1    2    0    0  0.00000000000E+00  0.00000000000E+00 -0.34289474314E+02  0.50121560424E+03  0.50004131217E+03 0.  0.
        3    1    3    3  502    0 -0.45657801989E+01  0.11238739293E+03  0.20666990809E+03  0.23529605511E+03  0.10100000352E+00 0. -1.
       -3    1    3    3    0  502  0.45657801989E+01 -0.11238739293E+03 -0.24095938240E+03  0.26591954913E+03  0.10100000352E+00 0.  1.
</event>
<event>
 5   0  0.4519539E-02  0.4990373E+03  0.7818609E-02  0.1014031E+00
       -2   -1    0    0    0  501  0.00000000000E+00  0.00000000000E+00  0.95683969421E+03  0.95683969421E+03  0.25500000920E-02 0. -1.
        2   -1    0    0  501    0  0.00000000000E+00  0.00000000000E+00 -0.65067897350E+02  0.65067897400E+02  0.25500000920E-02 0.  1.
    10030    2    1    2    0    0  0.00000000000E+00  0.00000000000E+00  0.89177179686E+03  0.10219075916E+04  0.49903726126E+03 0.  0.
        4    1    3    3  502    0 -0.58781003296E+02 -0.15138314854E+03  0.83380430929E+03  0.84947236747E+03  0.12699999809E+01 0. -1.
       -4    1    3    3    0  502  0.58781003296E+02  0.15138314854E+03  0.57967487572E+02  0.17243522414E+03  0.12699999809E+01 0.  1.
</event>
<event>
 5   0  0.1805500E-02  0.4999630E+03  0.7818609E-02  0.1013789E+00
       -4   -1    0    0    0  501  0.00000000000E+00  0.00000000000E+00  0.22675849743E+03  0.22676205383E+03  0.12699999809E+01 0.  1.
        4   -1    0    0  501    0  0.00000000000E+00  0.00000000000E+00 -0.27557562197E+03  0.27557854838E+03  0.12699999809E+01 0. -1.
    10030    2    1    2    0    0  0.00000000000E+00  0.00000000000E+00 -0.48817124543E+02  0.50234060220E+03  0.49996296760E+03 0.  0.
        2    1    3    3  502    0 -0.22220892545E+03 -0.11382663066E+03 -0.37015496478E+02  0.25239543456E+03  0.25500000920E-02 0. -1.
       -2    1    3    3    0  502  0.22220892545E+03  0.11382663066E+03 -0.11801628065E+02  0.24994516765E+03  0.25500000920E-02 0.  1.
</event>
<event>
 5   0  0.2715483E-02  0.4952458E+03  0.7818609E-02  0.1015027E+00
       -1   -1    0    0    0  501  0.00000000000E+00  0.00000000000E+00  0.80646718749E+02  0.80646718907E+02  0.50400001928E-02 0.  1.
        1   -1    0    0  501    0  0.00000000000E+00  0.00000000000E+00 -0.76031748920E+03  0.76031748922E+03  0.50400001928E-02 0. -1.
    10030    2    1    2    0    0  0.00000000000E+00  0.00000000000E+00 -0.67967077045E+03  0.84096420813E+03  0.49524584111E+03 0.  0.
        5    1    3    3  502    0 -0.23993280656E+01 -0.18228661915E+03 -0.55384620556E+02  0.19058781307E+03  0.46999998093E+01 0.  1.
       -5    1    3    3    0  502  0.23993280656E+01  0.18228661915E+03 -0.62428614990E+03  0.65037639506E+03  0.46999998093E+01 0. -1.
</event>
<event>
 5   0  0.4451135E-02  0.5002075E+03  0.7818609E-02  0.1013725E+00
        2   -1    0    0  501    0  0.00000000000E+00  0.00000000000E+00  0.68579840667E+03  0.68579840668E+03  0.25500000920E-02 0. -1.
       -2   -1    0    0    0  501  0.00000000000E+00  0.00000000000E+00 -0.91210296435E+02  0.91210296470E+02  0.25500000920E-02 0.  1.
    10030    2    1    2    0    0  0.00000000000E+00  0.00000000000E+00  0.59458811024E+03  0.77700870315E+03  0.50020746089E+03 0.  0.
        1    1    3    3  502    0  0.70458409024E+02 -0.39502781846E+02 -0.70389727689E+02  0.10714275974E+03  0.50400001928E-02 0.  1.
       -1    1    3    3    0  502 -0.70458409024E+02  0.39502781846E+02  0.66497783792E+03  0.66986594340E+03  0.50400001928E-02 0. -1.
</event>
<event>
 5   0  0.4631619E-02  0.4994370E+03  0.7818609E-02  0.1013926E+00
       -2   -1    0    0    0  501  0.00000000000E+00  0.00000000000E+00  0.53426144193E+02  0.53426144254E+02  0.25500000920E-02 0. -1.
        2   -1    0    0  501    0  0.00000000000E+00  0.00000000000E+00 -0.11672061248E+04  0.11672061248E+04  0.25500000920E-02 0.  1.
    10030    2    1    2    0    0  0.00000000000E+00  0.00000000000E+00 -0.11137799806E+04  0.12206322691E+04  0.49943697406E+03 0.  0.
        5    1    3    3  502    0 -0.21949806256E+03  0.98450365888E+02 -0.72020734414E+03  0.75933693613E+03  0.46999998093E+01 0.  1.
       -5    1    3    3    0  502  0.21949806256E+03 -0.98450365888E+02 -0.39357263647E+03  0.46129533293E+03  0.46999998093E+01 0. -1.
</event>
<event>
 5   0  0.4519539E-02  0.4990050E+03  0.7818609E-02  0.1014039E+00
        2   -1    0    0  501    0  0.00000000000E+00  0.00000000000E+00  0.59014807878E+03  0.59014807879E+03  0.25500000920E-02 0. -1.
       -2   -1    0    0    0  501  0.00000000000E+00  0.00000000000E+00 -0.10548454603E+03  0.10548454606E+03  0.25500000920E-02 0.  1.
    10030    2    1    2    0    0  0.00000000000E+00  0.00000000000E+00  0.48466353275E+03  0.69563262485E+03  0.49900501880E+03 0.  0.
        4    1    3    3  502    0  0.19820799432E+03 -0.75172188726E+02  0.42575589133E+03  0.47561219378E+03  0.12699999809E+01 0. -1.
       -4    1    3    3    0  502 -0.19820799432E+03  0.75172188726E+02  0.58907641421E+02  0.22002043107E+03  0.12699999809E+01 0.  1.
</event>
<event>
 5   0  0.2779445E-02  0.5146456E+03  0.7818609E-02  0.1010025E+00
        1   -1    0    0  501    0  0.00000000000E+00  0.00000000000E+00  0.32898284589E+03  0.32898284593E+03  0.50400001928E-02 0.  1.
       -1   -1    0    0    0  501  0.00000000000E+00  0.00000000000E+00 -0.20127195032E+03  0.20127195038E+03  0.50400001928E-02 0. -1.
    10030    2    1    2    0    0  0.00000000000E+00  0.00000000000E+00  0.12771089557E+03  0.53025479631E+03  0.51464558306E+03 0.  0.
        3    1    3    3  502    0 -0.30337930115E+02 -0.34401507843E+02  0.32473687190E+03  0.32796021088E+03  0.10100000352E+00 0.  1.
       -3    1    3    3    0  502  0.30337930115E+02  0.34401507843E+02 -0.19702597633E+03  0.20229458543E+03  0.10100000352E+00 0. -1.
</event>
<event>
 5   0  0.2779445E-02  0.5013861E+03  0.7818609E-02  0.1013418E+00
       -1   -1    0    0    0  501  0.00000000000E+00  0.00000000000E+00  0.15322742957E+03  0.15322742965E+03  0.50400001928E-02 0. -1.
        1   -1    0    0  501    0  0.00000000000E+00  0.00000000000E+00 -0.41015504214E+03  0.41015504217E+03  0.50400001928E-02 0.  1.
    10030    2    1    2    0    0  0.00000000000E+00  0.00000000000E+00 -0.25692761257E+03  0.56338247183E+03  0.50138609021E+03 0.  0.
        3    1    3    3  502    0  0.18918855669E+03  0.61345385185E+02 -0.29994997305E+03  0.35989660016E+03  0.10100000352E+00 0.  1.
       -3    1    3    3    0  502 -0.18918855669E+03 -0.61345385185E+02  0.43022360480E+02  0.20348587167E+03  0.10100000352E+00 0. -1.
</event>
<event>
 5   0  0.4409622E-02  0.4989588E+03  0.7818609E-02  0.1014051E+00
       -2   -1    0    0    0  501  0.00000000000E+00  0.00000000000E+00  0.88219188300E+02  0.88219188337E+02  0.25500000920E-02 0.  1.
        2   -1    0    0  501    0  0.00000000000E+00  0.00000000000E+00 -0.70551514909E+03  0.70551514909E+03  0.25500000920E-02 0. -1.
    10030    2    1    2    0    0  0.00000000000E+00  0.00000000000E+00 -0.61729596079E+03  0.79373433743E+03  0.49895881113E+03 0.  0.
        3    1    3    3  502    0  0.12185382719E+03 -0.19985558027E+03 -0.17134820698E+03  0.29008761850E+03  0.10100000352E+00 0.  1.
       -3    1    3    3    0  502 -0.12185382719E+03  0.19985558027E+03 -0.44594775380E+03  0.50364671893E+03  0.10100000352E+00 0. -1.
</event>
<event>
 5   0  0.4519539E-02  0.5017756E+03  0.7818609E-02  0.1013316E+00
       -2   -1    0    0    0  501  0.00000000000E+00  0.00000000000E+00  0.73122036442E+02  0.73122036487E+02  0.25500000920E-02 0.  1.
        2   -1    0    0  501    0  0.00000000000E+00  0.00000000000E+00 -0.86081710906E+03  0.86081710906E+03  0.25500000920E-02 0. -1.
    10030    2    1    2    0    0  0.00000000000E+00  0.00000000000E+00 -0.78769507262E+03  0.93393914555E+03  0.50177564724E+03 0.  0.
        4    1    3    3  502    0  0.21257418938E+03 -0.90528533717E+02 -0.57583243442E+03  0.62045773977E+03  0.12699999809E+01 0.  1.
       -4    1    3    3    0  502 -0.21257418938E+03  0.90528533717E+02 -0.21186263820E+03  0.31348140578E+03  0.12699999809E+01 0. -1.
</event>
<event>
 5   0  0.2719671E-02  0.4964456E+03  0.7818609E-02  0.1014711E+00
        1   -1    0    0  501    0  0.00000000000E+00  0.00000000000E+00  0.49803572804E+03  0.49803572807E+03  0.50400001928E-02 0.  1.
       -1   -1    0    0    0  501  0.00000000000E+00  0.00000000000E+00 -0.12371514724E+03  0.12371514734E+03  0.50400001928E-02 0. -1.
    10030    2    1    2    0    0  0.00000000000E+00  0.00000000000E+00  0.37432058080E+03  0.62175087541E+03  0.49644562025E+03 0.  0.
        2    1    3    3  502    0 -0.87466902228E+02  0.10279057168E+03 -0.73743623732E+02  0.15380013868E+03  0.25500000920E-02 0. -1.
       -2    1    3    3    0  502  0.87466902228E+02 -0.10279057168E+03  0.44806420453E+03  0.46795073673E+03  0.25500000920E-02 0.  1.
</event>
<event>
 5   0  0.2643185E-02  0.5022625E+03  0.7818609E-02  0.1013190E+00
       -1   -1    0    0    0  501  0.00000000000E+00  0.00000000000E+00  0.44346525172E+03  0.44346525175E+03  0.50400001928E-02 0.  1.
        1   -1    0    0  501    0  0.00000000000E+00  0.00000000000E+00 -0.14221385598E+03  0.14221385607E+03  0.50400001928E-02 0. -1.
    10030    2    1    2    0    0  0.00000000000E+00  0.00000000000E+00  0.30125139575E+03  0.58567910782E+03  0.50226249501E+03 0.  0.
        1    1    3    3  502    0  0.11406588521E+03 -0.13982695855E+03  0.35428746454E+03  0.39759553829E+03  0.50400001928E-02 0.  1.
       -1    1    3    3    0  502 -0.11406588521E+03  0.13982695855E+03 -0.53036068797E+02  0.18808356953E+03  0.50400001928E-02 0. -1.
</event>
<event>
 5   0  0.2719671E-02  0.5030437E+03  0.7818609E-02  0.1012988E+00
       -1   -1    0    0    0  501  0.00000000000E+00  0.00000000000E+00  0.59396069399E+02  0.59396069613E+02  0.50400001928E-02 0.  1.
        1   -1    0    0  501    0  0.00000000000E+00  0.00000000000E+00 -0.10651081726E+04  0.10651081726E+04  0.50400001928E-02 0. -1.
    10030    2    1    2    0    0  0.00000000000E+00  0.00000000000E+00 -0.10057121032E+04  0.11245042422E+04  0.50304369218E+03 0.  0.
        2    1    3    3  502    0  0.12169459696E+03  0.14843538576E+03 -0.13950474045E+03  0.23728508442E+03  0.25500000920E-02 0.  1.
       -2    1    3    3    0  502 -0.12169459696E+03 -0.14843538576E+03 -0.86620736271E+03  0.88721915776E+03  0.25500000920E-02 0. -1.
</event>
<event>
 5   0  0.1805500E-02  0.5005666E+03  0.7818609E-02  0.1013631E+00
        3   -1    0    0  501    0  0.00000000000E+00  0.00000000000E+00  0.16035032979E+03  0.16035036160E+03  0.10100000352E+00 0. -1.
       -3   -1    0    0    0  501  0.00000000000E+00  0.00000000000E+00 -0.39065530995E+03  0.39065532300E+03  0.10100000352E+00 0.  1.
    10030    2    1    2    0    0  0.00000000000E+00  0.00000000000E+00 -0.23030498015E+03  0.55100568460E+03  0.50056655959E+03 0.  0.
        2    1    3    3  502    0 -0.89528936154E+02 -0.19019216439E+03 -0.26468321803E+03  0.33800250845E+03  0.25500000920E-02 0.  1.
       -2    1    3    3    0  502  0.89528936154E+02  0.19019216439E+03  0.34378237880E+02  0.21300317615E+03  0.25500000920E-02 0. -1.
</event>
<event>
 5   0  0.4519539E-02  0.4979133E+03  0.7818609E-02  0.1014325E+00
        2   -1    0    0  501    0  0.00000000000E+00  0.00000000000E+00  0.99688702153E+03  0.99688702154E+03  0.25500000920E-02 0.  1.
       -2   -1    0    0    0  501  0.00000000000E+00  0.00000000000E+00 -0.62172962305E+02  0.62172962357E+02  0.25500000920E-02 0. -1.
    10030    2    1    2    0    0  0.00000000000E+00  0.00000000000E+00  0.93471405923E+03  0.10590599839E+04  0.49791332274E+03 0.  0.
        4    1    3    3  502    0 -0.13922908938E+03  0.19903031533E+02  0.30431650061E+02  0.14390471924E+03  0.12699999809E+01 0. -1.
       -4    1    3    3    0  502  0.13922908938E+03 -0.19903031533E+02  0.90428240917E+03  0.91515526465E+03  0.12699999809E+01 0.  1.
</event>
<event>
 5   0  0.4519539E-02  0.5024557E+03  0.7818609E-02  0.1013140E+00
        2   -1    0    0  501    0  0.00000000000E+00  0.00000000000E+00  0.19536751617E+04  0.19536751617E+04  0.25500000920E-02 0. -1.
       -2   -1    0    0    0  501  0.00000000000E+00  0.00000000000E+00 -0.32305998817E+02  0.32305998918E+02  0.25500000920E-02 0.  1.
    10030    2    1    2    0    0  0.00000000000E+00  0.00000000000E+00  0.19213691628E+04  0.19859811606E+04  0.50245567989E+03 0.  0.
        4    1    3    3  502    0  0.12640756252E+03 -0.33046924372E+02  0.11256237748E+03  0.17246122114E+03  0.12699999809E+01 0.  1.
       -4    1    3    3    0  502 -0.12640756252E+03  0.33046924372E+02  0.18088067854E+04  0.18135199394E+04  0.12699999809E+01 0. -1.
</event>
<event>
 5   0  0.4631619E-02  0.5024267E+03  0.7818609E-02  0.1013147E+00
       -2   -1    0    0    0  501  0.00000000000E+00  0.00000000000E+00  0.14203488936E+03  0.14203488938E+03  0.25500000920E-02 0. -1.
        2   -1    0    0  501    0  0.00000000000E+00  0.00000000000E+00 -0.44431445908E+03  0.44431445909E+03  0.25500000920E-02 0.  1.
    10030    2    1    2    0    0  0.00000000000E+00  0.00000000000E+00 -0.30227956972E+03  0.58634934847E+03  0.50242673116E+03 0.  0.
        5    1    3    3  502    0  0.21761113451E+01 -0.13360956419E+03 -0.39933654606E+03  0.42112708073E+03  0.46999998093E+01 0.  1.
       -5    1    3    3    0  502 -0.21761113451E+01  0.13360956419E+03  0.97056976337E+02  0.16522226774E+03  0.46999998093E+01 0. -1.
</event>
<event>
 5   0  0.1805500E-02  0.4984155E+03  0.7818609E-02  0.1014193E+00
       -3   -1    0    0    0  501  0.00000000000E+00  0.00000000000E+00  0.76640472453E+02  0.76640539004E+02  0.10100000352E+00 0.  1.
        3   -1    0    0  501    0  0.00000000000E+00  0.00000000000E+00 -0.81033529348E+03  0.81033529977E+03  0.10100000352E+00 0. -1.
    10030    2    1    2    0    0  0.00000000000E+00  0.00000000000E+00 -0.73369482102E+03  0.88697583877E+03  0.49841553765E+03 0.  0.
        4    1    3    3  502    0 -0.80430659485E+02  0.17041980872E+02 -0.78549929762E+03  0.78979128860E+03  0.12699999809E+01 0. -1.
       -4    1    3    3    0  502  0.80430659485E+02 -0.17041980872E+02  0.51804476592E+02  0.97184550172E+02  0.12699999809E+01 0.  1.
</event>
<event>
 5   0  0.2779445E-02  0.5068371E+03  0.7818609E-02  0.1012010E+00
        1   -1    0    0  501    0  0.00000000000E+00  0.00000000000E+00  0.92281557756E+03  0.92281557758E+03  0.50400001928E-02 0. -1.
       -1   -1    0    0    0  501  0.00000000000E+00  0.00000000000E+00 -0.69592413014E+02  0.69592413196E+02  0.50400001928E-02 0.  1.
    10030    2    1    2    0    0  0.00000000000E+00  0.00000000000E+00  0.85322316455E+03  0.99240799077E+03  0.50683710561E+03 0.  0.
        3    1    3    3  502    0 -0.18489448411E+03 -0.10067521790E+03  0.70282371202E+03  0.73367748373E+03  0.10100000352E+00 0. -1.
       -3    1    3    3    0  502  0.18489448411E+03  0.10067521790E+03  0.15039945253E+03  0.25873050705E+03  0.10100000352E+00 0.  1.
</event>
<event>
 5   0  0.2719671E-02  0.4993586E+03  0.7818609E-02  0.1013946E+00
       -1   -1    0    0    0  501  0.00000000000E+00  0.00000000000E+00  0.19694298096E+03  0.19694298103E+03  0.50400001928E-02 0.  1.
        1   -1    0    0  501    0  0.00000000000E+00  0.00000000000E+00 -0.31653712587E+03  0.31653712591E+03  0.50400001928E-02 0. -1.
    10030    2    1    2    0    0  0.00000000000E+00  0.00000000000E+00 -0.11959414491E+03  0.51348010694E+03  0.49935864940E+03 0.  0.
        2    1    3    3  502    0  0.21050839091E+03 -0.11679064753E+03 -0.12789623242E+03  0.27260096161E+03  0.25500000920E-02 0. -1.
       -2    1    3    3    0  502 -0.21050839091E+03  0.11679064753E+03  0.83020875144E+01  0.24087914534E+03  0.25500000920E-02 0.  1.
</event>
<event>
 5   0  0.4451135E-02  0.4993532E+03  0.7818609E-02  0.1013948E+00
       -2   -1    0    0    0  501  0.00000000000E+00  0.00000000000E+00  0.13408611986E+03  0.13408611989E+03  0.25500000920E-02 0.  1.
        2   -1    0    0  501    0  0.00000000000E+00  0.00000000000E+00 -0.46491308846E+03  0.46491308846E+03  0.25500000920E-02 0. -1.
    10030    2    1    2    0    0  0.00000000000E+00  0.00000000000E+00 -0.33082696859E+03  0.59899920835E+03  0.49935315004E+03 0.  0.
        1    1    3    3  502    0  0.61407026982E+02  0.19981126855E+03 -0.16275289639E+01  0.20904070149E+03  0.50400001928E-02 0.  1.
       -1    1    3    3    0  502 -0.61407026982E+02 -0.19981126855E+03 -0.32919943963E+03  0.38995850687E+03  0.50400001928E-02 0. -1.
</event>
<event>
 5   0  0.2719671E-02  0.5187650E+03  0.7818609E-02  0.1008994E+00
        1   -1    0    0  501    0  0.00000000000E+00  0.00000000000E+00  0.25013398429E+03  0.25013398434E+03  0.50400001928E-02 0. -1.
       -1   -1    0    0    0  501  0.00000000000E+00  0.00000000000E+00 -0.26897302177E+03  0.26897302182E+03  0.50400001928E-02 0.  1.
    10030    2    1    2    0    0  0.00000000000E+00  0.00000000000E+00 -0.18839037481E+02  0.51910700617E+03  0.51876504751E+03 0.  0.
        2    1    3    3  502    0 -0.20312313289E+03  0.21026742685E+02  0.15061764836E+03  0.25374555568E+03  0.25500000920E-02 0. -1.
       -2    1    3    3    0  502  0.20312313289E+03 -0.21026742685E+02 -0.16945668584E+03  0.26536145049E+03  0.25500000920E-02 0.  1.
</event>
<event>
 5   0  0.4451135E-02  0.5011865E+03  0.7818609E-02  0.1013470E+00
        2   -1    0    0  501    0  0.00000000000E+00  0.00000000000E+00  0.94839084571E+03  0.94839084572E+03  0.25500000920E-02 0.  1.
       -2   -1    0    0    0  501  0.00000000000E+00  0.00000000000E+00 -0.66214245074E+02  0.66214245123E+02  0.25500000920E-02 0. -1.
    10030    2    1    2    0    0  0.00000000000E+00  0.00000000000E+00  0.88217660064E+03  0.10146050908E+04  0.50118652779E+03 0.  0.
        1    1    3    3  502    0  0.20641390051E+03  0.15069990382E+02  0.15505768499E+03  0.25860527573E+03  0.50400001928E-02 0. -1.
       -1    1    3    3    0  502 -0.20641390051E+03 -0.15069990382E+02  0.72711891565E+03  0.75599981511E+03  0.50400001928E-02 0.  1.
</event>
<event>
 5   0  0.2715483E-02  0.5009784E+03  0.7818609E-02  0.1013524E+00
       -1   -1    0    0    0  501  0.00000000000E+00  0.00000000000E+00  0.12960419674E+03  0.12960419684E+03  0.50400001928E-02 0. -1.
        1   -1    0    0  501    0  0.00000000000E+00  0.00000000000E+00 -0.48412662609E+03  0.48412662612E+03  0.50400001928E-02 0.  1.
    10030    2    1    2    0    0  0.00000000000E+00  0.00000000000E+00 -0.35452242935E+03  0.61373082296E+03  0.50097841285E+03 0.  0.
        5    1    3    3  502    0 -0.19940136205E+01  0.10278284374E+03  0.10251105339E+03  0.14525458727E+03  0.46999998093E+01 0. -1.
       -5    1    3    3    0  502  0.19940136205E+01 -0.10278284374E+03 -0.45703348274E+03  0.46847623569E+03  0.46999998093E+01 0.  1.
</event>
<event>
 5   0  0.4534223E-02  0.4950364E+03  0.7818609E-02  0.1015083E+00
        2   -1    0    0  501    0  0.00000000000E+00  0.00000000000E+00  0.33597098419E+03  0.33597098420E+03  0.25500000920E-02 0.  1.
       -2   -1    0    0    0  501  0.00000000000E+00  0.00000000000E+00 -0.18235279575E+03  0.18235279577E+03  0.25500000920E-02 0. -1.
    10030    2    1    2    0    0  0.00000000000E+00  0.00000000000E+00  0.15361818844E+03  0.51832377997E+03  0.49503635530E+03 0.  0.
        2    1    3    3  502    0 -0.18657676152E+03 -0.10542213275E+03 -0.52874274028E+02  0.22072698719E+03  0.25500000920E-02 0.  1.
       -2    1    3    3    0  502  0.18657676152E+03  0.10542213275E+03  0.20649246247E+03  0.29759679279E+03  0.25500000920E-02 0. -1.
</event>
<event>
 5   0  0.2723308E-02  0.4920641E+03  0.7818609E-02  0.1015871E+00
        1   -1    0    0  501    0  0.00000000000E+00  0.00000000000E+00  0.99644303142E+02  0.99644303270E+02  0.50400001928E-02 0.  1.
       -1   -1    0    0    0  501  0.00000000000E+00  0.00000000000E+00 -0.60747847621E+03  0.60747847623E+03  0.50400001928E-02 0. -1.
    10030    2    1    2    0    0  0.00000000000E+00  0.00000000000E+00 -0.50783417307E+03  0.70712277950E+03  0.49206409944E+03 0.  0.
        4    1    3    3  502    0  0.23794812390E+03  0.39214976929E+02 -0.32392143069E+03  0.40383639043E+03  0.12699999809E+01 0. -1.
       -4    1    3    3    0  502 -0.23794812390E+03 -0.39214976929E+02 -0.18391274238E+03  0.30328638906E+03  0.12699999809E+01 0.  1.
</event>
<event>
 5   0  0.4519539E-02  0.5000736E+03  0.7818609E-02  0.1013760E+00
       -2   -1    0    0    0  501  0.00000000000E+00  0.00000000000E+00  0.98687099338E+02  0.98687099371E+02  0.25500000920E-02 0.  1.
        2   -1    0    0  501    0  0.00000000000E+00  0.00000000000E+00 -0.63350118198E+03  0.63350118199E+03  0.25500000920E-02 0. -1.
    10030    2    1    2    0    0  0.00000000000E+00  0.00000000000E+00 -0.53481408265E+03  0.73218828136E+03  0.50007357095E+03 0.  0.
        4    1    3    3  502    0  0.18670586616E+03  0.18724745647E+02 -0.50935754991E+03  0.54282264425E+03  0.12699999809E+01 0. -1.
       -4    1    3    3    0  502 -0.18670586616E+03 -0.18724745647E+02 -0.25456532732E+02  0.18936563711E+03  0.12699999809E+01 0.  1.
</event>
<event>
 5   0  0.2779445E-02  0.5009769E+03  0.7818609E-02  0.1013524E+00
       -1   -1    0    0    0  501  0.00000000000E+00  0.00000000000E+00  0.13233821724E+03  0.13233821733E+03  0.50400001928E-02 0. -1.
        1   -1    0    0  501    0  0.00000000000E+00  0.00000000000E+00 -0.47412207011E+03  0.47412207013E+03  0.50400001928E-02 0.  1.
    10030    2    1    2    0    0  0.00000000000E+00  0.00000000000E+00 -0.34178385287E+03  0.60646028747E+03  0.50097692381E+03 0.  0.
        3    1    3    3  502    0 -0.73936196534E+02 -0.61357220297E+02  0.10914484688E+03  0.14540934441E+03  0.10100000352E+00 0. -1.
       -3    1    3    3    0  502  0.73936196534E+02  0.61357220297E+02 -0.45092869975E+03  0.46105094306E+03  0.10100000352E+00 0.  1.
</event>
<event>
 5   0  0.4631619E-02  0.5003647E+03  0.7818609E-02  0.1013684E+00
        2   -1    0    0  501    0  0.00000000000E+00  0.00000000000E+00  0.18788951692E+04  0.18788951692E+04  0.25500000920E-02 0.  1.
       -2   -1    0    0    0  501  0.00000000000E+00  0.00000000000E+00 -0.33312774123E+02  0.33312774221E+02  0.25500000920E-02 0. -1.
    10030    2    1    2    0    0  0.00000000000E+00  0.00000000000E+00  0.18455823950E+04  0.19122079434E+04  0.50036470885E+03 0.  0.
        5    1    3    3  502    0  0.11765689096E+03 -0.97398707246E+02  0.16576657728E+03  0.22545576130E+03  0.46999998093E+01 0.  1.
       -5    1    3    3    0  502 -0.11765689096E+03  0.97398707246E+02  0.16798158178E+04  0.16867521821E+04  0.46999998093E+01 0. -1.
</event>
<event>
 5   0  0.4631619E-02  0.4998122E+03  0.7818609E-02  0.1013828E+00
       -2   -1    0    0    0  501  0.00000000000E+00  0.00000000000E+00  0.35722714867E+03  0.35722714867E+03  0.25500000920E-02 0. -1.
        2   -1    0    0  501    0  0.00000000000E+00  0.00000000000E+00 -0.17482731854E+03  0.17482731856E+03  0.25500000920E-02 0.  1.
    10030    2    1    2    0    0  0.00000000000E+00  0.00000000000E+00  0.18239983013E+03  0.53205446723E+03  0.49981222281E+03 0.  0.
        5    1    3    3  502    0  0.18238939838E+02  0.49662542113E+02 -0.16874942427E+03  0.17691095275E+03  0.46999998093E+01 0.  1.
       -5    1    3    3    0  502 -0.18238939838E+02 -0.49662542113E+02  0.35114925439E+03  0.35514351448E+03  0.46999998093E+01 0. -1.
</event>
<event>
 5   0  0.4451135E-02  0.5013160E+03  0.7818609E-02  0.1013436E+00
       -2   -1    0    0    0  501  0.00000000000E+00  0.00000000000E+00  0.10306853189E+03  0.10306853192E+03  0.25500000920E-02 0. -1.
        2   -1    0    0  501    0  0.00000000000E+00  0.00000000000E+00 -0.60958879078E+03  0.60958879078E+03  0.25500000920E-02 0.  1.
    10030    2    1    2    0    0  0.00000000000E+00  0.00000000000E+00 -0.50652025889E+03  0.71265732270E+03  0.50131595520E+03 0.  0.
        1    1    3    3  502    0 -0.37442158329E+02 -0.17090904162E+03 -0.50842204739E+03  0.53768466040E+03  0.50400001928E-02 0.  1.
       -1    1    3    3    0  502  0.37442158329E+02  0.17090904162E+03  0.19017885080E+01  0.17497266230E+03  0.50400001928E-02 0. -1.
</event>
<event>
 5   0  0.2719671E-02  0.4993927E+03  0.7818609E-02  0.1013938E+00
       -1   -1    0    0    0  501  0.00000000000E+00  0.00000000000E+00  0.13217932952E+03  0.13217932961E+03  0.50400001928E-02 0.  1.
        1   -1    0    0  501    0  0.00000000000E+00  0.00000000000E+00 -0.47169461613E+03  0.47169461616E+03  0.50400001928E-02 0. -1.
    10030    2    1    2    0    0  0.00000000000E+00  0.00000000000E+00 -0.33951528662E+03  0.60387394577E+03  0.49939274377E+03 0.  0.
        2    1    3    3  502    0 -0.99213273934E+02  0.20774420454E+03 -0.52848544121E+02  0.23620731755E+03  0.25500000920E-02 0.  1.
       -2    1    3    3    0  502  0.99213273934E+02 -0.20774420454E+03 -0.28666674249E+03  0.36766662821E+03  0.25500000920E-02 0. -1.
</event>
<event>
 5   0  0.2779445E-02  0.4970176E+03  0.7818609E-02  0.1014560E+00
       -1   -1    0    0    0  501  0.00000000000E+00  0.00000000000E+00  0.22020490601E+03  0.22020490607E+03  0.50400001928E-02 0. -1.
        1   -1    0    0  501    0  0.00000000000E+00  0.00000000000E+00 -0.28045071760E+03  0.28045071765E+03  0.50400001928E-02 0.  1.
    10030    2    1    2    0    0  0.00000000000E+00  0.00000000000E+00 -0.60245811593E+02  0.50065562372E+03  0.49701760104E+03 0.  0.
        3    1    3    3  502    0  0.13866140368E+03  0.32851756284E+02  0.17496103104E+03  0.22564927509E+03  0.10100000352E+00 0. -1.
       -3    1    3    3    0  502 -0.13866140368E+03 -0.32851756284E+02 -0.23520684264E+03  0.27500634863E+03  0.10100000352E+00 0.  1.
</event>
<event>
 5   0  0.2643185E-02  0.5013484E+03  0.7818609E-02  0.1013428E+00
       -1   -1    0    0    0  501  0.00000000000E+00  0.00000000000E+00  0.10732176187E+03  0.10732176198E+03  0.50400001928E-02 0. -1.
        1   -1    0    0  501    0  0.00000000000E+00  0.00000000000E+00 -0.58550617416E+03  0.58550617418E+03  0.50400001928E-02 0.  1.
    10030    2    1    2    0    0  0.00000000000E+00  0.00000000000E+00 -0.47818441230E+03  0.69282793617E+03  0.50134839879E+03 0.  0.
        1    1    3    3  502    0  0.92431208849E+02  0.22879872941E+03 -0.30004087645E+03  0.38848026271E+03  0.50400001928E-02 0.  1.
       -1    1    3    3    0  502 -0.92431208849E+02 -0.22879872941E+03 -0.17814353585E+03  0.30434767346E+03  0.50400001928E-02 0. -1.
</event>
<event>
 5   0  0.4519539E-02  0.4946384E+03  0.7818609E-02  0.1015188E+00
        2   -1    0    0  501    0  0.00000000000E+00  0.00000000000E+00  0.10041048858E+04  0.10041048858E+04  0.25500000920E-02 0. -1.
       -2   -1    0    0    0  501  0.00000000000E+00  0.00000000000E+00 -0.60916740462E+02  0.60916740515E+02  0.25500000920E-02 0.  1.
    10030    2    1    2    0    0  0.00000000000E+00  0.00000000000E+00  0.94318814532E+03  0.10650216263E+04  0.49463844070E+03 0.  0.
        4    1    3    3  502    0 -0.20699490192E+03 -0.32084977765E+02  0.18848512319E+03  0.28178820022E+03  0.12699999809E+01 0.  1.
       -4    1    3    3    0  502  0.20699490192E+03  0.32084977765E+02  0.75470302213E+03  0.78323342608E+03  0.12699999809E+01 0. -1.
</event>
<event>
 5   0  0.2715483E-02  0.5009813E+03  0.7818609E-02  0.1013523E+00
        1   -1    0    0  501    0  0.00000000000E+00  0.00000000000E+00  0.90983278581E+03  0.90983278582E+03  0.50400001928E-02 0. -1.
       -1   -1    0    0    0  501  0.00000000000E+00  0.00000000000E+00 -0.68963832957E+02  0.68963833141E+02  0.50400001928E-02 0.  1.
    10030    2    1    2    0    0  0.00000000000E+00  0.00000000000E+00  0.84086895285E+03  0.97879661896E+03  0.50098126255E+03 0.  0.
        5    1    3    3  502    0  0.54704756842E+02  0.21894045965E+03  0.20823852645E+03  0.30710406899E+03  0.46999998093E+01 0.  1.
       -5    1    3    3    0  502 -0.54704756842E+02 -0.21894045965E+03  0.63263042639E+03  0.67169254997E+03  0.46999998093E+01 0. -1.
</event>
<event>
 5   0  0.2723308E-02  0.5016508E+03  0.7818609E-02  0.1013349E+00
       -1   -1    0    0    0  501  0.00000000000E+00  0.00000000000E+00  0.61158791214E+02  0.61158791421E+02  0.50400001928E-02 0.  1.
        1   -1    0    0  501    0  0.00000000000E+00  0.00000000000E+00 -0.10286890481E+04  0.10286890481E+04  0.50400001928E-02 0. -1.
    10030    2    1    2    0    0  0.00000000000E+00  0.00000000000E+00 -0.96753025688E+03  0.10898478395E+04  0.50165079024E+03 0.  0.
        4    1    3    3  502    0  0.24861429648E+03  0.25253244327E+02 -0.53061165349E+03  0.58651268910E+03  0.12699999809E+01 0.  1.
       -4    1    3    3    0  502 -0.24861429648E+03 -0.25253244327E+02 -0.43691860339E+03  0.50333515043E+03  0.12699999809E+01 0. -1.
</event>
<event>
 5   0  0.2719671E-02  0.5011170E+03  0.7818609E-02  0.1013488E+00
       -1   -1    0    0    0  501  0.00000000000E+00  0.00000000000E+00  0.87283301654E+02  0.87283301800E+02  0.50400001928E-02 0. -1.
        1   -1    0    0  501    0  0.00000000000E+00  0.00000000000E+00 -0.71926196267E+03  0.71926196269E+03  0.50400001928E-02 0.  1.
    10030    2    1    2    0    0  0.00000000000E+00  0.00000000000E+00 -0.63197866102E+03  0.80654526449E+03  0.50111698803E+03 0.  0.
        2    1    3    3  502    0 -0.13355049016E+03  0.19220556460E+03 -0.17202410985E+03  0.29046687739E+03  0.25500000920E-02 0.  1.
       -2    1    3    3    0  502  0.13355049016E+03 -0.19220556460E+03 -0.45995455117E+03  0.51607838710E+03  0.25500000920E-02 0. -1.
</event>
<event>
 5   0  0.4409622E-02  0.5001664E+03  0.7818609E-02  0.1013735E+00
        2   -1    0    0  501    0  0.00000000000E+00  0.00000000000E+00  0.23518145360E+04  0.23518145360E+04  0.25500000920E-02 0.  1.
       -2   -1    0    0    0  501  0.00000000000E+00  0.00000000000E+00 -0.26592920026E+02  0.26592920148E+02  0.25500000920E-02 0. -1.
    10030    2    1    2    0    0  0.00000000000E+00  0.00000000000E+00  0.23252216159E+04  0.23784074561E+04  0.50016643637E+03 0.  0.
        3    1    3    3  502    0 -0.17480407422E+03  0.17548561458E+03  0.99857663224E+03  0.10288376772E+04  0.10100000352E+00 0.  1.
       -3    1    3    3    0  502  0.17480407422E+03 -0.17548561458E+03  0.13266449837E+04  0.13495697790E+04  0.10100000352E+00 0. -1.
</event>
<event>
 5   0  0.4519539E-02  0.5001748E+03  0.7818609E-02  0.1013733E+00
        2   -1    0    0  501    0  0.00000000000E+00  0.00000000000E+00  0.28258418978E+03  0.28258418979E+03  0.25500000920E-02 0. -1.
       -2   -1    0    0    0  501  0.00000000000E+00  0.00000000000E+00 -0.22132768280E+03  0.22132768282E+03  0.25500000920E-02 0.  1.
    10030    2    1    2    0    0  0.00000000000E+00  0.00000000000E+00  0.61256506981E+02  0.50391187261E+03  0.50017478516E+03 0.  0.
        4    1    3    3  502    0 -0.23959966434E+03 -0.45200230478E+02 -0.25384184965E+02  0.24514695538E+03  0.12699999809E+01 0.  1.
       -4    1    3    3    0  502  0.23959966434E+03  0.45200230478E+02  0.86640691946E+02  0.25876491723E+03  0.12699999809E+01 0. -1.
</event>
<event>
 5   0  0.4451135E-02  0.5006320E+03  0.7818609E-02  0.1013614E+00
        2   -1    0    0  501    0  0.00000000000E+00  0.00000000000E+00  0.32787886541E+03  0.32787886542E+03  0.25500000920E-02 0. -1.
       -2   -1    0    0    0  501  0.00000000000E+00  0.00000000000E+00 -0.19110138759E+03  0.19110138760E+03  0.25500000920E-02 0.  1.
    10030    2    1    2    0    0  0.00000000000E+00  0.00000000000E+00  0.13677747782E+03  0.51898025302E+03  0.50063202513E+03 0.  0.
        1    1    3    3  502    0 -0.31072825103E+01 -0.24917177053E+03  0.43815982724E+02  0.25301396563E+03  0.50400001928E-02 0. -1.
       -1    1    3    3    0  502  0.31072825103E+01  0.24917177053E+03  0.92961495099E+02  0.26596628740E+03  0.50400001928E-02 0.  1.
</event>
<event>
 5   0  0.4409622E-02  0.4997613E+03  0.7818609E-02  0.1013841E+00
        2   -1    0    0  501    0  0.00000000000E+00  0.00000000000E+00  0.66399891593E+03  0.66399891593E+03  0.25500000920E-02 0.  1.
       -2   -1    0    0    0  501  0.00000000000E+00  0.00000000000E+00 -0.94036816049E+02  0.94036816084E+02  0.25500000920E-02 0. -1.
    10030    2    1    2    0    0  0.00000000000E+00  0.00000000000E+00  0.56996209988E+03  0.75803573202E+03  0.49976131875E+03 0.  0.
        3    1    3    3  502    0 -0.17108923376E+03  0.16869179951E+03  0.18086339892E+03  0.30073248644E+03  0.10100000352E+00 0.  1.
       -3    1    3    3    0  502  0.17108923376E+03 -0.16869179951E+03  0.38909870096E+03  0.45730324558E+03  0.10100000352E+00 0. -1.
</event>
<event>
 5   0  0.2715483E-02  0.4988712E+03  0.7818609E-02  0.1014074E+00
        1   -1    0    0  501    0  0.00000000000E+00  0.00000000000E+00  0.51057305402E+03  0.51057305405E+03  0.50400001928E-02 0.  1.
       -1   -1    0    0    0  501  0.00000000000E+00  0.00000000000E+00 -0.12185937037E+03  0.12185937048E+03  0.50400001928E-02 0. -1.
    10030    2    1    2    0    0  0.00000000000E+00  0.00000000000E+00  0.38871368365E+03  0.63243242453E+03  0.49887116948E+03 0.  0.
        5    1    3    3  502    0  0.17380287088E+03  0.10682399825E+03  0.37620924068E+03  0.42798865323E+03  0.46999998093E+01 0.  1.
       -5    1    3    3    0  502 -0.17380287088E+03 -0.10682399825E+03  0.12504442973E+02  0.20444377129E+03  0.46999998093E+01 0. -1.
</event>
<event>
 5   0  0.2723308E-02  0.5002124E+03  0.7818609E-02  0.1013723E+00
       -1   -1    0    0    0  501  0.00000000000E+00  0.00000000000E+00  0.29012224942E+03  0.29012224946E+03  0.50400001928E-02 0.  1.
        1   -1    0    0  501    0  0.00000000000E+00  0.00000000000E+00 -0.21560952368E+03  0.21560952374E+03  0.50400001928E-02 0. -1.
    10030    2    1    2    0    0  0.00000000000E+00  0.00000000000E+00  0.74512725740E+02  0.50573177320E+03  0.50021243500E+03 0.  0.
        4    1    3    3  502    0  0.91925558486E+02 -0.17846673086E+03  0.18806937459E+03  0.27508614084E+03  0.12699999809E+01 0.  1.
       -4    1    3    3    0  502 -0.91925558486E+02  0.17846673086E+03 -0.11355664884E+03  0.23064563235E+03  0.12699999809E+01 0. -1.
</event>
<event>
 5   0  0.1805500E-02  0.5015898E+03  0.7818609E-02  0.1013365E+00
        3   -1    0    0  501    0  0.00000000000E+00  0.00000000000E+00  0.15937343140E+03  0.15937346341E+03  0.10100000352E+00 0.  1.
       -3   -1    0    0    0  501  0.00000000000E+00  0.00000000000E+00 -0.39465846228E+03  0.39465847520E+03  0.10100000352E+00 0. -1.
    10030    2    1    2    0    0  0.00000000000E+00  0.00000000000E+00 -0.23528503087E+03  0.55403193861E+03  0.50158981573E+03 0.  0.
        5    1    3    3  502    0  0.15256973336E+03 -0.16570681791E+03 -0.23934248680E+03  0.32869923795E+03  0.46999998093E+01 0. -1.
       -5    1    3    3    0  502 -0.15256973336E+03  0.16570681791E+03  0.40574559247E+01  0.22533270066E+03  0.46999998093E+01 0.  1.
</event>
<event>
 5   0  0.2779445E-02  0.5028517E+03  0.7818609E-02  0.1013037E+00
        1   -1    0    0  501    0  0.00000000000E+00  0.00000000000E+00  0.52000647950E+03  0.52000647952E+03  0.50400001928E-02 0.  1.
       -1   -1    0    0    0  501  0.00000000000E+00  0.00000000000E+00 -0.12156569804E+03  0.12156569814E+03  0.50400001928E-02 0. -1.
    10030    2    1    2    0    0  0.00000000000E+00  0.00000000000E+00  0.39844078146E+03  0.64157217767E+03  0.50285167080E+03 0.  0.
        3    1    3    3  502    0  0.80444095568E+01  0.10514727401E+03  0.49042660564E+03  0.50163625016E+03  0.10100000352E+00 0.  1.
       -3    1    3    3    0  502 -0.80444095568E+01 -0.10514727401E+03 -0.91985824179E+02  0.13993592751E+03  0.10100000352E+00 0. -1.
</event>
<event>
 5   0  0.2643185E-02  0.4996412E+03  0.7818609E-02  0.1013873E+00
        1   -1    0    0  501    0  0.00000000000E+00  0.00000000000E+00  0.42873485013E+03  0.42873485016E+03  0.50400001928E-02 0.  1.
       -1   -1    0    0    0  501  0.00000000000E+00  0.00000000000E+00 -0.14556859254E+03  0.14556859263E+03  0.50400001928E-02 0. -1.
    10030    2    1    2    0    0  0.00000000000E+00  0.00000000000E+00  0.28316625759E+03  0.57430344279E+03  0.49964118621E+03 0.  0.
        1    1    3    3  502    0 -0.78409806890E+02  0.23402870349E+03  0.18599341200E+03  0.30904867126E+03  0.50400001928E-02 0.  1.
       -1    1    3    3    0  502  0.78409806890E+02 -0.23402870349E+03  0.97172845593E+02  0.26525477153E+03  0.50400001928E-02 0. -1.
</event>
<event>
 5   0  0.4519539E-02  0.5200965E+03  0.7818609E-02  0.1008663E+00
       -2   -1    0    0    0  501  0.00000000000E+00  0.00000000000E+00  0.55276257492E+03  0.55276257492E+03  0.25500000920E-02 0. -1.
        2   -1    0    0  501    0  0.00000000000E+00  0.00000000000E+00 -0.12234023612E+03  0.12234023615E+03  0.25500000920E-02 0.  1.
    10030    2    1    2    0    0  0.00000000000E+00  0.00000000000E+00  0.43042233880E+03  0.67510281107E+03  0.52009654467E+03 0.  0.
        4    1    3    3  502    0  0.72295257836E+02 -0.16534154570E+03  0.45825582840E+03  0.49250832297E+03  0.12699999809E+01 0. -1.
       -4    1    3    3    0  502 -0.72295257836E+02  0.16534154570E+03 -0.27833489597E+02  0.18259448810E+03  0.12699999809E+01 0.  1.
</event>
<event>
 5   0  0.4451135E-02  0.5045774E+03  0.7818609E-02  0.1012591E+00
        2   -1    0    0  501    0  0.00000000000E+00  0.00000000000E+00  0.26291330515E+03  0.26291330516E+03  0.25500000920E-02 0. -1.
       -2   -1    0    0    0  501  0.00000000000E+00  0.00000000000E+00 -0.24209347515E+03  0.24209347517E+03  0.25500000920E-02 0.  1.
    10030    2    1    2    0    0  0.00000000000E+00  0.00000000000E+00  0.20819829995E+02  0.50500678033E+03  0.50457742999E+03 0.  0.
        1    1    3    3  502    0 -0.20050456369E+03  0.13341887899E+02 -0.14226335396E+03  0.24620915486E+03  0.50400001928E-02 0.  1.
       -1    1    3    3    0  502  0.20050456369E+03 -0.13341887899E+02  0.16308318395E+03  0.25879762546E+03  0.50400001928E-02 0. -1.
</event>
<event>
 5   0  0.4534223E-02  0.4997103E+03  0.7818609E-02  0.1013855E+00
       -2   -1    0    0    0  501  0.00000000000E+00  0.00000000000E+00  0.16972094889E+03  0.16972094891E+03  0.25500000920E-02 0. -1.
        2   -1    0    0  501    0  0.00000000000E+00  0.00000000000E+00 -0.36782498278E+03  0.36782498279E+03  0.25500000920E-02 0.  1.
    10030    2    1    2    0    0  0.00000000000E+00  0.00000000000E+00 -0.19810403389E+03  0.53754593170E+03  0.49971033654E+03 0.  0.
        2    1    3    3  502    0  0.12407463699E+03 -0.12771290400E+03  0.89497554259E+02  0.19928600959E+03  0.25500000920E-02 0. -1.
       -2    1    3    3    0  502 -0.12407463699E+03  0.12771290400E+03 -0.28760158815E+03  0.33825992211E+03  0.25500000920E-02 0.  1.
</event>
<event>
 5   0  0.2643185E-02  0.4994824E+03  0.7818609E-02  0.1013914E+00
       -1   -1    0    0    0  501  0.00000000000E+00  0.00000000000E+00  0.14211590444E+03  0.14211590453E+03  0.50400001928E-02 0. -1.
        1   -1    0    0  501    0  0.00000000000E+00  0.00000000000E+00 -0.43887188324E+03  0.43887188327E+03  0.50400001928E-02 0.  1.
    10030    2    1    2    0    0  0.00000000000E+00  0.00000000000E+00 -0.29675597880E+03  0.58098778780E+03  0.49948243074E+03 0.  0.
        1    1    3    3  502    0  0.11131280848E+02  0.19172832975E+03 -0.33407558890E+03  0.38534420583E+03  0.50400001928E-02 0.  1.
       -1    1    3    3    0  502 -0.11131280848E+02 -0.19172832975E+03  0.37319610105E+02  0.19564358197E+03  0.50400001928E-02 0. -1.
</event>
<event>
 5   0  0.4409622E-02  0.5000829E+03  0.7818609E-02  0.1013757E+00
        2   -1    0    0  501    0  0.00000000000E+00  0.00000000000E+00  0.15578978899E+03  0.15578978901E+03  0.25500000920E-02 0. -1.
       -2   -1    0    0    0  501  0.00000000000E+00  0.00000000000E+00 -0.40131465664E+03  0.40131465665E+03  0.25500000920E-02 0.  1.
    10030    2    1    2    0    0  0.00000000000E+00  0.00000000000E+00 -0.24552486765E+03  0.55710444566E+03  0.50008289587E+03 0.  0.
        3    1    3    3  502    0  0.15619167475E+03 -0.23715204284E+02 -0.33867189194E+03  0.37370698517E+03  0.10100000352E+00 0.  1.
       -3    1    3    3    0  502 -0.15619167475E+03  0.23715204284E+02  0.93147024295E+02  0.18339746048E+03  0.10100000352E+00 0. -1.
</event>
<event>
 5   0  0.4631619E-02  0.4716044E+03  0.7818609E-02  0.1021468E+00
       -2   -1    0    0    0  501  0.00000000000E+00  0.00000000000E+00  0.66304713807E+03  0.66304713808E+03  0.25500000920E-02 0. -1.
        2   -1    0    0  501    0  0.00000000000E+00  0.00000000000E+00 -0.83859322756E+02  0.83859322795E+02  0.25500000920E-02 0.  1.
    10030    2    1    2    0    0  0.00000000000E+00  0.00000000000E+00  0.57918781532E+03  0.74690646087E+03  0.47160442733E+03 0.  0.
        5    1    3    3  502    0 -0.20776717179E+03  0.94198749908E+02  0.19536384679E+03  0.30038263064E+03  0.46999998093E+01 0.  1.
       -5    1    3    3    0  502  0.20776717179E+03 -0.94198749908E+02  0.38382396852E+03  0.44652383024E+03  0.46999998093E+01 0. -1.
</event>
<event>
 5   0  0.4451135E-02  0.5003927E+03  0.7818609E-02  0.1013676E+00
        2   -1    0    0  501    0  0.00000000000E+00  0.00000000000E+00  0.52636625538E+03  0.52636625539E+03  0.25500000920E-02 0. -1.
       -2   -1    0    0    0  501  0.00000000000E+00  0.00000000000E+00 -0.11892519580E+03  0.11892519583E+03  0.25500000920E-02 0.  1.
    10030    2    1    2    0    0  0.00000000000E+00  0.00000000000E+00  0.40744105958E+03  0.64529145122E+03  0.50039268578E+03 0.  0.
        1    1    3    3  502    0 -0.24728283835E+03  0.25130092982E+02  0.16684048724E+03  0.29935943600E+03  0.50400001928E-02 0. -1.
       -1    1    3    3    0  502  0.24728283835E+03 -0.25130092982E+02  0.24060057233E+03  0.34593201521E+03  0.50400001928E-02 0.  1.
</event>
<event>
 5   0  0.2643185E-02  0.5001645E+03  0.7818609E-02  0.1013736E+00
       -1   -1    0    0    0  501  0.00000000000E+00  0.00000000000E+00  0.20133780062E+03  0.20133780069E+03  0.50400001928E-02 0. -1.
        1   -1    0    0  501    0  0.00000000000E+00  0.00000000000E+00 -0.31062789368E+03  0.31062789372E+03  0.50400001928E-02 0.  1.
    10030    2    1    2    0    0  0.00000000000E+00  0.00000000000E+00 -0.10929009305E+03  0.51196569441E+03  0.50016452074E+03 0.  0.
        1    1    3    3  502    0  0.74920077896E+02 -0.76806604174E+02  0.17658056198E+03  0.20662276596E+03  0.50400001928E-02 0. -1.
       -1    1    3    3    0  502 -0.74920077896E+02  0.76806604174E+02 -0.28587065504E+03  0.30534292845E+03  0.50400001928E-02 0.  1.
</event>
<event>
 5   0  0.2723308E-02  0.4933972E+03  0.7818609E-02  0.1015517E+00
       -1   -1    0    0    0  501  0.00000000000E+00  0.00000000000E+00  0.36962692839E+02  0.36962693183E+02  0.50400001928E-02 0.  1.
        1   -1    0    0  501    0  0.00000000000E+00  0.00000000000E+00 -0.16465302064E+04  0.16465302064E+04  0.50400001928E-02 0. -1.
    10030    2    1    2    0    0  0.00000000000E+00  0.00000000000E+00 -0.16095675136E+04  0.16834928996E+04  0.49339716483E+03 0.  0.
        4    1    3    3  502    0 -0.21971969023E+02 -0.47815693076E+02 -0.16271463464E+04  0.16279975287E+04  0.12699999809E+01 0. -1.
       -4    1    3    3    0  502  0.21971969023E+02  0.47815693076E+02  0.17578832840E+02  0.55495370897E+02  0.12699999809E+01 0.  1.
</event>
<event>
 5   0  0.2779445E-02  0.4998316E+03  0.7818609E-02  0.1013823E+00
       -1   -1    0    0    0  501  0.00000000000E+00  0.00000000000E+00  0.13717460626E+03  0.13717460635E+03  0.50400001928E-02 0.  1.
        1   -1    0    0  501    0  0.00000000000E+00  0.00000000000E+00 -0.45531674199E+03  0.45531674201E+03  0.50400001928E-02 0. -1.
    10030    2    1    2    0    0  0.00000000000E+00  0.00000000000E+00 -0.31814213573E+03  0.59249134836E+03  0.49983155098E+03 0.  0.
        3    1    3    3  502    0 -0.11989676513E+03 -0.21275587517E+03 -0.22199228073E+03  0.33003163426E+03  0.10100000352E+00 0. -1.
       -3    1    3    3    0  502  0.11989676513E+03  0.21275587517E+03 -0.96149854996E+02  0.26245971410E+03  0.10100000352E+00 0.  1.
</event>
<event>
 5   0  0.4451135E-02  0.4964275E+03  0.7818609E-02  0.1014716E+00
       -2   -1    0    0    0  501  0.00000000000E+00  0.00000000000E+00  0.48462995228E+02  0.48462995295E+02  0.25500000920E-02 0.  1.
        2   -1    0    0  501    0  0.00000000000E+00  0.00000000000E+00 -0.12712807900E+04  0.12712807900E+04  0.25500000920E-02 0. -1.
    10030    2    1    2    0    0  0.00000000000E+00  0.00000000000E+00 -0.12228177948E+04  0.13197437853E+04  0.49642753714E+03 0.  0.
        1    1    3    3  502    0 -0.16267603600E+03 -0.61291644418E+02 -0.14040029198E+03  0.22345558928E+03  0.50400001928E-02 0.  1.
       -1    1    3    3    0  502  0.16267603600E+03  0.61291644418E+02 -0.10824175028E+04  0.10962881961E+04  0.50400001928E-02 0. -1.
</event>
<event>
 5   0  0.4631619E-02  0.5104568E+03  0.7818609E-02  0.1011085E+00
        2   -1    0    0  501    0  0.00000000000E+00  0.00000000000E+00  0.13081248781E+04  0.13081248781E+04  0.25500000920E-02 0. -1.
       -2   -1    0    0    0  501  0.00000000000E+00  0.00000000000E+00 -0.49797649717E+02  0.49797649782E+02  0.25500000920E-02 0.  1.
    10030    2    1    2    0    0  0.00000000000E+00  0.00000000000E+00  0.12583272283E+04  0.13579225278E+04  0.51045683269E+03 0.  0.
        5    1    3    3  502    0 -0.73654715917E+02 -0.67034030597E+02  0.12541764796E+04  0.12581332641E+04  0.46999998093E+01 0. -1.
       -5    1    3    3    0  502  0.73654715917E+02  0.67034030597E+02  0.41507487635E+01  0.99789263693E+02  0.46999998093E+01 0.  1.
</event>
<event>
 5   0  0.4534223E-02  0.4965602E+03  0.7818609E-02  0.1014681E+00
        2   -1    0    0  501    0  0.00000000000E+00  0.00000000000E+00  0.19081990787E+03  0.19081990789E+03  0.25500000920E-02 0.  1.
       -2   -1    0    0    0  501  0.00000000000E+00  0.00000000000E+00 -0.32304286472E+03  0.32304286473E+03  0.25500000920E-02 0. -1.
    10030    2    1    2    0    0  0.00000000000E+00  0.00000000000E+00 -0.13222295685E+03  0.51386277262E+03  0.49656020659E+03 0.  0.
        2    1    3    3  502    0  0.88366916797E+02 -0.77475375146E+02 -0.29243719046E+03  0.31516766349E+03  0.25500000920E-02 0. -1.
       -2    1    3    3    0  502 -0.88366916797E+02  0.77475375146E+02  0.16021423361E+03  0.19869510914E+03  0.25500000920E-02 0.  1.
</event>
<event>
 5   0  0.4409622E-02  0.4956240E+03  0.7818609E-02  0.1014927E+00
       -2   -1    0    0    0  501  0.00000000000E+00  0.00000000000E+00  0.51250834442E+02  0.51250834505E+02  0.25500000920E-02 0. -1.
        2   -1    0    0  501    0  0.00000000000E+00  0.00000000000E+00 -0.11982395293E+04  0.11982395293E+04  0.25500000920E-02 0.  1.
    10030    2    1    2    0    0  0.00000000000E+00  0.00000000000E+00 -0.11469886949E+04  0.12494903638E+04  0.49562395333E+03 0.  0.
        3    1    3    3  502    0 -0.39765907838E+02  0.21920047412E+03 -0.29986407057E+03  0.37356210501E+03  0.10100000352E+00 0. -1.
       -3    1    3    3    0  502  0.39765907838E+02 -0.21920047412E+03 -0.84712462428E+03  0.87592825879E+03  0.10100000352E+00 0.  1.
</event>
<event>
 5   0  0.4534223E-02  0.5003050E+03  0.7818609E-02  0.1013699E+00
        2   -1    0    0  501    0  0.00000000000E+00  0.00000000000E+00  0.36479570560E+03  0.36479570561E+03  0.25500000920E-02 0. -1.
       -2   -1    0    0    0  501  0.00000000000E+00  0.00000000000E+00 -0.17153783748E+03  0.17153783750E+03  0.25500000920E-02 0.  1.
    10030    2    1    2    0    0  0.00000000000E+00  0.00000000000E+00  0.19325786812E+03  0.53633354311E+03  0.50030497286E+03 0.  0.
        2    1    3    3  502    0 -0.80485167258E+02  0.16616006113E+03 -0.84313554616E+02  0.20296749386E+03  0.25500000920E-02 0.  1.
       -2    1    3    3    0  502  0.80485167258E+02 -0.16616006113E+03  0.27757142273E+03  0.33336604925E+03  0.25500000920E-02 0. -1.
</event>
<event>
 5   0  0.4409622E-02  0.4999365E+03  0.7818609E-02  0.1013795E+00
        2   -1    0    0  501    0  0.00000000000E+00  0.00000000000E+00  0.23704596712E+03  0.23704596714E+03  0.25500000920E-02 0. -1.
       -2   -1    0    0    0  501  0.00000000000E+00  0.00000000000E+00 -0.26359500679E+03  0.26359500680E+03  0.25500000920E-02 0.  1.
    10030    2    1    2    0    0  0.00000000000E+00  0.00000000000E+00 -0.26549039663E+02  0.50064097394E+03  0.49993652925E+03 0.  0.
        3    1    3    3  502    0 -0.24325876990E+03 -0.38816373872E+02  0.29242142898E+02  0.24806582420E+03  0.10100000352E+00 0. -1.
       -3    1    3    3    0  502  0.24325876990E+03  0.38816373872E+02 -0.55791182561E+02  0.25257514974E+03  0.10100000352E+00 0.  1.
</event>
<event>
 5   0  0.4409622E-02  0.4986461E+03  0.7818609E-02  0.1014133E+00
       -2   -1    0    0    0  501  0.00000000000E+00  0.00000000000E+00  0.97088778992E+02  0.97088779026E+02  0.25500000920E-02 0.  1.
        2   -1    0    0  501    0  0.00000000000E+00  0.00000000000E+00 -0.64025930738E+03  0.64025930739E+03  0.25500000920E-02 0. -1.
    10030    2    1    2    0    0  0.00000000000E+00  0.00000000000E+00 -0.54317052839E+03  0.73734808641E+03  0.49864614470E+03 0.  0.
        3    1    3    3  502    0 -0.10846825536E+03 -0.20211126370E+03 -0.41607218595E+03  0.47511093385E+03  0.10100000352E+00 0. -1.
       -3    1    3    3    0  502  0.10846825536E+03  0.20211126370E+03 -0.12709834244E+03  0.26223715257E+03  0.10100000352E+00 0.  1.
</event>
<event>
 5   0  0.4519539E-02  0.5019186E+03  0.7818609E-02  0.1013279E+00
        2   -1    0    0  501    0  0.00000000000E+00  0.00000000000E+00  0.44683900760E+03  0.44683900761E+03  0.25500000920E-02 0.  1.
       -2   -1    0    0    0  501  0.00000000000E+00  0.00000000000E+00 -0.14094688008E+03  0.14094688010E+03  0.25500000920E-02 0. -1.
    10030    2    1    2    0    0  0.00000000000E+00  0.00000000000E+00  0.30589212752E+03  0.58778588771E+03  0.50191857518E+03 0.  0.
        4    1    3    3  502    0  0.20887985930E+03  0.12981592391E+03  0.21145289257E+03  0.32434072886E+03  0.12699999809E+01 0. -1.
       -4    1    3    3    0  502 -0.20887985930E+03 -0.12981592391E+03  0.94439234958E+02  0.26344515885E+03  0.12699999809E+01 0.  1.
</event>
<event>
 5   0  0.2779445E-02  0.4998257E+03  0.7818609E-02  0.1013824E+00
       -1   -1    0    0    0  501  0.00000000000E+00  0.00000000000E+00  0.14620632162E+03  0.14620632171E+03  0.50400001928E-02 0. -1.
        1   -1    0    0  501    0  0.00000000000E+00  0.00000000000E+00 -0.42718010569E+03  0.42718010572E+03  0.50400001928E-02 0.  1.
    10030    2    1    2    0    0  0.00000000000E+00  0.00000000000E+00 -0.28097378407E+03  0.57338642743E+03  0.49982569744E+03 0.  0.
        3    1    3    3  502    0 -0.82506947571E+02  0.69496357200E+02 -0.39909556697E+03  0.41341797473E+03  0.10100000352E+00 0.  1.
       -3    1    3    3    0  502  0.82506947571E+02 -0.69496357200E+02  0.11812178290E+03  0.15996845269E+03  0.10100000352E+00 0. -1.
</event>
<event>
 5   0  0.2719671E-02  0.5026995E+03  0.7818609E-02  0.1013077E+00
        1   -1    0    0  501    0  0.00000000000E+00  0.00000000000E+00  0.90154289151E+03  0.90154289153E+03  0.50400001928E-02 0. -1.
       -1   -1    0    0    0  501  0.00000000000E+00  0.00000000000E+00 -0.70076184508E+02  0.70076184689E+02  0.50400001928E-02 0.  1.
    10030    2    1    2    0    0  0.00000000000E+00  0.00000000000E+00  0.83146670700E+03  0.97161907622E+03  0.50269945734E+03 0.  0.
        2    1    3    3  502    0 -0.19940607511E+03  0.11958319379E+03  0.60025039535E+03  0.64371069601E+03  0.25500000920E-02 0. -1.
       -2    1    3    3    0  502  0.19940607511E+03 -0.11958319379E+03  0.23121631165E+03  0.32790838021E+03  0.25500000920E-02 0.  1.
</event>
<event>
 5   0  0.1805500E-02  0.4902730E+03  0.7818609E-02  0.1016349E+00
       -3   -1    0    0    0  501  0.00000000000E+00  0.00000000000E+00  0.73656344976E+03  0.73656345668E+03  0.10100000352E+00 0. -1.
        3   -1    0    0  501    0  0.00000000000E+00  0.00000000000E+00 -0.81584106750E+02  0.81584169268E+02  0.10100000352E+00 0.  1.
    10030    2    1    2    0    0  0.00000000000E+00  0.00000000000E+00  0.65497934301E+03  0.81814762595E+03  0.49027298323E+03 0.  0.
        5    1    3    3  502    0  0.19551789818E+03 -0.13380929668E+03  0.43220526007E+03  0.49290531871E+03  0.46999998093E+01 0. -1.
       -5    1    3    3    0  502 -0.19551789818E+03  0.13380929668E+03  0.22277408294E+03  0.32524230724E+03  0.46999998093E+01 0.  1.
</event>
<event>
 5   0  0.2719671E-02  0.4997840E+03  0.7818609E-02  0.1013835E+00
       -1   -1    0    0    0  501  0.00000000000E+00  0.00000000000E+00  0.49270448002E+02  0.49270448260E+02  0.50400001928E-02 0. -1.
        1   -1    0    0  501    0  0.00000000000E+00  0.00000000000E+00 -0.12674133050E+04  0.12674133051E+04  0.50400001928E-02 0.  1.
    10030    2    1    2    0    0  0.00000000000E+00  0.00000000000E+00 -0.12181428570E+04  0.13166837533E+04  0.49978403944E+03 0.  0.
        2    1    3    3  502    0  0.42241958675E+02 -0.22688307474E+03 -0.86156796868E+03  0.89194152125E+03  0.25500000920E-02 0.  1.
       -2    1    3    3    0  502 -0.42241958675E+02  0.22688307474E+03 -0.35657488836E+03  0.42474223206E+03  0.25500000920E-02 0. -1.
</event>
<event>
 5   0  0.2779445E-02  0.4999043E+03  0.7818609E-02  0.1013804E+00
       -1   -1    0    0    0  501  0.00000000000E+00  0.00000000000E+00  0.10651549959E+03  0.10651549971E+03  0.50400001928E-02 0.  1.
        1   -1    0    0  501    0  0.00000000000E+00  0.00000000000E+00 -0.58654437527E+03  0.58654437529E+03  0.50400001928E-02 0. -1.
    10030    2    1    2    0    0  0.00000000000E+00  0.00000000000E+00 -0.48002887568E+03  0.69305987500E+03  0.49990425968E+03 0.  0.
        3    1    3    3  502    0  0.41603121758E+02 -0.17571162464E+03 -0.47962521296E+03  0.51248975588E+03  0.10100000352E+00 0. -1.
       -3    1    3    3    0  502 -0.41603121758E+02  0.17571162464E+03 -0.40366271858E+00  0.18057011912E+03  0.10100000352E+00 0.  1.
</event>
<event>
 5   0  0.4451135E-02  0.5009682E+03  0.7818609E-02  0.1013527E+00
       -2   -1    0    0    0  501  0.00000000000E+00  0.00000000000E+00  0.14917081357E+03  0.14917081359E+03  0.25500000920E-02 0. -1.
        2   -1    0    0  501    0  0.00000000000E+00  0.00000000000E+00 -0.42060690507E+03  0.42060690508E+03  0.25500000920E-02 0.  1.
    10030    2    1    2    0    0  0.00000000000E+00  0.00000000000E+00 -0.27143609150E+03  0.56977771867E+03  0.50096815959E+03 0.  0.
        1    1    3    3  502    0  0.94216785017E+02 -0.54005610878E+02  0.12100366460E+03  0.16258934607E+03  0.50400001928E-02 0. -1.
       -1    1    3    3    0  502 -0.94216785017E+02  0.54005610878E+02 -0.39243975610E+03  0.40718837259E+03  0.50400001928E-02 0.  1.
</event>
<event>
 5   0  0.2779445E-02  0.4980377E+03  0.7818609E-02  0.1014292E+00
       -1   -1    0    0    0  501  0.00000000000E+00  0.00000000000E+00  0.84531711729E+02  0.84531711879E+02  0.50400001928E-02 0.  1.
        1   -1    0    0  501    0  0.00000000000E+00  0.00000000000E+00 -0.73357541071E+03  0.73357541072E+03  0.50400001928E-02 0. -1.
    10030    2    1    2    0    0  0.00000000000E+00  0.00000000000E+00 -0.64904369898E+03  0.81810712260E+03  0.49803769021E+03 0.  0.
        3    1    3    3  502    0  0.18441256382E+03  0.44500239228E+02 -0.58950558485E+03  0.61927789381E+03  0.10100000352E+00 0. -1.
       -3    1    3    3    0  502 -0.18441256382E+03 -0.44500239228E+02 -0.59538114124E+02  0.19882922879E+03  0.10100000352E+00 0.  1.
</event>
<event>
 5   0  0.4409622E-02  0.5009601E+03  0.7818609E-02  0.1013529E+00
       -2   -1    0    0    0  501  0.00000000000E+00  0.00000000000E+00  0.78391249242E+02  0.78391249283E+02  0.25500000920E-02 0. -1.
        2   -1    0    0  501    0  0.00000000000E+00  0.00000000000E+00 -0.80034766260E+03  0.80034766260E+03  0.25500000920E-02 0.  1.
    10030    2    1    2    0    0  0.00000000000E+00  0.00000000000E+00 -0.72195641336E+03  0.87873891188E+03  0.50096009070E+03 0.  0.
        3    1    3    3  502    0  0.64616766369E+02  0.12802208914E+03 -0.74344465257E+00  0.14340692004E+03  0.10100000352E+00 0. -1.
       -3    1    3    3    0  502 -0.64616766369E+02 -0.12802208914E+03 -0.72121296870E+03  0.73533199184E+03  0.10100000352E+00 0.  1.
</event>
<event>
 5   0  0.2643185E-02  0.5003161E+03  0.7818609E-02  0.1013696E+00
        1   -1    0    0  501    0  0.00000000000E+00  0.00000000000E+00  0.77457599403E+02  0.77457599567E+02  0.50400001928E-02 0.  1.
       -1   -1    0    0    0  501  0.00000000000E+00  0.00000000000E+00 -0.80791374479E+03  0.80791374481E+03  0.50400001928E-02 0. -1.
    10030    2    1    2    0    0  0.00000000000E+00  0.00000000000E+00 -0.73045614539E+03  0.88537134437E+03  0.50031613716E+03 0.  0.
        1    1    3    3  502    0  0.33852838600E+02  0.18191026270E+03 -0.67312019336E+02  0.19689658790E+03  0.50400001928E-02 0.  1.
       -1    1    3    3    0  502 -0.33852838600E+02 -0.18191026270E+03 -0.66314412605E+03  0.68847475647E+03  0.50400001928E-02 0. -1.
</event>
<event>
 5   0  0.4519539E-02  0.4990745E+03  0.7818609E-02  0.1014021E+00
        2   -1    0    0  501    0  0.00000000000E+00  0.00000000000E+00  0.69635749987E+03  0.69635749987E+03  0.25500000920E-02 0.  1.
       -2   -1    0    0    0  501  0.00000000000E+00  0.00000000000E+00 -0.89420780810E+02  0.89420780846E+02  0.25500000920E-02 0. -1.
    10030    2    1    2    0    0  0.00000000000E+00  0.00000000000E+00  0.60693671906E+03  0.78577828072E+03  0.49907446890E+03 0.  0.
        4    1    3    3  502    0 -0.11736334042E+03  0.20870933835E+03  0.41405717752E+03  0.47830816504E+03  0.12699999809E+01 0.  1.
       -4    1    3    3    0  502  0.11736334042E+03 -0.20870933835E+03  0.19287954154E+03  0.30747011568E+03  0.12699999809E+01 0. -1.
</event>
<event>
 5   0  0.4519539E-02  0.5170390E+03  0.7818609E-02  0.1009425E+00
       -2   -1    0    0    0  501  0.00000000000E+00  0.00000000000E+00  0.92241588260E+02  0.92241588295E+02  0.25500000920E-02 0.  1.
        2   -1    0    0  501    0  0.00000000000E+00  0.00000000000E+00 -0.72453590707E+03  0.72453590707E+03  0.25500000920E-02 0. -1.
    10030    2    1    2    0    0  0.00000000000E+00  0.00000000000E+00 -0.63229431881E+03  0.81677749537E+03  0.51703904238E+03 0.  0.
        4    1    3    3  502    0  0.24737046204E+03  0.46795707682E+02 -0.40891790380E+03  0.48020563167E+03  0.12699999809E+01 0.  1.
       -4    1    3    3    0  502 -0.24737046204E+03 -0.46795707682E+02 -0.22337641501E+03  0.33657186369E+03  0.12699999809E+01 0. -1.
</event>
<event>
 5   0  0.2715483E-02  0.4995412E+03  0.7818609E-02  0.1013899E+00
       -1   -1    0    0    0  501  0.00000000000E+00  0.00000000000E+00  0.19831937115E+03  0.19831937122E+03  0.50400001928E-02 0. -1.
        1   -1    0    0  501    0  0.00000000000E+00  0.00000000000E+00 -0.31457018275E+03  0.31457018279E+03  0.50400001928E-02 0.  1.
    10030    2    1    2    0    0  0.00000000000E+00  0.00000000000E+00 -0.11625081160E+03  0.51288955401E+03  0.49954123294E+03 0.  0.
        5    1    3    3  502    0  0.38451064049E+02 -0.35620862922E+02  0.19256269083E+03  0.19962417213E+03  0.46999998093E+01 0. -1.
       -5    1    3    3    0  502 -0.38451064049E+02  0.35620862922E+02 -0.30881350243E+03  0.31326538187E+03  0.46999998093E+01 0.  1.
</event>
<event>
 5   0  0.2779445E-02  0.4995906E+03  0.7818609E-02  0.1013886E+00
       -1   -1    0    0    0  501  0.00000000000E+00  0.00000000000E+00  0.26343616020E+03  0.26343616025E+03  0.50400001928E-02 0. -1.
        1   -1    0    0  501    0  0.00000000000E+00  0.00000000000E+00 -0.23686073619E+03  0.23686073625E+03  0.50400001928E-02 0.  1.
    10030    2    1    2    0    0  0.00000000000E+00  0.00000000000E+00  0.26575424007E+02  0.50029689649E+03  0.49959056384E+03 0.  0.
        3    1    3    3  502    0 -0.15832275669E+03  0.10100650821E+03  0.17823021370E+03  0.25891007949E+03  0.10100000352E+00 0. -1.
       -3    1    3    3    0  502  0.15832275669E+03 -0.10100650821E+03 -0.15165478970E+03  0.24138681700E+03  0.10100000352E+00 0.  1.
</event>
<event>
 5   0  0.2719671E-02  0.5002288E+03  0.7818609E-02  0.1013719E+00
        1   -1    0    0  501    0  0.00000000000E+00  0.00000000000E+00  0.22854419047E+03  0.22854419053E+03  0.50400001928E-02 0. -1.
       -1   -1    0    0    0  501  0.00000000000E+00  0.00000000000E+00 -0.27372038765E+03  0.27372038770E+03  0.50400001928E-02 0.  1.
    10030    2    1    2    0    0  0.00000000000E+00  0.00000000000E+00 -0.45176197179E+02  0.50226457822E+03  0.50022876541E+03 0.  0.
        2    1    3    3  502    0 -0.18875981778E+03 -0.15410149750E+03  0.34029899601E+02  0.24603978217E+03  0.25500000920E-02 0. -1.
       -2    1    3    3    0  502  0.18875981778E+03  0.15410149750E+03 -0.79206096779E+02  0.25622479605E+03  0.25500000920E-02 0.  1.
</event>
<event>
 5   0  0.4519539E-02  0.5012791E+03  0.7818609E-02  0.1013446E+00
       -2   -1    0    0    0  501  0.00000000000E+00  0.00000000000E+00  0.41107810717E+02  0.41107810796E+02  0.25500000920E-02 0. -1.
        2   -1    0    0  501    0  0.00000000000E+00  0.00000000000E+00 -0.15281810574E+04  0.15281810574E+04  0.25500000920E-02 0.  1.
    10030    2    1    2    0    0  0.00000000000E+00  0.00000000000E+00 -0.14870732466E+04  0.15692888682E+04  0.50127907481E+03 0.  0.
        4    1    3    3  502    0  0.40111884383E+02 -0.11260814817E+03 -0.14331791246E+04  0.14381563108E+04  0.12699999809E+01 0.  1.
       -4    1    3    3    0  502 -0.40111884383E+02  0.11260814817E+03 -0.53894122068E+02  0.13113255735E+03  0.12699999809E+01 0. -1.
</event>
<event>
 5   0  0.2779445E-02  0.4989244E+03  0.7818609E-02  0.1014060E+00
       -1   -1    0    0    0  501  0.00000000000E+00  0.00000000000E+00  0.90729271679E+02  0.90729271819E+02  0.50400001928E-02 0. -1.
        1   -1    0    0  501    0  0.00000000000E+00  0.00000000000E+00 -0.68590208676E+03  0.68590208678E+03  0.50400001928E-02 0.  1.
    10030    2    1    2    0    0  0.00000000000E+00  0.00000000000E+00 -0.59517281508E+03  0.77663135860E+03  0.49892443050E+03 0.  0.
        3    1    3    3  502    0  0.35471986831E+02  0.20933522325E+03 -0.93724477274E+02  0.23208572852E+03  0.10100000352E+00 0.  1.
       -3    1    3    3    0  502 -0.35471986831E+02 -0.20933522325E+03 -0.50144833781E+03  0.54454563008E+03  0.10100000352E+00 0. -1.
</event>
<event>
 5   0  0.4534223E-02  0.4990562E+03  0.7818609E-02  0.1014026E+00
       -2   -1    0    0    0  501  0.00000000000E+00  0.00000000000E+00  0.34492627153E+02  0.34492627247E+02  0.25500000920E-02 0. -1.
        2   -1    0    0  501    0  0.00000000000E+00  0.00000000000E+00 -0.18051475422E+04  0.18051475422E+04  0.25500000920E-02 0.  1.
    10030    2    1    2    0    0  0.00000000000E+00  0.00000000000E+00 -0.17706549150E+04  0.18396401694E+04  0.49905623418E+03 0.  0.
        2    1    3    3  502    0  0.22271398792E+03 -0.10548806403E+03 -0.74090267862E+03  0.78081113674E+03  0.25500000920E-02 0. -1.
       -2    1    3    3    0  502 -0.22271398792E+03  0.10548806403E+03 -0.10297522364E+04  0.10588290327E+04  0.25500000920E-02 0.  1.
</event>
<event>
 5   0  0.4519539E-02  0.4980042E+03  0.7818609E-02  0.1014301E+00
       -2   -1    0    0    0  501  0.00000000000E+00  0.00000000000E+00  0.83442839810E+02  0.83442839849E+02  0.25500000920E-02 0. -1.
        2   -1    0    0  501    0  0.00000000000E+00  0.00000000000E+00 -0.74304798380E+03  0.74304798381E+03  0.25500000920E-02 0.  1.
    10030    2    1    2    0    0  0.00000000000E+00  0.00000000000E+00 -0.65960514399E+03  0.82649082366E+03  0.49800415220E+03 0.  0.
        4    1    3    3  502    0  0.10962332538E+03 -0.21975309656E+03 -0.26154201330E+03  0.35876807904E+03  0.12699999809E+01 0.  1.
       -4    1    3    3    0  502 -0.10962332538E+03  0.21975309656E+03 -0.39806313069E+03  0.46772274462E+03  0.12699999809E+01 0. -1.
</event>
<event>
 5   0  0.2715483E-02  0.5002239E+03  0.7818609E-02  0.1013720E+00
       -1   -1    0    0    0  501  0.00000000000E+00  0.00000000000E+00  0.54157293128E+03  0.54157293131E+03  0.50400001928E-02 0.  1.
        1   -1    0    0  501    0  0.00000000000E+00  0.00000000000E+00 -0.11550795293E+03  0.11550795304E+03  0.50400001928E-02 0. -1.
    10030    2    1    2    0    0  0.00000000000E+00  0.00000000000E+00  0.42606497835E+03  0.65708088435E+03  0.50022387268E+03 0.  0.
        5    1    3    3  502    0  0.13905774778E+03 -0.64253193587E+02  0.47266974637E+03  0.49689466614E+03  0.46999998093E+01 0.  1.
       -5    1    3    3    0  502 -0.13905774778E+03  0.64253193587E+02 -0.46604768019E+02  0.16018621821E+03  0.46999998093E+01 0. -1.
</event>
<event>
 5   0  0.1805500E-02  0.4946073E+03  0.7818609E-02  0.1015196E+00
        4   -1    0    0  501    0  0.00000000000E+00  0.00000000000E+00  0.72190307245E+02  0.72201477548E+02  0.12699999809E+01 0. -1.
       -4   -1    0    0    0  501  0.00000000000E+00  0.00000000000E+00 -0.84711534872E+03  0.84711630072E+03  0.12699999809E+01 0.  1.
    10030    2    1    2    0    0  0.00000000000E+00  0.00000000000E+00 -0.77492504148E+03  0.91931777826E+03  0.49460727606E+03 0.  0.
        1    1    3    3  502    0  0.99114716836E+02  0.71179496534E+02 -0.78726867124E+03  0.79666944749E+03  0.50400001928E-02 0.  1.
       -1    1    3    3    0  502 -0.99114716836E+02 -0.71179496534E+02  0.12343629766E+02  0.12264833077E+03  0.50400001928E-02 0. -1.
</event>
<event>
 5   0  0.4534223E-02  0.5004759E+03  0.7818609E-02  0.1013655E+00
       -2   -1    0    0    0  501  0.00000000000E+00  0.00000000000E+00  0.86481123186E+02  0.86481123223E+02  0.25500000920E-02 0.  1.
        2   -1    0    0  501    0  0.00000000000E+00  0.00000000000E+00 -0.72407740040E+03  0.72407740041E+03  0.25500000920E-02 0. -1.
    10030    2    1    2    0    0  0.00000000000E+00  0.00000000000E+00 -0.63759627722E+03  0.81055852363E+03  0.50047588105E+03 0.  0.
        2    1    3    3  502    0  0.31413694862E+02 -0.24734434790E+03 -0.28432817401E+03  0.37816472232E+03  0.25500000920E-02 0. -1.
       -2    1    3    3    0  502 -0.31413694862E+02  0.24734434790E+03 -0.35326810320E+03  0.43239380131E+03  0.25500000920E-02 0.  1.
</event>
<event>
 5   0  0.4409622E-02  0.5019644E+03  0.7818609E-02  0.1013267E+00
       -2   -1    0    0    0  501  0.00000000000E+00  0.00000000000E+00  0.30262963946E+03  0.30262963947E+03  0.25500000920E-02 0.  1.
        2   -1    0    0  501    0  0.00000000000E+00  0.00000000000E+00 -0.20814905264E+03  0.20814905266E+03  0.25500000920E-02 0. -1.
    10030    2    1    2    0    0  0.00000000000E+00  0.00000000000E+00  0.94480586818E+02  0.51077869213E+03  0.50196443205E+03 0.  0.
        3    1    3    3  502    0  0.13807312056E+03  0.44001307354E+02 -0.16127689959E+03  0.21681916477E+03  0.10100000352E+00 0. -1.
       -3    1    3    3    0  502 -0.13807312056E+03 -0.44001307354E+02  0.25575748641E+03  0.29395952736E+03  0.10100000352E+00 0.  1.
</event>
<event>
 5   0  0.4631619E-02  0.5001771E+03  0.7818609E-02  0.1013733E+00
       -2   -1    0    0    0  501  0.00000000000E+00  0.00000000000E+00  0.15520757175E+03  0.15520757177E+03  0.25500000920E-02 0.  1.
        2   -1    0    0  501    0  0.00000000000E+00  0.00000000000E+00 -0.40297183491E+03  0.40297183491E+03  0.25500000920E-02 0. -1.
    10030    2    1    2    0    0  0.00000000000E+00  0.00000000000E+00 -0.24776426316E+03  0.55817940668E+03  0.50017708858E+03 0.  0.
        5    1    3    3  502    0  0.34936032601E+02 -0.23665121970E+03 -0.42655132040E+02  0.24303472272E+03  0.46999998093E+01 0. -1.
       -5    1    3    3    0  502 -0.34936032601E+02  0.23665121970E+03 -0.20510913112E+03  0.31514468396E+03  0.46999998093E+01 0.  1.
</event>
<event>
 5   0  0.2719671E-02  0.4989922E+03  0.7818609E-02  0.1014042E+00
        1   -1    0    0  501    0  0.00000000000E+00  0.00000000000E+00  0.68942538251E+03  0.68942538253E+03  0.50400001928E-02 0.  1.
       -1   -1    0    0    0  501  0.00000000000E+00  0.00000000000E+00 -0.90290133007E+02  0.90290133147E+02  0.50400001928E-02 0. -1.
    10030    2    1    2    0    0  0.00000000000E+00  0.00000000000E+00  0.59913524950E+03  0.77971551567E+03  0.49899222257E+03 0.  0.
        2    1    3    3  502    0  0.17418735032E+03 -0.13816290447E+02  0.21287056033E+02  0.17602630955E+03  0.25500000920E-02 0. -1.
       -2    1    3    3    0  502 -0.17418735032E+03  0.13816290447E+02  0.57784819347E+03  0.60368920613E+03  0.25500000920E-02 0.  1.
</event>
<event>
 5   0  0.4534223E-02  0.4995205E+03  0.7818609E-02  0.1013904E+00
        2   -1    0    0  501    0  0.00000000000E+00  0.00000000000E+00  0.87984357462E+02  0.87984357499E+02  0.25500000920E-02 0. -1.
       -2   -1    0    0    0  501  0.00000000000E+00  0.00000000000E+00 -0.70899160678E+03  0.70899160678E+03  0.25500000920E-02 0.  1.
    10030    2    1    2    0    0  0.00000000000E+00  0.00000000000E+00 -0.62100724932E+03  0.79697596428E+03  0.49952045397E+03 0.  0.
        2    1    3    3  502    0 -0.13713588105E+03 -0.18761479426E+03 -0.16449643369E+03  0.28471852345E+03  0.25500000920E-02 0.  1.
       -2    1    3    3    0  502  0.13713588105E+03  0.18761479426E+03 -0.45651081563E+03  0.51225744083E+03  0.25500000920E-02 0. -1.
</event>
<event>
 5   0  0.1805500E-02  0.5017535E+03  0.7818609E-02  0.1013322E+00
        4   -1    0    0  501    0  0.00000000000E+00  0.00000000000E+00  0.21386156884E+03  0.21386533970E+03  0.12699999809E+01 0. -1.
       -4   -1    0    0    0  501  0.00000000000E+00  0.00000000000E+00 -0.29429080513E+03  0.29429354543E+03  0.12699999809E+01 0.  1.
    10030    2    1    2    0    0  0.00000000000E+00  0.00000000000E+00 -0.80429236294E+02  0.50815888513E+03  0.50175351567E+03 0.  0.
        3    1    3    3  502    0  0.84608030049E+02  0.23131693535E+03 -0.88500237486E+02  0.26172188591E+03  0.10100000352E+00 0. -1.
       -3    1    3    3    0  502 -0.84608030049E+02 -0.23131693535E+03  0.80710011912E+01  0.24643699923E+03  0.10100000352E+00 0.  1.
</event>
<event>
 5   0  0.4631619E-02  0.4921985E+03  0.7818609E-02  0.1015836E+00
       -2   -1    0    0    0  501  0.00000000000E+00  0.00000000000E+00  0.16184911295E+03  0.16184911297E+03  0.25500000920E-02 0. -1.
        2   -1    0    0  501    0  0.00000000000E+00  0.00000000000E+00 -0.37420555589E+03  0.37420555589E+03  0.25500000920E-02 0.  1.
    10030    2    1    2    0    0  0.00000000000E+00  0.00000000000E+00 -0.21235644293E+03  0.53605466887E+03  0.49219848553E+03 0.  0.
        5    1    3    3  502    0  0.16235995155E+03 -0.76545983127E+02  0.77110685421E+02  0.19541798588E+03  0.46999998093E+01 0. -1.
       -5    1    3    3    0  502 -0.16235995155E+03  0.76545983127E+02 -0.28946712836E+03  0.34063668299E+03  0.46999998093E+01 0.  1.
</event>
<event>
 5   0  0.2723308E-02  0.4994686E+03  0.7818609E-02  0.1013918E+00
        1   -1    0    0  501    0  0.00000000000E+00  0.00000000000E+00  0.11265364594E+04  0.11265364594E+04  0.50400001928E-02 0. -1.
       -1   -1    0    0    0  501  0.00000000000E+00  0.00000000000E+00 -0.55361913289E+02  0.55361913519E+02  0.50400001928E-02 0.  1.
    10030    2    1    2    0    0  0.00000000000E+00  0.00000000000E+00  0.10711745461E+04  0.11818983729E+04  0.49946857328E+03 0.  0.
        4    1    3    3  502    0  0.16760897259E+03 -0.16275331071E+03  0.74436240650E+03  0.78016563174E+03  0.12699999809E+01 0. -1.
       -4    1    3    3    0  502 -0.16760897259E+03  0.16275331071E+03  0.32681213957E+03  0.40173274115E+03  0.12699999809E+01 0.  1.
</event>
<event>
 5   0  0.2719671E-02  0.5001884E+03  0.7818609E-02  0.1013730E+00
       -1   -1    0    0    0  501  0.00000000000E+00  0.00000000000E+00  0.69592400079E+02  0.69592400262E+02  0.50400001928E-02 0. -1.
        1   -1    0    0  501    0  0.00000000000E+00  0.00000000000E+00 -0.89876357910E+03  0.89876357912E+03  0.50400001928E-02 0.  1.
    10030    2    1    2    0    0  0.00000000000E+00  0.00000000000E+00 -0.82917117903E+03  0.96835597938E+03  0.50018842317E+03 0.  0.
        2    1    3    3  502    0  0.59245289369E+02  0.21582603453E+02  0.53951354216E+02  0.82985310221E+02  0.25500000920E-02 0. -1.
       -2    1    3    3    0  502 -0.59245289369E+02 -0.21582603453E+02 -0.88312253324E+03  0.88537066916E+03  0.25500000920E-02 0.  1.
</event>
<event>
 5   0  0.2643185E-02  0.4987221E+03  0.7818609E-02  0.1014113E+00
       -1   -1    0    0    0  501  0.00000000000E+00  0.00000000000E+00  0.51671909230E+03  0.51671909233E+03  0.50400001928E-02 0.  1.
        1   -1    0    0  501    0  0.00000000000E+00  0.00000000000E+00 -0.12033797660E+03  0.12033797671E+03  0.50400001928E-02 0. -1.
    10030    2    1    2    0    0  0.00000000000E+00  0.00000000000E+00  0.39638111570E+03  0.63705706903E+03  0.49872208726E+03 0.  0.
        1    1    3    3  502    0 -0.65175865965E+02  0.64225471109E+02 -0.98117640410E+02  0.13416361663E+03  0.50400001928E-02 0. -1.
       -1    1    3    3    0  502  0.65175865965E+02 -0.64225471109E+02  0.49449875611E+03  0.50289345240E+03  0.50400001928E-02 0.  1.
</event>
<event>
 5   0  0.4631619E-02  0.4909900E+03  0.7818609E-02  0.1016158E+00
       -2   -1    0    0    0  501  0.00000000000E+00  0.00000000000E+00  0.60523635750E+02  0.60523635804E+02  0.25500000920E-02 0.  1.
        2   -1    0    0  501    0  0.00000000000E+00  0.00000000000E+00 -0.99577291079E+03  0.99577291080E+03  0.25500000920E-02 0. -1.
    10030    2    1    2    0    0  0.00000000000E+00  0.00000000000E+00 -0.93524927504E+03  0.10562965466E+04  0.49099000793E+03 0.  0.
        5    1    3    3  502    0  0.36206755228E+02  0.74475006085E+02  0.29466538652E+02  0.88021716376E+02  0.46999998093E+01 0.  1.
       -5    1    3    3    0  502 -0.36206755228E+02 -0.74475006085E+02 -0.96471581369E+03  0.96827483022E+03  0.46999998093E+01 0. -1.
</event>
<event>
 5   0  0.2715483E-02  0.4842542E+03  0.7818609E-02  0.1017972E+00
       -1   -1    0    0    0  501  0.00000000000E+00  0.00000000000E+00  0.61049648347E+02  0.61049648555E+02  0.50400001928E-02 0. -1.
        1   -1    0    0  501    0  0.00000000000E+00  0.00000000000E+00 -0.96029281433E+03  0.96029281434E+03  0.50400001928E-02 0.  1.
    10030    2    1    2    0    0  0.00000000000E+00  0.00000000000E+00 -0.89924316598E+03  0.10213424629E+04  0.48425422554E+03 0.  0.
        5    1    3    3  502    0 -0.20135534369E+03 -0.12980886042E+03 -0.52296061899E+03  0.57524274328E+03  0.46999998093E+01 0. -1.
       -5    1    3    3    0  502  0.20135534369E+03  0.12980886042E+03 -0.37628254699E+03  0.44609971962E+03  0.46999998093E+01 0.  1.
</event>
<event>
 5   0  0.2779445E-02  0.4986152E+03  0.7818609E-02  0.1014141E+00
        1   -1    0    0  501    0  0.00000000000E+00  0.00000000000E+00  0.19488149263E+03  0.19488149269E+03  0.50400001928E-02 0.  1.
       -1   -1    0    0    0  501  0.00000000000E+00  0.00000000000E+00 -0.31893367527E+03  0.31893367531E+03  0.50400001928E-02 0. -1.
    10030    2    1    2    0    0  0.00000000000E+00  0.00000000000E+00 -0.12405218264E+03  0.51381516800E+03  0.49861516508E+03 0.  0.
        3    1    3    3  502    0  0.28653967932E+02  0.23568851275E+03 -0.14039804442E+03  0.27582919715E+03  0.10100000352E+00 0.  1.
       -3    1    3    3    0  502 -0.28653967932E+02 -0.23568851275E+03  0.16345861784E+02  0.23798597085E+03  0.10100000352E+00 0. -1.
</event>
<event>
 5   0  0.4451135E-02  0.5017462E+03  0.7818609E-02  0.1013324E+00
       -2   -1    0    0    0  501  0.00000000000E+00  0.00000000000E+00  0.38680883365E+02  0.38680883449E+02  0.25500000920E-02 0.  1.
        2   -1    0    0  501    0  0.00000000000E+00  0.00000000000E+00 -0.16270911018E+04  0.16270911018E+04  0.25500000920E-02 0. -1.
    10030    2    1    2    0    0  0.00000000000E+00  0.00000000000E+00 -0.15884102185E+04  0.16657719853E+04  0.50174623548E+03 0.  0.
        1    1    3    3  502    0 -0.64690573313E+02 -0.20964163878E+02  0.74987147103E+01  0.68414890122E+02  0.50400001928E-02 0.  1.
       -1    1    3    3    0  502  0.64690573313E+02  0.20964163878E+02 -0.15959089332E+04  0.15973570952E+04  0.50400001928E-02 0. -1.
</event>
<event>
 5   0  0.2643185E-02  0.4993253E+03  0.7818609E-02  0.1013955E+00
        1   -1    0    0  501    0  0.00000000000E+00  0.00000000000E+00  0.51128033113E+03  0.51128033115E+03  0.50400001928E-02 0.  1.
       -1   -1    0    0    0  501  0.00000000000E+00  0.00000000000E+00 -0.12191244152E+03  0.12191244163E+03  0.50400001928E-02 0. -1.
    10030    2    1    2    0    0  0.00000000000E+00  0.00000000000E+00  0.38936788961E+03  0.63319277278E+03  0.49932527879E+03 0.  0.
        1    1    3    3  502    0  0.15199020081E+03 -0.60889720256E+02 -0.44320690261E+02  0.16962577276E+03  0.50400001928E-02 0. -1.
       -1    1    3    3    0  502 -0.15199020081E+03  0.60889720256E+02  0.43368857987E+03  0.46356700002E+03  0.50400001928E-02 0.  1.
</event>
<event>
 5   0  0.4409622E-02  0.4948311E+03  0.7818609E-02  0.1015137E+00
       -2   -1    0    0    0  501  0.00000000000E+00  0.00000000000E+00  0.86304450764E+02  0.86304450802E+02  0.25500000920E-02 0. -1.
        2   -1    0    0  501    0  0.00000000000E+00  0.00000000000E+00 -0.70928507230E+03  0.70928507231E+03  0.25500000920E-02 0.  1.
    10030    2    1    2    0    0  0.00000000000E+00  0.00000000000E+00 -0.62298062154E+03  0.79558952311E+03  0.49483111712E+03 0.  0.
        3    1    3    3  502    0  0.13441089723E+03  0.23614642035E+02 -0.64329954049E+03  0.65761557890E+03  0.10100000352E+00 0.  1.
       -3    1    3    3    0  502 -0.13441089723E+03 -0.23614642035E+02  0.20318918954E+02  0.13797394421E+03  0.10100000352E+00 0. -1.
</event>
<event>
 5   0  0.2643185E-02  0.4998727E+03  0.7818609E-02  0.1013812E+00
        1   -1    0    0  501    0  0.00000000000E+00  0.00000000000E+00  0.38806775998E+03  0.38806776001E+03  0.50400001928E-02 0. -1.
       -1   -1    0    0    0  501  0.00000000000E+00  0.00000000000E+00 -0.16097234414E+03  0.16097234422E+03  0.50400001928E-02 0.  1.
    10030    2    1    2    0    0  0.00000000000E+00  0.00000000000E+00  0.22709541584E+03  0.54904010423E+03  0.49987269196E+03 0.  0.
        1    1    3    3  502    0 -0.12736700267E+03 -0.14096643502E+03  0.29192313555E+03  0.34830016691E+03  0.50400001928E-02 0. -1.
       -1    1    3    3    0  502  0.12736700267E+03  0.14096643502E+03 -0.64827719713E+02  0.20073993733E+03  0.50400001928E-02 0.  1.
</event>
<event>
 5   0  0.2723308E-02  0.4989399E+03  0.7818609E-02  0.1014056E+00
        1   -1    0    0  501    0  0.00000000000E+00  0.00000000000E+00  0.31995661111E+03  0.31995661115E+03  0.50400001928E-02 0.  1.
       -1   -1    0    0    0  501  0.00000000000E+00  0.00000000000E+00 -0.19451157675E+03  0.19451157682E+03  0.50400001928E-02 0. -1.
    10030    2    1    2    0    0  0.00000000000E+00  0.00000000000E+00  0.12544503436E+03  0.51446818797E+03  0.49893993605E+03 0.  0.
        4    1    3    3  502    0 -0.18049870471E+02  0.23264171185E+03  0.15370520445E+03  0.27941880161E+03  0.12699999809E+01 0.  1.
       -4    1    3    3    0  502  0.18049870471E+02 -0.23264171185E+03 -0.28260170094E+02  0.23504938636E+03  0.12699999809E+01 0. -1.
</event>
<event>
 5   0  0.4451135E-02  0.4989564E+03  0.7818609E-02  0.1014052E+00
       -2   -1    0    0    0  501  0.00000000000E+00  0.00000000000E+00  0.84786739703E+02  0.84786739741E+02  0.25500000920E-02 0. -1.
        2   -1    0    0  501    0  0.00000000000E+00  0.00000000000E+00 -0.73406977898E+03  0.73406977899E+03  0.25500000920E-02 0.  1.
    10030    2    1    2    0    0  0.00000000000E+00  0.00000000000E+00 -0.64928303928E+03  0.81885651873E+03  0.49895644416E+03 0.  0.
        1    1    3    3  502    0  0.53082786255E+02  0.17326410405E+03 -0.60604362560E+03  0.63255601183E+03  0.50400001928E-02 0.  1.
       -1    1    3    3    0  502 -0.53082786255E+02 -0.17326410405E+03 -0.43239413681E+02  0.18630050690E+03  0.50400001928E-02 0. -1.
</event>
<event>
 5   0  0.2643185E-02  0.4969096E+03  0.7818609E-02  0.1014589E+00
        1   -1    0    0  501    0  0.00000000000E+00  0.00000000000E+00  0.13328071432E+04  0.13328071432E+04  0.50400001928E-02 0.  1.
       -1   -1    0    0    0  501  0.00000000000E+00  0.00000000000E+00 -0.46315626650E+02  0.46315626924E+02  0.50400001928E-02 0. -1.
    10030    2    1    2    0    0  0.00000000000E+00  0.00000000000E+00  0.12864915166E+04  0.13791227702E+04  0.49690964264E+03 0.  0.
        1    1    3    3  502    0 -0.36807808801E+02 -0.24034940142E+03  0.50153317914E+03  0.55736718540E+03  0.50400001928E-02 0.  1.
       -1    1    3    3    0  502  0.36807808801E+02  0.24034940142E+03  0.78495833743E+03  0.82175558476E+03  0.50400001928E-02 0. -1.
</event>
<event>
 5   0  0.2643185E-02  0.5037817E+03  0.7818609E-02  0.1012797E+00
        1   -1    0    0  501    0  0.00000000000E+00  0.00000000000E+00  0.51646104597E+03  0.51646104599E+03  0.50400001928E-02 0. -1.
       -1   -1    0    0    0  501  0.00000000000E+00  0.00000000000E+00 -0.12285343099E+03  0.12285343109E+03  0.50400001928E-02 0.  1.
    10030    2    1    2    0    0  0.00000000000E+00  0.00000000000E+00  0.39360761498E+03  0.63931447709E+03  0.50378174445E+03 0.  0.
        1    1    3    3  502    0 -0.13192605336E+03  0.18565795292E+03  0.33333907720E+03  0.40371809403E+03  0.50400001928E-02 0. -1.
       -1    1    3    3    0  502  0.13192605336E+03 -0.18565795292E+03  0.60268537783E+02  0.23559638306E+03  0.50400001928E-02 0.  1.
</event>
<event>
 5   0  0.4409622E-02  0.5001980E+03  0.7818609E-02  0.1013727E+00
       -2   -1    0    0    0  501  0.00000000000E+00  0.00000000000E+00  0.16705983319E+03  0.16705983321E+03  0.25500000920E-02 0.  1.
        2   -1    0    0  501    0  0.00000000000E+00  0.00000000000E+00 -0.37441382449E+03  0.37441382449E+03  0.25500000920E-02 0. -1.
    10030    2    1    2    0    0  0.00000000000E+00  0.00000000000E+00 -0.20735399129E+03  0.54147365771E+03  0.50019800508E+03 0.  0.
        3    1    3    3  502    0  0.13659961473E+03  0.20723459896E+03 -0.13693458809E+03  0.28347261837E+03  0.10100000352E+00 0. -1.
       -3    1    3    3    0  502 -0.13659961473E+03 -0.20723459896E+03 -0.70419403198E+02  0.25800103933E+03  0.10100000352E+00 0.  1.
</event>
<event>
 5   0  0.4631619E-02  0.4982163E+03  0.7818609E-02  0.1014246E+00
        2   -1    0    0  501    0  0.00000000000E+00  0.00000000000E+00  0.98829384264E+03  0.98829384264E+03  0.25500000920E-02 0.  1.
       -2   -1    0    0    0  501  0.00000000000E+00  0.00000000000E+00 -0.62789889257E+02  0.62789889309E+02  0.25500000920E-02 0. -1.
    10030    2    1    2    0    0  0.00000000000E+00  0.00000000000E+00  0.92550395338E+03  0.10510837320E+04  0.49821626213E+03 0.  0.
        5    1    3    3  502    0 -0.94057750527E+02 -0.64216931328E+02 -0.45444557104E+01  0.11407636381E+03  0.46999998093E+01 0. -1.
       -5    1    3    3    0  502  0.94057750527E+02  0.64216931328E+02  0.93004840909E+03  0.93700736815E+03  0.46999998093E+01 0.  1.
</event>
<event>
 5   0  0.1805500E-02  0.5003867E+03  0.7818609E-02  0.1013678E+00
        3   -1    0    0  501    0  0.00000000000E+00  0.00000000000E+00  0.28420036166E+03  0.28420037961E+03  0.10100000352E+00 0.  1.
       -3   -1    0    0    0  501  0.00000000000E+00  0.00000000000E+00 -0.22025556929E+03  0.22025559245E+03  0.10100000352E+00 0. -1.
    10030    2    1    2    0    0  0.00000000000E+00  0.00000000000E+00  0.63944792369E+02  0.50445597206E+03  0.50038674171E+03 0.  0.
        3    1    3    3  502    0 -0.49551218299E+02 -0.45085482718E+02  0.27499015485E+03  0.28303289465E+03  0.10100000352E+00 0.  1.
       -3    1    3    3    0  502  0.49551218299E+02  0.45085482718E+02 -0.21104536248E+03  0.22142307742E+03  0.10100000352E+00 0. -1.
</event>
<event>
 5   0  0.4534223E-02  0.4998783E+03  0.7818609E-02  0.1013811E+00
        2   -1    0    0  501    0  0.00000000000E+00  0.00000000000E+00  0.55912396440E+03  0.55912396441E+03  0.25500000920E-02 0. -1.
       -2   -1    0    0    0  501  0.00000000000E+00  0.00000000000E+00 -0.11172760783E+03  0.11172760786E+03  0.25500000920E-02 0.  1.
    10030    2    1    2    0    0  0.00000000000E+00  0.00000000000E+00  0.44739635657E+03  0.67085157227E+03  0.49987831734E+03 0.  0.
        2    1    3    3  502    0 -0.22245248434E+03 -0.10590544713E+03  0.16726089655E+03  0.29778730504E+03  0.25500000920E-02 0. -1.
       -2    1    3    3    0  502  0.22245248434E+03  0.10590544713E+03  0.28013546002E+03  0.37306426723E+03  0.25500000920E-02 0.  1.
</event>
<event>
 5   0  0.4534223E-02  0.5009950E+03  0.7818609E-02  0.1013520E+00
        2   -1    0    0  501    0  0.00000000000E+00  0.00000000000E+00  0.83068661469E+03  0.83068661469E+03  0.25500000920E-02 0. -1.
       -2   -1    0    0    0  501  0.00000000000E+00  0.00000000000E+00 -0.75538722499E+02  0.75538722542E+02  0.25500000920E-02 0.  1.
    10030    2    1    2    0    0  0.00000000000E+00  0.00000000000E+00  0.75514789219E+03  0.90622533723E+03  0.50099503268E+03 0.  0.
        2    1    3    3  502    0  0.12294505163E+03  0.17654049221E+03  0.60969241011E+03  0.64653450493E+03  0.25500000920E-02 0. -1.
       -2    1    3    3    0  502 -0.12294505163E+03 -0.17654049221E+03  0.14545548208E+03  0.25969083231E+03  0.25500000920E-02 0.  1.
</event>
<event>
 5   0  0.4409622E-02  0.4951834E+03  0.7818609E-02  0.1015044E+00
       -2   -1    0    0    0  501  0.00000000000E+00  0.00000000000E+00  0.16476006750E+03  0.16476006752E+03  0.25500000920E-02 0. -1.
        2   -1    0    0  501    0  0.00000000000E+00  0.00000000000E+00 -0.37206615407E+03  0.37206615408E+03  0.25500000920E-02 0.  1.
    10030    2    1    2    0    0  0.00000000000E+00  0.00000000000E+00 -0.20730608657E+03  0.53682622160E+03  0.49518337883E+03 0.  0.
        3    1    3    3  502    0  0.22499245019E+03 -0.91235238873E+02 -0.51030682338E+02  0.24809194303E+03  0.10100000352E+00 0. -1.
       -3    1    3    3    0  502 -0.22499245019E+03  0.91235238873E+02 -0.15627540423E+03  0.28873427857E+03  0.10100000352E+00 0.  1.
</event>
<event>
 5   0  0.2719671E-02  0.4821900E+03  0.7818609E-02  0.1018535E+00
       -1   -1    0    0    0  501  0.00000000000E+00  0.00000000000E+00  0.12538532693E+03  0.12538532703E+03  0.50400001928E-02 0.  1.
        1   -1    0    0  501    0  0.00000000000E+00  0.00000000000E+00 -0.46358527339E+03  0.46358527342E+03  0.50400001928E-02 0. -1.
    10030    2    1    2    0    0  0.00000000000E+00  0.00000000000E+00 -0.33819994647E+03  0.58897060045E+03  0.48218996713E+03 0.  0.
        2    1    3    3  502    0 -0.42857639461E+02  0.22295544197E+03 -0.26818718065E+03  0.35138336648E+03  0.25500000920E-02 0. -1.
       -2    1    3    3    0  502  0.42857639461E+02 -0.22295544197E+03 -0.70012765815E+02  0.23758723397E+03  0.25500000920E-02 0.  1.
</event>
<event>
 5   0  0.4451135E-02  0.4986138E+03  0.7818609E-02  0.1014141E+00
        2   -1    0    0  501    0  0.00000000000E+00  0.00000000000E+00  0.13329061195E+04  0.13329061195E+04  0.25500000920E-02 0. -1.
       -2   -1    0    0    0  501  0.00000000000E+00  0.00000000000E+00 -0.46630388775E+02  0.46630388844E+02  0.25500000920E-02 0.  1.
    10030    2    1    2    0    0  0.00000000000E+00  0.00000000000E+00  0.12862757307E+04  0.13795365083E+04  0.49861380085E+03 0.  0.
        1    1    3    3  502    0 -0.14559326357E+03 -0.19690562205E+03  0.51381788766E+03  0.56919069221E+03  0.50400001928E-02 0.  1.
       -1    1    3    3    0  502  0.14559326357E+03  0.19690562205E+03  0.77245784302E+03  0.81034581609E+03  0.50400001928E-02 0. -1.
</event>
<event>
 5   0  0.2643185E-02  0.5017688E+03  0.7818609E-02  0.1013318E+00
        1   -1    0    0  501    0  0.00000000000E+00  0.00000000000E+00  0.28924312787E+03  0.28924312791E+03  0.50400001928E-02 0.  1.
       -1   -1    0    0    0  501  0.00000000000E+00  0.00000000000E+00 -0.21761270621E+03  0.21761270627E+03  0.50400001928E-02 0. -1.
    10030    2    1    2    0    0  0.00000000000E+00  0.00000000000E+00  0.71630421655E+02  0.50685583418E+03  0.50176879072E+03 0.  0.
        1    1    3    3  502    0  0.50364061816E+02 -0.14283100084E+03 -0.16622694443E+03  0.22487469979E+03  0.50400001928E-02 0. -1.
       -1    1    3    3    0  502 -0.50364061816E+02  0.14283100084E+03  0.23785736609E+03  0.28198113439E+03  0.50400001928E-02 0.  1.
</event>
<event>
 5   0  0.2779445E-02  0.4996009E+03  0.7818609E-02  0.1013883E+00
        1   -1    0    0  501    0  0.00000000000E+00  0.00000000000E+00  0.57323721312E+03  0.57323721314E+03  0.50400001928E-02 0. -1.
       -1   -1    0    0    0  501  0.00000000000E+00  0.00000000000E+00 -0.10885590676E+03  0.10885590687E+03  0.50400001928E-02 0.  1.
    10030    2    1    2    0    0  0.00000000000E+00  0.00000000000E+00  0.46438130637E+03  0.68209312002E+03  0.49960086737E+03 0.  0.
        3    1    3    3  502    0  0.16256753729E+03  0.90717067638E+01  0.49083660189E+03  0.51713738987E+03  0.10100000352E+00 0. -1.
       -3    1    3    3    0  502 -0.16256753729E+03 -0.90717067638E+01 -0.26455295529E+02  0.16495573014E+03  0.10100000352E+00 0.  1.
</event>
<event>
 5   0  0.2723308E-02  0.4988018E+03  0.7818609E-02  0.1014092E+00
        1   -1    0    0  501    0  0.00000000000E+00  0.00000000000E+00  0.69055594851E+02  0.69055595035E+02  0.50400001928E-02 0.  1.
       -1   -1    0    0    0  501  0.00000000000E+00  0.00000000000E+00 -0.90073529974E+03  0.90073529976E+03  0.50400001928E-02 0. -1.
    10030    2    1    2    0    0  0.00000000000E+00  0.00000000000E+00 -0.83167970489E+03  0.96979089479E+03  0.49880181244E+03 0.  0.
        4    1    3    3  502    0  0.84736737507E+02 -0.19985598104E+03 -0.65456596820E+03  0.68962377240E+03  0.12699999809E+01 0. -1.
       -4    1    3    3    0  502 -0.84736737507E+02  0.19985598104E+03 -0.17711373669E+03  0.28016712239E+03  0.12699999809E+01 0.  1.
</event>
<event>
 5   0  0.4519539E-02  0.4992404E+03  0.7818609E-02  0.1013977E+00
        2   -1    0    0  501    0  0.00000000000E+00  0.00000000000E+00  0.15044513057E+04  0.15044513057E+04  0.25500000920E-02 0.  1.
       -2   -1    0    0    0  501  0.00000000000E+00  0.00000000000E+00 -0.41417254128E+02  0.41417254207E+02  0.25500000920E-02 0. -1.
    10030    2    1    2    0    0  0.00000000000E+00  0.00000000000E+00  0.14630340516E+04  0.15458685600E+04  0.49924039146E+03 0.  0.
        4    1    3    3  502    0  0.15757843500E+02  0.11989735295E+03  0.14076832755E+04  0.14128685367E+04  0.12699999809E+01 0.  1.
       -4    1    3    3    0  502 -0.15757843500E+02 -0.11989735295E+03  0.55350776097E+02  0.13300002327E+03  0.12699999809E+01 0. -1.
</event>
<event>
 5   0  0.2779445E-02  0.5035547E+03  0.7818609E-02  0.1012855E+00
        1   -1    0    0  501    0  0.00000000000E+00  0.00000000000E+00  0.40490013440E+03  0.40490013443E+03  0.50400001928E-02 0. -1.
       -1   -1    0    0    0  501  0.00000000000E+00  0.00000000000E+00 -0.15656165735E+03  0.15656165744E+03  0.50400001928E-02 0.  1.
    10030    2    1    2    0    0  0.00000000000E+00  0.00000000000E+00  0.24833847704E+03  0.56146179186E+03  0.50355470859E+03 0.  0.
        3    1    3    3  502    0  0.75124856637E+02 -0.10609880318E+02 -0.14351242645E+03  0.16233342352E+03  0.10100000352E+00 0.  1.
       -3    1    3    3    0  502 -0.75124856637E+02  0.10609880318E+02  0.39185090350E+03  0.39912836834E+03  0.10100000352E+00 0. -1.
</event>
<event>
 5   0  0.4631619E-02  0.5013232E+03  0.7818609E-02  0.1013434E+00
       -2   -1    0    0    0  501  0.00000000000E+00  0.00000000000E+00  0.80877195090E+02  0.80877195131E+02  0.25500000920E-02 0.  1.
        2   -1    0    0  501    0  0.00000000000E+00  0.00000000000E+00 -0.77687196519E+03  0.77687196520E+03  0.25500000920E-02 0. -1.
    10030    2    1    2    0    0  0.00000000000E+00  0.00000000000E+00 -0.69599477010E+03  0.85774916033E+03  0.50132315130E+03 0.  0.
        5    1    3    3  502    0  0.40119263431E+02 -0.23373546030E+03 -0.20934209040E+03  0.31636690964E+03  0.46999998093E+01 0.  1.
       -5    1    3    3    0  502 -0.40119263431E+02  0.23373546030E+03 -0.48665267971E+03  0.54138225069E+03  0.46999998093E+01 0. -1.
</event>
<event>
 5   0  0.2779445E-02  0.4991762E+03  0.7818609E-02  0.1013994E+00
        1   -1    0    0  501    0  0.00000000000E+00  0.00000000000E+00  0.23002026413E+03  0.23002026419E+03  0.50400001928E-02 0. -1.
       -1   -1    0    0    0  501  0.00000000000E+00  0.00000000000E+00 -0.27082054947E+03  0.27082054952E+03  0.50400001928E-02 0.  1.
    10030    2    1    2    0    0  0.00000000000E+00  0.00000000000E+00 -0.40800285339E+02  0.50084081370E+03  0.49917617871E+03 0.  0.
        3    1    3    3  502    0  0.29887947790E+02  0.22158355831E+03  0.90882490136E+02  0.24135492527E+03  0.10100000352E+00 0.  1.
       -3    1    3    3    0  502 -0.29887947790E+02 -0.22158355831E+03 -0.13168277547E+03  0.25948588843E+03  0.10100000352E+00 0. -1.
</event>
<event>
 5   0  0.4451135E-02  0.4995777E+03  0.7818609E-02  0.1013889E+00
        2   -1    0    0  501    0  0.00000000000E+00  0.00000000000E+00  0.97619158122E+03  0.97619158122E+03  0.25500000920E-02 0.  1.
       -2   -1    0    0    0  501  0.00000000000E+00  0.00000000000E+00 -0.63916216295E+02  0.63916216346E+02  0.25500000920E-02 0. -1.
    10030    2    1    2    0    0  0.00000000000E+00  0.00000000000E+00  0.91227536493E+03  0.10401077976E+04  0.49957771079E+03 0.  0.
        1    1    3    3  502    0 -0.19775808138E+03  0.14320904152E+03  0.34641579807E+03  0.42381716990E+03  0.50400001928E-02 0.  1.
       -1    1    3    3    0  502  0.19775808138E+03 -0.14320904152E+03  0.56585956685E+03  0.61629062767E+03  0.50400001928E-02 0. -1.
</event>
<event>
 5   0  0.2779445E-02  0.5001919E+03  0.7818609E-02  0.1013729E+00
        1   -1    0    0  501    0  0.00000000000E+00  0.00000000000E+00  0.17421227080E+03  0.17421227087E+03  0.50400001928E-02 0. -1.
       -1   -1    0    0    0  501  0.00000000000E+00  0.00000000000E+00 -0.35903311111E+03  0.35903311115E+03  0.50400001928E-02 0.  1.
    10030    2    1    2    0    0  0.00000000000E+00  0.00000000000E+00 -0.18482084031E+03  0.53324538202E+03  0.50019185763E+03 0.  0.
        3    1    3    3  502    0 -0.78108311026E+02  0.54203857103E+02  0.15419572278E+03  0.18114993100E+03  0.10100000352E+00 0. -1.
       -3    1    3    3    0  502  0.78108311026E+02 -0.54203857103E+02 -0.33901656310E+03  0.35209545102E+03  0.10100000352E+00 0.  1.
</event>
<event>
 5   0  0.4631619E-02  0.5008101E+03  0.7818609E-02  0.1013568E+00
       -2   -1    0    0    0  501  0.00000000000E+00  0.00000000000E+00  0.61734669981E+02  0.61734670034E+02  0.25500000920E-02 0.  1.
        2   -1    0    0  501    0  0.00000000000E+00  0.00000000000E+00 -0.10156802945E+04  0.10156802945E+04  0.25500000920E-02 0. -1.
    10030    2    1    2    0    0  0.00000000000E+00  0.00000000000E+00 -0.95394562450E+03  0.10774149645E+04  0.50081009501E+03 0.  0.
        5    1    3    3  502    0 -0.50233293173E+02 -0.12568482967E+03 -0.23857926963E+02  0.13751854722E+03  0.46999998093E+01 0.  1.
       -5    1    3    3    0  502  0.50233293173E+02  0.12568482967E+03 -0.93008769754E+03  0.93989641730E+03  0.46999998093E+01 0. -1.
</event>
<event>
 5   0  0.4409622E-02  0.4971092E+03  0.7818609E-02  0.1014536E+00
        2   -1    0    0  501    0  0.00000000000E+00  0.00000000000E+00  0.41790532239E+03  0.41790532240E+03  0.25500000920E-02 0.  1.
       -2   -1    0    0    0  501  0.00000000000E+00  0.00000000000E+00 -0.14783106625E+03  0.14783106628E+03  0.25500000920E-02 0. -1.
    10030    2    1    2    0    0  0.00000000000E+00  0.00000000000E+00  0.27007425614E+03  0.56573638868E+03  0.49710920093E+03 0.  0.
        3    1    3    3  502    0  0.11203608042E+02 -0.15330134349E+03  0.35732928210E+03  0.38898720904E+03  0.10100000352E+00 0.  1.
       -3    1    3    3    0  502 -0.11203608042E+02  0.15330134349E+03 -0.87255025959E+02  0.17674917964E+03  0.10100000352E+00 0. -1.
</event>
<event>
 5   0  0.1805500E-02  0.5084310E+03  0.7818609E-02  0.1011601E+00
       -3   -1    0    0    0  501  0.00000000000E+00  0.00000000000E+00  0.72619988884E+03  0.72619989586E+03  0.10100000352E+00 0.  1.
        3   -1    0    0  501    0  0.00000000000E+00  0.00000000000E+00 -0.88991337771E+02  0.88991395086E+02  0.10100000352E+00 0. -1.
    10030    2    1    2    0    0  0.00000000000E+00  0.00000000000E+00  0.63720855107E+03  0.81519129095E+03  0.50843102117E+03 0.  0.
        4    1    3    3  502    0 -0.16539749390E+03  0.55182841555E+02  0.61521233687E+03  0.63944453186E+03  0.12699999809E+01 0.  1.
       -4    1    3    3    0  502  0.16539749390E+03 -0.55182841555E+02  0.21996214195E+02  0.17574675909E+03  0.12699999809E+01 0. -1.
</event>
<event>
 5   0  0.4409622E-02  0.5001376E+03  0.7818609E-02  0.1013743E+00
        2   -1    0    0  501    0  0.00000000000E+00  0.00000000000E+00  0.22769986895E+03  0.22769986897E+03  0.25500000920E-02 0.  1.
       -2   -1    0    0    0  501  0.00000000000E+00  0.00000000000E+00 -0.27463526317E+03  0.27463526318E+03  0.25500000920E-02 0. -1.
    10030    2    1    2    0    0  0.00000000000E+00  0.00000000000E+00 -0.46935394215E+02  0.50233513214E+03  0.50013763481E+03 0.  0.
        3    1    3    3  502    0 -0.20449888128E+03 -0.46090744665E+02 -0.16041285440E+03  0.26396295810E+03  0.10100000352E+00 0. -1.
       -3    1    3    3    0  502  0.20449888128E+03  0.46090744665E+02  0.11347746018E+03  0.23837217405E+03  0.10100000352E+00 0.  1.
</event>
<event>
 5   0  0.2723308E-02  0.5000685E+03  0.7818609E-02  0.1013761E+00
        1   -1    0    0  501    0  0.00000000000E+00  0.00000000000E+00  0.46586525399E+03  0.46586525402E+03  0.50400001928E-02 0. -1.
       -1   -1    0    0    0  501  0.00000000000E+00  0.00000000000E+00 -0.13419570618E+03  0.13419570628E+03  0.50400001928E-02 0.  1.
    10030    2    1    2    0    0  0.00000000000E+00  0.00000000000E+00  0.33166954781E+03  0.60006096030E+03  0.50006846245E+03 0.  0.
        4    1    3    3  502    0  0.53899582852E+01 -0.13734248249E+03 -0.84791232534E+02  0.16150286425E+03  0.12699999809E+01 0.  1.
       -4    1    3    3    0  502 -0.53899582852E+01  0.13734248249E+03  0.41646078034E+03  0.43855809605E+03  0.12699999809E+01 0. -1.
</event>
<event>
 5   0  0.2723308E-02  0.5010006E+03  0.7818609E-02  0.1013518E+00
       -1   -1    0    0    0  501  0.00000000000E+00  0.00000000000E+00  0.30514161163E+03  0.30514161167E+03  0.50400001928E-02 0.  1.
        1   -1    0    0  501    0  0.00000000000E+00  0.00000000000E+00 -0.20564356503E+03  0.20564356509E+03  0.50400001928E-02 0. -1.
    10030    2    1    2    0    0  0.00000000000E+00  0.00000000000E+00  0.99498046604E+02  0.51078517676E+03  0.50100063425E+03 0.  0.
        4    1    3    3  502    0  0.48818024470E+00  0.14578529180E+03 -0.15793303243E+03  0.21493730541E+03  0.12699999809E+01 0. -1.
       -4    1    3    3    0  502 -0.48818024470E+00 -0.14578529180E+03  0.25743107904E+03  0.29584787135E+03  0.12699999809E+01 0.  1.
</event>
<event>
 5   0  0.2643185E-02  0.4887081E+03  0.7818609E-02  0.1016769E+00
        1   -1    0    0  501    0  0.00000000000E+00  0.00000000000E+00  0.40100835703E+03  0.40100835706E+03  0.50400001928E-02 0.  1.
       -1   -1    0    0    0  501  0.00000000000E+00  0.00000000000E+00 -0.14889689943E+03  0.14889689951E+03  0.50400001928E-02 0. -1.
    10030    2    1    2    0    0  0.00000000000E+00  0.00000000000E+00  0.25211145760E+03  0.54990525658E+03  0.48870809709E+03 0.  0.
        1    1    3    3  502    0 -0.87927476393E+02  0.96351227036E+02  0.35855536243E+03  0.38154521097E+03  0.50400001928E-02 0.  1.
       -1    1    3    3    0  502  0.87927476393E+02 -0.96351227036E+02 -0.10644390483E+03  0.16836004561E+03  0.50400001928E-02 0. -1.
</event>
<event>
 5   0  0.2715483E-02  0.5004720E+03  0.7818609E-02  0.1013656E+00
       -1   -1    0    0    0  501  0.00000000000E+00  0.00000000000E+00  0.51973811607E+03  0.51973811610E+03  0.50400001928E-02 0. -1.
        1   -1    0    0  501    0  0.00000000000E+00  0.00000000000E+00 -0.12048000494E+03  0.12048000504E+03  0.50400001928E-02 0.  1.
    10030    2    1    2    0    0  0.00000000000E+00  0.00000000000E+00  0.39925811114E+03  0.64021812114E+03  0.50047198057E+03 0.  0.
        5    1    3    3  502    0 -0.12420317857E+03  0.44252214306E+02  0.47163071979E+03  0.48973698439E+03  0.46999998093E+01 0. -1.
       -5    1    3    3    0  502  0.12420317857E+03 -0.44252214306E+02 -0.72372608650E+02  0.15048113675E+03  0.46999998093E+01 0.  1.
</event>
<event>
 5   0  0.2779445E-02  0.5005463E+03  0.7818609E-02  0.1013636E+00
       -1   -1    0    0    0  501  0.00000000000E+00  0.00000000000E+00  0.51118076119E+03  0.51118076121E+03  0.50400001928E-02 0.  1.
        1   -1    0    0  501    0  0.00000000000E+00  0.00000000000E+00 -0.12253327711E+03  0.12253327721E+03  0.50400001928E-02 0. -1.
    10030    2    1    2    0    0  0.00000000000E+00  0.00000000000E+00  0.38864748408E+03  0.63371403843E+03  0.50054631716E+03 0.  0.
        3    1    3    3  502    0 -0.87182686734E+01 -0.24026914365E+03  0.28232409037E+03  0.37082633645E+03  0.10100000352E+00 0. -1.
       -3    1    3    3    0  502  0.87182686734E+01  0.24026914365E+03  0.10632339371E+03  0.26288770198E+03  0.10100000352E+00 0.  1.
</event>
<event>
 5   0  0.2719671E-02  0.4992297E+03  0.7818609E-02  0.1013980E+00
       -1   -1    0    0    0  501  0.00000000000E+00  0.00000000000E+00  0.30871183774E+03  0.30871183778E+03  0.50400001928E-02 0.  1.
        1   -1    0    0  501    0  0.00000000000E+00  0.00000000000E+00 -0.20183081312E+03  0.20183081318E+03  0.50400001928E-02 0. -1.
    10030    2    1    2    0    0  0.00000000000E+00  0.00000000000E+00  0.10688102462E+03  0.51054265096E+03  0.49922965159E+03 0.  0.
        2    1    3    3  502    0 -0.25504347980E+02 -0.17353445417E+03 -0.12818729807E+03  0.21724792737E+03  0.25500000920E-02 0. -1.
       -2    1    3    3    0  502  0.25504347980E+02  0.17353445417E+03  0.23506832269E+03  0.29329472360E+03  0.25500000920E-02 0.  1.
</event>
<event>
 5   0  0.2719671E-02  0.5012325E+03  0.7818609E-02  0.1013458E+00
       -1   -1    0    0    0  501  0.00000000000E+00  0.00000000000E+00  0.27530033468E+03  0.27530033472E+03  0.50400001928E-02 0.  1.
        1   -1    0    0  501    0  0.00000000000E+00  0.00000000000E+00 -0.22814543856E+03  0.22814543861E+03  0.50400001928E-02 0. -1.
    10030    2    1    2    0    0  0.00000000000E+00  0.00000000000E+00  0.47154896121E+02  0.50344577334E+03  0.50123254330E+03 0.  0.
        2    1    3    3  502    0  0.47321631256E+02  0.15009039379E+03 -0.17232750167E+03  0.23337358662E+03  0.25500000920E-02 0. -1.
       -2    1    3    3    0  502 -0.47321631256E+02 -0.15009039379E+03  0.21948239779E+03  0.27007218672E+03  0.25500000920E-02 0.  1.
</event>
<event>
 5   0  0.4534223E-02  0.5005509E+03  0.7818609E-02  0.1013635E+00
       -2   -1    0    0    0  501  0.00000000000E+00  0.00000000000E+00  0.24705241675E+03  0.24705241676E+03  0.25500000920E-02 0. -1.
        2   -1    0    0  501    0  0.00000000000E+00  0.00000000000E+00 -0.25354050684E+03  0.25354050685E+03  0.25500000920E-02 0.  1.
    10030    2    1    2    0    0  0.00000000000E+00  0.00000000000E+00 -0.64880900933E+01  0.50059292361E+03  0.50055087639E+03 0.  0.
        2    1    3    3  502    0  0.91329180140E+02 -0.22345670258E+03  0.62821158080E+02  0.24944020322E+03  0.25500000920E-02 0. -1.
       -2    1    3    3    0  502 -0.91329180140E+02  0.22345670258E+03 -0.69309248173E+02  0.25115272039E+03  0.25500000920E-02 0.  1.
</event>
<event>
 5   0  0.2779445E-02  0.4967442E+03  0.7818609E-02  0.1014632E+00
        1   -1    0    0  501    0  0.00000000000E+00  0.00000000000E+00  0.40771831128E+02  0.40771831440E+02  0.50400001928E-02 0.  1.
       -1   -1    0    0    0  501  0.00000000000E+00  0.00000000000E+00 -0.15130226416E+04  0.15130226416E+04  0.50400001928E-02 0. -1.
    10030    2    1    2    0    0  0.00000000000E+00  0.00000000000E+00 -0.14722508104E+04  0.15537944730E+04  0.49674421540E+03 0.  0.
        3    1    3    3  502    0 -0.14591669502E+03 -0.13214633422E+03 -0.26242468068E+03  0.32805648715E+03  0.10100000352E+00 0.  1.
       -3    1    3    3    0  502  0.14591669502E+03  0.13214633422E+03 -0.12098261297E+04  0.12257379859E+04  0.10100000352E+00 0. -1.
</event>
<event>
 5   0  0.2643185E-02  0.4992765E+03  0.7818609E-02  0.1013968E+00
        1   -1    0    0  501    0  0.00000000000E+00  0.00000000000E+00  0.39295403840E+03  0.39295403843E+03  0.50400001928E-02 0.  1.
       -1   -1    0    0    0  501  0.00000000000E+00  0.00000000000E+00 -0.15859174175E+03  0.15859174183E+03  0.50400001928E-02 0. -1.
    10030    2    1    2    0    0  0.00000000000E+00  0.00000000000E+00  0.23436229665E+03  0.55154578027E+03  0.49927653825E+03 0.  0.
        1    1    3    3  502    0 -0.17705615401E+03  0.15320401379E+03  0.21284317788E+03  0.31642150672E+03  0.50400001928E-02 0. -1.
       -1    1    3    3    0  502  0.17705615401E+03 -0.15320401379E+03  0.21519118766E+02  0.23512427355E+03  0.50400001928E-02 0.  1.
</event>
<event>
 5   0  0.4534223E-02  0.4988794E+03  0.7818609E-02  0.1014072E+00
        2   -1    0    0  501    0  0.00000000000E+00  0.00000000000E+00  0.55493142974E+03  0.55493142975E+03  0.25500000920E-02 0.  1.
       -2   -1    0    0    0  501  0.00000000000E+00  0.00000000000E+00 -0.11212224230E+03  0.11212224233E+03  0.25500000920E-02 0. -1.
    10030    2    1    2    0    0  0.00000000000E+00  0.00000000000E+00  0.44280918744E+03  0.66705367208E+03  0.49887936914E+03 0.  0.
        2    1    3    3  502    0 -0.93048153581E+02 -0.21386729014E+03  0.10314092902E+03  0.25502005396E+03  0.25500000920E-02 0. -1.
       -2    1    3    3    0  502  0.93048153581E+02  0.21386729014E+03  0.33966825842E+03  0.41203361812E+03  0.25500000920E-02 0.  1.
</event>
<event>
 5   0  0.2719671E-02  0.5021659E+03  0.7818609E-02  0.1013215E+00
       -1   -1    0    0    0  501  0.00000000000E+00  0.00000000000E+00  0.82412916215E+02  0.82412916369E+02  0.50400001928E-02 0.  1.
        1   -1    0    0  501    0  0.00000000000E+00  0.00000000000E+00 -0.76496078088E+03  0.76496078089E+03  0.50400001928E-02 0. -1.
    10030    2    1    2    0    0  0.00000000000E+00  0.00000000000E+00 -0.68254786466E+03  0.84737369726E+03  0.50216590412E+03 0.  0.
        2    1    3    3  502    0  0.18052129234E+03  0.46051205389E+02 -0.62531536153E+03  0.65247831526E+03  0.25500000920E-02 0. -1.
       -2    1    3    3    0  502 -0.18052129234E+03 -0.46051205389E+02 -0.57232503131E+02  0.19489538201E+03  0.25500000920E-02 0.  1.
</event>
<event>
 5   0  0.2779445E-02  0.4959360E+03  0.7818609E-02  0.1014845E+00
       -1   -1    0    0    0  501  0.00000000000E+00  0.00000000000E+00  0.21862672765E+03  0.21862672771E+03  0.50400001928E-02 0.  1.
        1   -1    0    0  501    0  0.00000000000E+00  0.00000000000E+00 -0.28124712533E+03  0.28124712537E+03  0.50400001928E-02 0. -1.
    10030    2    1    2    0    0  0.00000000000E+00  0.00000000000E+00 -0.62620397679E+02  0.49987385308E+03  0.49593603901E+03 0.  0.
        3    1    3    3  502    0  0.15017477926E+03 -0.56418581654E+02 -0.22189515392E+03  0.27381196142E+03  0.10100000352E+00 0. -1.
       -3    1    3    3    0  502 -0.15017477926E+03  0.56418581654E+02  0.15927475624E+03  0.22606189166E+03  0.10100000352E+00 0.  1.
</event>
<event>
 5   0  0.4451135E-02  0.5081598E+03  0.7818609E-02  0.1011671E+00
       -2   -1    0    0    0  501  0.00000000000E+00  0.00000000000E+00  0.83684197728E+02  0.83684197767E+02  0.25500000920E-02 0.  1.
        2   -1    0    0  501    0  0.00000000000E+00  0.00000000000E+00 -0.77143114074E+03  0.77143114074E+03  0.25500000920E-02 0. -1.
    10030    2    1    2    0    0  0.00000000000E+00  0.00000000000E+00 -0.68774694301E+03  0.85511533851E+03  0.50815980216E+03 0.  0.
        1    1    3    3  502    0  0.53576425218E+02  0.65226202832E+00 -0.76181619588E+03  0.76369809160E+03  0.50400001928E-02 0. -1.
       -1    1    3    3    0  502 -0.53576425218E+02 -0.65226202832E+00  0.74069252874E+02  0.91417246904E+02  0.50400001928E-02 0.  1.
</event>
<event>
 5   0  0.4534223E-02  0.5009529E+03  0.7818609E-02  0.1013531E+00
       -2   -1    0    0    0  501  0.00000000000E+00  0.00000000000E+00  0.64507082849E+02  0.64507082900E+02  0.25500000920E-02 0. -1.
        2   -1    0    0  501    0  0.00000000000E+00  0.00000000000E+00 -0.97258221432E+03  0.97258221432E+03  0.25500000920E-02 0.  1.
    10030    2    1    2    0    0  0.00000000000E+00  0.00000000000E+00 -0.90807513147E+03  0.10370892972E+04  0.50095285808E+03 0.  0.
        2    1    3    3  502    0  0.24551779620E+02  0.22368448369E+03 -0.22630340013E+03  0.31914066968E+03  0.25500000920E-02 0. -1.
       -2    1    3    3    0  502 -0.24551779620E+02 -0.22368448369E+03 -0.68177173134E+03  0.71794862754E+03  0.25500000920E-02 0.  1.
</event>
<event>
 5   0  0.4519539E-02  0.5023111E+03  0.7818609E-02  0.1013177E+00
       -2   -1    0    0    0  501  0.00000000000E+00  0.00000000000E+00  0.24595009939E+03  0.24595009940E+03  0.25500000920E-02 0.  1.
        2   -1    0    0  501    0  0.00000000000E+00  0.00000000000E+00 -0.25647113743E+03  0.25647113744E+03  0.25500000920E-02 0. -1.
    10030    2    1    2    0    0  0.00000000000E+00  0.00000000000E+00 -0.10521038038E+02  0.50242123684E+03  0.50231106596E+03 0.  0.
        4    1    3    3  502    0 -0.33533829343E+02  0.73269549949E+01  0.24358972176E+03  0.24599952729E+03  0.12699999809E+01 0.  1.
       -4    1    3    3    0  502  0.33533829343E+02 -0.73269549949E+01 -0.25411075980E+03  0.25642170955E+03  0.12699999809E+01 0. -1.
</event>
<event>
 5   0  0.4631619E-02  0.4999152E+03  0.7818609E-02  0.1013801E+00
        2   -1    0    0  501    0  0.00000000000E+00  0.00000000000E+00  0.43732803413E+03  0.43732803413E+03  0.25500000920E-02 0.  1.
       -2   -1    0    0    0  501  0.00000000000E+00  0.00000000000E+00 -0.14286483408E+03  0.14286483410E+03  0.25500000920E-02 0. -1.
    10030    2    1    2    0    0  0.00000000000E+00  0.00000000000E+00  0.29446320005E+03  0.58019286823E+03  0.49991518097E+03 0.  0.
        5    1    3    3  502    0  0.23515302758E+02 -0.21094052891E+03  0.30035740679E+03  0.36781182419E+03  0.46999998093E+01 0.  1.
       -5    1    3    3    0  502 -0.23515302758E+02  0.21094052891E+03 -0.58942067377E+01  0.21238104405E+03  0.46999998093E+01 0. -1.
</event>
<event>
 5   0  0.4519539E-02  0.4984877E+03  0.7818609E-02  0.1014174E+00
        2   -1    0    0  501    0  0.00000000000E+00  0.00000000000E+00  0.77778946303E+03  0.77778946304E+03  0.25500000920E-02 0.  1.
       -2   -1    0    0    0  501  0.00000000000E+00  0.00000000000E+00 -0.79870597226E+02  0.79870597266E+02  0.25500000920E-02 0. -1.
    10030    2    1    2    0    0  0.00000000000E+00  0.00000000000E+00  0.69791886581E+03  0.85766006030E+03  0.49848774889E+03 0.  0.
        4    1    3    3  502    0  0.21800769031E+03  0.92836171349E+02  0.48195256884E+03  0.53705288310E+03  0.12699999809E+01 0.  1.
       -4    1    3    3    0  502 -0.21800769031E+03 -0.92836171349E+02  0.21596629697E+03  0.32060717720E+03  0.12699999809E+01 0. -1.
</event>
<event>
 5   0  0.4451135E-02  0.5096262E+03  0.7818609E-02  0.1011296E+00
       -2   -1    0    0    0  501  0.00000000000E+00  0.00000000000E+00  0.86924698409E+02  0.86924698447E+02  0.25500000920E-02 0. -1.
        2   -1    0    0  501    0  0.00000000000E+00  0.00000000000E+00 -0.74696510110E+03  0.74696510111E+03  0.25500000920E-02 0.  1.
    10030    2    1    2    0    0  0.00000000000E+00  0.00000000000E+00 -0.66004040269E+03  0.83388979956E+03  0.50962620087E+03 0.  0.
        1    1    3    3  502    0  0.22526564939E+03 -0.10300548804E+03 -0.42785498354E+03  0.49438308054E+03  0.50400001928E-02 0.  1.
       -1    1    3    3    0  502 -0.22526564939E+03  0.10300548804E+03 -0.23218541915E+03  0.33950671901E+03  0.50400001928E-02 0. -1.
</event>
<event>
 5   0  0.2719671E-02  0.5001918E+03  0.7818609E-02  0.1013729E+00
       -1   -1    0    0    0  501  0.00000000000E+00  0.00000000000E+00  0.21276523164E+03  0.21276523170E+03  0.50400001928E-02 0. -1.
        1   -1    0    0  501    0  0.00000000000E+00  0.00000000000E+00 -0.29397646362E+03  0.29397646366E+03  0.50400001928E-02 0.  1.
    10030    2    1    2    0    0  0.00000000000E+00  0.00000000000E+00 -0.81211231982E+02  0.50674169536E+03  0.50019184481E+03 0.  0.
        2    1    3    3  502    0  0.19399455723E+03  0.36790505754E+02  0.11489877663E+03  0.22844946580E+03  0.25500000920E-02 0. -1.
       -2    1    3    3    0  502 -0.19399455723E+03 -0.36790505754E+02 -0.19611000861E+03  0.27829222956E+03  0.25500000920E-02 0.  1.
</event>
<event>
 5   0  0.4534223E-02  0.5002544E+03  0.7818609E-02  0.1013713E+00
       -2   -1    0    0    0  501  0.00000000000E+00  0.00000000000E+00  0.46805912538E+02  0.46805912608E+02  0.25500000920E-02 0.  1.
        2   -1    0    0  501    0  0.00000000000E+00  0.00000000000E+00 -0.13366607948E+04  0.13366607948E+04  0.25500000920E-02 0. -1.
    10030    2    1    2    0    0  0.00000000000E+00  0.00000000000E+00 -0.12898548823E+04  0.13834667075E+04  0.50025444848E+03 0.  0.
        2    1    3    3  502    0 -0.18320549026E+03  0.27183314614E+02 -0.11098356815E+04  0.11251837291E+04  0.25500000920E-02 0. -1.
       -2    1    3    3    0  502  0.18320549026E+03 -0.27183314614E+02 -0.18001920083E+03  0.25828297840E+03  0.25500000920E-02 0.  1.
</event>
<event>
 5   0  0.4409622E-02  0.4999969E+03  0.7818609E-02  0.1013780E+00
       -2   -1    0    0    0  501  0.00000000000E+00  0.00000000000E+00  0.27900745400E+03  0.27900745401E+03  0.25500000920E-02 0.  1.
        2   -1    0    0  501    0  0.00000000000E+00  0.00000000000E+00 -0.22400553827E+03  0.22400553829E+03  0.25500000920E-02 0. -1.
    10030    2    1    2    0    0  0.00000000000E+00  0.00000000000E+00  0.55001915724E+02  0.50301299230E+03  0.49999685968E+03 0.  0.
        3    1    3    3  502    0  0.64268196889E+02 -0.26930113548E+02 -0.21403810141E+03  0.22509542688E+03  0.10100000352E+00 0. -1.
       -3    1    3    3    0  502 -0.64268196889E+02  0.26930113548E+02  0.26904001713E+03  0.27791756542E+03  0.10100000352E+00 0.  1.
</event>
<event>
 5   0  0.1805500E-02  0.4999130E+03  0.7818609E-02  0.1013802E+00
        4   -1    0    0  501    0  0.00000000000E+00  0.00000000000E+00  0.15711299757E+03  0.15711813041E+03  0.12699999809E+01 0. -1.
       -4   -1    0    0    0  501  0.00000000000E+00  0.00000000000E+00 -0.39765184187E+03  0.39765386990E+03  0.12699999809E+01 0.  1.
    10030    2    1    2    0    0  0.00000000000E+00  0.00000000000E+00 -0.24053884431E+03  0.55477200031E+03  0.49991302915E+03 0.  0.
        2    1    3    3  502    0 -0.14862825339E+03 -0.19673105040E+03 -0.16581997430E+03  0.29713587427E+03  0.25500000920E-02 0. -1.
       -2    1    3    3    0  502  0.14862825339E+03  0.19673105040E+03 -0.74718870008E+02  0.25763612604E+03  0.25500000920E-02 0.  1.
</event>
<event>
 5   0  0.4451135E-02  0.4893948E+03  0.7818609E-02  0.1016585E+00
        2   -1    0    0  501    0  0.00000000000E+00  0.00000000000E+00  0.37286706377E+03  0.37286706378E+03  0.25500000920E-02 0.  1.
       -2   -1    0    0    0  501  0.00000000000E+00  0.00000000000E+00 -0.16058488937E+03  0.16058488939E+03  0.25500000920E-02 0. -1.
    10030    2    1    2    0    0  0.00000000000E+00  0.00000000000E+00  0.21228217440E+03  0.53345195317E+03  0.48939479439E+03 0.  0.
        1    1    3    3  502    0 -0.18365537789E+02 -0.17560445060E+03  0.29081118719E+03  0.34021370147E+03  0.50400001928E-02 0.  1.
       -1    1    3    3    0  502  0.18365537789E+02  0.17560445060E+03 -0.78529012787E+02  0.19323825171E+03  0.50400001928E-02 0. -1.
</event>
<event>
 5   0  0.2643185E-02  0.5000694E+03  0.7818609E-02  0.1013761E+00
       -1   -1    0    0    0  501  0.00000000000E+00  0.00000000000E+00  0.48773156540E+03  0.48773156543E+03  0.50400001928E-02 0. -1.
        1   -1    0    0  501    0  0.00000000000E+00  0.00000000000E+00 -0.12817981897E+03  0.12817981907E+03  0.50400001928E-02 0.  1.
    10030    2    1    2    0    0  0.00000000000E+00  0.00000000000E+00  0.35955174643E+03  0.61591138450E+03  0.50006937039E+03 0.  0.
        1    1    3    3  502    0 -0.18290851460E+03  0.12756702315E+03  0.40493122899E+02  0.22664633934E+03  0.50400001928E-02 0. -1.
       -1    1    3    3    0  502  0.18290851460E+03 -0.12756702315E+03  0.31905862353E+03  0.38926504516E+03  0.50400001928E-02 0.  1.
</event>
<event>
 5   0  0.4534223E-02  0.5002955E+03  0.7818609E-02  0.1013702E+00
       -2   -1    0    0    0  501  0.00000000000E+00  0.00000000000E+00  0.14930080954E+03  0.14930080956E+03  0.25500000920E-02 0. -1.
        2   -1    0    0  501    0  0.00000000000E+00  0.00000000000E+00 -0.41911288473E+03  0.41911288474E+03  0.25500000920E-02 0.  1.
    10030    2    1    2    0    0  0.00000000000E+00  0.00000000000E+00 -0.26981207519E+03  0.56841369430E+03  0.50029548464E+03 0.  0.
        2    1    3    3  502    0 -0.25852430595E+02  0.11342557378E+03  0.11669590785E+03  0.16477755876E+03  0.25500000920E-02 0. -1.
       -2    1    3    3    0  502  0.25852430595E+02 -0.11342557378E+03 -0.38650798304E+03  0.40363613554E+03  0.25500000920E-02 0.  1.
</event>
<event>
 5   0  0.2779445E-02  0.4986902E+03  0.7818609E-02  0.1014121E+00
        1   -1    0    0  501    0  0.00000000000E+00  0.00000000000E+00  0.52546824645E+03  0.52546824647E+03  0.50400001928E-02 0.  1.
       -1   -1    0    0    0  501  0.00000000000E+00  0.00000000000E+00 -0.11831917031E+03  0.11831917042E+03  0.50400001928E-02 0. -1.
    10030    2    1    2    0    0  0.00000000000E+00  0.00000000000E+00  0.40714907613E+03  0.64378741689E+03  0.49869015225E+03 0.  0.
        3    1    3    3  502    0 -0.15257410638E+03  0.35104501700E+02  0.45410588388E+03  0.48033670269E+03  0.10100000352E+00 0.  1.
       -3    1    3    3    0  502  0.15257410638E+03 -0.35104501700E+02 -0.46956807748E+02  0.16345071420E+03  0.10100000352E+00 0. -1.
</event>
<event>
 5   0  0.4631619E-02  0.4958854E+03  0.7818609E-02  0.1014859E+00
        2   -1    0    0  501    0  0.00000000000E+00  0.00000000000E+00  0.12060189609E+04  0.12060189609E+04  0.25500000920E-02 0.  1.
       -2   -1    0    0    0  501  0.00000000000E+00  0.00000000000E+00 -0.50973971192E+02  0.50973971256E+02  0.25500000920E-02 0. -1.
    10030    2    1    2    0    0  0.00000000000E+00  0.00000000000E+00  0.11550449897E+04  0.12569929321E+04  0.49588537308E+03 0.  0.
        5    1    3    3  502    0  0.88796432047E+02 -0.17374302136E+03  0.18991447386E+03  0.27232524891E+03  0.46999998093E+01 0. -1.
       -5    1    3    3    0  502 -0.88796432047E+02  0.17374302136E+03  0.96513051580E+03  0.98466768320E+03  0.46999998093E+01 0.  1.
</event>
<event>
 5   0  0.2719671E-02  0.4984703E+03  0.7818609E-02  0.1014179E+00
       -1   -1    0    0    0  501  0.00000000000E+00  0.00000000000E+00  0.17468004689E+03  0.17468004696E+03  0.50400001928E-02 0.  1.
        1   -1    0    0  501    0  0.00000000000E+00  0.00000000000E+00 -0.35561109712E+03  0.35561109715E+03  0.50400001928E-02 0. -1.
    10030    2    1    2    0    0  0.00000000000E+00  0.00000000000E+00 -0.18093105023E+03  0.53029114412E+03  0.49847031265E+03 0.  0.
        2    1    3    3  502    0  0.54936353307E+02 -0.77543259502E+02  0.15464953692E+03  0.18151429499E+03  0.25500000920E-02 0.  1.
       -2    1    3    3    0  502 -0.54936353307E+02  0.77543259502E+02 -0.33558058715E+03  0.34877684913E+03  0.25500000920E-02 0. -1.
</event>
<event>
 5   0  0.4519539E-02  0.5006065E+03  0.7818609E-02  0.1013621E+00
       -2   -1    0    0    0  501  0.00000000000E+00  0.00000000000E+00  0.17342002619E+03  0.17342002620E+03  0.25500000920E-02 0. -1.
        2   -1    0    0  501    0  0.00000000000E+00  0.00000000000E+00 -0.36127150099E+03  0.36127150100E+03  0.25500000920E-02 0.  1.
    10030    2    1    2    0    0  0.00000000000E+00  0.00000000000E+00 -0.18785147480E+03  0.53469152720E+03  0.50060648485E+03 0.  0.
        4    1    3    3  502    0  0.10524209787E+03 -0.17676122859E+03 -0.24621594783E+03  0.32084939920E+03  0.12699999809E+01 0.  1.
       -4    1    3    3    0  502 -0.10524209787E+03  0.17676122859E+03  0.58364473035E+02  0.21384212800E+03  0.12699999809E+01 0. -1.
</event>
<event>
 5   0  0.2643185E-02  0.4989961E+03  0.7818609E-02  0.1014041E+00
       -1   -1    0    0    0  501  0.00000000000E+00  0.00000000000E+00  0.99482387023E+02  0.99482387150E+02  0.50400001928E-02 0. -1.
        1   -1    0    0  501    0  0.00000000000E+00  0.00000000000E+00 -0.62573156730E+03  0.62573156732E+03  0.50400001928E-02 0.  1.
    10030    2    1    2    0    0  0.00000000000E+00  0.00000000000E+00 -0.52624918028E+03  0.72521395447E+03  0.49899607215E+03 0.  0.
        1    1    3    3  502    0 -0.38370271220E+02 -0.17141332450E+03 -0.52063545919E+03  0.54946891352E+03  0.50400001928E-02 0.  1.
       -1    1    3    3    0  502  0.38370271220E+02  0.17141332450E+03 -0.56137210896E+01  0.17574504096E+03  0.50400001928E-02 0. -1.
</event>
<event>
 5   0  0.4451135E-02  0.5014636E+03  0.7818609E-02  0.1013398E+00
        2   -1    0    0  501    0  0.00000000000E+00  0.00000000000E+00  0.20970519661E+04  0.20970519661E+04  0.25500000920E-02 0. -1.
       -2   -1    0    0    0  501  0.00000000000E+00  0.00000000000E+00 -0.29978481975E+02  0.29978482084E+02  0.25500000920E-02 0.  1.
    10030    2    1    2    0    0  0.00000000000E+00  0.00000000000E+00  0.20670734841E+04  0.21270304482E+04  0.50146359662E+03 0.  0.
        1    1    3    3  502    0 -0.54764737212E+02 -0.14664478603E+03  0.20275276111E+03  0.25614947174E+03  0.50400001928E-02 0.  1.
       -1    1    3    3    0  502  0.54764737212E+02  0.14664478603E+03  0.18643207230E+04  0.18708809764E+04  0.50400001928E-02 0. -1.
</event>
<event>
 5   0  0.2723308E-02  0.4993239E+03  0.7818609E-02  0.1013956E+00
        1   -1    0    0  501    0  0.00000000000E+00  0.00000000000E+00  0.46644370264E+03  0.46644370267E+03  0.50400001928E-02 0.  1.
       -1   -1    0    0    0  501  0.00000000000E+00  0.00000000000E+00 -0.13363046153E+03  0.13363046162E+03  0.50400001928E-02 0. -1.
    10030    2    1    2    0    0  0.00000000000E+00  0.00000000000E+00  0.33281324112E+03  0.60007416430E+03  0.49932389207E+03 0.  0.
        4    1    3    3  502    0  0.17817936355E+03  0.54854503511E+02  0.36596098177E+03  0.41071395792E+03  0.12699999809E+01 0.  1.
       -4    1    3    3    0  502 -0.17817936355E+03 -0.54854503511E+02 -0.33147740653E+02  0.18936020638E+03  0.12699999809E+01 0. -1.
</event>
<event>
 5   0  0.1805500E-02  0.5076886E+03  0.7818609E-02  0.1011791E+00
        3   -1    0    0  501    0  0.00000000000E+00  0.00000000000E+00  0.47000075091E+03  0.47000076177E+03  0.10100000352E+00 0. -1.
       -3   -1    0    0    0  501  0.00000000000E+00  0.00000000000E+00 -0.13709960138E+03  0.13709963858E+03  0.10100000352E+00 0.  1.
    10030    2    1    2    0    0  0.00000000000E+00  0.00000000000E+00  0.33290114953E+03  0.60710040035E+03  0.50768860608E+03 0.  0.
        2    1    3    3  502    0  0.18978972262E+02 -0.16874638615E+03  0.39208042501E+03  0.42727345332E+03  0.25500000920E-02 0. -1.
       -2    1    3    3    0  502 -0.18978972262E+02  0.16874638615E+03 -0.59179275483E+02  0.17982694703E+03  0.25500000920E-02 0.  1.
</event>
<event>
 5   0  0.4409622E-02  0.4993135E+03  0.7818609E-02  0.1013958E+00
       -2   -1    0    0    0  501  0.00000000000E+00  0.00000000000E+00  0.35333453985E+02  0.35333454077E+02  0.25500000920E-02 0. -1.
        2   -1    0    0  501    0  0.00000000000E+00  0.00000000000E+00 -0.17640078597E+04  0.17640078597E+04  0.25500000920E-02 0.  1.
    10030    2    1    2    0    0  0.00000000000E+00  0.00000000000E+00 -0.17286744057E+04  0.17993413137E+04  0.49931349120E+03 0.  0.
        3    1    3    3  502    0  0.10557378746E+02 -0.13529364431E+03 -0.10918397339E+03  0.17417513796E+03  0.10100000352E+00 0. -1.
       -3    1    3    3    0  502 -0.10557378746E+02  0.13529364431E+03 -0.16194904323E+04  0.16251661758E+04  0.10100000352E+00 0.  1.
</event>
<event>
 5   0  0.2779445E-02  0.4973683E+03  0.7818609E-02  0.1014468E+00
       -1   -1    0    0    0  501  0.00000000000E+00  0.00000000000E+00  0.35642584507E+03  0.35642584510E+03  0.50400001928E-02 0. -1.
        1   -1    0    0  501    0  0.00000000000E+00  0.00000000000E+00 -0.17351102630E+03  0.17351102637E+03  0.50400001928E-02 0.  1.
    10030    2    1    2    0    0  0.00000000000E+00  0.00000000000E+00  0.18291481877E+03  0.52993687148E+03  0.49736833114E+03 0.  0.
        3    1    3    3  502    0  0.11862012410E+03  0.21849079765E+03  0.85168223045E+02  0.26279763872E+03  0.10100000352E+00 0.  1.
       -3    1    3    3    0  502 -0.11862012410E+03 -0.21849079765E+03  0.97746595724E+02  0.26713923275E+03  0.10100000352E+00 0. -1.
</event>
<event>
 5   0  0.4451135E-02  0.5002677E+03  0.7818609E-02  0.1013709E+00
       -2   -1    0    0    0  501  0.00000000000E+00  0.00000000000E+00  0.48130142218E+02  0.48130142286E+02  0.25500000920E-02 0.  1.
        2   -1    0    0  501    0  0.00000000000E+00  0.00000000000E+00 -0.12999531580E+04  0.12999531580E+04  0.25500000920E-02 0. -1.
    10030    2    1    2    0    0  0.00000000000E+00  0.00000000000E+00 -0.12518230158E+04  0.13480833003E+04  0.50026765004E+03 0.  0.
        1    1    3    3  502    0  0.20166820672E+03  0.13013541473E+03 -0.81572491015E+03  0.85030137059E+03  0.50400001928E-02 0. -1.
       -1    1    3    3    0  502 -0.20166820672E+03 -0.13013541473E+03 -0.43609810562E+03  0.49778192968E+03  0.50400001928E-02 0.  1.
</event>
<event>
 5   0  0.2723308E-02  0.5043603E+03  0.7818609E-02  0.1012647E+00
        1   -1    0    0  501    0  0.00000000000E+00  0.00000000000E+00  0.39081136532E+03  0.39081136535E+03  0.50400001928E-02 0. -1.
       -1   -1    0    0    0  501  0.00000000000E+00  0.00000000000E+00 -0.16272513701E+03  0.16272513709E+03  0.50400001928E-02 0.  1.
    10030    2    1    2    0    0  0.00000000000E+00  0.00000000000E+00  0.22808622831E+03  0.55353650244E+03  0.50436031961E+03 0.  0.
        4    1    3    3  502    0 -0.89790346784E+02  0.23564025926E+03  0.11169386028E+03  0.27580023474E+03  0.12699999809E+01 0.  1.
       -4    1    3    3    0  502  0.89790346784E+02 -0.23564025926E+03  0.11639236803E+03  0.27773626770E+03  0.12699999809E+01 0. -1.
</event>
<event>
 5   0  0.4409622E-02  0.4993377E+03  0.7818609E-02  0.1013952E+00
        2   -1    0    0  501    0  0.00000000000E+00  0.00000000000E+00  0.75818324182E+03  0.75818324182E+03  0.25500000920E-02 0. -1.
       -2   -1    0    0    0  501  0.00000000000E+00  0.00000000000E+00 -0.82215662290E+02  0.82215662329E+02  0.25500000920E-02 0.  1.
    10030    2    1    2    0    0  0.00000000000E+00  0.00000000000E+00  0.67596757953E+03  0.84039890415E+03  0.49933771090E+03 0.  0.
        3    1    3    3  502    0  0.17328957284E+03 -0.40155524625E+02  0.43128271690E+02  0.18303496997E+03  0.10100000352E+00 0.  1.
       -3    1    3    3    0  502 -0.17328957284E+03  0.40155524625E+02  0.63283930784E+03  0.65736393418E+03  0.10100000352E+00 0. -1.
</event>
<event>
 5   0  0.2723308E-02  0.5001570E+03  0.7818609E-02  0.1013738E+00
        1   -1    0    0  501    0  0.00000000000E+00  0.00000000000E+00  0.46742076565E+03  0.46742076567E+03  0.50400001928E-02 0.  1.
       -1   -1    0    0    0  501  0.00000000000E+00  0.00000000000E+00 -0.13379650138E+03  0.13379650147E+03  0.50400001928E-02 0. -1.
    10030    2    1    2    0    0  0.00000000000E+00  0.00000000000E+00  0.33362426427E+03  0.60121726715E+03  0.50015702795E+03 0.  0.
        4    1    3    3  502    0 -0.92406990106E+02 -0.66074896542E+02  0.43461119227E+03  0.44921425303E+03  0.12699999809E+01 0.  1.
       -4    1    3    3    0  502  0.92406990106E+02  0.66074896542E+02 -0.10098692800E+03  0.15200301412E+03  0.12699999809E+01 0. -1.
</event>
<event>
 5   0  0.2715483E-02  0.5107100E+03  0.7818609E-02  0.1011021E+00
        1   -1    0    0  501    0  0.00000000000E+00  0.00000000000E+00  0.15032358181E+04  0.15032358181E+04  0.50400001928E-02 0. -1.
       -1   -1    0    0    0  501  0.00000000000E+00  0.00000000000E+00 -0.43377201551E+02  0.43377201844E+02  0.50400001928E-02 0.  1.
    10030    2    1    2    0    0  0.00000000000E+00  0.00000000000E+00  0.14598586165E+04  0.15466130200E+04  0.51070995014E+03 0.  0.
        5    1    3    3  502    0  0.22313201141E+03  0.10631107424E+03  0.92370013118E+03  0.95620811614E+03  0.46999998093E+01 0. -1.
       -5    1    3    3    0  502 -0.22313201141E+03 -0.10631107424E+03  0.53615848537E+03  0.59040490382E+03  0.46999998093E+01 0.  1.
</event>
<event>
 5   0  0.2723308E-02  0.4960627E+03  0.7818609E-02  0.1014812E+00
       -1   -1    0    0    0  501  0.00000000000E+00  0.00000000000E+00  0.12394222770E+03  0.12394222780E+03  0.50400001928E-02 0.  1.
        1   -1    0    0  501    0  0.00000000000E+00  0.00000000000E+00 -0.49635672215E+03  0.49635672218E+03  0.50400001928E-02 0. -1.
    10030    2    1    2    0    0  0.00000000000E+00  0.00000000000E+00 -0.37241449445E+03  0.62029894998E+03  0.49606272957E+03 0.  0.
        4    1    3    3  502    0 -0.19458022174E+03  0.14063868266E+03 -0.10834517235E+03  0.26340271643E+03  0.12699999809E+01 0.  1.
       -4    1    3    3    0  502  0.19458022174E+03 -0.14063868266E+03 -0.26406932211E+03  0.35689623356E+03  0.12699999809E+01 0. -1.
</event>
<event>
 5   0  0.2779445E-02  0.4988075E+03  0.7818609E-02  0.1014091E+00
       -1   -1    0    0    0  501  0.00000000000E+00  0.00000000000E+00  0.18541126013E+03  0.18541126019E+03  0.50400001928E-02 0. -1.
        1   -1    0    0  501    0  0.00000000000E+00  0.00000000000E+00 -0.33548244051E+03  0.33548244054E+03  0.50400001928E-02 0.  1.
    10030    2    1    2    0    0  0.00000000000E+00  0.00000000000E+00 -0.15007118038E+03  0.52089370074E+03  0.49880746615E+03 0.  0.
        3    1    3    3  502    0 -0.17748018976E+03 -0.13344354004E+03 -0.19362354237E+03  0.29461242760E+03  0.10100000352E+00 0.  1.
       -3    1    3    3    0  502  0.17748018976E+03  0.13344354004E+03  0.43552361987E+02  0.22628127314E+03  0.10100000352E+00 0. -1.
</event>
<event>
 5   0  0.4534223E-02  0.4993856E+03  0.7818609E-02  0.1013939E+00
        2   -1    0    0  501    0  0.00000000000E+00  0.00000000000E+00  0.11920161104E+04  0.11920161104E+04  0.25500000920E-02 0.  1.
       -2   -1    0    0    0  501  0.00000000000E+00  0.00000000000E+00 -0.52303403105E+02  0.52303403167E+02  0.25500000920E-02 0. -1.
    10030    2    1    2    0    0  0.00000000000E+00  0.00000000000E+00  0.11397127073E+04  0.12443195135E+04  0.49938561921E+03 0.  0.
        2    1    3    3  502    0 -0.22254293852E+03 -0.49487160495E+02  0.31609206997E+03  0.38972879704E+03  0.25500000920E-02 0. -1.
       -2    1    3    3    0  502  0.22254293852E+03  0.49487160495E+02  0.82362063729E+03  0.85459071649E+03  0.25500000920E-02 0.  1.
</event>
<event>
 5   0  0.4519539E-02  0.4990173E+03  0.7818609E-02  0.1014036E+00
       -2   -1    0    0    0  501  0.00000000000E+00  0.00000000000E+00  0.23856065678E+03  0.23856065679E+03  0.25500000920E-02 0. -1.
        2   -1    0    0  501    0  0.00000000000E+00  0.00000000000E+00 -0.26095909717E+03  0.26095909718E+03  0.25500000920E-02 0.  1.
    10030    2    1    2    0    0  0.00000000000E+00  0.00000000000E+00 -0.22398440388E+02  0.49951975397E+03  0.49901732883E+03 0.  0.
        4    1    3    3  502    0 -0.68275893229E+02 -0.23998042940E+03 -0.12069939770E+02  0.24979892001E+03  0.12699999809E+01 0. -1.
       -4    1    3    3    0  502  0.68275893229E+02  0.23998042940E+03 -0.10328500617E+02  0.24972083396E+03  0.12699999809E+01 0.  1.
</event>
<event>
 5   0  0.4631619E-02  0.5020794E+03  0.7818609E-02  0.1013238E+00
        2   -1    0    0  501    0  0.00000000000E+00  0.00000000000E+00  0.72942491925E+03  0.72942491925E+03  0.25500000920E-02 0.  1.
       -2   -1    0    0    0  501  0.00000000000E+00  0.00000000000E+00 -0.86398109098E+02  0.86398109136E+02  0.25500000920E-02 0. -1.
    10030    2    1    2    0    0  0.00000000000E+00  0.00000000000E+00  0.64302681015E+03  0.81582302839E+03  0.50207941113E+03 0.  0.
        5    1    3    3  502    0 -0.16782290689E+03  0.28799091232E+02  0.62114974092E+03  0.64408307413E+03  0.46999998093E+01 0.  1.
       -5    1    3    3    0  502  0.16782290689E+03 -0.28799091232E+02  0.21877069227E+02  0.17173995426E+03  0.46999998093E+01 0. -1.
</event>
<event>
 5   0  0.1805500E-02  0.4981657E+03  0.7818609E-02  0.1014259E+00
        4   -1    0    0  501    0  0.00000000000E+00  0.00000000000E+00  0.65162868005E+03  0.65162991764E+03  0.12699999809E+01 0. -1.
       -4   -1    0    0    0  501  0.00000000000E+00  0.00000000000E+00 -0.95205526677E+02  0.95213996922E+02  0.12699999809E+01 0.  1.
    10030    2    1    2    0    0  0.00000000000E+00  0.00000000000E+00  0.55642315337E+03  0.74684391456E+03  0.49816574261E+03 0.  0.
        2    1    3    3  502    0 -0.24291205962E+03  0.55065047535E+02  0.28115266080E+03  0.37561316118E+03  0.25500000920E-02 0.  1.
       -2    1    3    3    0  502  0.24291205962E+03 -0.55065047535E+02  0.27527049257E+03  0.37123075338E+03  0.25500000920E-02 0. -1.
</event>
<event>
 5   0  0.2719671E-02  0.5013770E+03  0.7818609E-02  0.1013420E+00
       -1   -1    0    0    0  501  0.00000000000E+00  0.00000000000E+00  0.74274245743E+02  0.74274245914E+02  0.50400001928E-02 0. -1.
        1   -1    0    0  501    0  0.00000000000E+00  0.00000000000E+00 -0.84611741875E+03  0.84611741876E+03  0.50400001928E-02 0.  1.
    10030    2    1    2    0    0  0.00000000000E+00  0.00000000000E+00 -0.77184317300E+03  0.92039166468E+03  0.50137703646E+03 0.  0.
        2    1    3    3  502    0  0.16040132876E+03  0.10376507035E+03 -0.87939639900E+02  0.21030729033E+03  0.25500000920E-02 0. -1.
       -2    1    3    3    0  502 -0.16040132876E+03 -0.10376507035E+03 -0.68390353310E+03  0.71008437435E+03  0.25500000920E-02 0.  1.
</event>
<event>
 5   0  0.2723308E-02  0.5000495E+03  0.7818609E-02  0.1013766E+00
       -1   -1    0    0    0  501  0.00000000000E+00  0.00000000000E+00  0.11107513038E+03  0.11107513049E+03  0.50400001928E-02 0.  1.
        1   -1    0    0  501    0  0.00000000000E+00  0.00000000000E+00 -0.56279362848E+03  0.56279362851E+03  0.50400001928E-02 0. -1.
    10030    2    1    2    0    0  0.00000000000E+00  0.00000000000E+00 -0.45171849810E+03  0.67386875900E+03  0.50004950038E+03 0.  0.
        4    1    3    3  502    0  0.17787618900E+03  0.11080831364E+03 -0.42108392328E+02  0.21375956257E+03  0.12699999809E+01 0.  1.
       -4    1    3    3    0  502 -0.17787618900E+03 -0.11080831364E+03 -0.40961010577E+03  0.46010919643E+03  0.12699999809E+01 0. -1.
</event>
<event>
 5   0  0.4409622E-02  0.5010732E+03  0.7818609E-02  0.1013499E+00
       -2   -1    0    0    0  501  0.00000000000E+00  0.00000000000E+00  0.52328137116E+02  0.52328137178E+02  0.25500000920E-02 0.  1.
        2   -1    0    0  501    0  0.00000000000E+00  0.00000000000E+00 -0.11995187375E+04  0.11995187375E+04  0.25500000920E-02 0. -1.
    10030    2    1    2    0    0  0.00000000000E+00  0.00000000000E+00 -0.11471906004E+04  0.12518468747E+04  0.50107317235E+03 0.  0.
        3    1    3    3  502    0 -0.81930800393E+02 -0.20857268379E+03 -0.85351269205E+03  0.88243931586E+03  0.10100000352E+00 0. -1.
       -3    1    3    3    0  502  0.81930800393E+02  0.20857268379E+03 -0.29367790836E+03  0.36940755885E+03  0.10100000352E+00 0.  1.
</event>
<event>
 5   0  0.4451135E-02  0.5003308E+03  0.7818609E-02  0.1013693E+00
       -2   -1    0    0    0  501  0.00000000000E+00  0.00000000000E+00  0.71769156493E+02  0.71769156538E+02  0.25500000920E-02 0. -1.
        2   -1    0    0  501    0  0.00000000000E+00  0.00000000000E+00 -0.87200034090E+03  0.87200034091E+03  0.25500000920E-02 0.  1.
    10030    2    1    2    0    0  0.00000000000E+00  0.00000000000E+00 -0.80023118441E+03  0.94376949744E+03  0.50033080637E+03 0.  0.
        1    1    3    3  502    0 -0.75017852368E+02 -0.20924088559E+03 -0.18361652679E+03  0.28831312026E+03  0.50400001928E-02 0. -1.
       -1    1    3    3    0  502  0.75017852368E+02  0.20924088559E+03 -0.61661465762E+03  0.65545637719E+03  0.50400001928E-02 0.  1.
</event>
<event>
 5   0  0.2715483E-02  0.4983438E+03  0.7818609E-02  0.1014212E+00
        1   -1    0    0  501    0  0.00000000000E+00  0.00000000000E+00  0.59616485217E+03  0.59616485219E+03  0.50400001928E-02 0.  1.
       -1   -1    0    0    0  501  0.00000000000E+00  0.00000000000E+00 -0.10414341623E+03  0.10414341635E+03  0.50400001928E-02 0. -1.
    10030    2    1    2    0    0  0.00000000000E+00  0.00000000000E+00  0.49202143594E+03  0.70030826854E+03  0.49834383467E+03 0.  0.
        5    1    3    3  502    0 -0.61513741103E+02 -0.20772393108E+03  0.41887269244E+03  0.47160321708E+03  0.46999998093E+01 0.  1.
       -5    1    3    3    0  502  0.61513741103E+02  0.20772393108E+03  0.73148743508E+02  0.22870505146E+03  0.46999998093E+01 0. -1.
</event>
<event>
 5   0  0.4631619E-02  0.4987198E+03  0.7818609E-02  0.1014114E+00
       -2   -1    0    0    0  501  0.00000000000E+00  0.00000000000E+00  0.28675239710E+03  0.28675239711E+03  0.25500000920E-02 0.  1.
        2   -1    0    0  501    0  0.00000000000E+00  0.00000000000E+00 -0.21684338168E+03  0.21684338170E+03  0.25500000920E-02 0. -1.
    10030    2    1    2    0    0  0.00000000000E+00  0.00000000000E+00  0.69909015419E+02  0.50359577881E+03  0.49871979909E+03 0.  0.
        5    1    3    3  502    0  0.15271805480E+03 -0.14319835603E+03 -0.10175637993E+03  0.23281972487E+03  0.46999998093E+01 0. -1.
       -5    1    3    3    0  502 -0.15271805480E+03  0.14319835603E+03  0.17166539535E+03  0.27077605395E+03  0.46999998093E+01 0.  1.
</event>
<event>
 5   0  0.2779445E-02  0.5017901E+03  0.7818609E-02  0.1013313E+00
        1   -1    0    0  501    0  0.00000000000E+00  0.00000000000E+00  0.12080010741E+03  0.12080010751E+03  0.50400001928E-02 0. -1.
       -1   -1    0    0    0  501  0.00000000000E+00  0.00000000000E+00 -0.52109497605E+03  0.52109497607E+03  0.50400001928E-02 0.  1.
    10030    2    1    2    0    0  0.00000000000E+00  0.00000000000E+00 -0.40029486864E+03  0.64189508358E+03  0.50179011196E+03 0.  0.
        3    1    3    3  502    0  0.12795866044E+03  0.32271858945E+02 -0.47311253225E+03  0.49117244429E+03  0.10100000352E+00 0.  1.
       -3    1    3    3    0  502 -0.12795866044E+03 -0.32271858945E+02  0.72817663606E+02  0.15072263929E+03  0.10100000352E+00 0. -1.
</event>
<event>
 5   0  0.1805500E-02  0.4996535E+03  0.7818609E-02  0.1013869E+00
        3   -1    0    0  501    0  0.00000000000E+00  0.00000000000E+00  0.93275910781E+02  0.93275965463E+02  0.10100000352E+00 0. -1.
       -3   -1    0    0    0  501  0.00000000000E+00  0.00000000000E+00 -0.66912638273E+03  0.66912639036E+03  0.10100000352E+00 0.  1.
    10030    2    1    2    0    0  0.00000000000E+00  0.00000000000E+00 -0.57585047195E+03  0.76240235582E+03  0.49965346603E+03 0.  0.
        2    1    3    3  502    0  0.10724287589E+03  0.14479173633E+03 -0.23868547648E+02  0.18175639992E+03  0.25500000920E-02 0. -1.
       -2    1    3    3    0  502 -0.10724287589E+03 -0.14479173633E+03 -0.55198192430E+03  0.58064595590E+03  0.25500000920E-02 0.  1.
</event>
<event>
 5   0  0.4534223E-02  0.5004822E+03  0.7818609E-02  0.1013653E+00
        2   -1    0    0  501    0  0.00000000000E+00  0.00000000000E+00  0.23146372452E+03  0.23146372454E+03  0.25500000920E-02 0.  1.
       -2   -1    0    0    0  501  0.00000000000E+00  0.00000000000E+00 -0.27054176224E+03  0.27054176225E+03  0.25500000920E-02 0. -1.
    10030    2    1    2    0    0  0.00000000000E+00  0.00000000000E+00 -0.39078037718E+02  0.50200548679E+03  0.50048218323E+03 0.  0.
        2    1    3    3  502    0  0.17581343798E+03 -0.11693498062E+03 -0.15424763187E+03  0.26148897990E+03  0.25500000920E-02 0. -1.
       -2    1    3    3    0  502 -0.17581343798E+03  0.11693498062E+03  0.11516959415E+03  0.24051650689E+03  0.25500000920E-02 0.  1.
</event>
<event>
 5   0  0.2643185E-02  0.4996448E+03  0.7818609E-02  0.1013872E+00
       -1   -1    0    0    0  501  0.00000000000E+00  0.00000000000E+00  0.61247889165E+03  0.61247889167E+03  0.50400001928E-02 0.  1.
        1   -1    0    0  501    0  0.00000000000E+00  0.00000000000E+00 -0.10189941597E+03  0.10189941609E+03  0.50400001928E-02 0. -1.
    10030    2    1    2    0    0  0.00000000000E+00  0.00000000000E+00  0.51057947568E+03  0.71437830776E+03  0.49964483948E+03 0.  0.
        1    1    3    3  502    0 -0.11619744874E+03  0.21066173954E+03  0.35153184411E+03  0.42597517891E+03  0.50400001928E-02 0.  1.
       -1    1    3    3    0  502  0.11619744874E+03 -0.21066173954E+03  0.15904763157E+03  0.28840312886E+03  0.50400001928E-02 0. -1.
</event>
<event>
 5   0  0.4409622E-02  0.5040481E+03  0.7818609E-02  0.1012728E+00
        2   -1    0    0  501    0  0.00000000000E+00  0.00000000000E+00  0.78155615451E+03  0.78155615452E+03  0.25500000920E-02 0. -1.
       -2   -1    0    0    0  501  0.00000000000E+00  0.00000000000E+00 -0.81268803861E+02  0.81268803901E+02  0.25500000920E-02 0.  1.
    10030    2    1    2    0    0  0.00000000000E+00  0.00000000000E+00  0.70028735065E+03  0.86282495842E+03  0.50404814788E+03 0.  0.
        3    1    3    3  502    0  0.45961633341E+02 -0.61741283129E+02 -0.60656382771E+02  0.97998289545E+02  0.10100000352E+00 0.  1.
       -3    1    3    3    0  502 -0.45961633341E+02  0.61741283129E+02  0.76094373342E+03  0.76482666887E+03  0.10100000352E+00 0. -1.
</event>
<event>
 5   0  0.4534223E-02  0.5004000E+03  0.7818609E-02  0.1013675E+00
       -2   -1    0    0    0  501  0.00000000000E+00  0.00000000000E+00  0.93682220370E+02  0.93682220405E+02  0.25500000920E-02 0.  1.
        2   -1    0    0  501    0  0.00000000000E+00  0.00000000000E+00 -0.66821692505E+03  0.66821692505E+03  0.25500000920E-02 0. -1.
    10030    2    1    2    0    0  0.00000000000E+00  0.00000000000E+00 -0.57453470468E+03  0.76189914546E+03  0.50040002095E+03 0.  0.
        2    1    3    3  502    0  0.10562031729E+03 -0.31091329634E+02 -0.62934921275E+03  0.63890746889E+03  0.25500000920E-02 0. -1.
       -2    1    3    3    0  502 -0.10562031729E+03  0.31091329634E+02  0.54814508075E+02  0.12299167657E+03  0.25500000920E-02 0.  1.
</event>
<event>
 5   0  0.2643185E-02  0.4990107E+03  0.7818609E-02  0.1014037E+00
        1   -1    0    0  501    0  0.00000000000E+00  0.00000000000E+00  0.57759252392E+03  0.57759252394E+03  0.50400001928E-02 0. -1.
       -1   -1    0    0    0  501  0.00000000000E+00  0.00000000000E+00 -0.10778000673E+03  0.10778000685E+03  0.50400001928E-02 0.  1.
    10030    2    1    2    0    0  0.00000000000E+00  0.00000000000E+00  0.46981251718E+03  0.68537253079E+03  0.49901072600E+03 0.  0.
        1    1    3    3  502    0 -0.20270919132E+03 -0.13577124720E+03  0.16316892483E+03  0.29351140670E+03  0.50400001928E-02 0.  1.
       -1    1    3    3    0  502  0.20270919132E+03  0.13577124720E+03  0.30664359236E+03  0.39186112409E+03  0.50400001928E-02 0. -1.
</event>
<event>
 5   0  0.4631619E-02  0.5051848E+03  0.7818609E-02  0.1012434E+00
        2   -1    0    0  501    0  0.00000000000E+00  0.00000000000E+00  0.80221430817E+03  0.80221430818E+03  0.25500000920E-02 0.  1.
       -2   -1    0    0    0  501  0.00000000000E+00  0.00000000000E+00 -0.79533516158E+02  0.79533516199E+02  0.25500000920E-02 0. -1.
    10030    2    1    2    0    0  0.00000000000E+00  0.00000000000E+00  0.72268079201E+03  0.88174782437E+03  0.50518481632E+03 0.  0.
        5    1    3    3  502    0  0.19970127607E+03  0.11041749311E+03  0.17248065035E+03  0.28608440571E+03  0.46999998093E+01 0. -1.
       -5    1    3    3    0  502 -0.19970127607E+03 -0.11041749311E+03  0.55020014166E+03  0.59566341866E+03  0.46999998093E+01 0.  1.
</event>
<event>
 5   0  0.4534223E-02  0.4960995E+03  0.7818609E-02  0.1014802E+00
       -2   -1    0    0    0  501  0.00000000000E+00  0.00000000000E+00  0.26584936475E+03  0.26584936476E+03  0.25500000920E-02 0.  1.
        2   -1    0    0  501    0  0.00000000000E+00  0.00000000000E+00 -0.23144184941E+03  0.23144184942E+03  0.25500000920E-02 0. -1.
    10030    2    1    2    0    0  0.00000000000E+00  0.00000000000E+00  0.34407515344E+02  0.49729121419E+03  0.49609946039E+03 0.  0.
        2    1    3    3  502    0  0.19159572427E+03  0.39509071281E+02  0.17007841646E+03  0.25922298513E+03  0.25500000920E-02 0.  1.
       -2    1    3    3    0  502 -0.19159572427E+03 -0.39509071281E+02 -0.13567090111E+03  0.23806822905E+03  0.25500000920E-02 0. -1.
</event>
<event>
 5   0  0.4631619E-02  0.5006436E+03  0.7818609E-02  0.1013611E+00
        2   -1    0    0  501    0  0.00000000000E+00  0.00000000000E+00  0.88871238486E+03  0.88871238487E+03  0.25500000920E-02 0.  1.
       -2   -1    0    0    0  501  0.00000000000E+00  0.00000000000E+00 -0.70507628230E+02  0.70507628276E+02  0.25500000920E-02 0. -1.
    10030    2    1    2    0    0  0.00000000000E+00  0.00000000000E+00  0.81820475663E+03  0.95922001314E+03  0.50064359562E+03 0.  0.
        5    1    3    3  502    0  0.62508887830E+02 -0.11099520024E+02 -0.54738821542E+02  0.83958257393E+02  0.46999998093E+01 0. -1.
       -5    1    3    3    0  502 -0.62508887830E+02  0.11099520024E+02  0.87294357817E+03  0.87526175575E+03  0.46999998093E+01 0.  1.
</event>
<event>
 5   0  0.2723308E-02  0.5012160E+03  0.7818609E-02  0.1013462E+00
       -1   -1    0    0    0  501  0.00000000000E+00  0.00000000000E+00  0.11529271271E+03  0.11529271282E+03  0.50400001928E-02 0.  1.
        1   -1    0    0  501    0  0.00000000000E+00  0.00000000000E+00 -0.54473833147E+03  0.54473833149E+03  0.50400001928E-02 0. -1.
    10030    2    1    2    0    0  0.00000000000E+00  0.00000000000E+00 -0.42944561876E+03  0.66003104431E+03  0.50121596142E+03 0.  0.
        4    1    3    3  502    0  0.35234445580E+02 -0.55983157518E+02 -0.53303031885E+03  0.53712057659E+03  0.12699999809E+01 0. -1.
       -4    1    3    3    0  502 -0.35234445580E+02  0.55983157518E+02  0.10358470010E+03  0.12291046772E+03  0.12699999809E+01 0.  1.
</event>
<event>
 5   0  0.4519539E-02  0.5010357E+03  0.7818609E-02  0.1013509E+00
        2   -1    0    0  501    0  0.00000000000E+00  0.00000000000E+00  0.10304583141E+04  0.10304583141E+04  0.25500000920E-02 0.  1.
       -2   -1    0    0    0  501  0.00000000000E+00  0.00000000000E+00 -0.60904143638E+02  0.60904143691E+02  0.25500000920E-02 0. -1.
    10030    2    1    2    0    0  0.00000000000E+00  0.00000000000E+00  0.96955417047E+03  0.10913624578E+04  0.50103565225E+03 0.  0.
        4    1    3    3  502    0  0.18191396155E+03 -0.17497797259E+02  0.85800045956E+03  0.87724868984E+03  0.12699999809E+01 0.  1.
       -4    1    3    3    0  502 -0.18191396155E+03  0.17497797259E+02  0.11155371091E+03  0.21411376797E+03  0.12699999809E+01 0. -1.
</event>
<event>
 5   0  0.4409622E-02  0.5001103E+03  0.7818609E-02  0.1013750E+00
        2   -1    0    0  501    0  0.00000000000E+00  0.00000000000E+00  0.10581457240E+04  0.10581457240E+04  0.25500000920E-02 0. -1.
       -2   -1    0    0    0  501  0.00000000000E+00  0.00000000000E+00 -0.59091640334E+02  0.59091640389E+02  0.25500000920E-02 0.  1.
    10030    2    1    2    0    0  0.00000000000E+00  0.00000000000E+00  0.99905408364E+03  0.11172373644E+04  0.50011025414E+03 0.  0.
        3    1    3    3  502    0  0.34022138911E+02  0.21308795786E+03  0.21727003037E+03  0.30621930053E+03  0.10100000352E+00 0.  1.
       -3    1    3    3    0  502 -0.34022138911E+02 -0.21308795786E+03  0.78178405326E+03  0.81101806383E+03  0.10100000352E+00 0. -1.
</event>
<event>
 5   0  0.1805500E-02  0.5060313E+03  0.7818609E-02  0.1012217E+00
       -4   -1    0    0    0  501  0.00000000000E+00  0.00000000000E+00  0.17473709993E+03  0.17474171509E+03  0.12699999809E+01 0. -1.
        4   -1    0    0  501    0  0.00000000000E+00  0.00000000000E+00 -0.36635078176E+03  0.36635298306E+03  0.12699999809E+01 0.  1.
    10030    2    1    2    0    0  0.00000000000E+00  0.00000000000E+00 -0.19161368183E+03  0.54109469815E+03  0.50603129281E+03 0.  0.
        2    1    3    3  502    0 -0.65173001681E+02 -0.15262151533E+03 -0.30002761870E+03  0.34286647412E+03  0.25500000920E-02 0.  1.
       -2    1    3    3    0  502  0.65173001681E+02  0.15262151533E+03  0.10841393686E+03  0.19822822403E+03  0.25500000920E-02 0. -1.
</event>
<event>
 5   0  0.4409622E-02  0.5003265E+03  0.7818609E-02  0.1013694E+00
        2   -1    0    0  501    0  0.00000000000E+00  0.00000000000E+00  0.90695555435E+03  0.90695555435E+03  0.25500000920E-02 0.  1.
       -2   -1    0    0    0  501  0.00000000000E+00  0.00000000000E+00 -0.69001895295E+02  0.69001895343E+02  0.25500000920E-02 0. -1.
    10030    2    1    2    0    0  0.00000000000E+00  0.00000000000E+00  0.83795365905E+03  0.97595744969E+03  0.50032650229E+03 0.  0.
        3    1    3    3  502    0  0.40251608616E+02 -0.62773929902E+01 -0.62488046339E+02  0.74594663316E+02  0.10100000352E+00 0. -1.
       -3    1    3    3    0  502 -0.40251608616E+02  0.62773929902E+01  0.90044170539E+03  0.90136278638E+03  0.10100000352E+00 0.  1.
</event>
<event>
 5   0  0.2779445E-02  0.4941299E+03  0.7818609E-02  0.1015323E+00
       -1   -1    0    0    0  501  0.00000000000E+00  0.00000000000E+00  0.16866738309E+03  0.16866738317E+03  0.50400001928E-02 0.  1.
        1   -1    0    0  501    0  0.00000000000E+00  0.00000000000E+00 -0.36190211727E+03  0.36190211731E+03  0.50400001928E-02 0. -1.
    10030    2    1    2    0    0  0.00000000000E+00  0.00000000000E+00 -0.19323473418E+03  0.53056950048E+03  0.49412987397E+03 0.  0.
        3    1    3    3  502    0 -0.78594375586E+01 -0.22375284180E+03  0.15556710323E+02  0.22443067172E+03  0.10100000352E+00 0.  1.
       -3    1    3    3    0  502  0.78594375586E+01  0.22375284180E+03 -0.20879144450E+03  0.30613882876E+03  0.10100000352E+00 0. -1.
</event>
<event>
 5   0  0.2779445E-02  0.5073866E+03  0.7818609E-02  0.1011869E+00
       -1   -1    0    0    0  501  0.00000000000E+00  0.00000000000E+00  0.54110866667E+02  0.54110866901E+02  0.50400001928E-02 0.  1.
        1   -1    0    0  501    0  0.00000000000E+00  0.00000000000E+00 -0.11894154120E+04  0.11894154120E+04  0.50400001928E-02 0. -1.
    10030    2    1    2    0    0  0.00000000000E+00  0.00000000000E+00 -0.11353045454E+04  0.12435262789E+04  0.50738663335E+03 0.  0.
        3    1    3    3  502    0 -0.97447844493E+02  0.22552336376E+03 -0.41258096345E+03  0.48018739217E+03  0.10100000352E+00 0.  1.
       -3    1    3    3    0  502  0.97447844493E+02 -0.22552336376E+03 -0.72272358192E+03  0.76333888677E+03  0.10100000352E+00 0. -1.
</event>
<event>
 5   0  0.4519539E-02  0.4988967E+03  0.7818609E-02  0.1014067E+00
        2   -1    0    0  501    0  0.00000000000E+00  0.00000000000E+00  0.38275264511E+03  0.38275264511E+03  0.25500000920E-02 0. -1.
       -2   -1    0    0    0  501  0.00000000000E+00  0.00000000000E+00 -0.16257098250E+03  0.16257098252E+03  0.25500000920E-02 0.  1.
    10030    2    1    2    0    0  0.00000000000E+00  0.00000000000E+00  0.22018166261E+03  0.54532362763E+03  0.49889667698E+03 0.  0.
        4    1    3    3  502    0 -0.88635067656E+02  0.17403003966E+03 -0.59527984180E+02  0.20417596264E+03  0.12699999809E+01 0. -1.
       -4    1    3    3    0  502  0.88635067656E+02 -0.17403003966E+03  0.27970964679E+03  0.34114766499E+03  0.12699999809E+01 0.  1.
</event>
<event>
 5   0  0.2715483E-02  0.4985395E+03  0.7818609E-02  0.1014161E+00
       -1   -1    0    0    0  501  0.00000000000E+00  0.00000000000E+00  0.41287052082E+02  0.41287052390E+02  0.50400001928E-02 0.  1.
        1   -1    0    0  501    0  0.00000000000E+00  0.00000000000E+00 -0.15049608222E+04  0.15049608222E+04  0.50400001928E-02 0. -1.
    10030    2    1    2    0    0  0.00000000000E+00  0.00000000000E+00 -0.14636737702E+04  0.15462478746E+04  0.49853945117E+03 0.  0.
        5    1    3    3  502    0  0.10874356376E+03  0.14351555802E+03 -0.12662721745E+04  0.12790188380E+04  0.46999998093E+01 0. -1.
       -5    1    3    3    0  502 -0.10874356376E+03 -0.14351555802E+03 -0.19740159564E+03  0.26722903662E+03  0.46999998093E+01 0.  1.
</event>
<event>
 5   0  0.2715483E-02  0.5006981E+03  0.7818609E-02  0.1013597E+00
        1   -1    0    0  501    0  0.00000000000E+00  0.00000000000E+00  0.99536983557E+03  0.99536983558E+03  0.50400001928E-02 0.  1.
       -1   -1    0    0    0  501  0.00000000000E+00  0.00000000000E+00 -0.62966199936E+02  0.62966200138E+02  0.50400001928E-02 0. -1.
    10030    2    1    2    0    0  0.00000000000E+00  0.00000000000E+00  0.93240363563E+03  0.10583360357E+04  0.50069813737E+03 0.  0.
        5    1    3    3  502    0 -0.10921887164E+03  0.55730142437E+01 -0.97034541140E+01  0.10989116175E+03  0.46999998093E+01 0. -1.
       -5    1    3    3    0  502  0.10921887164E+03 -0.55730142437E+01  0.94210708974E+03  0.94844487397E+03  0.46999998093E+01 0.  1.
</event>
<event>
 5   0  0.2779445E-02  0.5004914E+03  0.7818609E-02  0.1013651E+00
        1   -1    0    0  501    0  0.00000000000E+00  0.00000000000E+00  0.34689455593E+03  0.34689455596E+03  0.50400001928E-02 0.  1.
       -1   -1    0    0    0  501  0.00000000000E+00  0.00000000000E+00 -0.18052433628E+03  0.18052433635E+03  0.50400001928E-02 0. -1.
    10030    2    1    2    0    0  0.00000000000E+00  0.00000000000E+00  0.16637021964E+03  0.52741889232E+03  0.50049139652E+03 0.  0.
        3    1    3    3  502    0  0.15677002642E+03  0.64302728002E+02 -0.11087253478E+03  0.20249545966E+03  0.10100000352E+00 0. -1.
       -3    1    3    3    0  502 -0.15677002642E+03 -0.64302728002E+02  0.27724275442E+03  0.32492343266E+03  0.10100000352E+00 0.  1.
</event>
<event>
 5   0  0.1805500E-02  0.4960004E+03  0.7818609E-02  0.1014828E+00
        3   -1    0    0  501    0  0.00000000000E+00  0.00000000000E+00  0.55451843334E+03  0.55451844254E+03  0.10100000352E+00 0. -1.
       -3   -1    0    0    0  501  0.00000000000E+00  0.00000000000E+00 -0.11091439266E+03  0.11091443865E+03  0.10100000352E+00 0.  1.
    10030    2    1    2    0    0  0.00000000000E+00  0.00000000000E+00  0.44360404068E+03  0.66543288119E+03  0.49600037748E+03 0.  0.
        5    1    3    3  502    0 -0.27595165241E+01  0.13969182324E+03 -0.53014608494E+02  0.14951273900E+03  0.46999998093E+01 0.  1.
       -5    1    3    3    0  502  0.27595165241E+01 -0.13969182324E+03  0.49661864917E+03  0.51592014219E+03  0.46999998093E+01 0. -1.
</event>
<event>
 5   0  0.2715483E-02  0.5016026E+03  0.7818609E-02  0.1013361E+00
        1   -1    0    0  501    0  0.00000000000E+00  0.00000000000E+00  0.18614381651E+03  0.18614381658E+03  0.50400001928E-02 0. -1.
       -1   -1    0    0    0  501  0.00000000000E+00  0.00000000000E+00 -0.33791774618E+03  0.33791774621E+03  0.50400001928E-02 0.  1.
    10030    2    1    2    0    0  0.00000000000E+00  0.00000000000E+00 -0.15177392966E+03  0.52406156280E+03  0.50160262746E+03 0.  0.
        5    1    3    3  502    0 -0.23478232562E+03 -0.50291417786E+02 -0.35012671869E+00  0.24015449134E+03  0.46999998093E+01 0.  1.
       -5    1    3    3    0  502  0.23478232562E+03  0.50291417786E+02 -0.15142380294E+03  0.28390707145E+03  0.46999998093E+01 0. -1.
</event>
<event>
 5   0  0.2643185E-02  0.5009263E+03  0.7818609E-02  0.1013537E+00
        1   -1    0    0  501    0  0.00000000000E+00  0.00000000000E+00  0.19181677370E+04  0.19181677370E+04  0.50400001928E-02 0. -1.
       -1   -1    0    0    0  501  0.00000000000E+00  0.00000000000E+00 -0.32704014914E+02  0.32704015302E+02  0.50400001928E-02 0.  1.
    10030    2    1    2    0    0  0.00000000000E+00  0.00000000000E+00  0.18854637221E+04  0.19508717523E+04  0.50092628865E+03 0.  0.
        1    1    3    3  502    0 -0.10784546017E+03  0.29135898176E+02  0.69694918989E+02  0.13166975963E+03  0.50400001928E-02 0.  1.
       -1    1    3    3    0  502  0.10784546017E+03 -0.29135898176E+02  0.18157688031E+04  0.18192019927E+04  0.50400001928E-02 0. -1.
</event>
<event>
 5   0  0.4451135E-02  0.5031968E+03  0.7818609E-02  0.1012948E+00
       -2   -1    0    0    0  501  0.00000000000E+00  0.00000000000E+00  0.16390577579E+03  0.16390577581E+03  0.25500000920E-02 0. -1.
        2   -1    0    0  501    0  0.00000000000E+00  0.00000000000E+00 -0.38620819363E+03  0.38620819364E+03  0.25500000920E-02 0.  1.
    10030    2    1    2    0    0  0.00000000000E+00  0.00000000000E+00 -0.22230241784E+03  0.55011396945E+03  0.50319679491E+03 0.  0.
        1    1    3    3  502    0 -0.14469221783E+03  0.18838981022E+03 -0.20503398124E+02  0.23842597983E+03  0.50400001928E-02 0. -1.
       -1    1    3    3    0  502  0.14469221783E+03 -0.18838981022E+03 -0.20179901971E+03  0.31168798963E+03  0.50400001928E-02 0.  1.
</event>
<event>
 5   0  0.2719671E-02  0.5005434E+03  0.7818609E-02  0.1013637E+00
       -1   -1    0    0    0  501  0.00000000000E+00  0.00000000000E+00  0.66014183902E+02  0.66014184095E+02  0.50400001928E-02 0. -1.
        1   -1    0    0  501    0  0.00000000000E+00  0.00000000000E+00 -0.94882507763E+03  0.94882507764E+03  0.50400001928E-02 0.  1.
    10030    2    1    2    0    0  0.00000000000E+00  0.00000000000E+00 -0.88281089372E+03  0.10148392617E+04  0.50054335784E+03 0.  0.
        2    1    3    3  502    0 -0.10549483246E+02  0.23533184741E+03 -0.61276660850E+03  0.65648708023E+03  0.25500000920E-02 0.  1.
       -2    1    3    3    0  502  0.10549483246E+02 -0.23533184741E+03 -0.27004428522E+03  0.35835218151E+03  0.25500000920E-02 0. -1.
</event>
<event>
 5   0  0.2779445E-02  0.5019163E+03  0.7818609E-02  0.1013280E+00
       -1   -1    0    0    0  501  0.00000000000E+00  0.00000000000E+00  0.39069382296E+03  0.39069382300E+03  0.50400001928E-02 0. -1.
        1   -1    0    0  501    0  0.00000000000E+00  0.00000000000E+00 -0.16120037960E+03  0.16120037968E+03  0.50400001928E-02 0.  1.
    10030    2    1    2    0    0  0.00000000000E+00  0.00000000000E+00  0.22949344337E+03  0.55189420267E+03  0.50191629820E+03 0.  0.
        3    1    3    3  502    0 -0.22675826456E+03 -0.97888263608E+02  0.65836558351E+02  0.25560885219E+03  0.10100000352E+00 0.  1.
       -3    1    3    3    0  502  0.22675826456E+03  0.97888263608E+02  0.16365688502E+03  0.29628535049E+03  0.10100000352E+00 0. -1.
</event>
<event>
 5   0  0.1805500E-02  0.5011136E+03  0.7818609E-02  0.1013489E+00
       -3   -1    0    0    0  501  0.00000000000E+00  0.00000000000E+00  0.85591297597E+02  0.85591357188E+02  0.10100000352E+00 0.  1.
        3   -1    0    0  501    0  0.00000000000E+00  0.00000000000E+00 -0.73347046355E+03  0.73347047050E+03  0.10100000352E+00 0. -1.
    10030    2    1    2    0    0  0.00000000000E+00  0.00000000000E+00 -0.64787916595E+03  0.81906182769E+03  0.50111362375E+03 0.  0.
        3    1    3    3  502    0  0.10789718426E+03  0.14383411397E+03 -0.60914942280E+03  0.63513233598E+03  0.10100000352E+00 0. -1.
       -3    1    3    3    0  502 -0.10789718426E+03 -0.14383411397E+03 -0.38729743152E+02  0.18392949171E+03  0.10100000352E+00 0.  1.
</event>
<event>
 5   0  0.2719671E-02  0.5000099E+03  0.7818609E-02  0.1013776E+00
        1   -1    0    0  501    0  0.00000000000E+00  0.00000000000E+00  0.25849791641E+03  0.25849791646E+03  0.50400001928E-02 0. -1.
       -1   -1    0    0    0  501  0.00000000000E+00  0.00000000000E+00 -0.24179101456E+03  0.24179101461E+03  0.50400001928E-02 0.  1.
    10030    2    1    2    0    0  0.00000000000E+00  0.00000000000E+00  0.16706901854E+02  0.50028893107E+03  0.50000989388E+03 0.  0.
        2    1    3    3  502    0 -0.18746219525E+02 -0.24930108774E+03  0.84963395436E+01  0.25014923723E+03  0.25500000920E-02 0. -1.
       -2    1    3    3    0  502  0.18746219525E+02  0.24930108774E+03  0.82105623100E+01  0.25013969384E+03  0.25500000920E-02 0.  1.
</event>
<event>
 5   0  0.2779445E-02  0.4962408E+03  0.7818609E-02  0.1014765E+00
        1   -1    0    0  501    0  0.00000000000E+00  0.00000000000E+00  0.23792547425E+03  0.23792547430E+03  0.50400001928E-02 0.  1.
       -1   -1    0    0    0  501  0.00000000000E+00  0.00000000000E+00 -0.25875217938E+03  0.25875217942E+03  0.50400001928E-02 0. -1.
    10030    2    1    2    0    0  0.00000000000E+00  0.00000000000E+00 -0.20826705125E+02  0.49667765373E+03  0.49624080855E+03 0.  0.
        3    1    3    3  502    0  0.23509832992E+03  0.40968621509E+02  0.57573405907E+02  0.24548800368E+03  0.10100000352E+00 0.  1.
       -3    1    3    3    0  502 -0.23509832992E+03 -0.40968621509E+02 -0.78400111032E+02  0.25118965005E+03  0.10100000352E+00 0. -1.
</event>
<event>
 5   0  0.4631619E-02  0.5027030E+03  0.7818609E-02  0.1013076E+00
        2   -1    0    0  501    0  0.00000000000E+00  0.00000000000E+00  0.37085761369E+03  0.37085761370E+03  0.25500000920E-02 0. -1.
       -2   -1    0    0    0  501  0.00000000000E+00  0.00000000000E+00 -0.17035534803E+03  0.17035534805E+03  0.25500000920E-02 0.  1.
    10030    2    1    2    0    0  0.00000000000E+00  0.00000000000E+00  0.20050226566E+03  0.54121296174E+03  0.50270300519E+03 0.  0.
        5    1    3    3  502    0  0.25120298904E+03 -0.25393881605E+01  0.92941490070E+02  0.26789848968E+03  0.46999998093E+01 0. -1.
       -5    1    3    3    0  502 -0.25120298904E+03  0.25393881605E+01  0.10756077559E+03  0.27331447207E+03  0.46999998093E+01 0.  1.
</event>
<event>
 5   0  0.4451135E-02  0.4971791E+03  0.7818609E-02  0.1014518E+00
        2   -1    0    0  501    0  0.00000000000E+00  0.00000000000E+00  0.16907330160E+03  0.16907330162E+03  0.25500000920E-02 0. -1.
       -2   -1    0    0    0  501  0.00000000000E+00  0.00000000000E+00 -0.36550283927E+03  0.36550283928E+03  0.25500000920E-02 0.  1.
    10030    2    1    2    0    0  0.00000000000E+00  0.00000000000E+00 -0.19642953767E+03  0.53457614090E+03  0.49717912984E+03 0.  0.
        1    1    3    3  502    0 -0.71191424190E+02 -0.20231075315E+03  0.36933433165E+02  0.21762798126E+03  0.50400001928E-02 0. -1.
       -1    1    3    3    0  502  0.71191424190E+02  0.20231075315E+03 -0.23336297083E+03  0.31694815964E+03  0.50400001928E-02 0.  1.
</event>
<event>
 5   0  0.2643185E-02  0.4997718E+03  0.7818609E-02  0.1013838E+00
        1   -1    0    0  501    0  0.00000000000E+00  0.00000000000E+00  0.77629427421E+03  0.77629427422E+03  0.50400001928E-02 0.  1.
       -1   -1    0    0    0  501  0.00000000000E+00  0.00000000000E+00 -0.80437238595E+02  0.80437238753E+02  0.50400001928E-02 0. -1.
    10030    2    1    2    0    0  0.00000000000E+00  0.00000000000E+00  0.69585703561E+03  0.85673151298E+03  0.49977181925E+03 0.  0.
        1    1    3    3  502    0  0.20097630258E+03  0.94612281736E+02  0.15172409752E+03  0.26900401456E+03  0.50400001928E-02 0. -1.
       -1    1    3    3    0  502 -0.20097630258E+03 -0.94612281736E+02  0.54413293809E+03  0.58772749842E+03  0.50400001928E-02 0.  1.
</event>
<event>
 5   0  0.4534223E-02  0.5011096E+03  0.7818609E-02  0.1013490E+00
       -2   -1    0    0    0  501  0.00000000000E+00  0.00000000000E+00  0.16028539274E+03  0.16028539276E+03  0.25500000920E-02 0.  1.
        2   -1    0    0  501    0  0.00000000000E+00  0.00000000000E+00 -0.39166212569E+03  0.39166212570E+03  0.25500000920E-02 0. -1.
    10030    2    1    2    0    0  0.00000000000E+00  0.00000000000E+00 -0.23137673295E+03  0.55194751846E+03  0.50110963928E+03 0.  0.
        2    1    3    3  502    0 -0.23542648783E+03  0.74811643832E+02 -0.69541602579E+02  0.25662900795E+03  0.25500000920E-02 0.  1.
       -2    1    3    3    0  502  0.23542648783E+03 -0.74811643832E+02 -0.16183513038E+03  0.29531851052E+03  0.25500000920E-02 0. -1.
</event>
<event>
 5   0  0.4631619E-02  0.5011713E+03  0.7818609E-02  0.1013474E+00
       -2   -1    0    0    0  501  0.00000000000E+00  0.00000000000E+00  0.18292227493E+03  0.18292227494E+03  0.25500000920E-02 0.  1.
        2   -1    0    0  501    0  0.00000000000E+00  0.00000000000E+00 -0.34327787551E+03  0.34327787552E+03  0.25500000920E-02 0. -1.
    10030    2    1    2    0    0  0.00000000000E+00  0.00000000000E+00 -0.16035560058E+03  0.52620015046E+03  0.50117130774E+03 0.  0.
        5    1    3    3  502    0 -0.26787045169E+00  0.22277519608E+03 -0.20054250035E+03  0.29978032656E+03  0.46999998093E+01 0. -1.
       -5    1    3    3    0  502  0.26787045169E+00 -0.22277519608E+03  0.40186899771E+02  0.22641982390E+03  0.46999998093E+01 0.  1.
</event>
<event>
 5   0  0.2719671E-02  0.4992591E+03  0.7818609E-02  0.1013972E+00
        1   -1    0    0  501    0  0.00000000000E+00  0.00000000000E+00  0.12594171369E+04  0.12594171369E+04  0.50400001928E-02 0.  1.
       -1   -1    0    0    0  501  0.00000000000E+00  0.00000000000E+00 -0.49479174965E+02  0.49479175222E+02  0.50400001928E-02 0. -1.
    10030    2    1    2    0    0  0.00000000000E+00  0.00000000000E+00  0.12099379619E+04  0.13088963121E+04  0.49925913530E+03 0.  0.
        2    1    3    3  502    0 -0.23446088233E+03  0.51084493675E+02  0.78533942629E+03  0.82118179798E+03  0.25500000920E-02 0.  1.
       -2    1    3    3    0  502  0.23446088233E+03 -0.51084493675E+02  0.42459853565E+03  0.48771451416E+03  0.25500000920E-02 0. -1.
</event>
<event>
 5   0  0.4534223E-02  0.5083816E+03  0.7818609E-02  0.1011614E+00
        2   -1    0    0  501    0  0.00000000000E+00  0.00000000000E+00  0.27576724469E+04  0.27576724469E+04  0.25500000920E-02 0.  1.
       -2   -1    0    0    0  501  0.00000000000E+00  0.00000000000E+00 -0.23430248954E+02  0.23430249093E+02  0.25500000920E-02 0. -1.
    10030    2    1    2    0    0  0.00000000000E+00  0.00000000000E+00  0.27342421980E+04  0.27811026960E+04  0.50838155812E+03 0.  0.
        2    1    3    3  502    0 -0.46883698688E+02 -0.27049460576E+02  0.84614485998E+01  0.54784583954E+02  0.25500000920E-02 0. -1.
       -2    1    3    3    0  502  0.46883698688E+02  0.27049460576E+02  0.27257807494E+04  0.27263181121E+04  0.25500000920E-02 0.  1.
</event>
<event>
 5   0  0.4409622E-02  0.4999628E+03  0.7818609E-02  0.1013789E+00
        2   -1    0    0  501    0  0.00000000000E+00  0.00000000000E+00  0.26030192853E+03  0.26030192855E+03  0.25500000920E-02 0.  1.
       -2   -1    0    0    0  501  0.00000000000E+00  0.00000000000E+00 -0.24007008224E+03  0.24007008225E+03  0.25500000920E-02 0. -1.
    10030    2    1    2    0    0  0.00000000000E+00  0.00000000000E+00  0.20231846296E+02  0.50037201080E+03  0.49996282020E+03 0.  0.
        3    1    3    3  502    0 -0.18442011059E+02 -0.16557157899E+03  0.19664614261E+03  0.25772809538E+03  0.10100000352E+00 0.  1.
       -3    1    3    3    0  502  0.18442011059E+02  0.16557157899E+03 -0.17641429632E+03  0.24264391542E+03  0.10100000352E+00 0. -1.
</event>
<event>
 5   0  0.2715483E-02  0.4995962E+03  0.7818609E-02  0.1013884E+00
       -1   -1    0    0    0  501  0.00000000000E+00  0.00000000000E+00  0.37927194537E+03  0.37927194540E+03  0.50400001928E-02 0. -1.
        1   -1    0    0  501    0  0.00000000000E+00  0.00000000000E+00 -0.16452337143E+03  0.16452337150E+03  0.50400001928E-02 0.  1.
    10030    2    1    2    0    0  0.00000000000E+00  0.00000000000E+00  0.21474857394E+03  0.54379531690E+03  0.49959623365E+03 0.  0.
        5    1    3    3  502    0  0.25497556100E+02  0.17720349348E+03 -0.82175142497E+02  0.19704326305E+03  0.46999998093E+01 0.  1.
       -5    1    3    3    0  502 -0.25497556100E+02 -0.17720349348E+03  0.29692371644E+03  0.34675205385E+03  0.46999998093E+01 0. -1.
</event>
<event>
 5   0  0.2779445E-02  0.5015193E+03  0.7818609E-02  0.1013383E+00
       -1   -1    0    0    0  501  0.00000000000E+00  0.00000000000E+00  0.24365885332E+03  0.24365885337E+03  0.50400001928E-02 0.  1.
        1   -1    0    0  501    0  0.00000000000E+00  0.00000000000E+00 -0.25806733234E+03  0.25806733239E+03  0.50400001928E-02 0. -1.
    10030    2    1    2    0    0  0.00000000000E+00  0.00000000000E+00 -0.14408479025E+02  0.50172618576E+03  0.50151925308E+03 0.  0.
        3    1    3    3  502    0  0.23565661487E+03 -0.95325528403E+01  0.78009955455E+02  0.24841592752E+03  0.10100000352E+00 0.  1.
       -3    1    3    3    0  502 -0.23565661487E+03  0.95325528403E+01 -0.92418434479E+02  0.25331025824E+03  0.10100000352E+00 0. -1.
</event>
<event>
 5   0  0.4451135E-02  0.5095559E+03  0.7818609E-02  0.1011314E+00
        2   -1    0    0  501    0  0.00000000000E+00  0.00000000000E+00  0.16393561972E+04  0.16393561972E+04  0.25500000920E-02 0.  1.
       -2   -1    0    0    0  501  0.00000000000E+00  0.00000000000E+00 -0.39595915361E+02  0.39595915443E+02  0.25500000920E-02 0. -1.
    10030    2    1    2    0    0  0.00000000000E+00  0.00000000000E+00  0.15997602818E+04  0.16789521126E+04  0.50955592156E+03 0.  0.
        1    1    3    3  502    0  0.15537901419E+03  0.12262464383E+03  0.27132982982E+03  0.33585609701E+03  0.50400001928E-02 0. -1.
       -1    1    3    3    0  502 -0.15537901419E+03 -0.12262464383E+03  0.13284304520E+04  0.13430960156E+04  0.50400001928E-02 0.  1.
</event>
<event>
 5   0  0.2723308E-02  0.5027252E+03  0.7818609E-02  0.1013070E+00
       -1   -1    0    0    0  501  0.00000000000E+00  0.00000000000E+00  0.35248428919E+02  0.35248429279E+02  0.50400001928E-02 0.  1.
        1   -1    0    0  501    0  0.00000000000E+00  0.00000000000E+00 -0.17925096323E+04  0.17925096323E+04  0.50400001928E-02 0. -1.
    10030    2    1    2    0    0  0.00000000000E+00  0.00000000000E+00 -0.17572612034E+04  0.18277580616E+04  0.50272516824E+03 0.  0.
        4    1    3    3  502    0 -0.18931959460E+03  0.78879190779E+02 -0.14069680442E+04  0.14218384317E+04  0.12699999809E+01 0. -1.
       -4    1    3    3    0  502  0.18931959460E+03 -0.78879190779E+02 -0.35029315921E+03  0.40591962989E+03  0.12699999809E+01 0.  1.
</event>
<event>
 5   0  0.2719671E-02  0.4979690E+03  0.7818609E-02  0.1014310E+00
       -1   -1    0    0    0  501  0.00000000000E+00  0.00000000000E+00  0.78293583717E+02  0.78293583879E+02  0.50400001928E-02 0. -1.
        1   -1    0    0  501    0  0.00000000000E+00  0.00000000000E+00 -0.79180529337E+03  0.79180529338E+03  0.50400001928E-02 0.  1.
    10030    2    1    2    0    0  0.00000000000E+00  0.00000000000E+00 -0.71351170965E+03  0.87009887726E+03  0.49796897133E+03 0.  0.
        2    1    3    3  502    0 -0.18839658413E+02  0.23657063284E+03 -0.48835720812E+03  0.54296718112E+03  0.25500000920E-02 0. -1.
       -2    1    3    3    0  502  0.18839658413E+02 -0.23657063284E+03 -0.22515450153E+03  0.32713169614E+03  0.25500000920E-02 0.  1.
</event>
<event>
 5   0  0.4519539E-02  0.4873231E+03  0.7818609E-02  0.1017142E+00
        2   -1    0    0  501    0  0.00000000000E+00  0.00000000000E+00  0.17169021715E+03  0.17169021717E+03  0.25500000920E-02 0. -1.
       -2   -1    0    0    0  501  0.00000000000E+00  0.00000000000E+00 -0.34580273839E+03  0.34580273840E+03  0.25500000920E-02 0.  1.
    10030    2    1    2    0    0  0.00000000000E+00  0.00000000000E+00 -0.17411252124E+03  0.51749295558E+03  0.48732308484E+03 0.  0.
        4    1    3    3  502    0  0.13895649115E+03 -0.80775848302E+02  0.10740857571E+03  0.19331802590E+03  0.12699999809E+01 0. -1.
       -4    1    3    3    0  502 -0.13895649115E+03  0.80775848302E+02 -0.28152109695E+03  0.32417492967E+03  0.12699999809E+01 0.  1.
</event>
<event>
 5   0  0.4534223E-02  0.4998525E+03  0.7818609E-02  0.1013817E+00
       -2   -1    0    0    0  501  0.00000000000E+00  0.00000000000E+00  0.45755397326E+03  0.45755397327E+03  0.25500000920E-02 0.  1.
        2   -1    0    0  501    0  0.00000000000E+00  0.00000000000E+00 -0.13651535408E+03  0.13651535410E+03  0.25500000920E-02 0. -1.
    10030    2    1    2    0    0  0.00000000000E+00  0.00000000000E+00  0.32103861919E+03  0.59406932737E+03  0.49985254897E+03 0.  0.
        2    1    3    3  502    0 -0.18019902518E+03  0.24480297245E+02  0.36427560551E+03  0.40714578519E+03  0.25500000920E-02 0.  1.
       -2    1    3    3    0  502  0.18019902518E+03 -0.24480297245E+02 -0.43236986320E+02  0.18692354218E+03  0.25500000920E-02 0. -1.
</event>
<event>
 5   0  0.4631619E-02  0.4995209E+03  0.7818609E-02  0.1013904E+00
        2   -1    0    0  501    0  0.00000000000E+00  0.00000000000E+00  0.10193501514E+04  0.10193501514E+04  0.25500000920E-02 0.  1.
       -2   -1    0    0    0  501  0.00000000000E+00  0.00000000000E+00 -0.61196138780E+02  0.61196138833E+02  0.25500000920E-02 0. -1.
    10030    2    1    2    0    0  0.00000000000E+00  0.00000000000E+00  0.95815401262E+03  0.10805462902E+04  0.49952094395E+03 0.  0.
        5    1    3    3  502    0  0.67094201512E+02 -0.23923768213E+03  0.42513203354E+03  0.49243845947E+03  0.46999998093E+01 0. -1.
       -5    1    3    3    0  502 -0.67094201512E+02  0.23923768213E+03  0.53302197908E+03  0.58810783077E+03  0.46999998093E+01 0.  1.
</event>
<event>
 5   0  0.1805500E-02  0.5007500E+03  0.7818609E-02  0.1013583E+00
        4   -1    0    0  501    0  0.00000000000E+00  0.00000000000E+00  0.82511877281E+03  0.82511975019E+03  0.12699999809E+01 0. -1.
       -4   -1    0    0    0  501  0.00000000000E+00  0.00000000000E+00 -0.75967741931E+02  0.75978356879E+02  0.12699999809E+01 0.  1.
    10030    2    1    2    0    0  0.00000000000E+00  0.00000000000E+00  0.74915103088E+03  0.90109810706E+03  0.50074996903E+03 0.  0.
        4    1    3    3  502    0 -0.14439444623E+03  0.20451148519E+03  0.36852206085E+03  0.44551635875E+03  0.12699999809E+01 0. -1.
       -4    1    3    3    0  502  0.14439444623E+03 -0.20451148519E+03  0.38062897003E+03  0.45558174832E+03  0.12699999809E+01 0.  1.
</event>
<event>
 5   0  0.4519539E-02  0.5004613E+03  0.7818609E-02  0.1013659E+00
       -2   -1    0    0    0  501  0.00000000000E+00  0.00000000000E+00  0.37810707548E+02  0.37810707634E+02  0.25500000920E-02 0. -1.
        2   -1    0    0  501    0  0.00000000000E+00  0.00000000000E+00 -0.16560226959E+04  0.16560226959E+04  0.25500000920E-02 0.  1.
    10030    2    1    2    0    0  0.00000000000E+00  0.00000000000E+00 -0.16182119883E+04  0.16938334035E+04  0.50046134685E+03 0.  0.
        4    1    3    3  502    0 -0.79519779259E+02 -0.41550186765E+02 -0.18512732395E+02  0.91619580190E+02  0.12699999809E+01 0. -1.
       -4    1    3    3    0  502  0.79519779259E+02  0.41550186765E+02 -0.15996992560E+04  0.16022138233E+04  0.12699999809E+01 0.  1.
</event>
<event>
 5   0  0.4409622E-02  0.5008165E+03  0.7818609E-02  0.1013566E+00
        2   -1    0    0  501    0  0.00000000000E+00  0.00000000000E+00  0.49530237661E+03  0.49530237662E+03  0.25500000920E-02 0.  1.
       -2   -1    0    0    0  501  0.00000000000E+00  0.00000000000E+00 -0.12659801212E+03  0.12659801215E+03  0.25500000920E-02 0. -1.
    10030    2    1    2    0    0  0.00000000000E+00  0.00000000000E+00  0.36870436449E+03  0.62190038876E+03  0.50081651845E+03 0.  0.
        3    1    3    3  502    0 -0.11750775074E+03 -0.20354513968E+03  0.77058469902E+02  0.24733926772E+03  0.10100000352E+00 0. -1.
       -3    1    3    3    0  502  0.11750775074E+03  0.20354513968E+03  0.29164589459E+03  0.37456112105E+03  0.10100000352E+00 0.  1.
</event>
<event>
 5   0  0.2779445E-02  0.4990119E+03  0.7818609E-02  0.1014037E+00
       -1   -1    0    0    0  501  0.00000000000E+00  0.00000000000E+00  0.94173395889E+03  0.94173395890E+03  0.50400001928E-02 0. -1.
        1   -1    0    0  501    0  0.00000000000E+00  0.00000000000E+00 -0.66104895528E+02  0.66104895721E+02  0.50400001928E-02 0.  1.
    10030    2    1    2    0    0  0.00000000000E+00  0.00000000000E+00  0.87562906336E+03  0.10078388546E+04  0.49901192399E+03 0.  0.
        3    1    3    3  502    0  0.13728369611E+02  0.15198026401E+03  0.83649709782E+03  0.85030222488E+03  0.10100000352E+00 0. -1.
       -3    1    3    3    0  502 -0.13728369611E+02 -0.15198026401E+03  0.39131965541E+02  0.15753662974E+03  0.10100000352E+00 0.  1.
</event>
<event>
 5   0  0.4409622E-02  0.4979133E+03  0.7818609E-02  0.1014325E+00
        2   -1    0    0  501    0  0.00000000000E+00  0.00000000000E+00  0.11234688459E+04  0.11234688459E+04  0.25500000920E-02 0.  1.
       -2   -1    0    0    0  501  0.00000000000E+00  0.00000000000E+00 -0.55167897636E+02  0.55167897695E+02  0.25500000920E-02 0. -1.
    10030    2    1    2    0    0  0.00000000000E+00  0.00000000000E+00  0.10683009482E+04  0.11786367436E+04  0.49791330298E+03 0.  0.
        3    1    3    3  502    0  0.12027265238E+03  0.12041494890E+03  0.10404378539E+03  0.19947528746E+03  0.10100000352E+00 0. -1.
       -3    1    3    3    0  502 -0.12027265238E+03 -0.12041494890E+03  0.96425716284E+03  0.97916145610E+03  0.10100000352E+00 0.  1.
</event>
<event>
 5   0  0.2719671E-02  0.4991612E+03  0.7818609E-02  0.1013998E+00
        1   -1    0    0  501    0  0.00000000000E+00  0.00000000000E+00  0.55007914617E+03  0.55007914620E+03  0.50400001928E-02 0. -1.
       -1   -1    0    0    0  501  0.00000000000E+00  0.00000000000E+00 -0.11323911195E+03  0.11323911206E+03  0.50400001928E-02 0.  1.
    10030    2    1    2    0    0  0.00000000000E+00  0.00000000000E+00  0.43684003423E+03  0.66331825826E+03  0.49916119264E+03 0.  0.
        2    1    3    3  502    0  0.87387577738E+02 -0.16695236978E+03  0.43588675628E+03  0.47487571724E+03  0.25500000920E-02 0. -1.
       -2    1    3    3    0  502 -0.87387577738E+02  0.16695236978E+03  0.95327794757E+00  0.18844254102E+03  0.25500000920E-02 0.  1.
</event>
<event>
 5   0  0.2643185E-02  0.4995882E+03  0.7818609E-02  0.1013886E+00
       -1   -1    0    0    0  501  0.00000000000E+00  0.00000000000E+00  0.12883015626E+03  0.12883015636E+03  0.50400001928E-02 0. -1.
        1   -1    0    0  501    0  0.00000000000E+00  0.00000000000E+00 -0.48433606638E+03  0.48433606641E+03  0.50400001928E-02 0.  1.
    10030    2    1    2    0    0  0.00000000000E+00  0.00000000000E+00 -0.35550591012E+03  0.61316622277E+03  0.49958819503E+03 0.  0.
        1    1    3    3  502    0 -0.89164747267E+02 -0.17129865511E+03  0.16708386534E+02  0.19383692013E+03  0.50400001928E-02 0. -1.
       -1    1    3    3    0  502  0.89164747267E+02  0.17129865511E+03 -0.37221429665E+03  0.41932930264E+03  0.50400001928E-02 0.  1.
</event>
<event>
 5   0  0.4519539E-02  0.4966009E+03  0.7818609E-02  0.1014670E+00
        2   -1    0    0  501    0  0.00000000000E+00  0.00000000000E+00  0.84555761446E+03  0.84555761446E+03  0.25500000920E-02 0. -1.
       -2   -1    0    0    0  501  0.00000000000E+00  0.00000000000E+00 -0.72914150974E+02  0.72914151018E+02  0.25500000920E-02 0.  1.
    10030    2    1    2    0    0  0.00000000000E+00  0.00000000000E+00  0.77264346348E+03  0.91847176548E+03  0.49660090850E+03 0.  0.
        4    1    3    3  502    0  0.13692618027E+02 -0.10746580602E+03  0.79953507821E+03  0.80684220356E+03  0.12699999809E+01 0. -1.
       -4    1    3    3    0  502 -0.13692618027E+02  0.10746580602E+03 -0.26891614730E+02  0.11162956192E+03  0.12699999809E+01 0.  1.
</event>
<event>
 5   0  0.4519539E-02  0.5013870E+03  0.7818609E-02  0.1013418E+00
       -2   -1    0    0    0  501  0.00000000000E+00  0.00000000000E+00  0.11047856324E+03  0.11047856327E+03  0.25500000920E-02 0.  1.
        2   -1    0    0  501    0  0.00000000000E+00  0.00000000000E+00 -0.56886362164E+03  0.56886362165E+03  0.25500000920E-02 0. -1.
    10030    2    1    2    0    0  0.00000000000E+00  0.00000000000E+00 -0.45838505840E+03  0.67934218491E+03  0.50138701861E+03 0.  0.
        4    1    3    3  502    0 -0.95794536916E+02  0.21637170379E+03 -0.11703351995E+03  0.26399197941E+03  0.12699999809E+01 0. -1.
       -4    1    3    3    0  502  0.95794536916E+02 -0.21637170379E+03 -0.34135153845E+03  0.41535020550E+03  0.12699999809E+01 0.  1.
</event>
<event>
 5   0  0.4519539E-02  0.4894970E+03  0.7818609E-02  0.1016557E+00
       -2   -1    0    0    0  501  0.00000000000E+00  0.00000000000E+00  0.50986255756E+02  0.50986255819E+02  0.25500000920E-02 0.  1.
        2   -1    0    0  501    0  0.00000000000E+00  0.00000000000E+00 -0.11748621906E+04  0.11748621906E+04  0.25500000920E-02 0. -1.
    10030    2    1    2    0    0  0.00000000000E+00  0.00000000000E+00 -0.11238759348E+04  0.12258484464E+04  0.48949698331E+03 0.  0.
        4    1    3    3  502    0 -0.10585512483E+01 -0.10766811212E+03 -0.11123530225E+04  0.11175528634E+04  0.12699999809E+01 0. -1.
       -4    1    3    3    0  502  0.10585512483E+01  0.10766811212E+03 -0.11522912352E+02  0.10829558304E+03  0.12699999809E+01 0.  1.
</event>
<event>
 5   0  0.2715483E-02  0.4999121E+03  0.7818609E-02  0.1013802E+00
       -1   -1    0    0    0  501  0.00000000000E+00  0.00000000000E+00  0.45674618738E+02  0.45674619016E+02  0.50400001928E-02 0. -1.
        1   -1    0    0  501    0  0.00000000000E+00  0.00000000000E+00 -0.13678938881E+04  0.13678938881E+04  0.50400001928E-02 0.  1.
    10030    2    1    2    0    0  0.00000000000E+00  0.00000000000E+00 -0.13222192693E+04  0.14135685071E+04  0.49991212034E+03 0.  0.
        5    1    3    3  502    0 -0.40010589098E+02 -0.24574225456E+03 -0.72213932460E+03  0.76387001319E+03  0.46999998093E+01 0. -1.
       -5    1    3    3    0  502  0.40010589098E+02  0.24574225456E+03 -0.60007994473E+03  0.64969849391E+03  0.46999998093E+01 0.  1.
</event>
<event>
 5   0  0.2643185E-02  0.4894783E+03  0.7818609E-02  0.1016562E+00
       -1   -1    0    0    0  501  0.00000000000E+00  0.00000000000E+00  0.25890549757E+03  0.25890549762E+03  0.50400001928E-02 0.  1.
        1   -1    0    0  501    0  0.00000000000E+00  0.00000000000E+00 -0.23134789264E+03  0.23134789269E+03  0.50400001928E-02 0. -1.
    10030    2    1    2    0    0  0.00000000000E+00  0.00000000000E+00  0.27557604934E+02  0.49025339031E+03  0.48947825807E+03 0.  0.
        1    1    3    3  502    0  0.30786296940E+02  0.14134562029E+03 -0.18394420115E+03  0.23401249885E+03  0.50400001928E-02 0.  1.
       -1    1    3    3    0  502 -0.30786296940E+02 -0.14134562029E+03  0.21150180609E+03  0.25624089146E+03  0.50400001928E-02 0. -1.
</event>
<event>
 5   0  0.1805500E-02  0.4995208E+03  0.7818609E-02  0.1013904E+00
       -3   -1    0    0    0  501  0.00000000000E+00  0.00000000000E+00  0.10049572227E+03  0.10049577302E+03  0.10100000352E+00 0.  1.
        3   -1    0    0  501    0  0.00000000000E+00  0.00000000000E+00 -0.62072527351E+03  0.62072528173E+03  0.10100000352E+00 0. -1.
    10030    2    1    2    0    0  0.00000000000E+00  0.00000000000E+00 -0.52022955124E+03  0.72122105475E+03  0.49952079420E+03 0.  0.
        2    1    3    3  502    0 -0.14615259646E+03  0.14177287199E+03 -0.51282805355E+02  0.20997631965E+03  0.25500000920E-02 0.  1.
       -2    1    3    3    0  502  0.14615259646E+03 -0.14177287199E+03 -0.46894674589E+03  0.51124473510E+03  0.25500000920E-02 0. -1.
</event>
<event>
 5   0  0.4409622E-02  0.5000243E+03  0.7818609E-02  0.1013773E+00
        2   -1    0    0  501    0  0.00000000000E+00  0.00000000000E+00  0.13484766576E+04  0.13484766576E+04  0.25500000920E-02 0. -1.
       -2   -1    0    0    0  501  0.00000000000E+00  0.00000000000E+00 -0.46353098244E+02  0.46353098314E+02  0.25500000920E-02 0.  1.
    10030    2    1    2    0    0  0.00000000000E+00  0.00000000000E+00  0.13021235594E+04  0.13948297559E+04  0.50002428357E+03 0.  0.
        3    1    3    3  502    0  0.24798053859E+03  0.29890121542E+02  0.62072207292E+03  0.66909167451E+03  0.10100000352E+00 0.  1.
       -3    1    3    3    0  502 -0.24798053859E+03 -0.29890121542E+02  0.68140148645E+03  0.72573808142E+03  0.10100000352E+00 0. -1.
</event>
<event>
 5   0  0.1805500E-02  0.4964672E+03  0.7818609E-02  0.1014705E+00
        3   -1    0    0  501    0  0.00000000000E+00  0.00000000000E+00  0.69537108284E+03  0.69537109018E+03  0.10100000352E+00 0. -1.
       -3   -1    0    0    0  501  0.00000000000E+00  0.00000000000E+00 -0.88614419156E+02  0.88614476715E+02  0.10100000352E+00 0.  1.
    10030    2    1    2    0    0  0.00000000000E+00  0.00000000000E+00  0.60675666369E+03  0.78398556689E+03  0.49646723977E+03 0.  0.
        5    1    3    3  502    0 -0.44203004930E+02  0.16465713231E+03  0.18556938060E+02  0.17155852300E+03  0.46999998093E+01 0.  1.
       -5    1    3    3    0  502  0.44203004930E+02 -0.16465713231E+03  0.58819972563E+03  0.61242704389E+03  0.46999998093E+01 0. -1.
</event>
<event>
 5   0  0.1805500E-02  0.4926325E+03  0.7818609E-02  0.1015720E+00
       -3   -1    0    0    0  501  0.00000000000E+00  0.00000000000E+00  0.15786572535E+03  0.15786575766E+03  0.10100000352E+00 0. -1.
        3   -1    0    0  501    0  0.00000000000E+00  0.00000000000E+00 -0.38432462177E+03  0.38432463504E+03  0.10100000352E+00 0.  1.
    10030    2    1    2    0    0  0.00000000000E+00  0.00000000000E+00 -0.22645889642E+03  0.54219039270E+03  0.49263251027E+03 0.  0.
        4    1    3    3  502    0  0.21189153955E+03  0.98799671699E+02 -0.27901611987E+02  0.23545596725E+03  0.12699999809E+01 0. -1.
       -4    1    3    3    0  502 -0.21189153955E+03 -0.98799671699E+02 -0.19855728443E+03  0.30673442546E+03  0.12699999809E+01 0.  1.
</event>
<event>
 5   0  0.4451135E-02  0.5001293E+03  0.7818609E-02  0.1013745E+00
       -2   -1    0    0    0  501  0.00000000000E+00  0.00000000000E+00  0.12287288781E+03  0.12287288783E+03  0.25500000920E-02 0. -1.
        2   -1    0    0  501    0  0.00000000000E+00  0.00000000000E+00 -0.50891894290E+03  0.50891894291E+03  0.25500000920E-02 0.  1.
    10030    2    1    2    0    0  0.00000000000E+00  0.00000000000E+00 -0.38604605510E+03  0.63179183074E+03  0.50012934401E+03 0.  0.
        1    1    3    3  502    0  0.22457206487E+02  0.11085522559E+03  0.88711954304E+02  0.14374636700E+03  0.50400001928E-02 0. -1.
       -1    1    3    3    0  502 -0.22457206487E+02 -0.11085522559E+03 -0.47475800940E+03  0.48804546374E+03  0.50400001928E-02 0.  1.
</event>
<event>
 5   0  0.1805500E-02  0.5004952E+03  0.7818609E-02  0.1013650E+00
        4   -1    0    0  501    0  0.00000000000E+00  0.00000000000E+00  0.27257879858E+03  0.27258175715E+03  0.12699999809E+01 0. -1.
       -4   -1    0    0    0  501  0.00000000000E+00  0.00000000000E+00 -0.22973996571E+03  0.22974347596E+03  0.12699999809E+01 0.  1.
    10030    2    1    2    0    0  0.00000000000E+00  0.00000000000E+00  0.42838832863E+02  0.50232523311E+03  0.50049522897E+03 0.  0.
        1    1    3    3  502    0 -0.18718232503E+03 -0.82374602405E+02  0.16617252422E+03  0.26350731633E+03  0.50400001928E-02 0. -1.
       -1    1    3    3    0  502  0.18718232503E+03  0.82374602405E+02 -0.12333369136E+03  0.23881791678E+03  0.50400001928E-02 0.  1.
</event>
<event>
 5   0  0.2643185E-02  0.4991991E+03  0.7818609E-02  0.1013988E+00
        1   -1    0    0  501    0  0.00000000000E+00  0.00000000000E+00  0.37642294991E+03  0.37642294995E+03  0.50400001928E-02 0.  1.
       -1   -1    0    0    0  501  0.00000000000E+00  0.00000000000E+00 -0.16550516084E+03  0.16550516092E+03  0.50400001928E-02 0. -1.
    10030    2    1    2    0    0  0.00000000000E+00  0.00000000000E+00  0.21091778907E+03  0.54192811086E+03  0.49919912219E+03 0.  0.
        1    1    3    3  502    0 -0.18503401877E+02  0.14234408262E+03  0.32713232505E+03  0.35723909620E+03  0.50400001928E-02 0.  1.
       -1    1    3    3    0  502  0.18503401877E+02 -0.14234408262E+03 -0.11621453598E+03  0.18468901466E+03  0.50400001928E-02 0. -1.
</event>
<event>
 5   0  0.1805500E-02  0.4996528E+03  0.7818609E-02  0.1013870E+00
        4   -1    0    0  501    0  0.00000000000E+00  0.00000000000E+00  0.16248892682E+03  0.16249388985E+03  0.12699999809E+01 0. -1.
       -4   -1    0    0    0  501  0.00000000000E+00  0.00000000000E+00 -0.38409574087E+03  0.38409784047E+03  0.12699999809E+01 0.  1.
    10030    2    1    2    0    0  0.00000000000E+00  0.00000000000E+00 -0.22160681404E+03  0.54659173032E+03  0.49965281909E+03 0.  0.
        5    1    3    3  502    0 -0.14938614711E+03  0.18835023326E+03 -0.36615728270E+02  0.24321766562E+03  0.46999998093E+01 0. -1.
       -5    1    3    3    0  502  0.14938614711E+03 -0.18835023326E+03 -0.18499108577E+03  0.30337406470E+03  0.46999998093E+01 0.  1.
</event>
<event>
 5   0  0.4409622E-02  0.5012958E+03  0.7818609E-02  0.1013441E+00
       -2   -1    0    0    0  501  0.00000000000E+00  0.00000000000E+00  0.25565787710E+02  0.25565787837E+02  0.25500000920E-02 0. -1.
        2   -1    0    0  501    0  0.00000000000E+00  0.00000000000E+00 -0.24573609814E+04  0.24573609814E+04  0.25500000920E-02 0.  1.
    10030    2    1    2    0    0  0.00000000000E+00  0.00000000000E+00 -0.24317951937E+04  0.24829267692E+04  0.50129579825E+03 0.  0.
        3    1    3    3  502    0 -0.49255939974E+02 -0.92344773437E+01 -0.24322938709E+04  0.24328100846E+04  0.10100000352E+00 0.  1.
       -3    1    3    3    0  502  0.49255939974E+02  0.92344773437E+01  0.49867723893E+00  0.50116684593E+02  0.10100000352E+00 0. -1.
</event>
<event>
 5   0  0.2719671E-02  0.4999016E+03  0.7818609E-02  0.1013805E+00
        1   -1    0    0  501    0  0.00000000000E+00  0.00000000000E+00  0.33507149478E+03  0.33507149481E+03  0.50400001928E-02 0.  1.
       -1   -1    0    0    0  501  0.00000000000E+00  0.00000000000E+00 -0.18645396600E+03  0.18645396607E+03  0.50400001928E-02 0. -1.
    10030    2    1    2    0    0  0.00000000000E+00  0.00000000000E+00  0.14861752877E+03  0.52152546089E+03  0.49990162682E+03 0.  0.
        2    1    3    3  502    0  0.45983458622E+02 -0.24248520406E+03  0.33078936207E+02  0.24901359136E+03  0.25500000920E-02 0. -1.
       -2    1    3    3    0  502 -0.45983458622E+02  0.24248520406E+03  0.11553859257E+03  0.27251186953E+03  0.25500000920E-02 0.  1.
</event>
<event>
 5   0  0.4519539E-02  0.4999462E+03  0.7818609E-02  0.1013793E+00
       -2   -1    0    0    0  501  0.00000000000E+00  0.00000000000E+00  0.24291718843E+03  0.24291718844E+03  0.25500000920E-02 0. -1.
        2   -1    0    0  501    0  0.00000000000E+00  0.00000000000E+00 -0.25723397570E+03  0.25723397571E+03  0.25500000920E-02 0.  1.
    10030    2    1    2    0    0  0.00000000000E+00  0.00000000000E+00 -0.14316787273E+02  0.50015116416E+03  0.49994621372E+03 0.  0.
        4    1    3    3  502    0  0.11618791933E+03  0.21637084942E+03 -0.53749625137E+02  0.25140925237E+03  0.12699999809E+01 0.  1.
       -4    1    3    3    0  502 -0.11618791933E+03 -0.21637084942E+03  0.39432837864E+02  0.24874191178E+03  0.12699999809E+01 0. -1.
</event>
<event>
 5   0  0.2779445E-02  0.4970963E+03  0.7818609E-02  0.1014540E+00
       -1   -1    0    0    0  501  0.00000000000E+00  0.00000000000E+00  0.78969038364E+02  0.78969038525E+02  0.50400001928E-02 0.  1.
        1   -1    0    0  501    0  0.00000000000E+00  0.00000000000E+00 -0.78228360895E+03  0.78228360896E+03  0.50400001928E-02 0. -1.
    10030    2    1    2    0    0  0.00000000000E+00  0.00000000000E+00 -0.70331457058E+03  0.86125264749E+03  0.49709630617E+03 0.  0.
        3    1    3    3  502    0 -0.37606041831E+02  0.12549812572E+03  0.14288507155E+02  0.13178833628E+03  0.10100000352E+00 0.  1.
       -3    1    3    3    0  502  0.37606041831E+02 -0.12549812572E+03 -0.71760307774E+03  0.72946431120E+03  0.10100000352E+00 0. -1.
</event>
<event>
 5   0  0.2643185E-02  0.4997495E+03  0.7818609E-02  0.1013844E+00
        1   -1    0    0  501    0  0.00000000000E+00  0.00000000000E+00  0.10709926640E+04  0.10709926640E+04  0.50400001928E-02 0.  1.
       -1   -1    0    0    0  501  0.00000000000E+00  0.00000000000E+00 -0.58298608097E+02  0.58298608315E+02  0.50400001928E-02 0. -1.
    10030    2    1    2    0    0  0.00000000000E+00  0.00000000000E+00  0.10126940559E+04  0.11292912723E+04  0.49974946412E+03 0.  0.
        1    1    3    3  502    0 -0.11852572267E+02  0.21275663389E+03  0.80125074690E+03  0.82910109647E+03  0.50400001928E-02 0.  1.
       -1    1    3    3    0  502  0.11852572267E+02 -0.21275663389E+03  0.21144330900E+03  0.30019017585E+03  0.50400001928E-02 0. -1.
</event>
<event>
 5   0  0.4519539E-02  0.4969778E+03  0.7818609E-02  0.1014571E+00
       -2   -1    0    0    0  501  0.00000000000E+00  0.00000000000E+00  0.46679685867E+02  0.46679685937E+02  0.25500000920E-02 0.  1.
        2   -1    0    0  501    0  0.00000000000E+00  0.00000000000E+00 -0.13227754538E+04  0.13227754538E+04  0.25500000920E-02 0. -1.
    10030    2    1    2    0    0  0.00000000000E+00  0.00000000000E+00 -0.12760957679E+04  0.13694551397E+04  0.49697783735E+03 0.  0.
        4    1    3    3  502    0 -0.10715141982E+02  0.18132677075E+03 -0.17081151037E+03  0.24934393322E+03  0.12699999809E+01 0.  1.
       -4    1    3    3    0  502  0.10715141982E+02 -0.18132677075E+03 -0.11052842576E+04  0.11201112065E+04  0.12699999809E+01 0. -1.
</event>
<event>
 5   0  0.4631619E-02  0.4998372E+03  0.7818609E-02  0.1013821E+00
       -2   -1    0    0    0  501  0.00000000000E+00  0.00000000000E+00  0.99062903237E+02  0.99062903270E+02  0.25500000920E-02 0.  1.
        2   -1    0    0  501    0  0.00000000000E+00  0.00000000000E+00 -0.63050152368E+03  0.63050152369E+03  0.25500000920E-02 0. -1.
    10030    2    1    2    0    0  0.00000000000E+00  0.00000000000E+00 -0.53143862044E+03  0.72956442696E+03  0.49983721928E+03 0.  0.
        5    1    3    3  502    0 -0.44481292894E+02 -0.10747142604E+02 -0.62426870408E+03  0.62596133377E+03  0.46999998093E+01 0. -1.
       -5    1    3    3    0  502  0.44481292894E+02  0.10747142604E+02  0.92830083633E+02  0.10360309318E+03  0.46999998093E+01 0.  1.
</event>
<event>
 5   0  0.1805500E-02  0.4997384E+03  0.7818609E-02  0.1013847E+00
       -4   -1    0    0    0  501  0.00000000000E+00  0.00000000000E+00  0.76878613605E+03  0.76878718504E+03  0.12699999809E+01 0.  1.
        4   -1    0    0  501    0  0.00000000000E+00  0.00000000000E+00 -0.81205875448E+02  0.81215805772E+02  0.12699999809E+01 0. -1.
    10030    2    1    2    0    0  0.00000000000E+00  0.00000000000E+00  0.68758026060E+03  0.85000299081E+03  0.49973840119E+03 0.  0.
        5    1    3    3  502    0  0.17926999570E+03  0.92394297401E+02  0.93012715750E+02  0.22214385618E+03  0.46999998093E+01 0. -1.
       -5    1    3    3    0  502 -0.17926999570E+03 -0.92394297401E+02  0.59456754485E+03  0.62785913463E+03  0.46999998093E+01 0.  1.
</event>
<event>
 5   0  0.2719671E-02  0.5012616E+03  0.7818609E-02  0.1013450E+00
       -1   -1    0    0    0  501  0.00000000000E+00  0.00000000000E+00  0.66448435231E+02  0.66448435422E+02  0.50400001928E-02 0.  1.
        1   -1    0    0  501    0  0.00000000000E+00  0.00000000000E+00 -0.94533130884E+03  0.94533130885E+03  0.50400001928E-02 0. -1.
    10030    2    1    2    0    0  0.00000000000E+00  0.00000000000E+00 -0.87888287361E+03  0.10117797443E+04  0.50126155389E+03 0.  0.
        2    1    3    3  502    0 -0.49859923004E+02  0.38448729158E+02  0.50224891375E+02  0.80541023186E+02  0.25500000920E-02 0.  1.
       -2    1    3    3    0  502  0.49859923004E+02 -0.38448729158E+02 -0.92910776499E+03  0.93123872109E+03  0.25500000920E-02 0. -1.
</event>
<event>
 5   0  0.2643185E-02  0.4975881E+03  0.7818609E-02  0.1014410E+00
       -1   -1    0    0    0  501  0.00000000000E+00  0.00000000000E+00  0.12639672609E+03  0.12639672619E+03  0.50400001928E-02 0.  1.
        1   -1    0    0  501    0  0.00000000000E+00  0.00000000000E+00 -0.48971584335E+03  0.48971584337E+03  0.50400001928E-02 0. -1.
    10030    2    1    2    0    0  0.00000000000E+00  0.00000000000E+00 -0.36331911726E+03  0.61611256956E+03  0.49758810014E+03 0.  0.
        1    1    3    3  502    0  0.76059214290E+02  0.23586939078E+03 -0.20876183503E+03  0.32403838874E+03  0.50400001928E-02 0. -1.
       -1    1    3    3    0  502 -0.76059214290E+02 -0.23586939078E+03 -0.15455728223E+03  0.29207418082E+03  0.50400001928E-02 0.  1.
</event>
<event>
 5   0  0.2715483E-02  0.5012722E+03  0.7818609E-02  0.1013447E+00
       -1   -1    0    0    0  501  0.00000000000E+00  0.00000000000E+00  0.47441802188E+03  0.47441802191E+03  0.50400001928E-02 0.  1.
        1   -1    0    0  501    0  0.00000000000E+00  0.00000000000E+00 -0.13241159437E+03  0.13241159446E+03  0.50400001928E-02 0. -1.
    10030    2    1    2    0    0  0.00000000000E+00  0.00000000000E+00  0.34200642751E+03  0.60682961637E+03  0.50127216843E+03 0.  0.
        5    1    3    3  502    0 -0.46004181068E+02  0.24197332791E+03  0.11514734257E+03  0.27193469179E+03  0.46999998093E+01 0. -1.
       -5    1    3    3    0  502  0.46004181068E+02 -0.24197332791E+03  0.22685908494E+03  0.33489492459E+03  0.46999998093E+01 0.  1.
</event>
<event>
 5   0  0.2779445E-02  0.4996901E+03  0.7818609E-02  0.1013860E+00
       -1   -1    0    0    0  501  0.00000000000E+00  0.00000000000E+00  0.36756347922E+03  0.36756347925E+03  0.50400001928E-02 0. -1.
        1   -1    0    0  501    0  0.00000000000E+00  0.00000000000E+00 -0.16982794528E+03  0.16982794535E+03  0.50400001928E-02 0.  1.
    10030    2    1    2    0    0  0.00000000000E+00  0.00000000000E+00  0.19773553394E+03  0.53739142460E+03  0.49969010582E+03 0.  0.
        3    1    3    3  502    0 -0.15829307698E+03  0.89984197411E+02 -0.85121121768E+02  0.20099619294E+03  0.10100000352E+00 0.  1.
       -3    1    3    3    0  502  0.15829307698E+03 -0.89984197411E+02  0.28285665571E+03  0.33639523166E+03  0.10100000352E+00 0. -1.
</event>
<event>
 5   0  0.4451135E-02  0.4973032E+03  0.7818609E-02  0.1014485E+00
        2   -1    0    0  501    0  0.00000000000E+00  0.00000000000E+00  0.88475293056E+03  0.88475293056E+03  0.25500000920E-02 0.  1.
       -2   -1    0    0    0  501  0.00000000000E+00  0.00000000000E+00 -0.69881210536E+02  0.69881210583E+02  0.25500000920E-02 0. -1.
    10030    2    1    2    0    0  0.00000000000E+00  0.00000000000E+00  0.81487172002E+03  0.95463414115E+03  0.49730315035E+03 0.  0.
        1    1    3    3  502    0 -0.23632224992E+03 -0.11242375187E+02  0.26057524319E+03  0.35195746077E+03  0.50400001928E-02 0. -1.
       -1    1    3    3    0  502  0.23632224992E+03  0.11242375187E+02  0.55429647684E+03  0.60267668037E+03  0.50400001928E-02 0.  1.
</event>
<event>
 5   0  0.2779445E-02  0.4999834E+03  0.7818609E-02  0.1013783E+00
        1   -1    0    0  501    0  0.00000000000E+00  0.00000000000E+00  0.17601939940E+04  0.17601939940E+04  0.50400001928E-02 0. -1.
       -1   -1    0    0    0  501  0.00000000000E+00  0.00000000000E+00 -0.35505089713E+02  0.35505090071E+02  0.50400001928E-02 0.  1.
    10030    2    1    2    0    0  0.00000000000E+00  0.00000000000E+00  0.17246889043E+04  0.17956990841E+04  0.49998338371E+03 0.  0.
        3    1    3    3  502    0 -0.16494220394E+03  0.16271618010E+03  0.11995141182E+04  0.12216859726E+04  0.10100000352E+00 0. -1.
       -3    1    3    3    0  502  0.16494220394E+03 -0.16271618010E+03  0.52517478613E+03  0.57401311143E+03  0.10100000352E+00 0.  1.
</event>
<event>
 5   0  0.2643185E-02  0.4967500E+03  0.7818609E-02  0.1014631E+00
       -1   -1    0    0    0  501  0.00000000000E+00  0.00000000000E+00  0.96704082128E+02  0.96704082260E+02  0.50400001928E-02 0. -1.
        1   -1    0    0  501    0  0.00000000000E+00  0.00000000000E+00 -0.63792685417E+03  0.63792685419E+03  0.50400001928E-02 0.  1.
    10030    2    1    2    0    0  0.00000000000E+00  0.00000000000E+00 -0.54122277205E+03  0.73463093645E+03  0.49674996106E+03 0.  0.
        1    1    3    3  502    0  0.14829449088E+03 -0.15668046947E+03 -0.45263980559E+03  0.50142080050E+03  0.50400001928E-02 0.  1.
       -1    1    3    3    0  502 -0.14829449088E+03  0.15668046947E+03 -0.88582966452E+02  0.23321013595E+03  0.50400001928E-02 0. -1.
</event>
<event>
 5   0  0.2643185E-02  0.5103428E+03  0.7818609E-02  0.1011114E+00
       -1   -1    0    0    0  501  0.00000000000E+00  0.00000000000E+00  0.18709033559E+03  0.18709033565E+03  0.50400001928E-02 0.  1.
        1   -1    0    0  501    0  0.00000000000E+00  0.00000000000E+00 -0.34802677269E+03  0.34802677273E+03  0.50400001928E-02 0. -1.
    10030    2    1    2    0    0  0.00000000000E+00  0.00000000000E+00 -0.16093643710E+03  0.53511710838E+03  0.51034280919E+03 0.  0.
        1    1    3    3  502    0  0.26187301141E+02  0.25370969626E+03 -0.72478545270E+02  0.26515566045E+03  0.50400001928E-02 0.  1.
       -1    1    3    3    0  502 -0.26187301141E+02 -0.25370969626E+03 -0.88457891833E+02  0.26996144793E+03  0.50400001928E-02 0. -1.
</event>
<event>
 5   0  0.2719671E-02  0.4988403E+03  0.7818609E-02  0.1014082E+00
        1   -1    0    0  501    0  0.00000000000E+00  0.00000000000E+00  0.46277444701E+03  0.46277444704E+03  0.50400001928E-02 0. -1.
       -1   -1    0    0    0  501  0.00000000000E+00  0.00000000000E+00 -0.13442920911E+03  0.13442920921E+03  0.50400001928E-02 0.  1.
    10030    2    1    2    0    0  0.00000000000E+00  0.00000000000E+00  0.32834523790E+03  0.59720365625E+03  0.49884026681E+03 0.  0.
        2    1    3    3  502    0  0.32430719789E+02 -0.24609351625E+03  0.13493012225E+03  0.28252417281E+03  0.25500000920E-02 0.  1.
       -2    1    3    3    0  502 -0.32430719789E+02  0.24609351625E+03  0.19341511565E+03  0.31467948344E+03  0.25500000920E-02 0. -1.
</event>
<event>
 5   0  0.2779445E-02  0.4999937E+03  0.7818609E-02  0.1013781E+00
        1   -1    0    0  501    0  0.00000000000E+00  0.00000000000E+00  0.23949462045E+03  0.23949462050E+03  0.50400001928E-02 0. -1.
       -1   -1    0    0    0  501  0.00000000000E+00  0.00000000000E+00 -0.26095963769E+03  0.26095963774E+03  0.50400001928E-02 0.  1.
    10030    2    1    2    0    0  0.00000000000E+00  0.00000000000E+00 -0.21465017244E+02  0.50045425825E+03  0.49999371759E+03 0.  0.
        3    1    3    3  502    0  0.71016233194E+02 -0.74123928347E+02  0.21742647658E+03  0.24044114675E+03  0.10100000352E+00 0. -1.
       -3    1    3    3    0  502 -0.71016233194E+02  0.74123928347E+02 -0.23889149382E+03  0.26001311150E+03  0.10100000352E+00 0.  1.
</event>
<event>
 5   0  0.4451135E-02  0.4984758E+03  0.7818609E-02  0.1014178E+00
       -2   -1    0    0    0  501  0.00000000000E+00  0.00000000000E+00  0.24175840160E+02  0.24175840294E+02  0.25500000920E-02 0.  1.
        2   -1    0    0  501    0  0.00000000000E+00  0.00000000000E+00 -0.25694882199E+04  0.25694882199E+04  0.25500000920E-02 0. -1.
    10030    2    1    2    0    0  0.00000000000E+00  0.00000000000E+00 -0.25453123797E+04  0.25936640602E+04  0.49847582358E+03 0.  0.
        1    1    3    3  502    0  0.60344701907E+02  0.11313044390E+03 -0.16059019024E+03  0.20549741997E+03  0.50400001928E-02 0. -1.
       -1    1    3    3    0  502 -0.60344701907E+02 -0.11313044390E+03 -0.23847221895E+04  0.23881666402E+04  0.50400001928E-02 0.  1.
</event>
<event>
 5   0  0.4409622E-02  0.4848138E+03  0.7818609E-02  0.1017821E+00
        2   -1    0    0  501    0  0.00000000000E+00  0.00000000000E+00  0.19298745603E+04  0.19298745603E+04  0.25500000920E-02 0.  1.
       -2   -1    0    0    0  501  0.00000000000E+00  0.00000000000E+00 -0.30448153186E+02  0.30448153293E+02  0.25500000920E-02 0. -1.
    10030    2    1    2    0    0  0.00000000000E+00  0.00000000000E+00  0.18994264071E+04  0.19603227136E+04  0.48481384612E+03 0.  0.
        3    1    3    3  502    0 -0.13890967759E+02  0.23597609846E+03  0.73258955829E+03  0.76978253367E+03  0.10100000352E+00 0. -1.
       -3    1    3    3    0  502  0.13890967759E+02 -0.23597609846E+03  0.11668368488E+04  0.11905401799E+04  0.10100000352E+00 0.  1.
</event>
<event>
 5   0  0.2779445E-02  0.4754009E+03  0.7818609E-02  0.1020407E+00
        1   -1    0    0  501    0  0.00000000000E+00  0.00000000000E+00  0.11288410733E+03  0.11288410744E+03  0.50400001928E-02 0. -1.
       -1   -1    0    0    0  501  0.00000000000E+00  0.00000000000E+00 -0.50052667536E+03  0.50052667539E+03  0.50400001928E-02 0.  1.
    10030    2    1    2    0    0  0.00000000000E+00  0.00000000000E+00 -0.38764256803E+03  0.61341078283E+03  0.47540091286E+03 0.  0.
        3    1    3    3  502    0 -0.39653178948E+02 -0.20334045807E+03 -0.34419424277E+03  0.40173300020E+03  0.10100000352E+00 0.  1.
       -3    1    3    3    0  502  0.39653178948E+02  0.20334045807E+03 -0.43448325256E+02  0.21167778263E+03  0.10100000352E+00 0. -1.
</event>
<event>
 5   0  0.1805500E-02  0.4925885E+03  0.7818609E-02  0.1015732E+00
       -4   -1    0    0    0  501  0.00000000000E+00  0.00000000000E+00  0.40074112700E+03  0.40074313939E+03  0.12699999809E+01 0. -1.
        4   -1    0    0  501    0  0.00000000000E+00  0.00000000000E+00 -0.15136661445E+03  0.15137194215E+03  0.12699999809E+01 0.  1.
    10030    2    1    2    0    0  0.00000000000E+00  0.00000000000E+00  0.24937451255E+03  0.55211508154E+03  0.49258848520E+03 0.  0.
        2    1    3    3  502    0 -0.60070979314E+02  0.17376547774E+03  0.30837547442E+03  0.35902422905E+03  0.25500000920E-02 0. -1.
       -2    1    3    3    0  502  0.60070979314E+02 -0.17376547774E+03 -0.59000961870E+02  0.19309085250E+03  0.25500000920E-02 0.  1.
</event>
<event>
 5   0  0.2719671E-02  0.4976228E+03  0.7818609E-02  0.1014401E+00
        1   -1    0    0  501    0  0.00000000000E+00  0.00000000000E+00  0.42500018580E+03  0.42500018583E+03  0.50400001928E-02 0. -1.
       -1   -1    0    0    0  501  0.00000000000E+00  0.00000000000E+00 -0.14566375999E+03  0.14566376008E+03  0.50400001928E-02 0.  1.
    10030    2    1    2    0    0  0.00000000000E+00  0.00000000000E+00  0.27933642581E+03  0.57066394591E+03  0.49762284954E+03 0.  0.
        2    1    3    3  502    0  0.20303343851E+03  0.13451559299E+03  0.19803135347E+03  0.31390036456E+03  0.25500000920E-02 0. -1.
       -2    1    3    3    0  502 -0.20303343851E+03 -0.13451559299E+03  0.81305072340E+02  0.25676358135E+03  0.25500000920E-02 0.  1.
</event>
<event>
 5   0  0.2719671E-02  0.5009029E+03  0.7818609E-02  0.1013544E+00
       -1   -1    0    0    0  501  0.00000000000E+00  0.00000000000E+00  0.57956486895E+03  0.57956486897E+03  0.50400001928E-02 0. -1.
        1   -1    0    0  501    0  0.00000000000E+00  0.00000000000E+00 -0.10822935358E+03  0.10822935370E+03  0.50400001928E-02 0.  1.
    10030    2    1    2    0    0  0.00000000000E+00  0.00000000000E+00  0.47133551536E+03  0.68779422267E+03  0.50090290945E+03 0.  0.
        2    1    3    3  502    0  0.67983105718E+02 -0.16493075823E+03  0.47704636643E+03  0.50931040968E+03  0.25500000920E-02 0. -1.
       -2    1    3    3    0  502 -0.67983105718E+02  0.16493075823E+03 -0.57108510675E+01  0.17848381299E+03  0.25500000920E-02 0.  1.
</event>
<event>
 5   0  0.2643185E-02  0.5002786E+03  0.7818609E-02  0.1013706E+00
       -1   -1    0    0    0  501  0.00000000000E+00  0.00000000000E+00  0.33759391781E+02  0.33759392157E+02  0.50400001928E-02 0.  1.
        1   -1    0    0  501    0  0.00000000000E+00  0.00000000000E+00 -0.18534002131E+04  0.18534002131E+04  0.50400001928E-02 0. -1.
    10030    2    1    2    0    0  0.00000000000E+00  0.00000000000E+00 -0.18196408213E+04  0.18871596053E+04  0.50027857952E+03 0.  0.
        1    1    3    3  502    0 -0.11805697162E+03  0.12244876092E+03 -0.21796531786E+03  0.27647789679E+03  0.50400001928E-02 0.  1.
       -1    1    3    3    0  502  0.11805697162E+03 -0.12244876092E+03 -0.16016755035E+04  0.16106817085E+04  0.50400001928E-02 0. -1.
</event>
<event>
 5   0  0.2779445E-02  0.4997215E+03  0.7818609E-02  0.1013852E+00
       -1   -1    0    0    0  501  0.00000000000E+00  0.00000000000E+00  0.49595906451E+03  0.49595906454E+03  0.50400001928E-02 0. -1.
        1   -1    0    0  501    0  0.00000000000E+00  0.00000000000E+00 -0.12587809648E+03  0.12587809659E+03  0.50400001928E-02 0.  1.
    10030    2    1    2    0    0  0.00000000000E+00  0.00000000000E+00  0.37008096803E+03  0.62183716112E+03  0.49972145447E+03 0.  0.
        3    1    3    3  502    0 -0.19896088208E+03 -0.84842096438E+02  0.34069469408E+03  0.40355482738E+03  0.10100000352E+00 0. -1.
       -3    1    3    3    0  502  0.19896088208E+03  0.84842096438E+02  0.29386273951E+02  0.21828233374E+03  0.10100000352E+00 0.  1.
</event>
<event>
 5   0  0.4631619E-02  0.5034893E+03  0.7818609E-02  0.1012872E+00
       -2   -1    0    0    0  501  0.00000000000E+00  0.00000000000E+00  0.49117214526E+02  0.49117214592E+02  0.25500000920E-02 0. -1.
        2   -1    0    0  501    0  0.00000000000E+00  0.00000000000E+00 -0.12902882198E+04  0.12902882198E+04  0.25500000920E-02 0.  1.
    10030    2    1    2    0    0  0.00000000000E+00  0.00000000000E+00 -0.12411710052E+04  0.13394054344E+04  0.50348927828E+03 0.  0.
        5    1    3    3  502    0 -0.21159325006E+03  0.98033434645E+02 -0.36861910037E+03  0.43621598886E+03  0.46999998093E+01 0. -1.
       -5    1    3    3    0  502  0.21159325006E+03 -0.98033434645E+02 -0.87255190487E+03  0.90318944550E+03  0.46999998093E+01 0.  1.
</event>
<event>
 5   0  0.4519539E-02  0.4988886E+03  0.7818609E-02  0.1014069E+00
        2   -1    0    0  501    0  0.00000000000E+00  0.00000000000E+00  0.10612259033E+04  0.10612259033E+04  0.25500000920E-02 0. -1.
       -2   -1    0    0    0  501  0.00000000000E+00  0.00000000000E+00 -0.58632633999E+02  0.58632634055E+02  0.25500000920E-02 0.  1.
    10030    2    1    2    0    0  0.00000000000E+00  0.00000000000E+00  0.10025932693E+04  0.11198585374E+04  0.49888864494E+03 0.  0.
        4    1    3    3  502    0 -0.11082730287E+03  0.10083202359E+02  0.10024068912E+04  0.10085660863E+04  0.12699999809E+01 0. -1.
       -4    1    3    3    0  502  0.11082730287E+03 -0.10083202359E+02  0.18637813234E+00  0.11129245108E+03  0.12699999809E+01 0.  1.
</event>
<event>
 5   0  0.2715483E-02  0.5023619E+03  0.7818609E-02  0.1013164E+00
       -1   -1    0    0    0  501  0.00000000000E+00  0.00000000000E+00  0.65845153934E+02  0.65845154127E+02  0.50400001928E-02 0.  1.
        1   -1    0    0  501    0  0.00000000000E+00  0.00000000000E+00 -0.95818547825E+03  0.95818547826E+03  0.50400001928E-02 0. -1.
    10030    2    1    2    0    0  0.00000000000E+00  0.00000000000E+00 -0.89234032431E+03  0.10240306324E+04  0.50236190308E+03 0.  0.
        5    1    3    3  502    0  0.14815271610E+03  0.20001991075E+03 -0.37817726884E+03  0.45276630689E+03  0.46999998093E+01 0. -1.
       -5    1    3    3    0  502 -0.14815271610E+03 -0.20001991075E+03 -0.51416305547E+03  0.57126432550E+03  0.46999998093E+01 0.  1.
</event>
<event>
 5   0  0.2715483E-02  0.5005357E+03  0.7818609E-02  0.1013639E+00
        1   -1    0    0  501    0  0.00000000000E+00  0.00000000000E+00  0.89187859928E+03  0.89187859930E+03  0.50400001928E-02 0.  1.
       -1   -1    0    0    0  501  0.00000000000E+00  0.00000000000E+00 -0.70227039501E+02  0.70227039682E+02  0.50400001928E-02 0. -1.
    10030    2    1    2    0    0  0.00000000000E+00  0.00000000000E+00  0.82165155978E+03  0.96210563898E+03  0.50053568790E+03 0.  0.
        5    1    3    3  502    0 -0.20186829357E+03  0.73044427933E+02  0.16372937505E+03  0.27002906261E+03  0.46999998093E+01 0.  1.
       -5    1    3    3    0  502  0.20186829357E+03 -0.73044427933E+02  0.65792218473E+03  0.69207657637E+03  0.46999998093E+01 0. -1.
</event>
<event>
 5   0  0.4409622E-02  0.4990585E+03  0.7818609E-02  0.1014025E+00
        2   -1    0    0  501    0  0.00000000000E+00  0.00000000000E+00  0.45877188556E+03  0.45877188557E+03  0.25500000920E-02 0.  1.
       -2   -1    0    0    0  501  0.00000000000E+00  0.00000000000E+00 -0.13572068601E+03  0.13572068603E+03  0.25500000920E-02 0. -1.
    10030    2    1    2    0    0  0.00000000000E+00  0.00000000000E+00  0.32305119956E+03  0.59449257160E+03  0.49905845365E+03 0.  0.
        3    1    3    3  502    0  0.64551945541E+02  0.89486430264E+01  0.44845537470E+03  0.45316582526E+03  0.10100000352E+00 0.  1.
       -3    1    3    3    0  502 -0.64551945541E+02 -0.89486430264E+01 -0.12540417515E+03  0.14132674634E+03  0.10100000352E+00 0. -1.
</event>
<event>
 5   0  0.4519539E-02  0.4953502E+03  0.7818609E-02  0.1015000E+00
       -2   -1    0    0    0  501  0.00000000000E+00  0.00000000000E+00  0.58548925673E+02  0.58548925728E+02  0.25500000920E-02 0.  1.
        2   -1    0    0  501    0  0.00000000000E+00  0.00000000000E+00 -0.10477211171E+04  0.10477211171E+04  0.25500000920E-02 0. -1.
    10030    2    1    2    0    0  0.00000000000E+00  0.00000000000E+00 -0.98917219138E+03  0.11062700428E+04  0.49535016237E+03 0.  0.
        4    1    3    3  502    0  0.50148614730E+02  0.23703938331E+03 -0.60930908264E+03  0.65571466652E+03  0.12699999809E+01 0. -1.
       -4    1    3    3    0  502 -0.50148614730E+02 -0.23703938331E+03 -0.37986310874E+03  0.45055537626E+03  0.12699999809E+01 0.  1.
</event>
<event>
 5   0  0.4519539E-02  0.4989096E+03  0.7818609E-02  0.1014064E+00
       -2   -1    0    0    0  501  0.00000000000E+00  0.00000000000E+00  0.55931150136E+03  0.55931150136E+03  0.25500000920E-02 0.  1.
        2   -1    0    0  501    0  0.00000000000E+00  0.00000000000E+00 -0.11125765816E+03  0.11125765819E+03  0.25500000920E-02 0. -1.
    10030    2    1    2    0    0  0.00000000000E+00  0.00000000000E+00  0.44805384320E+03  0.67056915955E+03  0.49890956229E+03 0.  0.
        4    1    3    3  502    0  0.56812061035E+01 -0.54163159588E+02 -0.10316541609E+03  0.11666464733E+03  0.12699999809E+01 0. -1.
       -4    1    3    3    0  502 -0.56812061035E+01  0.54163159588E+02  0.55121925929E+03  0.55390451223E+03  0.12699999809E+01 0.  1.
</event>
<event>
 5   0  0.2723308E-02  0.5002183E+03  0.7818609E-02  0.1013722E+00
        1   -1    0    0  501    0  0.00000000000E+00  0.00000000000E+00  0.14361127466E+04  0.14361127467E+04  0.50400001928E-02 0.  1.
       -1   -1    0    0    0  501  0.00000000000E+00  0.00000000000E+00 -0.43558274155E+02  0.43558274447E+02  0.50400001928E-02 0. -1.
    10030    2    1    2    0    0  0.00000000000E+00  0.00000000000E+00  0.13925544725E+04  0.14796710211E+04  0.50021832417E+03 0.  0.
        4    1    3    3  502    0  0.20543915328E+02  0.15465514910E+03  0.12745190653E+04  0.12840329935E+04  0.12699999809E+01 0.  1.
       -4    1    3    3    0  502 -0.20543915328E+02 -0.15465514910E+03  0.11803540716E+03  0.19563802760E+03  0.12699999809E+01 0. -1.
</event>
<event>
 5   0  0.2779445E-02  0.4964605E+03  0.7818609E-02  0.1014707E+00
        1   -1    0    0  501    0  0.00000000000E+00  0.00000000000E+00  0.79247533696E+02  0.79247533856E+02  0.50400001928E-02 0. -1.
       -1   -1    0    0    0  501  0.00000000000E+00  0.00000000000E+00 -0.77754167482E+03  0.77754167484E+03  0.50400001928E-02 0.  1.
    10030    2    1    2    0    0  0.00000000000E+00  0.00000000000E+00 -0.69829414113E+03  0.85678920870E+03  0.49646051264E+03 0.  0.
        3    1    3    3  502    0  0.44665814136E+02 -0.17883166248E+03 -0.62216015954E+02  0.19454213246E+03  0.10100000352E+00 0. -1.
       -3    1    3    3    0  502 -0.44665814136E+02  0.17883166248E+03 -0.63607812517E+03  0.66224707624E+03  0.10100000352E+00 0.  1.
</event>
<event>
 5   0  0.2643185E-02  0.5009959E+03  0.7818609E-02  0.1013519E+00
       -1   -1    0    0    0  501  0.00000000000E+00  0.00000000000E+00  0.62914683252E+02  0.62914683454E+02  0.50400001928E-02 0.  1.
        1   -1    0    0  501    0  0.00000000000E+00  0.00000000000E+00 -0.99737025355E+03  0.99737025356E+03  0.50400001928E-02 0. -1.
    10030    2    1    2    0    0  0.00000000000E+00  0.00000000000E+00 -0.93445557029E+03  0.10602849370E+04  0.50099594290E+03 0.  0.
        1    1    3    3  502    0  0.30326494650E+02  0.24757178785E+03 -0.51630472624E+03  0.57339520122E+03  0.50400001928E-02 0.  1.
       -1    1    3    3    0  502 -0.30326494650E+02 -0.24757178785E+03 -0.41815084405E+03  0.48688973579E+03  0.50400001928E-02 0. -1.
</event>
<event>
 5   0  0.4451135E-02  0.5014355E+03  0.7818609E-02  0.1013405E+00
       -2   -1    0    0    0  501  0.00000000000E+00  0.00000000000E+00  0.12420571206E+03  0.12420571208E+03  0.25500000920E-02 0. -1.
        2   -1    0    0  501    0  0.00000000000E+00  0.00000000000E+00 -0.50609089528E+03  0.50609089528E+03  0.25500000920E-02 0.  1.
    10030    2    1    2    0    0  0.00000000000E+00  0.00000000000E+00 -0.38188518322E+03  0.63029660737E+03  0.50143545955E+03 0.  0.
        1    1    3    3  502    0 -0.13692330847E+03  0.20998998654E+03 -0.19590619239E+03  0.31815565859E+03  0.50400001928E-02 0.  1.
       -1    1    3    3    0  502  0.13692330847E+03 -0.20998998654E+03 -0.18597899083E+03  0.31214094878E+03  0.50400001928E-02 0. -1.
</event>
<event>
 5   0  0.2723308E-02  0.5027894E+03  0.7818609E-02  0.1013053E+00
        1   -1    0    0  501    0  0.00000000000E+00  0.00000000000E+00  0.10051844150E+04  0.10051844151E+04  0.50400001928E-02 0. -1.
       -1   -1    0    0    0  501  0.00000000000E+00  0.00000000000E+00 -0.62873341367E+02  0.62873341569E+02  0.50400001928E-02 0.  1.
    10030    2    1    2    0    0  0.00000000000E+00  0.00000000000E+00  0.94231107367E+03  0.10680577566E+04  0.50278943099E+03 0.  0.
        4    1    3    3  502    0 -0.68045437942E+01 -0.52428901651E+02 -0.50923685684E+02  0.73416116815E+02  0.12699999809E+01 0.  1.
       -4    1    3    3    0  502  0.68045437942E+01  0.52428901651E+02  0.99323475935E+03  0.99464163981E+03  0.12699999809E+01 0. -1.
</event>
<event>
 5   0  0.1805500E-02  0.5008051E+03  0.7818609E-02  0.1013569E+00
        3   -1    0    0  501    0  0.00000000000E+00  0.00000000000E+00  0.50811586865E+02  0.50811687246E+02  0.10100000352E+00 0.  1.
       -3   -1    0    0    0  501  0.00000000000E+00  0.00000000000E+00 -0.12339977074E+04  0.12339977116E+04  0.10100000352E+00 0. -1.
    10030    2    1    2    0    0  0.00000000000E+00  0.00000000000E+00 -0.11831861206E+04  0.12848093988E+04  0.50080514711E+03 0.  0.
        1    1    3    3  502    0 -0.10554835278E+03  0.21326533392E+02 -0.11621628469E+02  0.10830668527E+03  0.50400001928E-02 0.  1.
       -1    1    3    3    0  502  0.10554835278E+03 -0.21326533392E+02 -0.11715644921E+04  0.11765027136E+04  0.50400001928E-02 0. -1.
</event>
<event>
 5   0  0.4409622E-02  0.4921525E+03  0.7818609E-02  0.1015848E+00
       -2   -1    0    0    0  501  0.00000000000E+00  0.00000000000E+00  0.68844735173E+02  0.68844735220E+02  0.25500000920E-02 0.  1.
        2   -1    0    0  501    0  0.00000000000E+00  0.00000000000E+00 -0.87956657090E+03  0.87956657090E+03  0.25500000920E-02 0. -1.
    10030    2    1    2    0    0  0.00000000000E+00  0.00000000000E+00 -0.81072183573E+03  0.94841130612E+03  0.49215252784E+03 0.  0.
        3    1    3    3  502    0  0.16334277190E+03  0.76626023784E+02 -0.82894408029E+02  0.19855453089E+03  0.10100000352E+00 0.  1.
       -3    1    3    3    0  502 -0.16334277190E+03 -0.76626023784E+02 -0.72782742770E+03  0.74985677523E+03  0.10100000352E+00 0. -1.
</event>
<event>
 5   0  0.2779445E-02  0.4969360E+03  0.7818609E-02  0.1014582E+00
       -1   -1    0    0    0  501  0.00000000000E+00  0.00000000000E+00  0.17013095108E+03  0.17013095116E+03  0.50400001928E-02 0.  1.
        1   -1    0    0  501    0  0.00000000000E+00  0.00000000000E+00 -0.36287542467E+03  0.36287542470E+03  0.50400001928E-02 0. -1.
    10030    2    1    2    0    0  0.00000000000E+00  0.00000000000E+00 -0.19274447358E+03  0.53300637586E+03  0.49693597637E+03 0.  0.
        3    1    3    3  502    0 -0.20654404226E+03  0.12393613297E+03 -0.16175356187E+03  0.29014622421E+03  0.10100000352E+00 0. -1.
       -3    1    3    3    0  502  0.20654404226E+03 -0.12393613297E+03 -0.30990911712E+02  0.24286015164E+03  0.10100000352E+00 0.  1.
</event>
<event>
 5   0  0.4409622E-02  0.5012197E+03  0.7818609E-02  0.1013461E+00
        2   -1    0    0  501    0  0.00000000000E+00  0.00000000000E+00  0.75475029053E+03  0.75475029054E+03  0.25500000920E-02 0. -1.
       -2   -1    0    0    0  501  0.00000000000E+00  0.00000000000E+00 -0.83213344315E+02  0.83213344354E+02  0.25500000920E-02 0.  1.
    10030    2    1    2    0    0  0.00000000000E+00  0.00000000000E+00  0.67153694622E+03  0.83796363489E+03  0.50121969561E+03 0.  0.
        3    1    3    3  502    0 -0.10721554792E+03  0.85682653341E+01  0.71420025691E+03  0.72225383769E+03  0.10100000352E+00 0. -1.
       -3    1    3    3    0  502  0.10721554792E+03 -0.85682653341E+01 -0.42663310693E+02  0.11570979720E+03  0.10100000352E+00 0.  1.
</event>
<event>
 5   0  0.4451135E-02  0.4899450E+03  0.7818609E-02  0.1016437E+00
       -2   -1    0    0    0  501  0.00000000000E+00  0.00000000000E+00  0.54199949223E+02  0.54199949283E+02  0.25500000920E-02 0.  1.
        2   -1    0    0  501    0  0.00000000000E+00  0.00000000000E+00 -0.11072247735E+04  0.11072247735E+04  0.25500000920E-02 0. -1.
    10030    2    1    2    0    0  0.00000000000E+00  0.00000000000E+00 -0.10530248243E+04  0.11614247228E+04  0.48994500320E+03 0.  0.
        1    1    3    3  502    0  0.11237955704E+03 -0.21674269028E+03 -0.47880849694E+03  0.53746082220E+03  0.50400001928E-02 0. -1.
       -1    1    3    3    0  502 -0.11237955704E+03  0.21674269028E+03 -0.57421632736E+03  0.62396390061E+03  0.50400001928E-02 0.  1.
</event>
<event>
 5   0  0.2715483E-02  0.4964597E+03  0.7818609E-02  0.1014707E+00
       -1   -1    0    0    0  501  0.00000000000E+00  0.00000000000E+00  0.91117189131E+02  0.91117189271E+02  0.50400001928E-02 0.  1.
        1   -1    0    0  501    0  0.00000000000E+00  0.00000000000E+00 -0.67625070277E+03  0.67625070279E+03  0.50400001928E-02 0. -1.
    10030    2    1    2    0    0  0.00000000000E+00  0.00000000000E+00 -0.58513351364E+03  0.76736789206E+03  0.49645971939E+03 0.  0.
        5    1    3    3  502    0 -0.19780747608E+03 -0.12813444767E+03 -0.17234365619E+03  0.29201140406E+03  0.46999998093E+01 0. -1.
       -5    1    3    3    0  502  0.19780747608E+03  0.12813444767E+03 -0.41278985744E+03  0.47535648800E+03  0.46999998093E+01 0.  1.
</event>
<event>
 5   0  0.2719671E-02  0.4966701E+03  0.7818609E-02  0.1014652E+00
       -1   -1    0    0    0  501  0.00000000000E+00  0.00000000000E+00  0.24655259248E+03  0.24655259253E+03  0.50400001928E-02 0. -1.
        1   -1    0    0  501    0  0.00000000000E+00  0.00000000000E+00 -0.25013040911E+03  0.25013040916E+03  0.50400001928E-02 0.  1.
    10030    2    1    2    0    0  0.00000000000E+00  0.00000000000E+00 -0.35778166311E+01  0.49668300169E+03  0.49667011526E+03 0.  0.
        2    1    3    3  502    0 -0.13063850007E+03 -0.18312850352E+03 -0.10699541322E+03  0.24909934756E+03  0.25500000920E-02 0.  1.
       -2    1    3    3    0  502  0.13063850007E+03  0.18312850352E+03  0.10341759659E+03  0.24758365413E+03  0.25500000920E-02 0. -1.
</event>
<event>
 5   0  0.4534223E-02  0.5003476E+03  0.7818609E-02  0.1013688E+00
       -2   -1    0    0    0  501  0.00000000000E+00  0.00000000000E+00  0.49399054072E+02  0.49399054137E+02  0.25500000920E-02 0.  1.
        2   -1    0    0  501    0  0.00000000000E+00  0.00000000000E+00 -0.12669663946E+04  0.12669663946E+04  0.25500000920E-02 0. -1.
    10030    2    1    2    0    0  0.00000000000E+00  0.00000000000E+00 -0.12175673405E+04  0.13163654487E+04  0.50034764505E+03 0.  0.
        2    1    3    3  502    0 -0.44046530973E+02  0.19554938064E+03 -0.10026049933E+04  0.10224462968E+04  0.25500000920E-02 0. -1.
       -2    1    3    3    0  502  0.44046530973E+02 -0.19554938064E+03 -0.21496234715E+03  0.29391915191E+03  0.25500000920E-02 0.  1.
</event>
<event>
 5   0  0.4534223E-02  0.5018787E+03  0.7818609E-02  0.1013290E+00
       -2   -1    0    0    0  501  0.00000000000E+00  0.00000000000E+00  0.83940964399E+02  0.83940964438E+02  0.25500000920E-02 0. -1.
        2   -1    0    0  501    0  0.00000000000E+00  0.00000000000E+00 -0.75017660057E+03  0.75017660058E+03  0.25500000920E-02 0.  1.
    10030    2    1    2    0    0  0.00000000000E+00  0.00000000000E+00 -0.66623563617E+03  0.83411756501E+03  0.50187866000E+03 0.  0.
        2    1    3    3  502    0 -0.20691798430E+03  0.13777170076E+03 -0.27616090234E+03  0.37156552282E+03  0.25500000920E-02 0. -1.
       -2    1    3    3    0  502  0.20691798430E+03 -0.13777170076E+03 -0.39007473383E+03  0.46255204220E+03  0.25500000920E-02 0.  1.
</event>
<event>
 5   0  0.2643185E-02  0.5023333E+03  0.7818609E-02  0.1013172E+00
        1   -1    0    0  501    0  0.00000000000E+00  0.00000000000E+00  0.25995048476E+03  0.25995048481E+03  0.50400001928E-02 0.  1.
       -1   -1    0    0    0  501  0.00000000000E+00  0.00000000000E+00 -0.24267960703E+03  0.24267960708E+03  0.50400001928E-02 0. -1.
    10030    2    1    2    0    0  0.00000000000E+00  0.00000000000E+00  0.17270877733E+02  0.50263009189E+03  0.50233328185E+03 0.  0.
        1    1    3    3  502    0 -0.36737722906E+02 -0.45991436496E+02  0.25295139013E+03  0.25970998885E+03  0.50400001928E-02 0.  1.
       -1    1    3    3    0  502  0.36737722906E+02  0.45991436496E+02 -0.23568051239E+03  0.24292010304E+03  0.50400001928E-02 0. -1.
</event>
<event>
 5   0  0.2719671E-02  0.4985140E+03  0.7818609E-02  0.1014168E+00
       -1   -1    0    0    0  501  0.00000000000E+00  0.00000000000E+00  0.22534493113E+03  0.22534493119E+03  0.50400001928E-02 0. -1.
        1   -1    0    0  501    0  0.00000000000E+00  0.00000000000E+00 -0.27570644998E+03  0.27570645002E+03  0.50400001928E-02 0.  1.
    10030    2    1    2    0    0  0.00000000000E+00  0.00000000000E+00 -0.50361518847E+02  0.50105138121E+03  0.49851399583E+03 0.  0.
        2    1    3    3  502    0  0.18338908083E+03 -0.64755489673E+02  0.13151086214E+03  0.23477635162E+03  0.25500000920E-02 0. -1.
       -2    1    3    3    0  502 -0.18338908083E+03  0.64755489673E+02 -0.18187238099E+03  0.26627502959E+03  0.25500000920E-02 0.  1.
</event>
<event>
 5   0  0.4451135E-02  0.4997364E+03  0.7818609E-02  0.1013848E+00
        2   -1    0    0  501    0  0.00000000000E+00  0.00000000000E+00  0.30621899293E+03  0.30621899294E+03  0.25500000920E-02 0.  1.
       -2   -1    0    0    0  501  0.00000000000E+00  0.00000000000E+00 -0.20388714241E+03  0.20388714242E+03  0.25500000920E-02 0. -1.
    10030    2    1    2    0    0  0.00000000000E+00  0.00000000000E+00  0.10233185053E+03  0.51010613537E+03  0.49973639222E+03 0.  0.
        1    1    3    3  502    0 -0.57557879291E+02  0.24310440957E+03  0.46438188712E+02  0.25410464147E+03  0.50400001928E-02 0.  1.
       -1    1    3    3    0  502  0.57557879291E+02 -0.24310440957E+03  0.55893661814E+02  0.25600149390E+03  0.50400001928E-02 0. -1.
</event>
<event>
 5   0  0.2723308E-02  0.5025913E+03  0.7818609E-02  0.1013105E+00
        1   -1    0    0  501    0  0.00000000000E+00  0.00000000000E+00  0.49084133443E+03  0.49084133446E+03  0.50400001928E-02 0.  1.
       -1   -1    0    0    0  501  0.00000000000E+00  0.00000000000E+00 -0.12865564627E+03  0.12865564637E+03  0.50400001928E-02 0. -1.
    10030    2    1    2    0    0  0.00000000000E+00  0.00000000000E+00  0.36218568816E+03  0.61949698083E+03  0.50259132160E+03 0.  0.
        4    1    3    3  502    0  0.12178461226E+03  0.16729099696E+03  0.35684240655E+03  0.41249955813E+03  0.12699999809E+01 0.  1.
       -4    1    3    3    0  502 -0.12178461226E+03 -0.16729099696E+03  0.53432816109E+01  0.20699742270E+03  0.12699999809E+01 0. -1.
</event>
<event>
 5   0  0.4451135E-02  0.4984194E+03  0.7818609E-02  0.1014192E+00
        2   -1    0    0  501    0  0.00000000000E+00  0.00000000000E+00  0.14362661417E+04  0.14362661417E+04  0.25500000920E-02 0. -1.
       -2   -1    0    0    0  501  0.00000000000E+00  0.00000000000E+00 -0.43240917694E+02  0.43240917769E+02  0.25500000920E-02 0.  1.
    10030    2    1    2    0    0  0.00000000000E+00  0.00000000000E+00  0.13930252240E+04  0.14795070594E+04  0.49841936590E+03 0.  0.
        1    1    3    3  502    0 -0.85467757119E+02 -0.23192447007E+03  0.60209288096E+03  0.65085292859E+03  0.50400001928E-02 0. -1.
       -1    1    3    3    0  502  0.85467757119E+02  0.23192447007E+03  0.79093234301E+03  0.82865413085E+03  0.50400001928E-02 0.  1.
</event>
<event>
 5   0  0.2643185E-02  0.4997638E+03  0.7818609E-02  0.1013841E+00
        1   -1    0    0  501    0  0.00000000000E+00  0.00000000000E+00  0.98082466799E+03  0.98082466801E+03  0.50400001928E-02 0. -1.
       -1   -1    0    0    0  501  0.00000000000E+00  0.00000000000E+00 -0.63661686306E+02  0.63661686505E+02  0.50400001928E-02 0.  1.
    10030    2    1    2    0    0  0.00000000000E+00  0.00000000000E+00  0.91716298169E+03  0.10444863545E+04  0.49976375397E+03 0.  0.
        1    1    3    3  502    0  0.24807503632E+03  0.10229113656E+02  0.39965002340E+03  0.47049548313E+03  0.50400001928E-02 0.  1.
       -1    1    3    3    0  502 -0.24807503632E+03 -0.10229113656E+02  0.51751295829E+03  0.57399087139E+03  0.50400001928E-02 0. -1.
</event>
<event>
 5   0  0.4519539E-02  0.5015732E+03  0.7818609E-02  0.1013369E+00
       -2   -1    0    0    0  501  0.00000000000E+00  0.00000000000E+00  0.13841732627E+03  0.13841732629E+03  0.25500000920E-02 0.  1.
        2   -1    0    0  501    0  0.00000000000E+00  0.00000000000E+00 -0.45437894697E+03  0.45437894698E+03  0.25500000920E-02 0. -1.
    10030    2    1    2    0    0  0.00000000000E+00  0.00000000000E+00 -0.31596162070E+03  0.59279627327E+03  0.50157320089E+03 0.  0.
        4    1    3    3  502    0  0.23420318185E+03  0.62834455370E+02 -0.82368522571E+02  0.25609663329E+03  0.12699999809E+01 0.  1.
       -4    1    3    3    0  502 -0.23420318185E+03 -0.62834455370E+02 -0.23359309813E+03  0.33669963999E+03  0.12699999809E+01 0. -1.
</event>
<event>
 5   0  0.2715483E-02  0.4984912E+03  0.7818609E-02  0.1014173E+00
        1   -1    0    0  501    0  0.00000000000E+00  0.00000000000E+00  0.39124872022E+03  0.39124872025E+03  0.50400001928E-02 0.  1.
       -1   -1    0    0    0  501  0.00000000000E+00  0.00000000000E+00 -0.15878226439E+03  0.15878226447E+03  0.50400001928E-02 0. -1.
    10030    2    1    2    0    0  0.00000000000E+00  0.00000000000E+00  0.23246645583E+03  0.55003098472E+03  0.49849115446E+03 0.  0.
        5    1    3    3  502    0 -0.14312138549E+03  0.11991527078E+03 -0.65869405955E+02  0.19805118477E+03  0.46999998093E+01 0. -1.
       -5    1    3    3    0  502  0.14312138549E+03 -0.11991527078E+03  0.29833586178E+03  0.35197979995E+03  0.46999998093E+01 0.  1.
</event>
<event>
 5   0  0.4409622E-02  0.5010189E+03  0.7818609E-02  0.1013513E+00
       -2   -1    0    0    0  501  0.00000000000E+00  0.00000000000E+00  0.22381562488E+03  0.22381562489E+03  0.25500000920E-02 0.  1.
        2   -1    0    0  501    0  0.00000000000E+00  0.00000000000E+00 -0.28038692333E+03  0.28038692334E+03  0.25500000920E-02 0. -1.
    10030    2    1    2    0    0  0.00000000000E+00  0.00000000000E+00 -0.56571298450E+02  0.50420254823E+03  0.50101885976E+03 0.  0.
        3    1    3    3  502    0 -0.19210613315E+03 -0.10287727227E+03  0.96057024343E+02  0.23815008224E+03  0.10100000352E+00 0.  1.
       -3    1    3    3    0  502  0.19210613315E+03  0.10287727227E+03 -0.15262832279E+03  0.26605246600E+03  0.10100000352E+00 0. -1.
</event>
<event>
 5   0  0.4534223E-02  0.4973222E+03  0.7818609E-02  0.1014480E+00
        2   -1    0    0  501    0  0.00000000000E+00  0.00000000000E+00  0.32201738242E+03  0.32201738243E+03  0.25500000920E-02 0.  1.
       -2   -1    0    0    0  501  0.00000000000E+00  0.00000000000E+00 -0.19201558033E+03  0.19201558034E+03  0.25500000920E-02 0. -1.
    10030    2    1    2    0    0  0.00000000000E+00  0.00000000000E+00  0.13000180210E+03  0.51403296278E+03  0.49732224792E+03 0.  0.
        2    1    3    3  502    0 -0.51669933646E+02  0.67052494565E+01  0.31631191554E+03  0.32057443805E+03  0.25500000920E-02 0.  1.
       -2    1    3    3    0  502  0.51669933646E+02 -0.67052494565E+01 -0.18631011344E+03  0.19345852473E+03  0.25500000920E-02 0. -1.
</event>
<event>
 5   0  0.4451135E-02  0.5007920E+03  0.7818609E-02  0.1013572E+00
       -2   -1    0    0    0  501  0.00000000000E+00  0.00000000000E+00  0.72974397566E+02  0.72974397610E+02  0.25500000920E-02 0. -1.
        2   -1    0    0  501    0  0.00000000000E+00  0.00000000000E+00 -0.85918017155E+03  0.85918017155E+03  0.25500000920E-02 0.  1.
    10030    2    1    2    0    0  0.00000000000E+00  0.00000000000E+00 -0.78620577398E+03  0.93215456916E+03  0.50079199451E+03 0.  0.
        1    1    3    3  502    0  0.36597065314E+02  0.92609411010E+02  0.34533587032E+02  0.10539647459E+03  0.50400001928E-02 0. -1.
       -1    1    3    3    0  502 -0.36597065314E+02 -0.92609411010E+02 -0.82073936101E+03  0.82675809457E+03  0.50400001928E-02 0.  1.
</event>
<event>
 5   0  0.2719671E-02  0.4985340E+03  0.7818609E-02  0.1014162E+00
       -1   -1    0    0    0  501  0.00000000000E+00  0.00000000000E+00  0.36918105213E+03  0.36918105217E+03  0.50400001928E-02 0.  1.
        1   -1    0    0  501    0  0.00000000000E+00  0.00000000000E+00 -0.16830237026E+03  0.16830237033E+03  0.50400001928E-02 0. -1.
    10030    2    1    2    0    0  0.00000000000E+00  0.00000000000E+00  0.20087868187E+03  0.53748342250E+03  0.49853403558E+03 0.  0.
        2    1    3    3  502    0 -0.13272090601E+02 -0.17090146761E+03  0.29554946220E+03  0.34166203277E+03  0.25500000920E-02 0.  1.
       -2    1    3    3    0  502  0.13272090601E+02  0.17090146761E+03 -0.94670780331E+02  0.19582138973E+03  0.25500000920E-02 0. -1.
</event>
<event>
 5   0  0.4534223E-02  0.5005951E+03  0.7818609E-02  0.1013624E+00
       -2   -1    0    0    0  501  0.00000000000E+00  0.00000000000E+00  0.15364589960E+03  0.15364589962E+03  0.25500000920E-02 0.  1.
        2   -1    0    0  501    0  0.00000000000E+00  0.00000000000E+00 -0.40774842598E+03  0.40774842599E+03  0.25500000920E-02 0. -1.
    10030    2    1    2    0    0  0.00000000000E+00  0.00000000000E+00 -0.25410252638E+03  0.56139432561E+03  0.50059514072E+03 0.  0.
        2    1    3    3  502    0 -0.15093441466E+03 -0.19887722800E+03 -0.14697165364E+03  0.28971367991E+03  0.25500000920E-02 0. -1.
       -2    1    3    3    0  502  0.15093441466E+03  0.19887722800E+03 -0.10713087274E+03  0.27168064570E+03  0.25500000920E-02 0.  1.
</event>
<event>
 5   0  0.2779445E-02  0.5027197E+03  0.7818609E-02  0.1013071E+00
        1   -1    0    0  501    0  0.00000000000E+00  0.00000000000E+00  0.95879311456E+03  0.95879311457E+03  0.50400001928E-02 0. -1.
       -1   -1    0    0    0  501  0.00000000000E+00  0.00000000000E+00 -0.65897186040E+02  0.65897186233E+02  0.50400001928E-02 0.  1.
    10030    2    1    2    0    0  0.00000000000E+00  0.00000000000E+00  0.89289592852E+03  0.10246903008E+04  0.50271967676E+03 0.  0.
        3    1    3    3  502    0 -0.18494075726E+03 -0.13270188871E+03  0.22911498004E+03  0.32296526012E+03  0.10100000352E+00 0.  1.
       -3    1    3    3    0  502  0.18494075726E+03  0.13270188871E+03  0.66378094848E+03  0.70172504069E+03  0.10100000352E+00 0. -1.
</event>
<event>
 5   0  0.2719671E-02  0.5009490E+03  0.7818609E-02  0.1013532E+00
       -1   -1    0    0    0  501  0.00000000000E+00  0.00000000000E+00  0.25947298867E+03  0.25947298872E+03  0.50400001928E-02 0. -1.
        1   -1    0    0  501    0  0.00000000000E+00  0.00000000000E+00 -0.24178810071E+03  0.24178810076E+03  0.50400001928E-02 0.  1.
    10030    2    1    2    0    0  0.00000000000E+00  0.00000000000E+00  0.17684887967E+02  0.50126108948E+03  0.50094902392E+03 0.  0.
        2    1    3    3  502    0 -0.15543852984E+03 -0.18671945867E+03 -0.52123241250E+02  0.24847962711E+03  0.25500000920E-02 0.  1.
       -2    1    3    3    0  502  0.15543852984E+03  0.18671945867E+03  0.69808129217E+02  0.25278146237E+03  0.25500000920E-02 0. -1.
</event>
<event>
 5   0  0.2719671E-02  0.4974672E+03  0.7818609E-02  0.1014442E+00
       -1   -1    0    0    0  501  0.00000000000E+00  0.00000000000E+00  0.12954631929E+03  0.12954631939E+03  0.50400001928E-02 0.  1.
        1   -1    0    0  501    0  0.00000000000E+00  0.00000000000E+00 -0.47757754926E+03  0.47757754929E+03  0.50400001928E-02 0. -1.
    10030    2    1    2    0    0  0.00000000000E+00  0.00000000000E+00 -0.34803122997E+03  0.60712386868E+03  0.49746724001E+03 0.  0.
        2    1    3    3  502    0  0.20869800729E+03  0.13531478835E+03 -0.17174432955E+03  0.30225992942E+03  0.25500000920E-02 0.  1.
       -2    1    3    3    0  502 -0.20869800729E+03 -0.13531478835E+03 -0.17628690042E+03  0.30486393926E+03  0.25500000920E-02 0. -1.
</event>
<event>
 5   0  0.2715483E-02  0.4994658E+03  0.7818609E-02  0.1013918E+00
       -1   -1    0    0    0  501  0.00000000000E+00  0.00000000000E+00  0.24196378115E+03  0.24196378120E+03  0.50400001928E-02 0.  1.
        1   -1    0    0  501    0  0.00000000000E+00  0.00000000000E+00 -0.25775143416E+03  0.25775143421E+03  0.50400001928E-02 0. -1.
    10030    2    1    2    0    0  0.00000000000E+00  0.00000000000E+00 -0.15787653011E+02  0.49971521541E+03  0.49946576111E+03 0.  0.
        5    1    3    3  502    0 -0.24201391730E+03  0.10604675731E+02 -0.68432114976E+02  0.25177021205E+03  0.46999998093E+01 0.  1.
       -5    1    3    3    0  502  0.24201391730E+03 -0.10604675731E+02  0.52644461966E+02  0.24794500336E+03  0.46999998093E+01 0. -1.
</event>
<event>
 5   0  0.4409622E-02  0.4989440E+03  0.7818609E-02  0.1014055E+00
        2   -1    0    0  501    0  0.00000000000E+00  0.00000000000E+00  0.18002112659E+03  0.18002112661E+03  0.25500000920E-02 0. -1.
       -2   -1    0    0    0  501  0.00000000000E+00  0.00000000000E+00 -0.34571655939E+03  0.34571655939E+03  0.25500000920E-02 0.  1.
    10030    2    1    2    0    0  0.00000000000E+00  0.00000000000E+00 -0.16569543280E+03  0.52573768600E+03  0.49894402294E+03 0.  0.
        3    1    3    3  502    0  0.78707040508E+02  0.12891511079E+03  0.12636527603E+03  0.19693170695E+03  0.10100000352E+00 0. -1.
       -3    1    3    3    0  502 -0.78707040508E+02 -0.12891511079E+03 -0.29206070883E+03  0.32880597905E+03  0.10100000352E+00 0.  1.
</event>
<event>
 5   0  0.4519539E-02  0.5011492E+03  0.7818609E-02  0.1013479E+00
        2   -1    0    0  501    0  0.00000000000E+00  0.00000000000E+00  0.28866606369E+03  0.28866606370E+03  0.25500000920E-02 0. -1.
       -2   -1    0    0    0  501  0.00000000000E+00  0.00000000000E+00 -0.21750958404E+03  0.21750958405E+03  0.25500000920E-02 0.  1.
    10030    2    1    2    0    0  0.00000000000E+00  0.00000000000E+00  0.71156479651E+02  0.50617564775E+03  0.50114922107E+03 0.  0.
        4    1    3    3  502    0 -0.24809060160E+02 -0.12905912877E+03 -0.17990227236E+03  0.22279629415E+03  0.12699999809E+01 0.  1.
       -4    1    3    3    0  502  0.24809060160E+02  0.12905912877E+03  0.25105875201E+03  0.28337935360E+03  0.12699999809E+01 0. -1.
</event>
<event>
 5   0  0.4631619E-02  0.5001861E+03  0.7818609E-02  0.1013730E+00
       -2   -1    0    0    0  501  0.00000000000E+00  0.00000000000E+00  0.59723591848E+02  0.59723591902E+02  0.25500000920E-02 0.  1.
        2   -1    0    0  501    0  0.00000000000E+00  0.00000000000E+00 -0.10472669180E+04  0.10472669180E+04  0.25500000920E-02 0. -1.
    10030    2    1    2    0    0  0.00000000000E+00  0.00000000000E+00 -0.98754332615E+03  0.11069905099E+04  0.50018613335E+03 0.  0.
        5    1    3    3  502    0 -0.52406802664E+02  0.22740613069E+03 -0.29502533720E+03  0.37619417969E+03  0.46999998093E+01 0.  1.
       -5    1    3    3    0  502  0.52406802664E+02 -0.22740613069E+03 -0.69251798895E+03  0.73079633021E+03  0.46999998093E+01 0. -1.
</event>
<event>
 5   0  0.2719671E-02  0.4989890E+03  0.7818609E-02  0.1014043E+00
        1   -1    0    0  501    0  0.00000000000E+00  0.00000000000E+00  0.90646007610E+03  0.90646007611E+03  0.50400001928E-02 0.  1.
       -1   -1    0    0    0  501  0.00000000000E+00  0.00000000000E+00 -0.68670978124E+02  0.68670978309E+02  0.50400001928E-02 0. -1.
    10030    2    1    2    0    0  0.00000000000E+00  0.00000000000E+00  0.83778909797E+03  0.97513105442E+03  0.49898897845E+03 0.  0.
        2    1    3    3  502    0 -0.13080107456E+03  0.12311019877E+02  0.83338605646E+03  0.84367813853E+03  0.25500000920E-02 0.  1.
       -2    1    3    3    0  502  0.13080107456E+03 -0.12311019877E+02  0.44030415116E+01  0.13145291589E+03  0.25500000920E-02 0. -1.
</event>
<event>
 5   0  0.1805500E-02  0.5023220E+03  0.7818609E-02  0.1013175E+00
        4   -1    0    0  501    0  0.00000000000E+00  0.00000000000E+00  0.26045384188E+03  0.26045693819E+03  0.12699999809E+01 0.  1.
       -4   -1    0    0    0  501  0.00000000000E+00  0.00000000000E+00 -0.24219349854E+03  0.24219682829E+03  0.12699999809E+01 0. -1.
    10030    2    1    2    0    0  0.00000000000E+00  0.00000000000E+00  0.18260343341E+02  0.50265376648E+03  0.50232197724E+03 0.  0.
        1    1    3    3  502    0 -0.16320305170E+03 -0.91564620624E+01  0.19994635857E+03  0.25825882988E+03  0.50400001928E-02 0.  1.
       -1    1    3    3    0  502  0.16320305170E+03  0.91564620624E+01 -0.18168601523E+03  0.24439493660E+03  0.50400001928E-02 0. -1.
</event>
<event>
 5   0  0.2715483E-02  0.4979652E+03  0.7818609E-02  0.1014311E+00
       -1   -1    0    0    0  501  0.00000000000E+00  0.00000000000E+00  0.56443298766E+02  0.56443298991E+02  0.50400001928E-02 0.  1.
        1   -1    0    0  501    0  0.00000000000E+00  0.00000000000E+00 -0.10983116156E+04  0.10983116156E+04  0.50400001928E-02 0. -1.
    10030    2    1    2    0    0  0.00000000000E+00  0.00000000000E+00 -0.10418683168E+04  0.11547549146E+04  0.49796518269E+03 0.  0.
        5    1    3    3  502    0  0.16006765554E+02 -0.20494150983E+03 -0.19534703426E+03  0.28361909807E+03  0.46999998093E+01 0.  1.
       -5    1    3    3    0  502 -0.16006765554E+02  0.20494150983E+03 -0.84652128254E+03  0.87113581650E+03  0.46999998093E+01 0. -1.
</event>
<event>
 5   0  0.2715483E-02  0.4964657E+03  0.7818609E-02  0.1014706E+00
       -1   -1    0    0    0  501  0.00000000000E+00  0.00000000000E+00  0.14012455495E+03  0.14012455504E+03  0.50400001928E-02 0.  1.
        1   -1    0    0  501    0  0.00000000000E+00  0.00000000000E+00 -0.43974831452E+03  0.43974831455E+03  0.50400001928E-02 0. -1.
    10030    2    1    2    0    0  0.00000000000E+00  0.00000000000E+00 -0.29962375957E+03  0.57987286958E+03  0.49646565599E+03 0.  0.
        5    1    3    3  502    0 -0.19741548967E+03  0.92439796725E+02 -0.11220408207E+02  0.21832539738E+03  0.46999998093E+01 0.  1.
       -5    1    3    3    0  502  0.19741548967E+03 -0.92439796725E+02 -0.28840335136E+03  0.36154747220E+03  0.46999998093E+01 0. -1.
</event>
<event>
 5   0  0.2723308E-02  0.5010057E+03  0.7818609E-02  0.1013517E+00
        1   -1    0    0  501    0  0.00000000000E+00  0.00000000000E+00  0.12434818928E+04  0.12434818928E+04  0.50400001928E-02 0. -1.
       -1   -1    0    0    0  501  0.00000000000E+00  0.00000000000E+00 -0.50464492011E+02  0.50464492262E+02  0.50400001928E-02 0.  1.
    10030    2    1    2    0    0  0.00000000000E+00  0.00000000000E+00  0.11930174008E+04  0.12939463851E+04  0.50100571739E+03 0.  0.
        4    1    3    3  502    0 -0.62182513968E+02  0.23927550293E+03  0.70080103161E+03  0.74313062791E+03  0.12699999809E+01 0.  1.
       -4    1    3    3    0  502  0.62182513968E+02 -0.23927550293E+03  0.49221636921E+03  0.55081575718E+03  0.12699999809E+01 0. -1.
</event>
<event>
 5   0  0.2643185E-02  0.4994928E+03  0.7818609E-02  0.1013911E+00
       -1   -1    0    0    0  501  0.00000000000E+00  0.00000000000E+00  0.24201670029E+03  0.24201670034E+03  0.50400001928E-02 0.  1.
        1   -1    0    0  501    0  0.00000000000E+00  0.00000000000E+00 -0.25772299144E+03  0.25772299149E+03  0.50400001928E-02 0. -1.
    10030    2    1    2    0    0  0.00000000000E+00  0.00000000000E+00 -0.15706291155E+02  0.49973969184E+03  0.49949281478E+03 0.  0.
        1    1    3    3  502    0  0.23341984698E+02  0.18115104497E+03  0.16256224431E+03  0.24451387005E+03  0.50400001928E-02 0.  1.
       -1    1    3    3    0  502 -0.23341984698E+02 -0.18115104497E+03 -0.17826853547E+03  0.25522582179E+03  0.50400001928E-02 0. -1.
</event>
<event>
 5   0  0.4519539E-02  0.5007487E+03  0.7818609E-02  0.1013584E+00
       -2   -1    0    0    0  501  0.00000000000E+00  0.00000000000E+00  0.60803377442E+02  0.60803377496E+02  0.25500000920E-02 0. -1.
        2   -1    0    0  501    0  0.00000000000E+00  0.00000000000E+00 -0.10309842179E+04  0.10309842179E+04  0.25500000920E-02 0.  1.
    10030    2    1    2    0    0  0.00000000000E+00  0.00000000000E+00 -0.97018084043E+03  0.10917875954E+04  0.50074872967E+03 0.  0.
        4    1    3    3  502    0 -0.29604186911E+02 -0.24388201777E+03 -0.37982719039E+03  0.45235511928E+03  0.12699999809E+01 0. -1.
       -4    1    3    3    0  502  0.29604186911E+02  0.24388201777E+03 -0.59035365004E+03  0.63943247609E+03  0.12699999809E+01 0.  1.
</event>
<event>
 5   0  0.4631619E-02  0.5028810E+03  0.7818609E-02  0.1013030E+00
       -2   -1    0    0    0  501  0.00000000000E+00  0.00000000000E+00  0.44849289675E+03  0.44849289675E+03  0.25500000920E-02 0.  1.
        2   -1    0    0  501    0  0.00000000000E+00  0.00000000000E+00 -0.14096615576E+03  0.14096615579E+03  0.25500000920E-02 0. -1.
    10030    2    1    2    0    0  0.00000000000E+00  0.00000000000E+00  0.30752674098E+03  0.58945905254E+03  0.50288097816E+03 0.  0.
        5    1    3    3  502    0  0.20707617983E+03 -0.16322927551E+02  0.31975293613E+03  0.38132795908E+03  0.46999998093E+01 0. -1.
       -5    1    3    3    0  502 -0.20707617983E+03  0.16322927551E+02 -0.12226195148E+02  0.20813109345E+03  0.46999998093E+01 0.  1.
</event>
<event>
 5   0  0.2715483E-02  0.4999605E+03  0.7818609E-02  0.1013789E+00
       -1   -1    0    0    0  501  0.00000000000E+00  0.00000000000E+00  0.13889765997E+03  0.13889766007E+03  0.50400001928E-02 0. -1.
        1   -1    0    0  501    0  0.00000000000E+00  0.00000000000E+00 -0.44990041310E+03  0.44990041312E+03  0.50400001928E-02 0.  1.
    10030    2    1    2    0    0  0.00000000000E+00  0.00000000000E+00 -0.31100275312E+03  0.58879807319E+03  0.49996045698E+03 0.  0.
        5    1    3    3  502    0  0.16309502996E+02 -0.16426813889E+03 -0.37651196896E+03  0.41113668543E+03  0.46999998093E+01 0.  1.
       -5    1    3    3    0  502 -0.16309502996E+02  0.16426813889E+03  0.65509215834E+02  0.17766138776E+03  0.46999998093E+01 0. -1.
</event>
<event>
 5   0  0.4451135E-02  0.4986726E+03  0.7818609E-02  0.1014126E+00
        2   -1    0    0  501    0  0.00000000000E+00  0.00000000000E+00  0.51622205405E+03  0.51622205405E+03  0.25500000920E-02 0.  1.
       -2   -1    0    0    0  501  0.00000000000E+00  0.00000000000E+00 -0.12042991658E+03  0.12042991661E+03  0.25500000920E-02 0. -1.
    10030    2    1    2    0    0  0.00000000000E+00  0.00000000000E+00  0.39579213746E+03  0.63665197066E+03  0.49867255355E+03 0.  0.
        1    1    3    3  502    0  0.24574819152E+03 -0.19113016657E+00  0.14408728428E+03  0.28487428048E+03  0.50400001928E-02 0. -1.
       -1    1    3    3    0  502 -0.24574819152E+03  0.19113016657E+00  0.25170485318E+03  0.35177769018E+03  0.50400001928E-02 0.  1.
</event>
<event>
 5   0  0.4534223E-02  0.4965303E+03  0.7818609E-02  0.1014689E+00
        2   -1    0    0  501    0  0.00000000000E+00  0.00000000000E+00  0.26079080824E+03  0.26079080826E+03  0.25500000920E-02 0.  1.
       -2   -1    0    0    0  501  0.00000000000E+00  0.00000000000E+00 -0.23634108126E+03  0.23634108127E+03  0.25500000920E-02 0. -1.
    10030    2    1    2    0    0  0.00000000000E+00  0.00000000000E+00  0.24449726985E+02  0.49713188953E+03  0.49653028753E+03 0.  0.
        2    1    3    3  502    0  0.11693173766E+03 -0.13038189502E+02 -0.20665509941E+03  0.23780108448E+03  0.25500000920E-02 0. -1.
       -2    1    3    3    0  502 -0.11693173766E+03  0.13038189502E+02  0.23110482640E+03  0.25933080505E+03  0.25500000920E-02 0.  1.
</event>
<event>
 5   0  0.4534223E-02  0.5011708E+03  0.7818609E-02  0.1013474E+00
        2   -1    0    0  501    0  0.00000000000E+00  0.00000000000E+00  0.73079657862E+03  0.73079657862E+03  0.25500000920E-02 0. -1.
       -2   -1    0    0    0  501  0.00000000000E+00  0.00000000000E+00 -0.85924114947E+02  0.85924114985E+02  0.25500000920E-02 0.  1.
    10030    2    1    2    0    0  0.00000000000E+00  0.00000000000E+00  0.64487246367E+03  0.81672069361E+03  0.50117082613E+03 0.  0.
        2    1    3    3  502    0 -0.15520464871E+03 -0.15573568819E+03  0.12653545772E+03  0.25367954120E+03  0.25500000920E-02 0.  1.
       -2    1    3    3    0  502  0.15520464871E+03  0.15573568819E+03  0.51833700595E+03  0.56304115241E+03  0.25500000920E-02 0. -1.
</event>
<event>
 5   0  0.2723308E-02  0.4979679E+03  0.7818609E-02  0.1014311E+00
       -1   -1    0    0    0  501  0.00000000000E+00  0.00000000000E+00  0.10313374268E+03  0.10313374280E+03  0.50400001928E-02 0.  1.
        1   -1    0    0  501    0  0.00000000000E+00  0.00000000000E+00 -0.60109326396E+03  0.60109326399E+03  0.50400001928E-02 0. -1.
    10030    2    1    2    0    0  0.00000000000E+00  0.00000000000E+00 -0.49795952129E+03  0.70422700679E+03  0.49796786267E+03 0.  0.
        4    1    3    3  502    0 -0.14865636270E+03  0.60381559592E+02 -0.51822363186E+03  0.54249607596E+03  0.12699999809E+01 0. -1.
       -4    1    3    3    0  502  0.14865636270E+03 -0.60381559592E+02  0.20264110573E+02  0.16173093083E+03  0.12699999809E+01 0.  1.
</event>
<event>
 5   0  0.2643185E-02  0.5014078E+03  0.7818609E-02  0.1013412E+00
        1   -1    0    0  501    0  0.00000000000E+00  0.00000000000E+00  0.53061822497E+03  0.53061822499E+03  0.50400001928E-02 0.  1.
       -1   -1    0    0    0  501  0.00000000000E+00  0.00000000000E+00 -0.11845133010E+03  0.11845133021E+03  0.50400001928E-02 0. -1.
    10030    2    1    2    0    0  0.00000000000E+00  0.00000000000E+00  0.41216689487E+03  0.64906955520E+03  0.50140775648E+03 0.  0.
        1    1    3    3  502    0 -0.19348718234E+03  0.11071645163E+03  0.35456716376E+03  0.41882370520E+03  0.50400001928E-02 0. -1.
       -1    1    3    3    0  502  0.19348718234E+03 -0.11071645163E+03  0.57599731108E+02  0.23024585000E+03  0.50400001928E-02 0.  1.
</event>
<event>
 5   0  0.4631619E-02  0.5016195E+03  0.7818609E-02  0.1013357E+00
       -2   -1    0    0    0  501  0.00000000000E+00  0.00000000000E+00  0.16000670976E+03  0.16000670978E+03  0.25500000920E-02 0. -1.
        2   -1    0    0  501    0  0.00000000000E+00  0.00000000000E+00 -0.39314301127E+03  0.39314301128E+03  0.25500000920E-02 0.  1.
    10030    2    1    2    0    0  0.00000000000E+00  0.00000000000E+00 -0.23313630151E+03  0.55314972106E+03  0.50161945619E+03 0.  0.
        5    1    3    3  502    0 -0.18673633111E+03  0.19696273434E+02  0.66713799444E+02  0.19932692136E+03  0.46999998093E+01 0. -1.
       -5    1    3    3    0  502  0.18673633111E+03 -0.19696273434E+02 -0.29985010095E+03  0.35382279970E+03  0.46999998093E+01 0.  1.
</event>
<event>
 5   0  0.2715483E-02  0.4992075E+03  0.7818609E-02  0.1013986E+00
       -1   -1    0    0    0  501  0.00000000000E+00  0.00000000000E+00  0.30932514836E+03  0.30932514840E+03  0.50400001928E-02 0. -1.
        1   -1    0    0  501    0  0.00000000000E+00  0.00000000000E+00 -0.20141279299E+03  0.20141279305E+03  0.50400001928E-02 0.  1.
    10030    2    1    2    0    0  0.00000000000E+00  0.00000000000E+00  0.10791235537E+03  0.51073794145E+03  0.49920754040E+03 0.  0.
        5    1    3    3  502    0  0.12758680273E+03  0.37229427698E+02  0.27005878725E+03  0.30102867154E+03  0.46999998093E+01 0. -1.
       -5    1    3    3    0  502 -0.12758680273E+03 -0.37229427698E+02 -0.16214643188E+03  0.20970926991E+03  0.46999998093E+01 0.  1.
</event>
<event>
 5   0  0.4534223E-02  0.5004429E+03  0.7818609E-02  0.1013663E+00
        2   -1    0    0  501    0  0.00000000000E+00  0.00000000000E+00  0.58775601569E+03  0.58775601570E+03  0.25500000920E-02 0.  1.
       -2   -1    0    0    0  501  0.00000000000E+00  0.00000000000E+00 -0.10652512338E+03  0.10652512341E+03  0.25500000920E-02 0. -1.
    10030    2    1    2    0    0  0.00000000000E+00  0.00000000000E+00  0.48123089232E+03  0.69428113911E+03  0.50044293221E+03 0.  0.
        2    1    3    3  502    0  0.39358074779E+01  0.22324306094E+03  0.83915384985E+02  0.23852619705E+03  0.25500000920E-02 0. -1.
       -2    1    3    3    0  502 -0.39358074779E+01 -0.22324306094E+03  0.39731550733E+03  0.45575494206E+03  0.25500000920E-02 0.  1.
</event>
<event>
 5   0  0.4519539E-02  0.5005693E+03  0.7818609E-02  0.1013630E+00
        2   -1    0    0  501    0  0.00000000000E+00  0.00000000000E+00  0.81891016163E+03  0.81891016164E+03  0.25500000920E-02 0. -1.
       -2   -1    0    0    0  501  0.00000000000E+00  0.00000000000E+00 -0.76494854666E+02  0.76494854709E+02  0.25500000920E-02 0.  1.
    10030    2    1    2    0    0  0.00000000000E+00  0.00000000000E+00  0.74241530697E+03  0.89540501635E+03  0.50056933114E+03 0.  0.
        4    1    3    3  502    0 -0.23651746496E+03 -0.71588005086E+02  0.44220746798E+03  0.50657123027E+03  0.12699999809E+01 0. -1.
       -4    1    3    3    0  502  0.23651746496E+03  0.71588005086E+02  0.30020783899E+03  0.38883378608E+03  0.12699999809E+01 0.  1.
</event>
<event>
 5   0  0.2723308E-02  0.5004085E+03  0.7818609E-02  0.1013672E+00
        1   -1    0    0  501    0  0.00000000000E+00  0.00000000000E+00  0.67533027285E+03  0.67533027287E+03  0.50400001928E-02 0.  1.
       -1   -1    0    0    0  501  0.00000000000E+00  0.00000000000E+00 -0.92698593183E+02  0.92698593320E+02  0.50400001928E-02 0. -1.
    10030    2    1    2    0    0  0.00000000000E+00  0.00000000000E+00  0.58263167966E+03  0.76802886619E+03  0.50040849828E+03 0.  0.
        4    1    3    3  502    0  0.13487437382E+03  0.13584685903E+02  0.61408078453E+03  0.62886601374E+03  0.12699999809E+01 0.  1.
       -4    1    3    3    0  502 -0.13487437382E+03 -0.13584685903E+02 -0.31449104866E+02  0.13916285245E+03  0.12699999809E+01 0. -1.
</event>
<event>
 5   0  0.4631619E-02  0.4978841E+03  0.7818609E-02  0.1014333E+00
        2   -1    0    0  501    0  0.00000000000E+00  0.00000000000E+00  0.15340831150E+04  0.15340831150E+04  0.25500000920E-02 0. -1.
       -2   -1    0    0    0  501  0.00000000000E+00  0.00000000000E+00 -0.40396864598E+02  0.40396864679E+02  0.25500000920E-02 0.  1.
    10030    2    1    2    0    0  0.00000000000E+00  0.00000000000E+00  0.14936862504E+04  0.15744799796E+04  0.49788411480E+03 0.  0.
        5    1    3    3  502    0 -0.15165134304E+03  0.18310819126E+03  0.97972807517E+03  0.10081745537E+04  0.46999998093E+01 0. -1.
       -5    1    3    3    0  502  0.15165134304E+03 -0.18310819126E+03  0.51395817519E+03  0.56630542589E+03  0.46999998093E+01 0.  1.
</event>
<event>
 5   0  0.4409622E-02  0.4998367E+03  0.7818609E-02  0.1013822E+00
       -2   -1    0    0    0  501  0.00000000000E+00  0.00000000000E+00  0.16415992396E+03  0.16415992398E+03  0.25500000920E-02 0.  1.
        2   -1    0    0  501    0  0.00000000000E+00  0.00000000000E+00 -0.38047767700E+03  0.38047767701E+03  0.25500000920E-02 0. -1.
    10030    2    1    2    0    0  0.00000000000E+00  0.00000000000E+00 -0.21631775304E+03  0.54463760099E+03  0.49983671947E+03 0.  0.
        3    1    3    3  502    0 -0.14068082610E+03 -0.14730778990E+03  0.49625177235E+02  0.20965053831E+03  0.10100000352E+00 0.  1.
       -3    1    3    3    0  502  0.14068082610E+03  0.14730778990E+03 -0.26594293027E+03  0.33498706268E+03  0.10100000352E+00 0. -1.
</event>
<event>
 5   0  0.4519539E-02  0.5051265E+03  0.7818609E-02  0.1012449E+00
        2   -1    0    0  501    0  0.00000000000E+00  0.00000000000E+00  0.67232562435E+02  0.67232562483E+02  0.25500000920E-02 0. -1.
       -2   -1    0    0    0  501  0.00000000000E+00  0.00000000000E+00 -0.94876950671E+03  0.94876950672E+03  0.25500000920E-02 0.  1.
    10030    2    1    2    0    0  0.00000000000E+00  0.00000000000E+00 -0.88153694428E+03  0.10160020692E+04  0.50512653909E+03 0.  0.
        4    1    3    3  502    0  0.83120685253E+02  0.17192856272E+03 -0.77321343431E+03  0.79644780551E+03  0.12699999809E+01 0.  1.
       -4    1    3    3    0  502 -0.83120685253E+02 -0.17192856272E+03 -0.10832350996E+03  0.21955426369E+03  0.12699999809E+01 0. -1.
</event>
<event>
 5   0  0.2719671E-02  0.5029907E+03  0.7818609E-02  0.1013001E+00
        1   -1    0    0  501    0  0.00000000000E+00  0.00000000000E+00  0.26790822587E+03  0.26790822592E+03  0.50400001928E-02 0. -1.
       -1   -1    0    0    0  501  0.00000000000E+00  0.00000000000E+00 -0.23608801312E+03  0.23608801317E+03  0.50400001928E-02 0.  1.
    10030    2    1    2    0    0  0.00000000000E+00  0.00000000000E+00  0.31820212754E+02  0.50399623909E+03  0.50299073856E+03 0.  0.
        2    1    3    3  502    0 -0.91852287526E+02 -0.38069501319E+02  0.24737793886E+03  0.26661202954E+03  0.25500000920E-02 0. -1.
       -2    1    3    3    0  502  0.91852287526E+02  0.38069501319E+02 -0.21555772610E+03  0.23738420955E+03  0.25500000920E-02 0.  1.
</event>
<event>
 5   0  0.4631619E-02  0.5002661E+03  0.7818609E-02  0.1013709E+00
       -2   -1    0    0    0  501  0.00000000000E+00  0.00000000000E+00  0.42347613277E+02  0.42347613353E+02  0.25500000920E-02 0. -1.
        2   -1    0    0  501    0  0.00000000000E+00  0.00000000000E+00 -0.14774511692E+04  0.14774511692E+04  0.25500000920E-02 0.  1.
    10030    2    1    2    0    0  0.00000000000E+00  0.00000000000E+00 -0.14351035559E+04  0.15197987826E+04  0.50026605245E+03 0.  0.
        5    1    3    3  502    0  0.62526479255E+02  0.20120892697E+03 -0.11268327500E+04  0.11463719856E+04  0.46999998093E+01 0.  1.
       -5    1    3    3    0  502 -0.62526479255E+02 -0.20120892697E+03 -0.30827080594E+03  0.37342679697E+03  0.46999998093E+01 0. -1.
</event>
<event>
 5   0  0.2779445E-02  0.5011411E+03  0.7818609E-02  0.1013482E+00
       -1   -1    0    0    0  501  0.00000000000E+00  0.00000000000E+00  0.11857790281E+03  0.11857790291E+03  0.50400001928E-02 0.  1.
        1   -1    0    0  501    0  0.00000000000E+00  0.00000000000E+00 -0.52948816918E+03  0.52948816921E+03  0.50400001928E-02 0. -1.
    10030    2    1    2    0    0  0.00000000000E+00  0.00000000000E+00 -0.41091026638E+03  0.64806607212E+03  0.50114108475E+03 0.  0.
        3    1    3    3  502    0 -0.20244409011E+03  0.44570623157E+02 -0.38749273189E+03  0.43945509160E+03  0.10100000352E+00 0. -1.
       -3    1    3    3    0  502  0.20244409011E+03 -0.44570623157E+02 -0.23417534490E+02  0.20861098052E+03  0.10100000352E+00 0.  1.
</event>
<event>
 5   0  0.4519539E-02  0.5015456E+03  0.7818609E-02  0.1013376E+00
        2   -1    0    0  501    0  0.00000000000E+00  0.00000000000E+00  0.43292216951E+03  0.43292216951E+03  0.25500000920E-02 0.  1.
       -2   -1    0    0    0  501  0.00000000000E+00  0.00000000000E+00 -0.14526164474E+03  0.14526164476E+03  0.25500000920E-02 0. -1.
    10030    2    1    2    0    0  0.00000000000E+00  0.00000000000E+00  0.28766052477E+03  0.57818381427E+03  0.50154555683E+03 0.  0.
        4    1    3    3  502    0  0.32325085031E+02  0.11290375421E+03 -0.11159640301E+03  0.16201092217E+03  0.12699999809E+01 0. -1.
       -4    1    3    3    0  502 -0.32325085031E+02 -0.11290375421E+03  0.39925692778E+03  0.41617289210E+03  0.12699999809E+01 0.  1.
</event>
<event>
 5   0  0.2643185E-02  0.5005175E+03  0.7818609E-02  0.1013644E+00
        1   -1    0    0  501    0  0.00000000000E+00  0.00000000000E+00  0.15563028221E+04  0.15563028221E+04  0.50400001928E-02 0. -1.
       -1   -1    0    0    0  501  0.00000000000E+00  0.00000000000E+00 -0.40242444151E+02  0.40242444466E+02  0.50400001928E-02 0.  1.
    10030    2    1    2    0    0  0.00000000000E+00  0.00000000000E+00  0.15160603780E+04  0.15965452666E+04  0.50051745088E+03 0.  0.
        1    1    3    3  502    0 -0.63466510123E+02 -0.11645682675E+02  0.15293118359E+04  0.15306725029E+04  0.50400001928E-02 0. -1.
       -1    1    3    3    0  502  0.63466510123E+02  0.11645682675E+02 -0.13251457902E+02  0.65872763674E+02  0.50400001928E-02 0.  1.
</event>
<event>
 5   0  0.4631619E-02  0.5025387E+03  0.7818609E-02  0.1013118E+00
        2   -1    0    0  501    0  0.00000000000E+00  0.00000000000E+00  0.12525250176E+03  0.12525250178E+03  0.25500000920E-02 0. -1.
       -2   -1    0    0    0  501  0.00000000000E+00  0.00000000000E+00 -0.50407213255E+03  0.50407213256E+03  0.25500000920E-02 0.  1.
    10030    2    1    2    0    0  0.00000000000E+00  0.00000000000E+00 -0.37881963080E+03  0.62932463434E+03  0.50253873752E+03 0.  0.
        5    1    3    3  502    0  0.10159422508E+03 -0.54996398240E+02  0.89961119584E+02  0.14649601846E+03  0.46999998093E+01 0. -1.
       -5    1    3    3    0  502 -0.10159422508E+03  0.54996398240E+02 -0.46878075038E+03  0.48282861588E+03  0.46999998093E+01 0.  1.
</event>
<event>
 5   0  0.2715483E-02  0.5014944E+03  0.7818609E-02  0.1013390E+00
       -1   -1    0    0    0  501  0.00000000000E+00  0.00000000000E+00  0.49237511943E+03  0.49237511946E+03  0.50400001928E-02 0. -1.
        1   -1    0    0  501    0  0.00000000000E+00  0.00000000000E+00 -0.12769566101E+03  0.12769566111E+03  0.50400001928E-02 0.  1.
    10030    2    1    2    0    0  0.00000000000E+00  0.00000000000E+00  0.36467945843E+03  0.62007078057E+03  0.50149443219E+03 0.  0.
        5    1    3    3  502    0 -0.17169335078E+03 -0.13897094137E+03  0.32895400561E+03  0.39626298976E+03  0.46999998093E+01 0.  1.
       -5    1    3    3    0  502  0.17169335078E+03  0.13897094137E+03  0.35725452821E+02  0.22380779081E+03  0.46999998093E+01 0. -1.
</event>
<event>
 5   0  0.2715483E-02  0.4998475E+03  0.7818609E-02  0.1013819E+00
        1   -1    0    0  501    0  0.00000000000E+00  0.00000000000E+00  0.36081924764E+03  0.36081924767E+03  0.50400001928E-02 0.  1.
       -1   -1    0    0    0  501  0.00000000000E+00  0.00000000000E+00 -0.17311129322E+03  0.17311129330E+03  0.50400001928E-02 0. -1.
    10030    2    1    2    0    0  0.00000000000E+00  0.00000000000E+00  0.18770795441E+03  0.53393054097E+03  0.49984752318E+03 0.  0.
        5    1    3    3  502    0 -0.13013590223E+03 -0.94935859233E+01 -0.13378341656E+03  0.18693735252E+03  0.46999998093E+01 0. -1.
       -5    1    3    3    0  502  0.13013590223E+03  0.94935859233E+01  0.32149137098E+03  0.34699318845E+03  0.46999998093E+01 0.  1.
</event>
<event>
 5   0  0.4631619E-02  0.4970648E+03  0.7818609E-02  0.1014548E+00
       -2   -1    0    0    0  501  0.00000000000E+00  0.00000000000E+00  0.23586678505E+03  0.23586678506E+03  0.25500000920E-02 0.  1.
        2   -1    0    0  501    0  0.00000000000E+00  0.00000000000E+00 -0.26187816748E+03  0.26187816749E+03  0.25500000920E-02 0. -1.
    10030    2    1    2    0    0  0.00000000000E+00  0.00000000000E+00 -0.26011382435E+02  0.49774495255E+03  0.49706483056E+03 0.  0.
        5    1    3    3  502    0 -0.18880370990E+03  0.15205414898E+03 -0.67660279568E+02  0.25172864065E+03  0.46999998093E+01 0. -1.
       -5    1    3    3    0  502  0.18880370990E+03 -0.15205414898E+03  0.41648897133E+02  0.24601631191E+03  0.46999998093E+01 0.  1.
</event>
<event>
 5   0  0.2723308E-02  0.4989798E+03  0.7818609E-02  0.1014046E+00
       -1   -1    0    0    0  501  0.00000000000E+00  0.00000000000E+00  0.22819686733E+03  0.22819686739E+03  0.50400001928E-02 0.  1.
        1   -1    0    0  501    0  0.00000000000E+00  0.00000000000E+00 -0.27276976889E+03  0.27276976894E+03  0.50400001928E-02 0. -1.
    10030    2    1    2    0    0  0.00000000000E+00  0.00000000000E+00 -0.44572901558E+02  0.50096663633E+03  0.49897978632E+03 0.  0.
        4    1    3    3  502    0  0.56654368276E+01  0.55271103352E+02 -0.26647621756E+03  0.27220980781E+03  0.12699999809E+01 0. -1.
       -4    1    3    3    0  502 -0.56654368276E+01 -0.55271103352E+02  0.22190331600E+03  0.22875682852E+03  0.12699999809E+01 0.  1.
</event>
<event>
 5   0  0.2723308E-02  0.4932837E+03  0.7818609E-02  0.1015547E+00
       -1   -1    0    0    0  501  0.00000000000E+00  0.00000000000E+00  0.86273525035E+02  0.86273525182E+02  0.50400001928E-02 0. -1.
        1   -1    0    0  501    0  0.00000000000E+00  0.00000000000E+00 -0.70510849586E+03  0.70510849588E+03  0.50400001928E-02 0.  1.
    10030    2    1    2    0    0  0.00000000000E+00  0.00000000000E+00 -0.61883497082E+03  0.79138202106E+03  0.49328367309E+03 0.  0.
        4    1    3    3  502    0  0.13047280106E+03  0.85592961758E+02 -0.29923076480E+01  0.15607649959E+03  0.12699999809E+01 0. -1.
       -4    1    3    3    0  502 -0.13047280106E+03 -0.85592961758E+02 -0.61584266318E+03  0.63530552147E+03  0.12699999809E+01 0.  1.
</event>
<event>
 5   0  0.2715483E-02  0.5122609E+03  0.7818609E-02  0.1010627E+00
        1   -1    0    0  501    0  0.00000000000E+00  0.00000000000E+00  0.15175328529E+04  0.15175328529E+04  0.50400001928E-02 0.  1.
       -1   -1    0    0    0  501  0.00000000000E+00  0.00000000000E+00 -0.43229903289E+02  0.43229903583E+02  0.50400001928E-02 0. -1.
    10030    2    1    2    0    0  0.00000000000E+00  0.00000000000E+00  0.14743029496E+04  0.15607627565E+04  0.51226086599E+03 0.  0.
        5    1    3    3  502    0 -0.89858603207E+02 -0.18938563013E+03  0.28895694935E+03  0.35701497735E+03  0.46999998093E+01 0. -1.
       -5    1    3    3    0  502  0.89858603207E+02  0.18938563013E+03  0.11853460003E+04  0.12037477792E+04  0.46999998093E+01 0.  1.
</event>
<event>
 5   0  0.2719671E-02  0.5019643E+03  0.7818609E-02  0.1013267E+00
        1   -1    0    0  501    0  0.00000000000E+00  0.00000000000E+00  0.79484618526E+03  0.79484618528E+03  0.50400001928E-02 0. -1.
       -1   -1    0    0    0  501  0.00000000000E+00  0.00000000000E+00 -0.79250592121E+02  0.79250592281E+02  0.50400001928E-02 0.  1.
    10030    2    1    2    0    0  0.00000000000E+00  0.00000000000E+00  0.71559559314E+03  0.87409677756E+03  0.50196426528E+03 0.  0.
        2    1    3    3  502    0  0.14217998919E+03 -0.11605060185E+03  0.65591583252E+03  0.68110826663E+03  0.25500000920E-02 0. -1.
       -2    1    3    3    0  502 -0.14217998919E+03  0.11605060185E+03  0.59679760627E+02  0.19298851093E+03  0.25500000920E-02 0.  1.
</event>
<event>
 5   0  0.2723308E-02  0.5011713E+03  0.7818609E-02  0.1013474E+00
        1   -1    0    0  501    0  0.00000000000E+00  0.00000000000E+00  0.82291725982E+03  0.82291725984E+03  0.50400001928E-02 0.  1.
       -1   -1    0    0    0  501  0.00000000000E+00  0.00000000000E+00 -0.76305571043E+02  0.76305571209E+02  0.50400001928E-02 0. -1.
    10030    2    1    2    0    0  0.00000000000E+00  0.00000000000E+00  0.74661168878E+03  0.89922283104E+03  0.50117131408E+03 0.  0.
        4    1    3    3  502    0 -0.16851473582E+03  0.17440892692E+03  0.26017080474E+03  0.35567703119E+03  0.12699999809E+01 0.  1.
       -4    1    3    3    0  502  0.16851473582E+03 -0.17440892692E+03  0.48644088404E+03  0.54354579985E+03  0.12699999809E+01 0. -1.
</event>
<event>
 5   0  0.2723308E-02  0.4958428E+03  0.7818609E-02  0.1014870E+00
       -1   -1    0    0    0  501  0.00000000000E+00  0.00000000000E+00  0.22463816031E+03  0.22463816037E+03  0.50400001928E-02 0. -1.
        1   -1    0    0  501    0  0.00000000000E+00  0.00000000000E+00 -0.27361788994E+03  0.27361788999E+03  0.50400001928E-02 0.  1.
    10030    2    1    2    0    0  0.00000000000E+00  0.00000000000E+00 -0.48979729631E+02  0.49825605036E+03  0.49584279545E+03 0.  0.
        4    1    3    3  502    0  0.10931974845E+03 -0.11747494058E+03  0.16540669811E+03  0.23046075099E+03  0.12699999809E+01 0. -1.
       -4    1    3    3    0  502 -0.10931974845E+03  0.11747494058E+03 -0.21438642774E+03  0.26779529937E+03  0.12699999809E+01 0.  1.
</event>
<event>
 5   0  0.2643185E-02  0.5015071E+03  0.7818609E-02  0.1013386E+00
       -1   -1    0    0    0  501  0.00000000000E+00  0.00000000000E+00  0.14957199209E+03  0.14957199218E+03  0.50400001928E-02 0. -1.
        1   -1    0    0  501    0  0.00000000000E+00  0.00000000000E+00 -0.42038177154E+03  0.42038177157E+03  0.50400001928E-02 0.  1.
    10030    2    1    2    0    0  0.00000000000E+00  0.00000000000E+00 -0.27080977945E+03  0.56995376375E+03  0.50150708486E+03 0.  0.
        1    1    3    3  502    0 -0.17534675662E+03  0.34128359477E+01  0.68273501974E+02  0.18820043466E+03  0.50400001928E-02 0. -1.
       -1    1    3    3    0  502  0.17534675662E+03 -0.34128359477E+01 -0.33908328142E+03  0.38175332909E+03  0.50400001928E-02 0.  1.
</event>
<event>
 5   0  0.4534223E-02  0.5036504E+03  0.7818609E-02  0.1012830E+00
        2   -1    0    0  501    0  0.00000000000E+00  0.00000000000E+00  0.89260755374E+03  0.89260755374E+03  0.25500000920E-02 0. -1.
       -2   -1    0    0    0  501  0.00000000000E+00  0.00000000000E+00 -0.71045694177E+02  0.71045694222E+02  0.25500000920E-02 0.  1.
    10030    2    1    2    0    0  0.00000000000E+00  0.00000000000E+00  0.82156185956E+03  0.96365324796E+03  0.50365036804E+03 0.  0.
        2    1    3    3  502    0  0.14682547322E+03 -0.11529044318E+03  0.73416510412E+03  0.75752756121E+03  0.25500000920E-02 0. -1.
       -2    1    3    3    0  502 -0.14682547322E+03  0.11529044318E+03  0.87396755441E+02  0.20612568676E+03  0.25500000920E-02 0.  1.
</event>
<event>
 5   0  0.2643185E-02  0.5017785E+03  0.7818609E-02  0.1013316E+00
       -1   -1    0    0    0  501  0.00000000000E+00  0.00000000000E+00  0.84195439079E+02  0.84195439230E+02  0.50400001928E-02 0.  1.
        1   -1    0    0  501    0  0.00000000000E+00  0.00000000000E+00 -0.74761071034E+03  0.74761071036E+03  0.50400001928E-02 0. -1.
    10030    2    1    2    0    0  0.00000000000E+00  0.00000000000E+00 -0.66341527126E+03  0.83180614959E+03  0.50177848534E+03 0.  0.
        1    1    3    3  502    0 -0.13659543337E+03 -0.20629779688E+03 -0.40062394280E+03  0.47086796131E+03  0.50400001928E-02 0. -1.
       -1    1    3    3    0  502  0.13659543337E+03  0.20629779688E+03 -0.26279132846E+03  0.36093818828E+03  0.50400001928E-02 0.  1.
</event>
<event>
 5   0  0.1805500E-02  0.4999496E+03  0.7818609E-02  0.1013792E+00
        3   -1    0    0  501    0  0.00000000000E+00  0.00000000000E+00  0.26113519212E+03  0.26113521165E+03  0.10100000352E+00 0. -1.
       -3   -1    0    0    0  501  0.00000000000E+00  0.00000000000E+00 -0.23929136872E+03  0.23929139004E+03  0.10100000352E+00 0.  1.
    10030    2    1    2    0    0  0.00000000000E+00  0.00000000000E+00  0.21843823396E+02  0.50042660169E+03  0.49994962852E+03 0.  0.
        5    1    3    3  502    0 -0.72805568380E+02 -0.22690478194E+03  0.86352196613E+02  0.25350586327E+03  0.46999998093E+01 0. -1.
       -5    1    3    3    0  502  0.72805568380E+02  0.22690478194E+03 -0.64508373217E+02  0.24692073843E+03  0.46999998093E+01 0.  1.
</event>
<event>
 5   0  0.2723308E-02  0.4993698E+03  0.7818609E-02  0.1013944E+00
        1   -1    0    0  501    0  0.00000000000E+00  0.00000000000E+00  0.12845104511E+03  0.12845104520E+03  0.50400001928E-02 0. -1.
       -1   -1    0    0    0  501  0.00000000000E+00  0.00000000000E+00 -0.48534087067E+03  0.48534087070E+03  0.50400001928E-02 0.  1.
    10030    2    1    2    0    0  0.00000000000E+00  0.00000000000E+00 -0.35688982557E+03  0.61379191590E+03  0.49936977125E+03 0.  0.
        4    1    3    3  502    0  0.21895356461E+03  0.51628295838E+02 -0.45296350897E+02  0.22947661469E+03  0.12699999809E+01 0. -1.
       -4    1    3    3    0  502 -0.21895356461E+03 -0.51628295838E+02 -0.31159347467E+03  0.38431530121E+03  0.12699999809E+01 0.  1.
</event>
<event>
 5   0  0.1805500E-02  0.4901498E+03  0.7818609E-02  0.1016382E+00
        3   -1    0    0  501    0  0.00000000000E+00  0.00000000000E+00  0.57835586322E+03  0.57835587203E+03  0.10100000352E+00 0.  1.
       -3   -1    0    0    0  501  0.00000000000E+00  0.00000000000E+00 -0.10384900929E+03  0.10384905840E+03  0.10100000352E+00 0. -1.
    10030    2    1    2    0    0  0.00000000000E+00  0.00000000000E+00  0.47450685393E+03  0.68220493044E+03  0.49014978597E+03 0.  0.
        5    1    3    3  502    0 -0.59699489946E+02  0.77961455714E+02  0.54971092056E+03  0.55843191515E+03  0.46999998093E+01 0.  1.
       -5    1    3    3    0  502  0.59699489946E+02 -0.77961455714E+02 -0.75204066632E+02  0.12377301529E+03  0.46999998093E+01 0. -1.
</event>
<event>
 5   0  0.4631619E-02  0.4811342E+03  0.7818609E-02  0.1018824E+00
        2   -1    0    0  501    0  0.00000000000E+00  0.00000000000E+00  0.89371014340E+03  0.89371014340E+03  0.25500000920E-02 0.  1.
       -2   -1    0    0    0  501  0.00000000000E+00  0.00000000000E+00 -0.64755377878E+02  0.64755377928E+02  0.25500000920E-02 0. -1.
    10030    2    1    2    0    0  0.00000000000E+00  0.00000000000E+00  0.82895476552E+03  0.95846552133E+03  0.48113423522E+03 0.  0.
        5    1    3    3  502    0  0.87555902862E+02 -0.16466967439E+02  0.85953697218E+03  0.86415455428E+03  0.46999998093E+01 0.  1.
       -5    1    3    3    0  502 -0.87555902862E+02  0.16466967439E+02 -0.30582206662E+02  0.94310967046E+02  0.46999998093E+01 0. -1.
</event>
<event>
 5   0  0.1805500E-02  0.4905670E+03  0.7818609E-02  0.1016271E+00
        4   -1    0    0  501    0  0.00000000000E+00  0.00000000000E+00  0.15028891710E+03  0.15029428300E+03  0.12699999809E+01 0. -1.
       -4   -1    0    0    0  501  0.00000000000E+00  0.00000000000E+00 -0.40030871183E+03  0.40031072639E+03  0.12699999809E+01 0.  1.
    10030    2    1    2    0    0  0.00000000000E+00  0.00000000000E+00 -0.25001979473E+03  0.55060500939E+03  0.49056699707E+03 0.  0.
        4    1    3    3  502    0 -0.18376615266E+03  0.11063497995E+03  0.85128007930E+01  0.21467225794E+03  0.12699999809E+01 0. -1.
       -4    1    3    3    0  502  0.18376615266E+03 -0.11063497995E+03 -0.25853259552E+03  0.33593275145E+03  0.12699999809E+01 0.  1.
</event>
<event>
 5   0  0.2779445E-02  0.5002666E+03  0.7818609E-02  0.1013709E+00
        1   -1    0    0  501    0  0.00000000000E+00  0.00000000000E+00  0.14462102697E+03  0.14462102706E+03  0.50400001928E-02 0.  1.
       -1   -1    0    0    0  501  0.00000000000E+00  0.00000000000E+00 -0.43262490461E+03  0.43262490464E+03  0.50400001928E-02 0. -1.
    10030    2    1    2    0    0  0.00000000000E+00  0.00000000000E+00 -0.28800387764E+03  0.57724593170E+03  0.50026656107E+03 0.  0.
        3    1    3    3  502    0 -0.70481805861E+02 -0.19515780889E+02 -0.42001276154E+03  0.42633235945E+03  0.10100000352E+00 0. -1.
       -3    1    3    3    0  502  0.70481805861E+02  0.19515780889E+02  0.13200888389E+03  0.15091357225E+03  0.10100000352E+00 0.  1.
</event>
<event>
 5   0  0.2723308E-02  0.4987576E+03  0.7818609E-02  0.1014104E+00
        1   -1    0    0  501    0  0.00000000000E+00  0.00000000000E+00  0.39853783435E+03  0.39853783438E+03  0.50400001928E-02 0. -1.
       -1   -1    0    0    0  501  0.00000000000E+00  0.00000000000E+00 -0.15604486279E+03  0.15604486287E+03  0.50400001928E-02 0.  1.
    10030    2    1    2    0    0  0.00000000000E+00  0.00000000000E+00  0.24249297156E+03  0.55458269726E+03  0.49875758324E+03 0.  0.
        4    1    3    3  502    0 -0.19753891403E+03 -0.15013993018E+03  0.93458339123E+02  0.26514089696E+03  0.12699999809E+01 0. -1.
       -4    1    3    3    0  502  0.19753891403E+03  0.15013993018E+03  0.14903463244E+03  0.28944180029E+03  0.12699999809E+01 0.  1.
</event>
<event>
 5   0  0.2719671E-02  0.4991232E+03  0.7818609E-02  0.1014008E+00
       -1   -1    0    0    0  501  0.00000000000E+00  0.00000000000E+00  0.56441670934E+02  0.56441671159E+02  0.50400001928E-02 0.  1.
        1   -1    0    0  501    0  0.00000000000E+00  0.00000000000E+00 -0.11034576580E+04  0.11034576581E+04  0.50400001928E-02 0. -1.
    10030    2    1    2    0    0  0.00000000000E+00  0.00000000000E+00 -0.10470159871E+04  0.11598993292E+04  0.49912320788E+03 0.  0.
        2    1    3    3  502    0 -0.21098577792E+02 -0.17176517520E+03 -0.10564622472E+03  0.20275490179E+03  0.25500000920E-02 0.  1.
       -2    1    3    3    0  502  0.21098577792E+02  0.17176517520E+03 -0.94136976239E+03  0.95714442742E+03  0.25500000920E-02 0. -1.
</event>
<event>
 5   0  0.4519539E-02  0.4993207E+03  0.7818609E-02  0.1013956E+00
        2   -1    0    0  501    0  0.00000000000E+00  0.00000000000E+00  0.13399558503E+04  0.13399558503E+04  0.25500000920E-02 0. -1.
       -2   -1    0    0    0  501  0.00000000000E+00  0.00000000000E+00 -0.46516670555E+02  0.46516670625E+02  0.25500000920E-02 0.  1.
    10030    2    1    2    0    0  0.00000000000E+00  0.00000000000E+00  0.12934391798E+04  0.13864725209E+04  0.49932067811E+03 0.  0.
        4    1    3    3  502    0  0.15452199033E+03  0.81300604080E+02  0.15123428231E+03  0.23099838693E+03  0.12699999809E+01 0.  1.
       -4    1    3    3    0  502 -0.15452199033E+03 -0.81300604080E+02  0.11422048974E+04  0.11554741340E+04  0.12699999809E+01 0. -1.
</event>
<event>
 5   0  0.2715483E-02  0.4877870E+03  0.7818609E-02  0.1017017E+00
       -1   -1    0    0    0  501  0.00000000000E+00  0.00000000000E+00  0.35988572413E+03  0.35988572416E+03  0.50400001928E-02 0. -1.
        1   -1    0    0  501    0  0.00000000000E+00  0.00000000000E+00 -0.16528589592E+03  0.16528589599E+03  0.50400001928E-02 0.  1.
    10030    2    1    2    0    0  0.00000000000E+00  0.00000000000E+00  0.19459982821E+03  0.52517162016E+03  0.48778697961E+03 0.  0.
        5    1    3    3  502    0 -0.23599874668E+00  0.15306031844E+03  0.30167589735E+03  0.33831635168E+03  0.46999998093E+01 0. -1.
       -5    1    3    3    0  502  0.23599874668E+00 -0.15306031844E+03 -0.10707606913E+03  0.18685526848E+03  0.46999998093E+01 0.  1.
</event>
<event>
 5   0  0.2779445E-02  0.4999403E+03  0.7818609E-02  0.1013794E+00
       -1   -1    0    0    0  501  0.00000000000E+00  0.00000000000E+00  0.38150887476E+03  0.38150887480E+03  0.50400001928E-02 0.  1.
        1   -1    0    0  501    0  0.00000000000E+00  0.00000000000E+00 -0.16378408877E+03  0.16378408885E+03  0.50400001928E-02 0. -1.
    10030    2    1    2    0    0  0.00000000000E+00  0.00000000000E+00  0.21772478599E+03  0.54529296365E+03  0.49994033021E+03 0.  0.
        3    1    3    3  502    0 -0.47403720139E+01  0.23785014464E+03  0.25154563672E+02  0.23922358727E+03  0.10100000352E+00 0. -1.
       -3    1    3    3    0  502  0.47403720139E+01 -0.23785014464E+03  0.19257022232E+03  0.30606937638E+03  0.10100000352E+00 0.  1.
</event>
<event>
 5   0  0.4534223E-02  0.5015742E+03  0.7818609E-02  0.1013369E+00
       -2   -1    0    0    0  501  0.00000000000E+00  0.00000000000E+00  0.28422099181E+02  0.28422099295E+02  0.25500000920E-02 0. -1.
        2   -1    0    0  501    0  0.00000000000E+00  0.00000000000E+00 -0.22128610918E+04  0.22128610918E+04  0.25500000920E-02 0.  1.
    10030    2    1    2    0    0  0.00000000000E+00  0.00000000000E+00 -0.21844389926E+04  0.22412831911E+04  0.50157415226E+03 0.  0.
        2    1    3    3  502    0 -0.31470319189E+02  0.23641416825E+03 -0.14386972221E+04  0.14583318335E+04  0.25500000920E-02 0.  1.
       -2    1    3    3    0  502  0.31470319189E+02 -0.23641416825E+03 -0.74574177054E+03  0.78295135754E+03  0.25500000920E-02 0. -1.
</event>
<event>
 5   0  0.4631619E-02  0.5026409E+03  0.7818609E-02  0.1013092E+00
        2   -1    0    0  501    0  0.00000000000E+00  0.00000000000E+00  0.61604348618E+03  0.61604348618E+03  0.25500000920E-02 0.  1.
       -2   -1    0    0    0  501  0.00000000000E+00  0.00000000000E+00 -0.10252841139E+03  0.10252841142E+03  0.25500000920E-02 0. -1.
    10030    2    1    2    0    0  0.00000000000E+00  0.00000000000E+00  0.51351507479E+03  0.71857189760E+03  0.50264086581E+03 0.  0.
        5    1    3    3  502    0  0.24506971207E+01  0.14344212248E+03  0.55167749950E+03  0.57004543843E+03  0.46999998093E+01 0.  1.
       -5    1    3    3    0  502 -0.24506971207E+01 -0.14344212248E+03 -0.38162424705E+02  0.14852645918E+03  0.46999998093E+01 0. -1.
</event>
<event>
 5   0  0.4409622E-02  0.4994416E+03  0.7818609E-02  0.1013925E+00
        2   -1    0    0  501    0  0.00000000000E+00  0.00000000000E+00  0.92589977851E+03  0.92589977852E+03  0.25500000920E-02 0.  1.
       -2   -1    0    0    0  501  0.00000000000E+00  0.00000000000E+00 -0.67351227862E+02  0.67351227911E+02  0.25500000920E-02 0. -1.
    10030    2    1    2    0    0  0.00000000000E+00  0.00000000000E+00  0.85854855065E+03  0.99325100643E+03  0.49944163617E+03 0.  0.
        3    1    3    3  502    0  0.27214380296E+02  0.73648535045E+02 -0.42165255224E+02  0.89121535884E+02  0.10100000352E+00 0. -1.
       -3    1    3    3    0  502 -0.27214380296E+02 -0.73648535045E+02  0.90071380588E+03  0.90412947054E+03  0.10100000352E+00 0.  1.
</event>
<event>
 5   0  0.1805500E-02  0.4993602E+03  0.7818609E-02  0.1013946E+00
       -4   -1    0    0    0  501  0.00000000000E+00  0.00000000000E+00  0.18169998394E+03  0.18170442225E+03  0.12699999809E+01 0. -1.
        4   -1    0    0  501    0  0.00000000000E+00  0.00000000000E+00 -0.34308411184E+03  0.34308646242E+03  0.12699999809E+01 0.  1.
    10030    2    1    2    0    0  0.00000000000E+00  0.00000000000E+00 -0.16138412790E+03  0.52479088467E+03  0.49936022659E+03 0.  0.
        3    1    3    3  502    0  0.23282775598E+02 -0.11193182018E+03  0.15257888570E+03  0.19065976652E+03  0.10100000352E+00 0. -1.
       -3    1    3    3    0  502 -0.23282775598E+02  0.11193182018E+03 -0.31396301360E+03  0.33413111815E+03  0.10100000352E+00 0.  1.
</event>
<event>
 5   0  0.4409622E-02  0.5197929E+03  0.7818609E-02  0.1008738E+00
        2   -1    0    0  501    0  0.00000000000E+00  0.00000000000E+00  0.22012085594E+03  0.22012085596E+03  0.25500000920E-02 0.  1.
       -2   -1    0    0    0  501  0.00000000000E+00  0.00000000000E+00 -0.30685942989E+03  0.30685942990E+03  0.25500000920E-02 0. -1.
    10030    2    1    2    0    0  0.00000000000E+00  0.00000000000E+00 -0.86738573949E+02  0.52698028586E+03  0.51979288325E+03 0.  0.
        3    1    3    3  502    0 -0.48100584954E+02  0.25517417647E+03 -0.32327241974E+02  0.26167267221E+03  0.10100000352E+00 0.  1.
       -3    1    3    3    0  502  0.48100584954E+02 -0.25517417647E+03 -0.54411331975E+02  0.26530761364E+03  0.10100000352E+00 0. -1.
</event>
<event>
 5   0  0.2715483E-02  0.5160114E+03  0.7818609E-02  0.1009682E+00
        1   -1    0    0  501    0  0.00000000000E+00  0.00000000000E+00  0.29907995639E+03  0.29907995643E+03  0.50400001928E-02 0.  1.
       -1   -1    0    0    0  501  0.00000000000E+00  0.00000000000E+00 -0.22257236553E+03  0.22257236558E+03  0.50400001928E-02 0. -1.
    10030    2    1    2    0    0  0.00000000000E+00  0.00000000000E+00  0.76507590862E+02  0.52165232202E+03  0.51601136965E+03 0.  0.
        5    1    3    3  502    0 -0.28557920103E+02  0.92941903566E+02  0.27980324148E+03  0.29625275725E+03  0.46999998093E+01 0.  1.
       -5    1    3    3    0  502  0.28557920103E+02 -0.92941903566E+02 -0.20329565062E+03  0.22539956477E+03  0.46999998093E+01 0. -1.
</event>
<event>
 5   0  0.2779445E-02  0.5001638E+03  0.7818609E-02  0.1013736E+00
        1   -1    0    0  501    0  0.00000000000E+00  0.00000000000E+00  0.14011868016E+04  0.14011868016E+04  0.50400001928E-02 0.  1.
       -1   -1    0    0    0  501  0.00000000000E+00  0.00000000000E+00 -0.44634276690E+02  0.44634276975E+02  0.50400001928E-02 0. -1.
    10030    2    1    2    0    0  0.00000000000E+00  0.00000000000E+00  0.13565525249E+04  0.14458210786E+04  0.50016381161E+03 0.  0.
        3    1    3    3  502    0 -0.41299114354E+02  0.90855594029E+02  0.13411259080E+04  0.13448342155E+04  0.10100000352E+00 0.  1.
       -3    1    3    3    0  502  0.41299114354E+02 -0.90855594029E+02  0.15426616929E+02  0.10098686312E+03  0.10100000352E+00 0. -1.
</event>
<event>
 5   0  0.1805500E-02  0.5002366E+03  0.7818609E-02  0.1013717E+00
       -3   -1    0    0    0  501  0.00000000000E+00  0.00000000000E+00  0.12856297660E+04  0.12856297700E+04  0.10100000352E+00 0.  1.
        3   -1    0    0  501    0  0.00000000000E+00  0.00000000000E+00 -0.48660277659E+02  0.48660382477E+02  0.10100000352E+00 0. -1.
    10030    2    1    2    0    0  0.00000000000E+00  0.00000000000E+00  0.12369694884E+04  0.13342901525E+04  0.50023663983E+03 0.  0.
        4    1    3    3  502    0 -0.14205833021E+03  0.72316343316E+02  0.11325741252E+04  0.11437377254E+04  0.12699999809E+01 0.  1.
       -4    1    3    3    0  502  0.14205833021E+03 -0.72316343316E+02  0.10439536321E+03  0.19055242704E+03  0.12699999809E+01 0. -1.
</event>
<event>
 5   0  0.2723308E-02  0.4994253E+03  0.7818609E-02  0.1013929E+00
        1   -1    0    0  501    0  0.00000000000E+00  0.00000000000E+00  0.21706340497E+03  0.21706340503E+03  0.50400001928E-02 0. -1.
       -1   -1    0    0    0  501  0.00000000000E+00  0.00000000000E+00 -0.28727277663E+03  0.28727277668E+03  0.50400001928E-02 0.  1.
    10030    2    1    2    0    0  0.00000000000E+00  0.00000000000E+00 -0.70209371663E+02  0.50433618171E+03  0.49942529803E+03 0.  0.
        4    1    3    3  502    0  0.17625689565E+03  0.17487939644E+03 -0.61927069083E+02  0.25590207375E+03  0.12699999809E+01 0.  1.
       -4    1    3    3    0  502 -0.17625689565E+03 -0.17487939644E+03 -0.82823025805E+01  0.24843410796E+03  0.12699999809E+01 0. -1.
</event>
<event>
 5   0  0.4519539E-02  0.4992596E+03  0.7818609E-02  0.1013972E+00
       -2   -1    0    0    0  501  0.00000000000E+00  0.00000000000E+00  0.82477590375E+02  0.82477590414E+02  0.25500000920E-02 0. -1.
        2   -1    0    0  501    0  0.00000000000E+00  0.00000000000E+00 -0.75553904472E+03  0.75553904473E+03  0.25500000920E-02 0.  1.
    10030    2    1    2    0    0  0.00000000000E+00  0.00000000000E+00 -0.67306145435E+03  0.83801663514E+03  0.49925961127E+03 0.  0.
        4    1    3    3  502    0 -0.20198687334E+03 -0.13700600665E+03 -0.24860318894E+03  0.34838843453E+03  0.12699999809E+01 0.  1.
       -4    1    3    3    0  502  0.20198687334E+03  0.13700600665E+03 -0.42445826540E+03  0.48962820061E+03  0.12699999809E+01 0. -1.
</event>
<event>
 5   0  0.2723308E-02  0.4999485E+03  0.7818609E-02  0.1013792E+00
       -1   -1    0    0    0  501  0.00000000000E+00  0.00000000000E+00  0.85044073580E+02  0.85044073729E+02  0.50400001928E-02 0. -1.
        1   -1    0    0  501    0  0.00000000000E+00  0.00000000000E+00 -0.73476168663E+03  0.73476168665E+03  0.50400001928E-02 0.  1.
    10030    2    1    2    0    0  0.00000000000E+00  0.00000000000E+00 -0.64971761305E+03  0.81980576038E+03  0.49994850539E+03 0.  0.
        4    1    3    3  502    0  0.17960678047E+03 -0.99174461349E+02 -0.55901660412E+03  0.59547908944E+03  0.12699999809E+01 0.  1.
       -4    1    3    3    0  502 -0.17960678047E+03  0.99174461349E+02 -0.90701008934E+02  0.22432667094E+03  0.12699999809E+01 0. -1.
</event>
<event>
 5   0  0.1805500E-02  0.4989137E+03  0.7818609E-02  0.1014063E+00
       -4   -1    0    0    0  501  0.00000000000E+00  0.00000000000E+00  0.39004258379E+02  0.39024928849E+02  0.12699999809E+01 0. -1.
        4   -1    0    0  501    0  0.00000000000E+00  0.00000000000E+00 -0.15949907502E+04  0.15949912558E+04  0.12699999809E+01 0.  1.
    10030    2    1    2    0    0  0.00000000000E+00  0.00000000000E+00 -0.15559864918E+04  0.16340161847E+04  0.49891374907E+03 0.  0.
        2    1    3    3  502    0  0.21920442082E+03  0.67326230032E+02 -0.10996476424E+04  0.11233024245E+04  0.25500000920E-02 0.  1.
       -2    1    3    3    0  502 -0.21920442082E+03 -0.67326230032E+02 -0.45633884939E+03  0.51071376017E+03  0.25500000920E-02 0. -1.
</event>
<event>
 5   0  0.2779445E-02  0.5035031E+03  0.7818609E-02  0.1012869E+00
       -1   -1    0    0    0  501  0.00000000000E+00  0.00000000000E+00  0.81829447915E+02  0.81829448070E+02  0.50400001928E-02 0.  1.
        1   -1    0    0  501    0  0.00000000000E+00  0.00000000000E+00 -0.77452373213E+03  0.77452373215E+03  0.50400001928E-02 0. -1.
    10030    2    1    2    0    0  0.00000000000E+00  0.00000000000E+00 -0.69269428421E+03  0.85635318022E+03  0.50350312599E+03 0.  0.
        3    1    3    3  502    0  0.45233917202E+02 -0.20470747603E+03 -0.58340814141E+03  0.61993251864E+03  0.10100000352E+00 0. -1.
       -3    1    3    3    0  502 -0.45233917202E+02  0.20470747603E+03 -0.10928614281E+03  0.23642066157E+03  0.10100000352E+00 0.  1.
</event>
<event>
 5   0  0.4534223E-02  0.4996126E+03  0.7818609E-02  0.1013880E+00
       -2   -1    0    0    0  501  0.00000000000E+00  0.00000000000E+00  0.63938220679E+02  0.63938220730E+02  0.25500000920E-02 0. -1.
        2   -1    0    0  501    0  0.00000000000E+00  0.00000000000E+00 -0.97599184922E+03  0.97599184922E+03  0.25500000920E-02 0.  1.
    10030    2    1    2    0    0  0.00000000000E+00  0.00000000000E+00 -0.91205362854E+03  0.10399300700E+04  0.49961257896E+03 0.  0.
        2    1    3    3  502    0 -0.13939747449E+02  0.17499514050E+03 -0.86100600722E+02  0.19552731064E+03  0.25500000920E-02 0. -1.
       -2    1    3    3    0  502  0.13939747449E+02 -0.17499514050E+03 -0.82595302782E+03  0.84440275931E+03  0.25500000920E-02 0.  1.
</event>
<event>
 5   0  0.4519539E-02  0.4832950E+03  0.7818609E-02  0.1018234E+00
        2   -1    0    0  501    0  0.00000000000E+00  0.00000000000E+00  0.64745653206E+03  0.64745653207E+03  0.25500000920E-02 0.  1.
       -2   -1    0    0    0  501  0.00000000000E+00  0.00000000000E+00 -0.90189090170E+02  0.90189090206E+02  0.25500000920E-02 0. -1.
    10030    2    1    2    0    0  0.00000000000E+00  0.00000000000E+00  0.55726744189E+03  0.73764562227E+03  0.48329500542E+03 0.  0.
        4    1    3    3  502    0 -0.23187341587E+03  0.62449051074E+02  0.23748803496E+03  0.33773857437E+03  0.12699999809E+01 0. -1.
       -4    1    3    3    0  502  0.23187341587E+03 -0.62449051074E+02  0.31977940693E+03  0.39990704790E+03  0.12699999809E+01 0.  1.
</event>
<event>
 5   0  0.4534223E-02  0.5003915E+03  0.7818609E-02  0.1013677E+00
       -2   -1    0    0    0  501  0.00000000000E+00  0.00000000000E+00  0.33037130776E+02  0.33037130874E+02  0.25500000920E-02 0.  1.
        2   -1    0    0  501    0  0.00000000000E+00  0.00000000000E+00 -0.18947745117E+04  0.18947745117E+04  0.25500000920E-02 0. -1.
    10030    2    1    2    0    0  0.00000000000E+00  0.00000000000E+00 -0.18617373810E+04  0.19278116426E+04  0.50039150045E+03 0.  0.
        2    1    3    3  502    0 -0.41019520947E+02  0.15840963695E+03 -0.16600369676E+04  0.16680824164E+04  0.25500000920E-02 0. -1.
       -2    1    3    3    0  502  0.41019520947E+02 -0.15840963695E+03 -0.20170041335E+03  0.25972922618E+03  0.25500000920E-02 0.  1.
</event>
<event>
 5   0  0.2723308E-02  0.4990322E+03  0.7818609E-02  0.1014032E+00
       -1   -1    0    0    0  501  0.00000000000E+00  0.00000000000E+00  0.10296667035E+03  0.10296667048E+03  0.50400001928E-02 0.  1.
        1   -1    0    0  501    0  0.00000000000E+00  0.00000000000E+00 -0.60464493791E+03  0.60464493793E+03  0.50400001928E-02 0. -1.
    10030    2    1    2    0    0  0.00000000000E+00  0.00000000000E+00 -0.50167826756E+03  0.70761160841E+03  0.49903216751E+03 0.  0.
        4    1    3    3  502    0  0.11655925999E+03  0.14924439148E+03 -0.20460956070E+02  0.19047365461E+03  0.12699999809E+01 0.  1.
       -4    1    3    3    0  502 -0.11655925999E+03 -0.14924439148E+03 -0.48121731149E+03  0.51713795379E+03  0.12699999809E+01 0. -1.
</event>
<event>
 5   0  0.4631619E-02  0.4985126E+03  0.7818609E-02  0.1014168E+00
       -2   -1    0    0    0  501  0.00000000000E+00  0.00000000000E+00  0.93280982593E+02  0.93280982628E+02  0.25500000920E-02 0. -1.
        2   -1    0    0  501    0  0.00000000000E+00  0.00000000000E+00 -0.66603825298E+03  0.66603825299E+03  0.25500000920E-02 0.  1.
    10030    2    1    2    0    0  0.00000000000E+00  0.00000000000E+00 -0.57275727039E+03  0.75931923561E+03  0.49851259843E+03 0.  0.
        5    1    3    3  502    0 -0.21389000635E+03  0.29782523355E+02 -0.96924995253E+02  0.23675404583E+03  0.46999998093E+01 0. -1.
       -5    1    3    3    0  502  0.21389000635E+03 -0.29782523355E+02 -0.47583227513E+03  0.52256518978E+03  0.46999998093E+01 0.  1.
</event>
<event>
 5   0  0.2719671E-02  0.4971988E+03  0.7818609E-02  0.1014513E+00
        1   -1    0    0  501    0  0.00000000000E+00  0.00000000000E+00  0.79146784656E+03  0.79146784658E+03  0.50400001928E-02 0. -1.
       -1   -1    0    0    0  501  0.00000000000E+00  0.00000000000E+00 -0.78084852676E+02  0.78084852838E+02  0.50400001928E-02 0.  1.
    10030    2    1    2    0    0  0.00000000000E+00  0.00000000000E+00  0.71338299389E+03  0.86955269942E+03  0.49719875412E+03 0.  0.
        2    1    3    3  502    0  0.20717290687E+02  0.16014707113E+03  0.26128542605E+02  0.16358175714E+03  0.25500000920E-02 0.  1.
       -2    1    3    3    0  502 -0.20717290687E+02 -0.16014707113E+03  0.68725445128E+03  0.70597094228E+03  0.25500000920E-02 0. -1.
</event>
<event>
 5   0  0.2723308E-02  0.4959179E+03  0.7818609E-02  0.1014850E+00
       -1   -1    0    0    0  501  0.00000000000E+00  0.00000000000E+00  0.88765643341E+02  0.88765643484E+02  0.50400001928E-02 0. -1.
        1   -1    0    0  501    0  0.00000000000E+00  0.00000000000E+00 -0.69265133506E+03  0.69265133508E+03  0.50400001928E-02 0.  1.
    10030    2    1    2    0    0  0.00000000000E+00  0.00000000000E+00 -0.60388569172E+03  0.78141697856E+03  0.49591790220E+03 0.  0.
        4    1    3    3  502    0  0.10241108250E+03  0.36300228842E+02  0.49251603399E+02  0.11930242986E+03  0.12699999809E+01 0. -1.
       -4    1    3    3    0  502 -0.10241108250E+03 -0.36300228842E+02 -0.65313729512E+03  0.66211454871E+03  0.12699999809E+01 0.  1.
</event>
<event>
 5   0  0.2715483E-02  0.5007917E+03  0.7818609E-02  0.1013572E+00
       -1   -1    0    0    0  501  0.00000000000E+00  0.00000000000E+00  0.89431813740E+02  0.89431813882E+02  0.50400001928E-02 0. -1.
        1   -1    0    0  501    0  0.00000000000E+00  0.00000000000E+00 -0.70107139939E+03  0.70107139941E+03  0.50400001928E-02 0.  1.
    10030    2    1    2    0    0  0.00000000000E+00  0.00000000000E+00 -0.61163958565E+03  0.79050321329E+03  0.50079172067E+03 0.  0.
        5    1    3    3  502    0 -0.13571002728E+03  0.14598335720E+03 -0.66699981869E+02  0.21023636618E+03  0.46999998093E+01 0. -1.
       -5    1    3    3    0  502  0.13571002728E+03 -0.14598335720E+03 -0.54493960378E+03  0.58026684711E+03  0.46999998093E+01 0.  1.
</event>
<event>
 5   0  0.2719671E-02  0.5012490E+03  0.7818609E-02  0.1013453E+00
        1   -1    0    0  501    0  0.00000000000E+00  0.00000000000E+00  0.21985226062E+03  0.21985226068E+03  0.50400001928E-02 0.  1.
       -1   -1    0    0    0  501  0.00000000000E+00  0.00000000000E+00 -0.28570382954E+03  0.28570382959E+03  0.50400001928E-02 0. -1.
    10030    2    1    2    0    0  0.00000000000E+00  0.00000000000E+00 -0.65851568920E+02  0.50555609027E+03  0.50124897135E+03 0.  0.
        2    1    3    3  502    0  0.54423437462E+02 -0.12513526308E+03 -0.24495081346E+03  0.28039551643E+03  0.25500000920E-02 0. -1.
       -2    1    3    3    0  502 -0.54423437462E+02  0.12513526308E+03  0.17909924454E+03  0.22516057384E+03  0.25500000920E-02 0.  1.
</event>
<event>
 5   0  0.4451135E-02  0.5005852E+03  0.7818609E-02  0.1013626E+00
       -2   -1    0    0    0  501  0.00000000000E+00  0.00000000000E+00  0.13452140062E+03  0.13452140064E+03  0.25500000920E-02 0.  1.
        2   -1    0    0  501    0  0.00000000000E+00  0.00000000000E+00 -0.46569836579E+03  0.46569836580E+03  0.25500000920E-02 0. -1.
    10030    2    1    2    0    0  0.00000000000E+00  0.00000000000E+00 -0.33117696517E+03  0.60021976644E+03  0.50058524325E+03 0.  0.
        1    1    3    3  502    0 -0.19101408840E+03 -0.12910754261E+03 -0.28240227256E+03  0.36456300292E+03  0.50400001928E-02 0.  1.
       -1    1    3    3    0  502  0.19101408840E+03  0.12910754261E+03 -0.48774692609E+02  0.23565676351E+03  0.50400001928E-02 0. -1.
</event>
<event>
 5   0  0.2723308E-02  0.5008900E+03  0.7818609E-02  0.1013547E+00
       -1   -1    0    0    0  501  0.00000000000E+00  0.00000000000E+00  0.25752524234E+02  0.25752524727E+02  0.50400001928E-02 0. -1.
        1   -1    0    0  501    0  0.00000000000E+00  0.00000000000E+00 -0.24355943136E+04  0.24355943136E+04  0.50400001928E-02 0.  1.
    10030    2    1    2    0    0  0.00000000000E+00  0.00000000000E+00 -0.24098417893E+04  0.24613468383E+04  0.50089001666E+03 0.  0.
        4    1    3    3  502    0 -0.83261823227E+02  0.15494182161E+03 -0.32889236350E+03  0.37297627131E+03  0.12699999809E+01 0. -1.
       -4    1    3    3    0  502  0.83261823227E+02 -0.15494182161E+03 -0.20809494258E+04  0.20883705670E+04  0.12699999809E+01 0.  1.
</event>
<event>
 5   0  0.4409622E-02  0.5001283E+03  0.7818609E-02  0.1013745E+00
       -2   -1    0    0    0  501  0.00000000000E+00  0.00000000000E+00  0.23013419904E+03  0.23013419906E+03  0.25500000920E-02 0.  1.
        2   -1    0    0  501    0  0.00000000000E+00  0.00000000000E+00 -0.27172005471E+03  0.27172005472E+03  0.25500000920E-02 0. -1.
    10030    2    1    2    0    0  0.00000000000E+00  0.00000000000E+00 -0.41585855668E+02  0.50185425378E+03  0.50012829219E+03 0.  0.
        3    1    3    3  502    0 -0.37462537511E+02  0.21658988064E+03 -0.14044136317E+03  0.26084172366E+03  0.10100000352E+00 0. -1.
       -3    1    3    3    0  502  0.37462537511E+02 -0.21658988064E+03  0.98855507504E+02  0.24101253012E+03  0.10100000352E+00 0.  1.
</event>
<event>
 5   0  0.4451135E-02  0.5002198E+03  0.7818609E-02  0.1013722E+00
       -2   -1    0    0    0  501  0.00000000000E+00  0.00000000000E+00  0.28835510427E+03  0.28835510428E+03  0.25500000920E-02 0. -1.
        2   -1    0    0  501    0  0.00000000000E+00  0.00000000000E+00 -0.21693725702E+03  0.21693725703E+03  0.25500000920E-02 0.  1.
    10030    2    1    2    0    0  0.00000000000E+00  0.00000000000E+00  0.71417847253E+02  0.50529236131E+03  0.50021981318E+03 0.  0.
        1    1    3    3  502    0 -0.11157608762E+03  0.12868036803E+03  0.22072495737E+03  0.27879628276E+03  0.50400001928E-02 0. -1.
       -1    1    3    3    0  502  0.11157608762E+03 -0.12868036803E+03 -0.14930711012E+03  0.22649607856E+03  0.50400001928E-02 0.  1.
</event>
<event>
 5   0  0.4451135E-02  0.5017206E+03  0.7818609E-02  0.1013331E+00
        2   -1    0    0  501    0  0.00000000000E+00  0.00000000000E+00  0.70337500349E+03  0.70337500350E+03  0.25500000920E-02 0.  1.
       -2   -1    0    0    0  501  0.00000000000E+00  0.00000000000E+00 -0.89469886485E+02  0.89469886522E+02  0.25500000920E-02 0. -1.
    10030    2    1    2    0    0  0.00000000000E+00  0.00000000000E+00  0.61390511701E+03  0.79284489002E+03  0.50172056659E+03 0.  0.
        1    1    3    3  502    0  0.65251557836E+02 -0.24104036172E+03  0.34476848337E+03  0.42570356932E+03  0.50400001928E-02 0.  1.
       -1    1    3    3    0  502 -0.65251557836E+02  0.24104036172E+03  0.26913663363E+03  0.36714132070E+03  0.50400001928E-02 0. -1.
</event>
<event>
 5   0  0.4631619E-02  0.4990282E+03  0.7818609E-02  0.1014033E+00
       -2   -1    0    0    0  501  0.00000000000E+00  0.00000000000E+00  0.43602232140E+03  0.43602232141E+03  0.25500000920E-02 0.  1.
        2   -1    0    0  501    0  0.00000000000E+00  0.00000000000E+00 -0.14278463822E+03  0.14278463824E+03  0.25500000920E-02 0. -1.
    10030    2    1    2    0    0  0.00000000000E+00  0.00000000000E+00  0.29323768318E+03  0.57880695965E+03  0.49902821334E+03 0.  0.
        5    1    3    3  502    0  0.24613470696E+03 -0.40151714296E+01  0.19354384478E+03  0.31317682773E+03  0.46999998093E+01 0. -1.
       -5    1    3    3    0  502 -0.24613470696E+03  0.40151714296E+01  0.99693838398E+02  0.26563013193E+03  0.46999998093E+01 0.  1.
</event>
<event>
 5   0  0.2715483E-02  0.5001773E+03  0.7818609E-02  0.1013733E+00
        1   -1    0    0  501    0  0.00000000000E+00  0.00000000000E+00  0.71836472533E+03  0.71836472535E+03  0.50400001928E-02 0.  1.
       -1   -1    0    0    0  501  0.00000000000E+00  0.00000000000E+00 -0.87064873285E+02  0.87064873431E+02  0.50400001928E-02 0. -1.
    10030    2    1    2    0    0  0.00000000000E+00  0.00000000000E+00  0.63129985205E+03  0.80542959878E+03  0.50017730396E+03 0.  0.
        5    1    3    3  502    0  0.95703411265E+02 -0.18760098368E+03  0.98595433009E+02  0.23258637410E+03  0.46999998093E+01 0. -1.
       -5    1    3    3    0  502 -0.95703411265E+02  0.18760098368E+03  0.53270441904E+03  0.57284322469E+03  0.46999998093E+01 0.  1.
</event>
<event>
 5   0  0.4409622E-02  0.4971327E+03  0.7818609E-02  0.1014530E+00
        2   -1    0    0  501    0  0.00000000000E+00  0.00000000000E+00  0.65422662199E+03  0.65422662200E+03  0.25500000920E-02 0.  1.
       -2   -1    0    0    0  501  0.00000000000E+00  0.00000000000E+00 -0.94440096517E+02  0.94440096552E+02  0.25500000920E-02 0. -1.
    10030    2    1    2    0    0  0.00000000000E+00  0.00000000000E+00  0.55978652547E+03  0.74866671855E+03  0.49713267983E+03 0.  0.
        3    1    3    3  502    0 -0.16384280413E+03  0.88759837944E+02  0.52763529985E+03  0.55957286670E+03  0.10100000352E+00 0.  1.
       -3    1    3    3    0  502  0.16384280413E+03 -0.88759837944E+02  0.32151225620E+02  0.18909385185E+03  0.10100000352E+00 0. -1.
</event>
<event>
 5   0  0.2719671E-02  0.5026099E+03  0.7818609E-02  0.1013100E+00
       -1   -1    0    0    0  501  0.00000000000E+00  0.00000000000E+00  0.56999068986E+02  0.56999069208E+02  0.50400001928E-02 0.  1.
        1   -1    0    0  501    0  0.00000000000E+00  0.00000000000E+00 -0.11079862029E+04  0.11079862029E+04  0.50400001928E-02 0. -1.
    10030    2    1    2    0    0  0.00000000000E+00  0.00000000000E+00 -0.10509871339E+04  0.11649852721E+04  0.50260991694E+03 0.  0.
        2    1    3    3  502    0 -0.79133311360E+02  0.83413933589E+02 -0.10434443610E+04  0.10497600201E+04  0.25500000920E-02 0. -1.
       -2    1    3    3    0  502  0.79133311360E+02 -0.83413933589E+02 -0.75427729584E+01  0.11522525207E+03  0.25500000920E-02 0.  1.
</event>
<event>
 5   0  0.2643185E-02  0.4997724E+03  0.7818609E-02  0.1013838E+00
        1   -1    0    0  501    0  0.00000000000E+00  0.00000000000E+00  0.10861040393E+04  0.10861040393E+04  0.50400001928E-02 0.  1.
       -1   -1    0    0    0  501  0.00000000000E+00  0.00000000000E+00 -0.57492745571E+02  0.57492745792E+02  0.50400001928E-02 0. -1.
    10030    2    1    2    0    0  0.00000000000E+00  0.00000000000E+00  0.10286112937E+04  0.11435967851E+04  0.49977236148E+03 0.  0.
        1    1    3    3  502    0 -0.95963236069E+02  0.52125783516E+02  0.18402251320E-02  0.10920641013E+03  0.50400001928E-02 0. -1.
       -1    1    3    3    0  502  0.95963236069E+02 -0.52125783516E+02  0.10286094535E+04  0.10343903749E+04  0.50400001928E-02 0.  1.
</event>
<event>
 5   0  0.2643185E-02  0.4996255E+03  0.7818609E-02  0.1013877E+00
       -1   -1    0    0    0  501  0.00000000000E+00  0.00000000000E+00  0.74295427191E+02  0.74295427362E+02  0.50400001928E-02 0. -1.
        1   -1    0    0  501    0  0.00000000000E+00  0.00000000000E+00 -0.83997645090E+03  0.83997645092E+03  0.50400001928E-02 0.  1.
    10030    2    1    2    0    0  0.00000000000E+00  0.00000000000E+00 -0.76568102371E+03  0.91427187828E+03  0.49962549709E+03 0.  0.
        1    1    3    3  502    0 -0.20226079617E+03 -0.13351458582E+02 -0.65002504425E+03  0.68089665096E+03  0.50400001928E-02 0. -1.
       -1    1    3    3    0  502  0.20226079617E+03  0.13351458582E+02 -0.11565597946E+03  0.23337522732E+03  0.50400001928E-02 0.  1.
</event>
<event>
 5   0  0.2779445E-02  0.5001194E+03  0.7818609E-02  0.1013748E+00
        1   -1    0    0  501    0  0.00000000000E+00  0.00000000000E+00  0.31057516892E+03  0.31057516896E+03  0.50400001928E-02 0. -1.
       -1   -1    0    0    0  501  0.00000000000E+00  0.00000000000E+00 -0.20133564294E+03  0.20133564300E+03  0.50400001928E-02 0.  1.
    10030    2    1    2    0    0  0.00000000000E+00  0.00000000000E+00  0.10923952598E+03  0.51191081196E+03  0.50011939111E+03 0.  0.
        3    1    3    3  502    0  0.21715361904E+03 -0.42165105141E+02  0.17397189790E+03  0.28142462901E+03  0.10100000352E+00 0. -1.
       -3    1    3    3    0  502 -0.21715361904E+03  0.42165105141E+02 -0.64732371923E+02  0.23048618295E+03  0.10100000352E+00 0.  1.
</event>
<event>
 5   0  0.4534223E-02  0.4967240E+03  0.7818609E-02  0.1014638E+00
        2   -1    0    0  501    0  0.00000000000E+00  0.00000000000E+00  0.22013174283E+04  0.22013174283E+04  0.25500000920E-02 0. -1.
       -2   -1    0    0    0  501  0.00000000000E+00  0.00000000000E+00 -0.28021252674E+02  0.28021252790E+02  0.25500000920E-02 0.  1.
    10030    2    1    2    0    0  0.00000000000E+00  0.00000000000E+00  0.21732961756E+04  0.22293386811E+04  0.49672395555E+03 0.  0.
        2    1    3    3  502    0 -0.20297907131E+03  0.12750244660E+03  0.79487795312E+03  0.83023390538E+03  0.25500000920E-02 0. -1.
       -2    1    3    3    0  502  0.20297907131E+03 -0.12750244660E+03  0.13784182225E+04  0.13991047757E+04  0.25500000920E-02 0.  1.
</event>
<event>
 5   0  0.2715483E-02  0.5046826E+03  0.7818609E-02  0.1012564E+00
        1   -1    0    0  501    0  0.00000000000E+00  0.00000000000E+00  0.51571830299E+02  0.51571830545E+02  0.50400001928E-02 0. -1.
       -1   -1    0    0    0  501  0.00000000000E+00  0.00000000000E+00 -0.12347074236E+04  0.12347074236E+04  0.50400001928E-02 0.  1.
    10030    2    1    2    0    0  0.00000000000E+00  0.00000000000E+00 -0.11831355933E+04  0.12862792541E+04  0.50468256115E+03 0.  0.
        5    1    3    3  502    0  0.35620901074E+02 -0.60621641316E+02 -0.12091201006E+04  0.12111718869E+04  0.46999998093E+01 0.  1.
       -5    1    3    3    0  502 -0.35620901074E+02  0.60621641316E+02  0.25984507330E+02  0.75107367206E+02  0.46999998093E+01 0. -1.
</event>
<event>
 5   0  0.4631619E-02  0.4975976E+03  0.7818609E-02  0.1014408E+00
       -2   -1    0    0    0  501  0.00000000000E+00  0.00000000000E+00  0.25236174717E+02  0.25236174846E+02  0.25500000920E-02 0.  1.
        2   -1    0    0  501    0  0.00000000000E+00  0.00000000000E+00 -0.24528611344E+04  0.24528611344E+04  0.25500000920E-02 0. -1.
    10030    2    1    2    0    0  0.00000000000E+00  0.00000000000E+00 -0.24276249596E+04  0.24780973092E+04  0.49759755748E+03 0.  0.
        5    1    3    3  502    0  0.11632080902E+03  0.33872253624E+02 -0.22957823668E+04  0.22989816498E+04  0.46999998093E+01 0. -1.
       -5    1    3    3    0  502 -0.11632080902E+03 -0.33872253624E+02 -0.13184259283E+03  0.17911565944E+03  0.46999998093E+01 0.  1.
</event>
<event>
 5   0  0.1805500E-02  0.4934253E+03  0.7818609E-02  0.1015509E+00
       -4   -1    0    0    0  501  0.00000000000E+00  0.00000000000E+00  0.50134806660E+03  0.50134967517E+03  0.12699999809E+01 0. -1.
        4   -1    0    0  501    0  0.00000000000E+00  0.00000000000E+00 -0.12140181325E+03  0.12140845588E+03  0.12699999809E+01 0.  1.
    10030    2    1    2    0    0  0.00000000000E+00  0.00000000000E+00  0.37994625336E+03  0.62275813105E+03  0.49342530776E+03 0.  0.
        3    1    3    3  502    0  0.19393708677E+03 -0.52186862213E+02  0.91248974729E+01  0.20104312017E+03  0.10100000352E+00 0.  1.
       -3    1    3    3    0  502 -0.19393708677E+03  0.52186862213E+02  0.37082135589E+03  0.42171501087E+03  0.10100000352E+00 0. -1.
</event>
<event>
 5   0  0.1805500E-02  0.4997405E+03  0.7818609E-02  0.1013847E+00
        4   -1    0    0  501    0  0.00000000000E+00  0.00000000000E+00  0.11190593932E+03  0.11191314558E+03  0.12699999809E+01 0.  1.
       -4   -1    0    0    0  501  0.00000000000E+00  0.00000000000E+00 -0.55789919477E+03  0.55790064028E+03  0.12699999809E+01 0. -1.
    10030    2    1    2    0    0  0.00000000000E+00  0.00000000000E+00 -0.44599325546E+03  0.66981378587E+03  0.49974045646E+03 0.  0.
        4    1    3    3  502    0 -0.20955938107E+03 -0.78802606704E+02 -0.37169722759E+03  0.43391868699E+03  0.12699999809E+01 0. -1.
       -4    1    3    3    0  502  0.20955938107E+03  0.78802606704E+02 -0.74296027865E+02  0.23589509888E+03  0.12699999809E+01 0.  1.
</event>
<event>
 5   0  0.2643185E-02  0.4986752E+03  0.7818609E-02  0.1014125E+00
        1   -1    0    0  501    0  0.00000000000E+00  0.00000000000E+00  0.24576687391E+03  0.24576687396E+03  0.50400001928E-02 0. -1.
       -1   -1    0    0    0  501  0.00000000000E+00  0.00000000000E+00 -0.25296018508E+03  0.25296018513E+03  0.50400001928E-02 0.  1.
    10030    2    1    2    0    0  0.00000000000E+00  0.00000000000E+00 -0.71933111703E+01  0.49872705908E+03  0.49867518059E+03 0.  0.
        1    1    3    3  502    0 -0.55104562978E+02 -0.37232192612E+02  0.23673332703E+03  0.24589716790E+03  0.50400001928E-02 0. -1.
       -1    1    3    3    0  502  0.55104562978E+02  0.37232192612E+02 -0.24392663820E+03  0.25282989119E+03  0.50400001928E-02 0.  1.
</event>
<event>
 5   0  0.2719671E-02  0.4920911E+03  0.7818609E-02  0.1015864E+00
        1   -1    0    0  501    0  0.00000000000E+00  0.00000000000E+00  0.62549652230E+03  0.62549652233E+03  0.50400001928E-02 0.  1.
       -1   -1    0    0    0  501  0.00000000000E+00  0.00000000000E+00 -0.96784571714E+02  0.96784571845E+02  0.50400001928E-02 0. -1.
    10030    2    1    2    0    0  0.00000000000E+00  0.00000000000E+00  0.52871195059E+03  0.72228109417E+03  0.49209110163E+03 0.  0.
        2    1    3    3  502    0  0.10804454270E+03  0.11218410564E+03 -0.15214612475E+02  0.15649402929E+03  0.25500000920E-02 0. -1.
       -2    1    3    3    0  502 -0.10804454270E+03 -0.11218410564E+03  0.54392656307E+03  0.56578706488E+03  0.25500000920E-02 0.  1.
</event>
<event>
 5   0  0.4451135E-02  0.5060421E+03  0.7818609E-02  0.1012214E+00
        2   -1    0    0  501    0  0.00000000000E+00  0.00000000000E+00  0.46438307568E+03  0.46438307568E+03  0.25500000920E-02 0. -1.
       -2   -1    0    0    0  501  0.00000000000E+00  0.00000000000E+00 -0.13785958804E+03  0.13785958807E+03  0.25500000920E-02 0.  1.
    10030    2    1    2    0    0  0.00000000000E+00  0.00000000000E+00  0.32652348763E+03  0.60224266375E+03  0.50604213072E+03 0.  0.
        1    1    3    3  502    0 -0.11952051309E+02  0.33131626919E+02 -0.13492779038E+03  0.13944914799E+03  0.50400001928E-02 0.  1.
       -1    1    3    3    0  502  0.11952051309E+02 -0.33131626919E+02  0.46145127801E+03  0.46279351577E+03  0.50400001928E-02 0. -1.
</event>
<event>
 5   0  0.4451135E-02  0.4997990E+03  0.7818609E-02  0.1013831E+00
        2   -1    0    0  501    0  0.00000000000E+00  0.00000000000E+00  0.48762439969E+03  0.48762439969E+03  0.25500000920E-02 0. -1.
       -2   -1    0    0    0  501  0.00000000000E+00  0.00000000000E+00 -0.12806940380E+03  0.12806940382E+03  0.25500000920E-02 0.  1.
    10030    2    1    2    0    0  0.00000000000E+00  0.00000000000E+00  0.35955499589E+03  0.61569380352E+03  0.49979902423E+03 0.  0.
        1    1    3    3  502    0 -0.88157422321E+02 -0.17938237425E+03 -0.50049118740E+01  0.19993703126E+03  0.50400001928E-02 0.  1.
       -1    1    3    3    0  502  0.88157422321E+02  0.17938237425E+03  0.36455990776E+03  0.41575677225E+03  0.50400001928E-02 0. -1.
</event>
<event>
 5   0  0.2715483E-02  0.4990429E+03  0.7818609E-02  0.1014029E+00
        1   -1    0    0  501    0  0.00000000000E+00  0.00000000000E+00  0.10013085764E+04  0.10013085764E+04  0.50400001928E-02 0.  1.
       -1   -1    0    0    0  501  0.00000000000E+00  0.00000000000E+00 -0.62179591897E+02  0.62179592102E+02  0.50400001928E-02 0. -1.
    10030    2    1    2    0    0  0.00000000000E+00  0.00000000000E+00  0.93912898451E+03  0.10634881685E+04  0.49904291903E+03 0.  0.
        5    1    3    3  502    0 -0.13873995372E+03 -0.11280180391E+03  0.98823010495E+02  0.20435532566E+03  0.46999998093E+01 0. -1.
       -5    1    3    3    0  502  0.13873995372E+03  0.11280180391E+03  0.84030597401E+03  0.85913284286E+03  0.46999998093E+01 0.  1.
</event>
<event>
 5   0  0.2719671E-02  0.4998426E+03  0.7818609E-02  0.1013820E+00
       -1   -1    0    0    0  501  0.00000000000E+00  0.00000000000E+00  0.13899445318E+03  0.13899445327E+03  0.50400001928E-02 0. -1.
        1   -1    0    0  501    0  0.00000000000E+00  0.00000000000E+00 -0.44937526085E+03  0.44937526087E+03  0.50400001928E-02 0.  1.
    10030    2    1    2    0    0  0.00000000000E+00  0.00000000000E+00 -0.31038080767E+03  0.58836971414E+03  0.49984265000E+03 0.  0.
        2    1    3    3  502    0  0.12913191074E+03 -0.21362494788E+03 -0.16960699434E+03  0.30178999530E+03  0.25500000920E-02 0. -1.
       -2    1    3    3    0  502 -0.12913191074E+03  0.21362494788E+03 -0.14077381333E+03  0.28657971884E+03  0.25500000920E-02 0.  1.
</event>
<event>
 5   0  0.4631619E-02  0.5033197E+03  0.7818609E-02  0.1012916E+00
        2   -1    0    0  501    0  0.00000000000E+00  0.00000000000E+00  0.84400272964E+03  0.84400272964E+03  0.25500000920E-02 0.  1.
       -2   -1    0    0    0  501  0.00000000000E+00  0.00000000000E+00 -0.75038488178E+02  0.75038488222E+02  0.25500000920E-02 0. -1.
    10030    2    1    2    0    0  0.00000000000E+00  0.00000000000E+00  0.76896424146E+03  0.91904121787E+03  0.50331973485E+03 0.  0.
        5    1    3    3  502    0 -0.20246780274E+03 -0.19482998436E+02  0.65493248555E+03  0.68580715147E+03  0.46999998093E+01 0.  1.
       -5    1    3    3    0  502  0.20246780274E+03  0.19482998436E+02  0.11403175591E+03  0.23323406640E+03  0.46999998093E+01 0. -1.
</event>
<event>
 5   0  0.2715483E-02  0.5114964E+03  0.7818609E-02  0.1010821E+00
       -1   -1    0    0    0  501  0.00000000000E+00  0.00000000000E+00  0.76721543364E+03  0.76721543366E+03  0.50400001928E-02 0. -1.
        1   -1    0    0  501    0  0.00000000000E+00  0.00000000000E+00 -0.85252654353E+02  0.85252654502E+02  0.50400001928E-02 0.  1.
    10030    2    1    2    0    0  0.00000000000E+00  0.00000000000E+00  0.68196277929E+03  0.85246808816E+03  0.51149644084E+03 0.  0.
        5    1    3    3  502    0  0.14422306249E+03  0.21112247668E+03  0.33519116705E+03  0.42160194541E+03  0.46999998093E+01 0. -1.
       -5    1    3    3    0  502 -0.14422306249E+03 -0.21112247668E+03  0.34677161224E+03  0.43086614275E+03  0.46999998093E+01 0.  1.
</event>
<event>
 5   0  0.2719671E-02  0.4972445E+03  0.7818609E-02  0.1014501E+00
        1   -1    0    0  501    0  0.00000000000E+00  0.00000000000E+00  0.54274060339E+03  0.54274060341E+03  0.50400001928E-02 0.  1.
       -1   -1    0    0    0  501  0.00000000000E+00  0.00000000000E+00 -0.11389056556E+03  0.11389056567E+03  0.50400001928E-02 0. -1.
    10030    2    1    2    0    0  0.00000000000E+00  0.00000000000E+00  0.42885003783E+03  0.65663116908E+03  0.49724454473E+03 0.  0.
        2    1    3    3  502    0  0.37218926520E+02  0.12497630642E+03  0.49395775853E+03  0.51088021382E+03  0.25500000920E-02 0.  1.
       -2    1    3    3    0  502 -0.37218926520E+02 -0.12497630642E+03 -0.65107720699E+02  0.14575095526E+03  0.25500000920E-02 0. -1.
</event>
<event>
 5   0  0.4631619E-02  0.5000389E+03  0.7818609E-02  0.1013769E+00
       -2   -1    0    0    0  501  0.00000000000E+00  0.00000000000E+00  0.57452107809E+02  0.57452107866E+02  0.25500000920E-02 0. -1.
        2   -1    0    0  501    0  0.00000000000E+00  0.00000000000E+00 -0.10880317098E+04  0.10880317098E+04  0.25500000920E-02 0.  1.
    10030    2    1    2    0    0  0.00000000000E+00  0.00000000000E+00 -0.10305796020E+04  0.11454838176E+04  0.50003885898E+03 0.  0.
        5    1    3    3  502    0 -0.26042889705E+02  0.65680234273E+02 -0.10645803538E+04  0.10669327743E+04  0.46999998093E+01 0.  1.
       -5    1    3    3    0  502  0.26042889705E+02 -0.65680234273E+02  0.34000751840E+02  0.78551043292E+02  0.46999998093E+01 0. -1.
</event>
<event>
 5   0  0.4451135E-02  0.5010035E+03  0.7818609E-02  0.1013517E+00
       -2   -1    0    0    0  501  0.00000000000E+00  0.00000000000E+00  0.64719404442E+02  0.64719404492E+02  0.25500000920E-02 0. -1.
        2   -1    0    0  501    0  0.00000000000E+00  0.00000000000E+00 -0.96958756670E+03  0.96958756670E+03  0.25500000920E-02 0.  1.
    10030    2    1    2    0    0  0.00000000000E+00  0.00000000000E+00 -0.90486816226E+03  0.10343069712E+04  0.50100351256E+03 0.  0.
        1    1    3    3  502    0 -0.46412198145E+02 -0.10366967066E+03  0.85009137932E+01  0.11390240696E+03  0.50400001928E-02 0. -1.
       -1    1    3    3    0  502  0.46412198145E+02  0.10366967066E+03 -0.91336907605E+03  0.92040456423E+03  0.50400001928E-02 0.  1.
</event>
<event>
 5   0  0.2719671E-02  0.5044523E+03  0.7818609E-02  0.1012623E+00
       -1   -1    0    0    0  501  0.00000000000E+00  0.00000000000E+00  0.17444146449E+03  0.17444146456E+03  0.50400001928E-02 0.  1.
        1   -1    0    0  501    0  0.00000000000E+00  0.00000000000E+00 -0.36469555479E+03  0.36469555482E+03  0.50400001928E-02 0. -1.
    10030    2    1    2    0    0  0.00000000000E+00  0.00000000000E+00 -0.19025409030E+03  0.53913701939E+03  0.50445228397E+03 0.  0.
        2    1    3    3  502    0 -0.11449792444E+03  0.21769075180E+03 -0.15481489747E+03  0.29063153753E+03  0.25500000920E-02 0. -1.
       -2    1    3    3    0  502  0.11449792444E+03 -0.21769075180E+03 -0.35439192827E+02  0.24850548186E+03  0.25500000920E-02 0.  1.
</event>
<event>
 5   0  0.1805500E-02  0.5003209E+03  0.7818609E-02  0.1013695E+00
        3   -1    0    0  501    0  0.00000000000E+00  0.00000000000E+00  0.97054152138E+02  0.97054204691E+02  0.10100000352E+00 0.  1.
       -3   -1    0    0    0  501  0.00000000000E+00  0.00000000000E+00 -0.64479698759E+03  0.64479699550E+03  0.10100000352E+00 0. -1.
    10030    2    1    2    0    0  0.00000000000E+00  0.00000000000E+00 -0.54774283545E+03  0.74185120019E+03  0.50032088647E+03 0.  0.
        5    1    3    3  502    0  0.98788166248E+02 -0.22838326812E+03 -0.23635640359E+03  0.34322654103E+03  0.46999998093E+01 0.  1.
       -5    1    3    3    0  502 -0.98788166248E+02  0.22838326812E+03 -0.31138643186E+03  0.39862465917E+03  0.46999998093E+01 0. -1.
</event>
<event>
 5   0  0.2715483E-02  0.5004621E+03  0.7818609E-02  0.1013658E+00
       -1   -1    0    0    0  501  0.00000000000E+00  0.00000000000E+00  0.73550174372E+02  0.73550174544E+02  0.50400001928E-02 0. -1.
        1   -1    0    0  501    0  0.00000000000E+00  0.00000000000E+00 -0.85133146393E+03  0.85133146395E+03  0.50400001928E-02 0.  1.
    10030    2    1    2    0    0  0.00000000000E+00  0.00000000000E+00 -0.77778128956E+03  0.92488163849E+03  0.50046209729E+03 0.  0.
        5    1    3    3  502    0 -0.83917726517E+01 -0.53916216263E+01  0.73100992827E+02  0.73927914772E+02  0.46999998093E+01 0. -1.
       -5    1    3    3    0  502  0.83917726517E+01  0.53916216263E+01 -0.85088228239E+03  0.85095372372E+03  0.46999998093E+01 0.  1.
</event>
<event>
 5   0  0.2779445E-02  0.4995624E+03  0.7818609E-02  0.1013893E+00
       -1   -1    0    0    0  501  0.00000000000E+00  0.00000000000E+00  0.60801797765E+02  0.60801797974E+02  0.50400001928E-02 0.  1.
        1   -1    0    0  501    0  0.00000000000E+00  0.00000000000E+00 -0.10261314958E+04  0.10261314958E+04  0.50400001928E-02 0. -1.
    10030    2    1    2    0    0  0.00000000000E+00  0.00000000000E+00 -0.96532969806E+03  0.10869332938E+04  0.49956236772E+03 0.  0.
        3    1    3    3  502    0 -0.15698829321E+03  0.96140292442E+02 -0.11533729439E+03  0.21723485382E+03  0.10100000352E+00 0.  1.
       -3    1    3    3    0  502  0.15698829321E+03 -0.96140292442E+02 -0.84999240367E+03  0.86969843999E+03  0.10100000352E+00 0. -1.
</event>
<event>
 5   0  0.2643185E-02  0.5116040E+03  0.7818609E-02  0.1010794E+00
        1   -1    0    0  501    0  0.00000000000E+00  0.00000000000E+00  0.27071353176E+03  0.27071353181E+03  0.50400001928E-02 0.  1.
       -1   -1    0    0    0  501  0.00000000000E+00  0.00000000000E+00 -0.24171187431E+03  0.24171187436E+03  0.50400001928E-02 0. -1.
    10030    2    1    2    0    0  0.00000000000E+00  0.00000000000E+00  0.29001657454E+02  0.51242540618E+03  0.51160404686E+03 0.  0.
        1    1    3    3  502    0 -0.96236908413E+02  0.18869025767E+03 -0.12914880774E+03  0.24808258795E+03  0.50400001928E-02 0. -1.
       -1    1    3    3    0  502  0.96236908413E+02 -0.18869025767E+03  0.15815046519E+03  0.26434281822E+03  0.50400001928E-02 0.  1.
</event>
<event>
 5   0  0.2715483E-02  0.5001787E+03  0.7818609E-02  0.1013732E+00
        1   -1    0    0  501    0  0.00000000000E+00  0.00000000000E+00  0.31694401261E+03  0.31694401265E+03  0.50400001928E-02 0. -1.
       -1   -1    0    0    0  501  0.00000000000E+00  0.00000000000E+00 -0.19733665907E+03  0.19733665913E+03  0.50400001928E-02 0.  1.
    10030    2    1    2    0    0  0.00000000000E+00  0.00000000000E+00  0.11960735354E+03  0.51428067178E+03  0.50017865843E+03 0.  0.
        5    1    3    3  502    0 -0.39539140720E+02  0.13513675945E+03  0.27226272282E+03  0.30655238971E+03  0.46999998093E+01 0. -1.
       -5    1    3    3    0  502  0.39539140720E+02 -0.13513675945E+03 -0.15265536927E+03  0.20772828207E+03  0.46999998093E+01 0.  1.
</event>
<event>
 5   0  0.2723308E-02  0.5027770E+03  0.7818609E-02  0.1013057E+00
        1   -1    0    0  501    0  0.00000000000E+00  0.00000000000E+00  0.94218815335E+03  0.94218815336E+03  0.50400001928E-02 0.  1.
       -1   -1    0    0    0  501  0.00000000000E+00  0.00000000000E+00 -0.67073847668E+02  0.67073847857E+02  0.50400001928E-02 0. -1.
    10030    2    1    2    0    0  0.00000000000E+00  0.00000000000E+00  0.87511430568E+03  0.10092620012E+04  0.50277702722E+03 0.  0.
        4    1    3    3  502    0  0.21599822176E+03  0.64106892374E+02  0.21375828565E+03  0.31057872277E+03  0.12699999809E+01 0. -1.
       -4    1    3    3    0  502 -0.21599822176E+03 -0.64106892374E+02  0.66135602003E+03  0.69868327845E+03  0.12699999809E+01 0.  1.
</event>
<event>
 5   0  0.2779445E-02  0.4980365E+03  0.7818609E-02  0.1014293E+00
       -1   -1    0    0    0  501  0.00000000000E+00  0.00000000000E+00  0.14474893491E+03  0.14474893500E+03  0.50400001928E-02 0.  1.
        1   -1    0    0  501    0  0.00000000000E+00  0.00000000000E+00 -0.42839749165E+03  0.42839749168E+03  0.50400001928E-02 0. -1.
    10030    2    1    2    0    0  0.00000000000E+00  0.00000000000E+00 -0.28364855674E+03  0.57314642667E+03  0.49803646721E+03 0.  0.
        3    1    3    3  502    0  0.12988847204E+03 -0.20953143462E+03 -0.18227713830E+03  0.30659322009E+03  0.10100000352E+00 0.  1.
       -3    1    3    3    0  502 -0.12988847204E+03  0.20953143462E+03 -0.10137141844E+03  0.26655320658E+03  0.10100000352E+00 0. -1.
</event>
<event>
 5   0  0.4519539E-02  0.4999936E+03  0.7818609E-02  0.1013781E+00
        2   -1    0    0  501    0  0.00000000000E+00  0.00000000000E+00  0.64531828241E+03  0.64531828241E+03  0.25500000920E-02 0. -1.
       -2   -1    0    0    0  501  0.00000000000E+00  0.00000000000E+00 -0.96848941787E+02  0.96848941821E+02  0.25500000920E-02 0.  1.
    10030    2    1    2    0    0  0.00000000000E+00  0.00000000000E+00  0.54846934062E+03  0.74216722423E+03  0.49999357108E+03 0.  0.
        4    1    3    3  502    0 -0.11465592497E+03  0.22184938449E+03  0.25707453223E+03  0.35840209060E+03  0.12699999809E+01 0.  1.
       -4    1    3    3    0  502  0.11465592497E+03 -0.22184938449E+03  0.29139480839E+03  0.38376513363E+03  0.12699999809E+01 0. -1.
</event>
<event>
 5   0  0.2779445E-02  0.4976008E+03  0.7818609E-02  0.1014407E+00
       -1   -1    0    0    0  501  0.00000000000E+00  0.00000000000E+00  0.27388944104E+03  0.27388944109E+03  0.50400001928E-02 0. -1.
        1   -1    0    0  501    0  0.00000000000E+00  0.00000000000E+00 -0.22600958668E+03  0.22600958674E+03  0.50400001928E-02 0.  1.
    10030    2    1    2    0    0  0.00000000000E+00  0.00000000000E+00  0.47879854360E+02  0.49989902783E+03  0.49760080142E+03 0.  0.
        3    1    3    3  502    0  0.24465500058E+03 -0.30353414857E+02 -0.97444734162E+01  0.24672325400E+03  0.10100000352E+00 0.  1.
       -3    1    3    3    0  502 -0.24465500058E+03  0.30353414857E+02  0.57624327777E+02  0.25317577383E+03  0.10100000352E+00 0. -1.
</event>
<event>
 5   0  0.4409622E-02  0.5006769E+03  0.7818609E-02  0.1013602E+00
       -2   -1    0    0    0  501  0.00000000000E+00  0.00000000000E+00  0.99250990788E+02  0.99250990821E+02  0.25500000920E-02 0.  1.
        2   -1    0    0  501    0  0.00000000000E+00  0.00000000000E+00 -0.63142283705E+03  0.63142283705E+03  0.25500000920E-02 0. -1.
    10030    2    1    2    0    0  0.00000000000E+00  0.00000000000E+00 -0.53217184626E+03  0.73067382787E+03  0.50067691058E+03 0.  0.
        3    1    3    3  502    0  0.47395638012E+02 -0.14272815836E+03 -0.55814871945E+03  0.57805508121E+03  0.10100000352E+00 0. -1.
       -3    1    3    3    0  502 -0.47395638012E+02  0.14272815836E+03  0.25976873187E+02  0.15261874666E+03  0.10100000352E+00 0.  1.
</event>
<event>
 5   0  0.4409622E-02  0.5039076E+03  0.7818609E-02  0.1012764E+00
        2   -1    0    0  501    0  0.00000000000E+00  0.00000000000E+00  0.92770863379E+03  0.92770863379E+03  0.25500000920E-02 0.  1.
       -2   -1    0    0    0  501  0.00000000000E+00  0.00000000000E+00 -0.68427426568E+02  0.68427426615E+02  0.25500000920E-02 0. -1.
    10030    2    1    2    0    0  0.00000000000E+00  0.00000000000E+00  0.85928120722E+03  0.99613606041E+03  0.50390758851E+03 0.  0.
        3    1    3    3  502    0  0.32094608839E+02 -0.15354874257E+03  0.81939781638E+03  0.83427817420E+03  0.10100000352E+00 0.  1.
       -3    1    3    3    0  502 -0.32094608839E+02  0.15354874257E+03  0.39883390842E+02  0.16185788621E+03  0.10100000352E+00 0. -1.
</event>
<event>
 5   0  0.1805500E-02  0.4951883E+03  0.7818609E-02  0.1015043E+00
        4   -1    0    0  501    0  0.00000000000E+00  0.00000000000E+00  0.18301113094E+03  0.18301553745E+03  0.12699999809E+01 0. -1.
       -4   -1    0    0    0  501  0.00000000000E+00  0.00000000000E+00 -0.33495834290E+03  0.33496075050E+03  0.12699999809E+01 0.  1.
    10030    2    1    2    0    0  0.00000000000E+00  0.00000000000E+00 -0.15194721196E+03  0.51797628795E+03  0.49518832747E+03 0.  0.
        4    1    3    3  502    0  0.38196635481E+01 -0.24729551090E+03 -0.63974102988E+02  0.25546811600E+03  0.12699999809E+01 0. -1.
       -4    1    3    3    0  502 -0.38196635481E+01  0.24729551090E+03 -0.87973108969E+02  0.26250817195E+03  0.12699999809E+01 0.  1.
</event>
<event>
 5   0  0.4631619E-02  0.4984736E+03  0.7818609E-02  0.1014178E+00
        2   -1    0    0  501    0  0.00000000000E+00  0.00000000000E+00  0.10288838128E+04  0.10288838128E+04  0.25500000920E-02 0.  1.
       -2   -1    0    0    0  501  0.00000000000E+00  0.00000000000E+00 -0.60375110053E+02  0.60375110107E+02  0.25500000920E-02 0. -1.
    10030    2    1    2    0    0  0.00000000000E+00  0.00000000000E+00  0.96850870273E+03  0.10892589229E+04  0.49847356383E+03 0.  0.
        5    1    3    3  502    0  0.14532152049E+03  0.71734049079E+02  0.70608037790E+02  0.17683807032E+03  0.46999998093E+01 0. -1.
       -5    1    3    3    0  502 -0.14532152049E+03 -0.71734049079E+02  0.89790066494E+03  0.91242085258E+03  0.46999998093E+01 0.  1.
</event>
<event>
 5   0  0.2715483E-02  0.5032797E+03  0.7818609E-02  0.1012926E+00
       -1   -1    0    0    0  501  0.00000000000E+00  0.00000000000E+00  0.51460773599E+03  0.51460773602E+03  0.50400001928E-02 0. -1.
        1   -1    0    0  501    0  0.00000000000E+00  0.00000000000E+00 -0.12305026596E+03  0.12305026606E+03  0.50400001928E-02 0.  1.
    10030    2    1    2    0    0  0.00000000000E+00  0.00000000000E+00  0.39155747004E+03  0.63765800208E+03  0.50327971872E+03 0.  0.
        5    1    3    3  502    0 -0.11802300289E+03  0.54208553813E+02  0.46879565909E+03  0.48647657344E+03  0.46999998093E+01 0. -1.
       -5    1    3    3    0  502  0.11802300289E+03 -0.54208553813E+02 -0.77238189058E+02  0.15118142864E+03  0.46999998093E+01 0.  1.
</event>
<event>
 5   0  0.2719671E-02  0.4978595E+03  0.7818609E-02  0.1014339E+00
       -1   -1    0    0    0  501  0.00000000000E+00  0.00000000000E+00  0.67633668579E+03  0.67633668581E+03  0.50400001928E-02 0.  1.
        1   -1    0    0  501    0  0.00000000000E+00  0.00000000000E+00 -0.91620063654E+02  0.91620063793E+02  0.50400001928E-02 0. -1.
    10030    2    1    2    0    0  0.00000000000E+00  0.00000000000E+00  0.58471662214E+03  0.76795674960E+03  0.49785945914E+03 0.  0.
        2    1    3    3  502    0  0.24883591283E+03  0.52728316765E+01  0.29906355908E+03  0.38908370133E+03  0.25500000920E-02 0.  1.
       -2    1    3    3    0  502 -0.24883591283E+03 -0.52728316765E+01  0.28565306306E+03  0.37887304827E+03  0.25500000920E-02 0. -1.
</event>
<event>
 5   0  0.4631619E-02  0.4975851E+03  0.7818609E-02  0.1014411E+00
       -2   -1    0    0    0  501  0.00000000000E+00  0.00000000000E+00  0.10778724063E+03  0.10778724066E+03  0.25500000920E-02 0.  1.
        2   -1    0    0  501    0  0.00000000000E+00  0.00000000000E+00 -0.57425837750E+03  0.57425837750E+03  0.25500000920E-02 0. -1.
    10030    2    1    2    0    0  0.00000000000E+00  0.00000000000E+00 -0.46647113687E+03  0.68204561816E+03  0.49758507184E+03 0.  0.
        5    1    3    3  502    0 -0.19925787638E+03 -0.89722151525E+02 -0.70346406943E+02  0.22961810194E+03  0.46999998093E+01 0.  1.
       -5    1    3    3    0  502  0.19925787638E+03  0.89722151525E+02 -0.39612472993E+03  0.45242751622E+03  0.46999998093E+01 0. -1.
</event>
<event>
 5   0  0.4451135E-02  0.4984653E+03  0.7818609E-02  0.1014180E+00
       -2   -1    0    0    0  501  0.00000000000E+00  0.00000000000E+00  0.19210581284E+03  0.19210581286E+03  0.25500000920E-02 0. -1.
        2   -1    0    0  501    0  0.00000000000E+00  0.00000000000E+00 -0.32334735120E+03  0.32334735121E+03  0.25500000920E-02 0.  1.
    10030    2    1    2    0    0  0.00000000000E+00  0.00000000000E+00 -0.13124153836E+03  0.51545316406E+03  0.49846526755E+03 0.  0.
        1    1    3    3  502    0  0.11304363057E+03 -0.99887735061E+02  0.13953537145E+03  0.20549097776E+03  0.50400001928E-02 0. -1.
       -1    1    3    3    0  502 -0.11304363057E+03  0.99887735061E+02 -0.27077690981E+03  0.30996218630E+03  0.50400001928E-02 0.  1.
</event>
<event>
 5   0  0.2719671E-02  0.5045915E+03  0.7818609E-02  0.1012587E+00
       -1   -1    0    0    0  501  0.00000000000E+00  0.00000000000E+00  0.87629818784E+02  0.87629818929E+02  0.50400001928E-02 0.  1.
        1   -1    0    0  501    0  0.00000000000E+00  0.00000000000E+00 -0.72638669203E+03  0.72638669205E+03  0.50400001928E-02 0. -1.
    10030    2    1    2    0    0  0.00000000000E+00  0.00000000000E+00 -0.63875687325E+03  0.81401651098E+03  0.50459145556E+03 0.  0.
        2    1    3    3  502    0 -0.12417133247E+02 -0.74268181277E+02  0.69079823178E+02  0.10218595757E+03  0.25500000920E-02 0.  1.
       -2    1    3    3    0  502  0.12417133247E+02  0.74268181277E+02 -0.70783669643E+03  0.71183055341E+03  0.25500000920E-02 0. -1.
</event>
<event>
 5   0  0.4451135E-02  0.5036030E+03  0.7818609E-02  0.1012843E+00
       -2   -1    0    0    0  501  0.00000000000E+00  0.00000000000E+00  0.66342562517E+02  0.66342562566E+02  0.25500000920E-02 0.  1.
        2   -1    0    0  501    0  0.00000000000E+00  0.00000000000E+00 -0.95570629575E+03  0.95570629575E+03  0.25500000920E-02 0. -1.
    10030    2    1    2    0    0  0.00000000000E+00  0.00000000000E+00 -0.88936373323E+03  0.10220488583E+04  0.50360303693E+03 0.  0.
        1    1    3    3  502    0  0.58987375171E+02 -0.24158620569E+03 -0.52485503444E+03  0.58078930122E+03  0.50400001928E-02 0. -1.
       -1    1    3    3    0  502 -0.58987375171E+02  0.24158620569E+03 -0.36450869880E+03  0.44125955710E+03  0.50400001928E-02 0.  1.
</event>
<event>
 5   0  0.2723308E-02  0.5001683E+03  0.7818609E-02  0.1013735E+00
        1   -1    0    0  501    0  0.00000000000E+00  0.00000000000E+00  0.92102677043E+03  0.92102677045E+03  0.50400001928E-02 0. -1.
       -1   -1    0    0    0  501  0.00000000000E+00  0.00000000000E+00 -0.67904728434E+02  0.67904728621E+02  0.50400001928E-02 0.  1.
    10030    2    1    2    0    0  0.00000000000E+00  0.00000000000E+00  0.85312204200E+03  0.98893149907E+03  0.50016826299E+03 0.  0.
        4    1    3    3  502    0 -0.20324652363E+03 -0.84696670397E+02  0.19213353997E+03  0.29223207460E+03  0.12699999809E+01 0.  1.
       -4    1    3    3    0  502  0.20324652363E+03  0.84696670397E+02  0.66098850203E+03  0.69669942447E+03  0.12699999809E+01 0. -1.
</event>
<event>
 5   0  0.1805500E-02  0.4998572E+03  0.7818609E-02  0.1013816E+00
        3   -1    0    0  501    0  0.00000000000E+00  0.00000000000E+00  0.58001518207E+02  0.58001606144E+02  0.10100000352E+00 0.  1.
       -3   -1    0    0    0  501  0.00000000000E+00  0.00000000000E+00 -0.10769416080E+04  0.10769416127E+04  0.10100000352E+00 0. -1.
    10030    2    1    2    0    0  0.00000000000E+00  0.00000000000E+00 -0.10189400897E+04  0.11349432188E+04  0.49985718309E+03 0.  0.
        4    1    3    3  502    0  0.22205460050E+03 -0.11468727598E+03 -0.51202991382E+03  0.56976983285E+03  0.12699999809E+01 0.  1.
       -4    1    3    3    0  502 -0.22205460050E+03  0.11468727598E+03 -0.50691017593E+03  0.56517338599E+03  0.12699999809E+01 0. -1.
</event>
<event>
 5   0  0.4409622E-02  0.5010635E+03  0.7818609E-02  0.1013502E+00
       -2   -1    0    0    0  501  0.00000000000E+00  0.00000000000E+00  0.43383391023E+02  0.43383391098E+02  0.25500000920E-02 0. -1.
        2   -1    0    0  501    0  0.00000000000E+00  0.00000000000E+00 -0.14467784689E+04  0.14467784689E+04  0.25500000920E-02 0.  1.
    10030    2    1    2    0    0  0.00000000000E+00  0.00000000000E+00 -0.14033950779E+04  0.14901618600E+04  0.50106349338E+03 0.  0.
        3    1    3    3  502    0 -0.17270020774E+03  0.17378060800E+03 -0.54599277945E+03  0.59844230038E+03  0.10100000352E+00 0. -1.
       -3    1    3    3    0  502  0.17270020774E+03 -0.17378060800E+03 -0.85740229847E+03  0.89171955967E+03  0.10100000352E+00 0.  1.
</event>
<event>
 5   0  0.2723308E-02  0.5011550E+03  0.7818609E-02  0.1013478E+00
        1   -1    0    0  501    0  0.00000000000E+00  0.00000000000E+00  0.11253282508E+04  0.11253282508E+04  0.50400001928E-02 0. -1.
       -1   -1    0    0    0  501  0.00000000000E+00  0.00000000000E+00 -0.55796237234E+02  0.55796237462E+02  0.50400001928E-02 0.  1.
    10030    2    1    2    0    0  0.00000000000E+00  0.00000000000E+00  0.10695320136E+04  0.11811244883E+04  0.50115499474E+03 0.  0.
        4    1    3    3  502    0 -0.12381978665E+03  0.20275163965E+03  0.34699059234E+03  0.42052782431E+03  0.12699999809E+01 0.  1.
       -4    1    3    3    0  502  0.12381978665E+03 -0.20275163965E+03  0.72254142123E+03  0.76059666397E+03  0.12699999809E+01 0. -1.
</event>
<event>
 5   0  0.4409622E-02  0.5135376E+03  0.7818609E-02  0.1010305E+00
       -2   -1    0    0    0  501  0.00000000000E+00  0.00000000000E+00  0.48102938343E+02  0.48102938410E+02  0.25500000920E-02 0. -1.
        2   -1    0    0  501    0  0.00000000000E+00  0.00000000000E+00 -0.13706066540E+04  0.13706066540E+04  0.25500000920E-02 0.  1.
    10030    2    1    2    0    0  0.00000000000E+00  0.00000000000E+00 -0.13225037156E+04  0.14187095924E+04  0.51353756403E+03 0.  0.
        3    1    3    3  502    0 -0.23938848986E+03  0.19192882650E+02 -0.91225510381E+03  0.94333694959E+03  0.10100000352E+00 0. -1.
       -3    1    3    3    0  502  0.23938848986E+03 -0.19192882650E+02 -0.41024861181E+03  0.47537264279E+03  0.10100000352E+00 0.  1.
</event>
<event>
 5   0  0.4519539E-02  0.4978558E+03  0.7818609E-02  0.1014340E+00
        2   -1    0    0  501    0  0.00000000000E+00  0.00000000000E+00  0.20457053155E+03  0.20457053156E+03  0.25500000920E-02 0. -1.
       -2   -1    0    0    0  501  0.00000000000E+00  0.00000000000E+00 -0.30290337534E+03  0.30290337535E+03  0.25500000920E-02 0.  1.
    10030    2    1    2    0    0  0.00000000000E+00  0.00000000000E+00 -0.98332843793E+02  0.50747390692E+03  0.49785582053E+03 0.  0.
        4    1    3    3  502    0  0.14269129089E+02  0.21429128427E+03  0.79118547963E+02  0.22887926968E+03  0.12699999809E+01 0. -1.
       -4    1    3    3    0  502 -0.14269129089E+02 -0.21429128427E+03 -0.17745139176E+03  0.27859463723E+03  0.12699999809E+01 0.  1.
</event>
<event>
 5   0  0.4534223E-02  0.5009235E+03  0.7818609E-02  0.1013538E+00
       -2   -1    0    0    0  501  0.00000000000E+00  0.00000000000E+00  0.89267079046E+02  0.89267079082E+02  0.25500000920E-02 0.  1.
        2   -1    0    0  501    0  0.00000000000E+00  0.00000000000E+00 -0.70273485768E+03  0.70273485769E+03  0.25500000920E-02 0. -1.
    10030    2    1    2    0    0  0.00000000000E+00  0.00000000000E+00 -0.61346777864E+03  0.79200193677E+03  0.50092349957E+03 0.  0.
        2    1    3    3  502    0 -0.51973400305E+02  0.69214785408E+02  0.64868415495E+02  0.10816576258E+03  0.25500000920E-02 0.  1.
       -2    1    3    3    0  502  0.51973400305E+02 -0.69214785408E+02 -0.67833619413E+03  0.68383617420E+03  0.25500000920E-02 0. -1.
</event>
<event>
 5   0  0.4534223E-02  0.4986876E+03  0.7818609E-02  0.1014122E+00
       -2   -1    0    0    0  501  0.00000000000E+00  0.00000000000E+00  0.39609429885E+02  0.39609429967E+02  0.25500000920E-02 0.  1.
        2   -1    0    0  501    0  0.00000000000E+00  0.00000000000E+00 -0.15696347550E+04  0.15696347550E+04  0.25500000920E-02 0. -1.
    10030    2    1    2    0    0  0.00000000000E+00  0.00000000000E+00 -0.15300253251E+04  0.16092441850E+04  0.49868762904E+03 0.  0.
        2    1    3    3  502    0 -0.57999633681E+02  0.20044538345E+03 -0.32455911303E+03  0.38585091306E+03  0.25500000920E-02 0.  1.
       -2    1    3    3    0  502  0.57999633681E+02 -0.20044538345E+03 -0.12054662121E+04  0.12233932719E+04  0.25500000920E-02 0. -1.
</event>
<event>
 5   0  0.2719671E-02  0.5223956E+03  0.7818609E-02  0.1008093E+00
        1   -1    0    0  501    0  0.00000000000E+00  0.00000000000E+00  0.29730687763E+03  0.29730687768E+03  0.50400001928E-02 0. -1.
       -1   -1    0    0    0  501  0.00000000000E+00  0.00000000000E+00 -0.22947427702E+03  0.22947427707E+03  0.50400001928E-02 0.  1.
    10030    2    1    2    0    0  0.00000000000E+00  0.00000000000E+00  0.67832600618E+02  0.52678115475E+03  0.52239556209E+03 0.  0.
        2    1    3    3  502    0  0.12172187154E+03 -0.18796017025E+03 -0.10167082357E+03  0.24593128305E+03  0.25500000920E-02 0.  1.
       -2    1    3    3    0  502 -0.12172187154E+03  0.18796017025E+03  0.16950342419E+03  0.28084987169E+03  0.25500000920E-02 0. -1.
</event>
<event>
 5   0  0.4534223E-02  0.5010129E+03  0.7818609E-02  0.1013515E+00
        2   -1    0    0  501    0  0.00000000000E+00  0.00000000000E+00  0.61651087109E+03  0.61651087109E+03  0.25500000920E-02 0.  1.
       -2   -1    0    0    0  501  0.00000000000E+00  0.00000000000E+00 -0.10178812459E+03  0.10178812462E+03  0.25500000920E-02 0. -1.
    10030    2    1    2    0    0  0.00000000000E+00  0.00000000000E+00  0.51472274650E+03  0.71829899571E+03  0.50101291548E+03 0.  0.
        2    1    3    3  502    0  0.24939940705E+03 -0.20811794476E+02  0.27308568729E+03  0.37041731552E+03  0.25500000920E-02 0. -1.
       -2    1    3    3    0  502 -0.24939940705E+03  0.20811794476E+02  0.24163705921E+03  0.34788168020E+03  0.25500000920E-02 0.  1.
</event>
<event>
 5   0  0.4631619E-02  0.5001222E+03  0.7818609E-02  0.1013747E+00
       -2   -1    0    0    0  501  0.00000000000E+00  0.00000000000E+00  0.72886160261E+02  0.72886160306E+02  0.25500000920E-02 0.  1.
        2   -1    0    0  501    0  0.00000000000E+00  0.00000000000E+00 -0.85792097279E+03  0.85792097280E+03  0.25500000920E-02 0. -1.
    10030    2    1    2    0    0  0.00000000000E+00  0.00000000000E+00 -0.78503481253E+03  0.93080713310E+03  0.50012224720E+03 0.  0.
        5    1    3    3  502    0  0.35753772341E+02  0.36488507160E+02  0.62986749747E+02  0.81235238864E+02  0.46999998093E+01 0.  1.
       -5    1    3    3    0  502 -0.35753772341E+02 -0.36488507160E+02 -0.84802156228E+03  0.84957189424E+03  0.46999998093E+01 0. -1.
</event>
<event>
 5   0  0.4631619E-02  0.4976592E+03  0.7818609E-02  0.1014392E+00
       -2   -1    0    0    0  501  0.00000000000E+00  0.00000000000E+00  0.16979305258E+03  0.16979305260E+03  0.25500000920E-02 0. -1.
        2   -1    0    0  501    0  0.00000000000E+00  0.00000000000E+00 -0.36465662722E+03  0.36465662723E+03  0.25500000920E-02 0.  1.
    10030    2    1    2    0    0  0.00000000000E+00  0.00000000000E+00 -0.19486357464E+03  0.53444967983E+03  0.49765916806E+03 0.  0.
        5    1    3    3  502    0 -0.39665259916E+02  0.20627389019E+03 -0.24059808051E+03  0.31942413334E+03  0.46999998093E+01 0.  1.
       -5    1    3    3    0  502  0.39665259916E+02 -0.20627389019E+03  0.45734505870E+02  0.21502554649E+03  0.46999998093E+01 0. -1.
</event>
<event>
 5   0  0.4409622E-02  0.4996079E+03  0.7818609E-02  0.1013881E+00
       -2   -1    0    0    0  501  0.00000000000E+00  0.00000000000E+00  0.30586367011E+03  0.30586367012E+03  0.25500000920E-02 0.  1.
        2   -1    0    0  501    0  0.00000000000E+00  0.00000000000E+00 -0.20401901458E+03  0.20401901460E+03  0.25500000920E-02 0. -1.
    10030    2    1    2    0    0  0.00000000000E+00  0.00000000000E+00  0.10184465553E+03  0.50988268472E+03  0.49960786455E+03 0.  0.
        3    1    3    3  502    0  0.22353182708E+03 -0.10676821461E+03  0.18072393812E+02  0.24837985222E+03  0.10100000352E+00 0.  1.
       -3    1    3    3    0  502 -0.22353182708E+03  0.10676821461E+03  0.83772261714E+02  0.26150283250E+03  0.10100000352E+00 0. -1.
</event>
<event>
 5   0  0.2779445E-02  0.4991717E+03  0.7818609E-02  0.1013995E+00
        1   -1    0    0  501    0  0.00000000000E+00  0.00000000000E+00  0.30354296963E+03  0.30354296967E+03  0.50400001928E-02 0.  1.
       -1   -1    0    0    0  501  0.00000000000E+00  0.00000000000E+00 -0.20522003203E+03  0.20522003209E+03  0.50400001928E-02 0. -1.
    10030    2    1    2    0    0  0.00000000000E+00  0.00000000000E+00  0.98322937600E+02  0.50876300176E+03  0.49917170583E+03 0.  0.
        3    1    3    3  502    0  0.19866816694E+02 -0.19734824052E+03 -0.10524890844E+03  0.22454033351E+03  0.10100000352E+00 0. -1.
       -3    1    3    3    0  502 -0.19866816694E+02  0.19734824052E+03  0.20357184604E+03  0.28422266825E+03  0.10100000352E+00 0.  1.
</event>
<event>
 5   0  0.1805500E-02  0.5001633E+03  0.7818609E-02  0.1013736E+00
        3   -1    0    0  501    0  0.00000000000E+00  0.00000000000E+00  0.30046226483E+03  0.30046228181E+03  0.10100000352E+00 0.  1.
       -3   -1    0    0    0  501  0.00000000000E+00  0.00000000000E+00 -0.20814869218E+03  0.20814871669E+03  0.10100000352E+00 0. -1.
    10030    2    1    2    0    0  0.00000000000E+00  0.00000000000E+00  0.92313572652E+02  0.50861099849E+03  0.50016332542E+03 0.  0.
        3    1    3    3  502    0 -0.63758152087E+02  0.78121227168E+02 -0.18655951134E+03  0.21206718172E+03  0.10100000352E+00 0. -1.
       -3    1    3    3    0  502  0.63758152087E+02 -0.78121227168E+02  0.27887308399E+03  0.29654381677E+03  0.10100000352E+00 0.  1.
</event>
<event>
 5   0  0.2643185E-02  0.5005028E+03  0.7818609E-02  0.1013648E+00
       -1   -1    0    0    0  501  0.00000000000E+00  0.00000000000E+00  0.31699639365E+03  0.31699639369E+03  0.50400001928E-02 0.  1.
        1   -1    0    0  501    0  0.00000000000E+00  0.00000000000E+00 -0.19755983481E+03  0.19755983487E+03  0.50400001928E-02 0. -1.
    10030    2    1    2    0    0  0.00000000000E+00  0.00000000000E+00  0.11943655884E+03  0.51455622856E+03  0.50050276798E+03 0.  0.
        1    1    3    3  502    0  0.83053921090E+01  0.95407353322E+02 -0.17797523068E+03  0.20210572819E+03  0.50400001928E-02 0. -1.
       -1    1    3    3    0  502 -0.83053921090E+01 -0.95407353322E+02  0.29741178952E+03  0.31245050037E+03  0.50400001928E-02 0.  1.
</event>
<event>
 5   0  0.4409622E-02  0.5001054E+03  0.7818609E-02  0.1013751E+00
       -2   -1    0    0    0  501  0.00000000000E+00  0.00000000000E+00  0.18882200934E+03  0.18882200935E+03  0.25500000920E-02 0.  1.
        2   -1    0    0  501    0  0.00000000000E+00  0.00000000000E+00 -0.33113913855E+03  0.33113913856E+03  0.25500000920E-02 0. -1.
    10030    2    1    2    0    0  0.00000000000E+00  0.00000000000E+00 -0.14231712922E+03  0.51996114792E+03  0.50010541896E+03 0.  0.
        3    1    3    3  502    0  0.24369630128E+03 -0.17473158906E+02 -0.15817944128E+02  0.24483344562E+03  0.10100000352E+00 0.  1.
       -3    1    3    3    0  502 -0.24369630128E+03  0.17473158906E+02 -0.12649918509E+03  0.27512770229E+03  0.10100000352E+00 0. -1.
</event>
<event>
 5   0  0.1805500E-02  0.5000877E+03  0.7818609E-02  0.1013756E+00
       -4   -1    0    0    0  501  0.00000000000E+00  0.00000000000E+00  0.10730610787E+03  0.10731362302E+03  0.12699999809E+01 0. -1.
        4   -1    0    0  501    0  0.00000000000E+00  0.00000000000E+00 -0.58262155934E+03  0.58262294351E+03  0.12699999809E+01 0.  1.
    10030    2    1    2    0    0  0.00000000000E+00  0.00000000000E+00 -0.47531545147E+03  0.68993656653E+03  0.50008767974E+03 0.  0.
        1    1    3    3  502    0 -0.24689016559E+03  0.33485683780E+02 -0.20852571127E+03  0.32489847210E+03  0.50400001928E-02 0. -1.
       -1    1    3    3    0  502  0.24689016559E+03 -0.33485683780E+02 -0.26678974020E+03  0.36503809443E+03  0.50400001928E-02 0.  1.
</event>
<event>
 5   0  0.4519539E-02  0.5000813E+03  0.7818609E-02  0.1013758E+00
       -2   -1    0    0    0  501  0.00000000000E+00  0.00000000000E+00  0.19068303742E+04  0.19068303742E+04  0.25500000920E-02 0.  1.
        2   -1    0    0  501    0  0.00000000000E+00  0.00000000000E+00 -0.32787560523E+02  0.32787560622E+02  0.25500000920E-02 0. -1.
    10030    2    1    2    0    0  0.00000000000E+00  0.00000000000E+00  0.18740428136E+04  0.19396179348E+04  0.50008125899E+03 0.  0.
        4    1    3    3  502    0 -0.65072091872E+02  0.76975206047E+02  0.18245285984E+04  0.18273110788E+04  0.12699999809E+01 0.  1.
       -4    1    3    3    0  502  0.65072091872E+02 -0.76975206047E+02  0.49514215236E+02  0.11230685597E+03  0.12699999809E+01 0. -1.
</event>
<event>
 5   0  0.1805500E-02  0.4996254E+03  0.7818609E-02  0.1013877E+00
        3   -1    0    0  501    0  0.00000000000E+00  0.00000000000E+00  0.17727081723E+03  0.17727084600E+03  0.10100000352E+00 0. -1.
       -3   -1    0    0    0  501  0.00000000000E+00  0.00000000000E+00 -0.35203967916E+03  0.35203969365E+03  0.10100000352E+00 0.  1.
    10030    2    1    2    0    0  0.00000000000E+00  0.00000000000E+00 -0.17476886193E+03  0.52931053965E+03  0.49962535193E+03 0.  0.
        2    1    3    3  502    0 -0.13679506279E+03 -0.25748256492E+02 -0.30714730550E+03  0.33721703575E+03  0.25500000920E-02 0.  1.
       -2    1    3    3    0  502  0.13679506279E+03  0.25748256492E+02  0.13237844357E+03  0.19209350391E+03  0.25500000920E-02 0. -1.
</event>
<event>
 5   0  0.2723308E-02  0.5010075E+03  0.7818609E-02  0.1013516E+00
        1   -1    0    0  501    0  0.00000000000E+00  0.00000000000E+00  0.41980794986E+03  0.41980794989E+03  0.50400001928E-02 0.  1.
       -1   -1    0    0    0  501  0.00000000000E+00  0.00000000000E+00 -0.14947816138E+03  0.14947816147E+03  0.50400001928E-02 0. -1.
    10030    2    1    2    0    0  0.00000000000E+00  0.00000000000E+00  0.27032978848E+03  0.56928611136E+03  0.50100746705E+03 0.  0.
        4    1    3    3  502    0  0.16575914968E+03 -0.17313755654E+03  0.21787033964E+03  0.32391635801E+03  0.12699999809E+01 0.  1.
       -4    1    3    3    0  502 -0.16575914968E+03  0.17313755654E+03  0.52459448838E+02  0.24536975335E+03  0.12699999809E+01 0. -1.
</event>
<event>
 5   0  0.4519539E-02  0.5064970E+03  0.7818609E-02  0.1012097E+00
       -2   -1    0    0    0  501  0.00000000000E+00  0.00000000000E+00  0.73943122820E+02  0.73943122864E+02  0.25500000920E-02 0.  1.
        2   -1    0    0  501    0  0.00000000000E+00  0.00000000000E+00 -0.86735332414E+03  0.86735332414E+03  0.25500000920E-02 0. -1.
    10030    2    1    2    0    0  0.00000000000E+00  0.00000000000E+00 -0.79341020132E+03  0.94129644701E+03  0.50649704204E+03 0.  0.
        4    1    3    3  502    0  0.10195016905E+02  0.45130134833E+02 -0.85942608713E+03  0.86067152828E+03  0.12699999809E+01 0. -1.
       -4    1    3    3    0  502 -0.10195016905E+02 -0.45130134833E+02  0.66015885817E+02  0.80624918728E+02  0.12699999809E+01 0.  1.
</event>
<event>
 5   0  0.4451135E-02  0.5009451E+03  0.7818609E-02  0.1013533E+00
        2   -1    0    0  501    0  0.00000000000E+00  0.00000000000E+00  0.42384174581E+03  0.42384174582E+03  0.25500000920E-02 0.  1.
       -2   -1    0    0    0  501  0.00000000000E+00  0.00000000000E+00 -0.14801868797E+03  0.14801868799E+03  0.25500000920E-02 0. -1.
    10030    2    1    2    0    0  0.00000000000E+00  0.00000000000E+00  0.27582305785E+03  0.57186043381E+03  0.50094510330E+03 0.  0.
        1    1    3    3  502    0 -0.23301642057E+03 -0.89714861560E+02  0.11533596927E+03  0.27504144138E+03  0.50400001928E-02 0.  1.
       -1    1    3    3    0  502  0.23301642057E+03  0.89714861560E+02  0.16048708858E+03  0.29681899243E+03  0.50400001928E-02 0. -1.
</event>
<event>
 5   0  0.4534223E-02  0.5005186E+03  0.7818609E-02  0.1013644E+00
       -2   -1    0    0    0  501  0.00000000000E+00  0.00000000000E+00  0.60343688707E+02  0.60343688761E+02  0.25500000920E-02 0. -1.
        2   -1    0    0  501    0  0.00000000000E+00  0.00000000000E+00 -0.10378834091E+04  0.10378834091E+04  0.25500000920E-02 0.  1.
    10030    2    1    2    0    0  0.00000000000E+00  0.00000000000E+00 -0.97753972043E+03  0.10982270979E+04  0.50051858461E+03 0.  0.
        2    1    3    3  502    0  0.13128416718E+03  0.10169504269E+03 -0.77970080386E+02  0.18345775454E+03  0.25500000920E-02 0. -1.
       -2    1    3    3    0  502 -0.13128416718E+03 -0.10169504269E+03 -0.89956964004E+03  0.91476934336E+03  0.25500000920E-02 0.  1.
</event>
<event>
 5   0  0.2779445E-02  0.4994580E+03  0.7818609E-02  0.1013920E+00
       -1   -1    0    0    0  501  0.00000000000E+00  0.00000000000E+00  0.76789182494E+02  0.76789182660E+02  0.50400001928E-02 0. -1.
        1   -1    0    0  501    0  0.00000000000E+00  0.00000000000E+00 -0.81215324277E+03  0.81215324278E+03  0.50400001928E-02 0.  1.
    10030    2    1    2    0    0  0.00000000000E+00  0.00000000000E+00 -0.73536406027E+03  0.88894242544E+03  0.49945804089E+03 0.  0.
        3    1    3    3  502    0 -0.78219447347E+02 -0.19072828484E+03 -0.11680391974E+03  0.23693612314E+03  0.10100000352E+00 0. -1.
       -3    1    3    3    0  502  0.78219447347E+02  0.19072828484E+03 -0.61856014054E+03  0.65200630230E+03  0.10100000352E+00 0.  1.
</event>
<event>
 5   0  0.1805500E-02  0.5010911E+03  0.7818609E-02  0.1013495E+00
       -3   -1    0    0    0  501  0.00000000000E+00  0.00000000000E+00  0.48815229366E+03  0.48815230410E+03  0.10100000352E+00 0. -1.
        3   -1    0    0  501    0  0.00000000000E+00  0.00000000000E+00 -0.12859317811E+03  0.12859321777E+03  0.10100000352E+00 0.  1.
    10030    2    1    2    0    0  0.00000000000E+00  0.00000000000E+00  0.35955911554E+03  0.61674552188E+03  0.50109109071E+03 0.  0.
        2    1    3    3  502    0  0.12102561140E+03  0.21433207594E+03  0.23734694869E+03  0.34193422094E+03  0.25500000920E-02 0. -1.
       -2    1    3    3    0  502 -0.12102561140E+03 -0.21433207594E+03  0.12221216685E+03  0.27481130094E+03  0.25500000920E-02 0.  1.
</event>
<event>
 5   0  0.2723308E-02  0.5019962E+03  0.7818609E-02  0.1013259E+00
       -1   -1    0    0    0  501  0.00000000000E+00  0.00000000000E+00  0.17003496821E+03  0.17003496829E+03  0.50400001928E-02 0.  1.
        1   -1    0    0  501    0  0.00000000000E+00  0.00000000000E+00 -0.37051233848E+03  0.37051233852E+03  0.50400001928E-02 0. -1.
    10030    2    1    2    0    0  0.00000000000E+00  0.00000000000E+00 -0.20047737027E+03  0.54054730680E+03  0.50199622997E+03 0.  0.
        4    1    3    3  502    0 -0.17325160630E+03 -0.14717721466E+03 -0.21481089161E+03  0.31276602062E+03  0.12699999809E+01 0. -1.
       -4    1    3    3    0  502  0.17325160630E+03  0.14717721466E+03  0.14333521342E+02  0.22778128618E+03  0.12699999809E+01 0.  1.
</event>
<event>
 5   0  0.2719671E-02  0.5023562E+03  0.7818609E-02  0.1013166E+00
       -1   -1    0    0    0  501  0.00000000000E+00  0.00000000000E+00  0.20903397441E+03  0.20903397447E+03  0.50400001928E-02 0. -1.
        1   -1    0    0  501    0  0.00000000000E+00  0.00000000000E+00 -0.30181901396E+03  0.30181901400E+03  0.50400001928E-02 0.  1.
    10030    2    1    2    0    0  0.00000000000E+00  0.00000000000E+00 -0.92785039551E+02  0.51085298847E+03  0.50235616077E+03 0.  0.
        2    1    3    3  502    0  0.15668099088E+03  0.18496289126E+03  0.20524930912E+02  0.24327243338E+03  0.25500000920E-02 0. -1.
       -2    1    3    3    0  502 -0.15668099088E+03 -0.18496289126E+03 -0.11330997046E+03  0.26758055509E+03  0.25500000920E-02 0.  1.
</event>
<event>
 5   0  0.4534223E-02  0.4979791E+03  0.7818609E-02  0.1014308E+00
        2   -1    0    0  501    0  0.00000000000E+00  0.00000000000E+00  0.27095870758E+03  0.27095870759E+03  0.25500000920E-02 0. -1.
       -2   -1    0    0    0  501  0.00000000000E+00  0.00000000000E+00 -0.22880166181E+03  0.22880166182E+03  0.25500000920E-02 0.  1.
    10030    2    1    2    0    0  0.00000000000E+00  0.00000000000E+00  0.42157045765E+02  0.49976036941E+03  0.49797912640E+03 0.  0.
        2    1    3    3  502    0 -0.16314935218E+03 -0.16451638301E+02  0.20911851553E+03  0.26574220791E+03  0.25500000920E-02 0. -1.
       -2    1    3    3    0  502  0.16314935218E+03  0.16451638301E+02 -0.16696146977E+03  0.23401816150E+03  0.25500000920E-02 0.  1.
</event>
<event>
 5   0  0.4631619E-02  0.4960616E+03  0.7818609E-02  0.1014812E+00
       -2   -1    0    0    0  501  0.00000000000E+00  0.00000000000E+00  0.51714241162E+02  0.51714241225E+02  0.25500000920E-02 0.  1.
        2   -1    0    0  501    0  0.00000000000E+00  0.00000000000E+00 -0.11896004691E+04  0.11896004691E+04  0.25500000920E-02 0. -1.
    10030    2    1    2    0    0  0.00000000000E+00  0.00000000000E+00 -0.11378862280E+04  0.12413147104E+04  0.49606163161E+03 0.  0.
        5    1    3    3  502    0 -0.67142209222E+02  0.23750171712E+03 -0.50857219458E+03  0.56531664489E+03  0.46999998093E+01 0. -1.
       -5    1    3    3    0  502  0.67142209222E+02 -0.23750171712E+03 -0.62931403340E+03  0.67599806548E+03  0.46999998093E+01 0.  1.
</event>
<event>
 5   0  0.2643185E-02  0.5023573E+03  0.7818609E-02  0.1013165E+00
        1   -1    0    0  501    0  0.00000000000E+00  0.00000000000E+00  0.52345425382E+03  0.52345425384E+03  0.50400001928E-02 0.  1.
       -1   -1    0    0    0  501  0.00000000000E+00  0.00000000000E+00 -0.12052766011E+03  0.12052766021E+03  0.50400001928E-02 0. -1.
    10030    2    1    2    0    0  0.00000000000E+00  0.00000000000E+00  0.40292659371E+03  0.64398191405E+03  0.50235730880E+03 0.  0.
        1    1    3    3  502    0  0.10858189218E+03  0.18633882335E+03  0.36406283919E+02  0.21871808780E+03  0.50400001928E-02 0.  1.
       -1    1    3    3    0  502 -0.10858189218E+03 -0.18633882335E+03  0.36652030979E+03  0.42526382625E+03  0.50400001928E-02 0. -1.
</event>
<event>
 5   0  0.4451135E-02  0.4996455E+03  0.7818609E-02  0.1013871E+00
        2   -1    0    0  501    0  0.00000000000E+00  0.00000000000E+00  0.10252203676E+04  0.10252203676E+04  0.25500000920E-02 0. -1.
       -2   -1    0    0    0  501  0.00000000000E+00  0.00000000000E+00 -0.60876092846E+02  0.60876092900E+02  0.25500000920E-02 0.  1.
    10030    2    1    2    0    0  0.00000000000E+00  0.00000000000E+00  0.96434427472E+03  0.10860964605E+04  0.49964551560E+03 0.  0.
        1    1    3    3  502    0  0.20125605775E+03  0.14247514709E+03  0.56934515899E+03  0.62044909414E+03  0.50400001928E-02 0. -1.
       -1    1    3    3    0  502 -0.20125605775E+03 -0.14247514709E+03  0.39499911572E+03  0.46564736633E+03  0.50400001928E-02 0.  1.
</event>
<event>
 5   0  0.2723308E-02  0.4991957E+03  0.7818609E-02  0.1013989E+00
       -1   -1    0    0    0  501  0.00000000000E+00  0.00000000000E+00  0.67206300816E+03  0.67206300818E+03  0.50400001928E-02 0. -1.
        1   -1    0    0  501    0  0.00000000000E+00  0.00000000000E+00 -0.92698274971E+02  0.92698275108E+02  0.50400001928E-02 0.  1.
    10030    2    1    2    0    0  0.00000000000E+00  0.00000000000E+00  0.57936473319E+03  0.76476128329E+03  0.49919567942E+03 0.  0.
        4    1    3    3  502    0  0.17371690708E+03 -0.51693506625E+02  0.26788372788E+02  0.18321848228E+03  0.12699999809E+01 0.  1.
       -4    1    3    3    0  502 -0.17371690708E+03  0.51693506625E+02  0.55257636040E+03  0.58154280101E+03  0.12699999809E+01 0. -1.
</event>
<event>
 5   0  0.4631619E-02  0.5042943E+03  0.7818609E-02  0.1012664E+00
       -2   -1    0    0    0  501  0.00000000000E+00  0.00000000000E+00  0.68996238834E+02  0.68996238881E+02  0.25500000920E-02 0.  1.
        2   -1    0    0  501    0  0.00000000000E+00  0.00000000000E+00 -0.92147316581E+03  0.92147316581E+03  0.25500000920E-02 0. -1.
    10030    2    1    2    0    0  0.00000000000E+00  0.00000000000E+00 -0.85247692697E+03  0.99046940469E+03  0.50429428968E+03 0.  0.
        5    1    3    3  502    0 -0.54914399808E+02 -0.93365677073E+02  0.20877075149E+02  0.11041142707E+03  0.46999998093E+01 0.  1.
       -5    1    3    3    0  502  0.54914399808E+02  0.93365677073E+02 -0.87335400212E+03  0.88005797763E+03  0.46999998093E+01 0. -1.
</event>
<event>
 5   0  0.4451135E-02  0.4987342E+03  0.7818609E-02  0.1014110E+00
        2   -1    0    0  501    0  0.00000000000E+00  0.00000000000E+00  0.23922323569E+03  0.23922323570E+03  0.25500000920E-02 0.  1.
       -2   -1    0    0    0  501  0.00000000000E+00  0.00000000000E+00 -0.25994110504E+03  0.25994110505E+03  0.25500000920E-02 0. -1.
    10030    2    1    2    0    0  0.00000000000E+00  0.00000000000E+00 -0.20717869349E+02  0.49916434076E+03  0.49873420674E+03 0.  0.
        1    1    3    3  502    0 -0.16128596342E+03 -0.19096176500E+00  0.17999119455E+03  0.24168166791E+03  0.50400001928E-02 0.  1.
       -1    1    3    3    0  502  0.16128596342E+03  0.19096176500E+00 -0.20070906390E+03  0.25748267285E+03  0.50400001928E-02 0. -1.
</event>
<event>
 5   0  0.4631619E-02  0.5030224E+03  0.7818609E-02  0.1012993E+00
       -2   -1    0    0    0  501  0.00000000000E+00  0.00000000000E+00  0.12136518158E+03  0.12136518160E+03  0.25500000920E-02 0.  1.
        2   -1    0    0  501    0  0.00000000000E+00  0.00000000000E+00 -0.52121927813E+03  0.52121927814E+03  0.25500000920E-02 0. -1.
    10030    2    1    2    0    0  0.00000000000E+00  0.00000000000E+00 -0.39985409655E+03  0.64258445974E+03  0.50302235474E+03 0.  0.
        5    1    3    3  502    0  0.93305750690E+02  0.10851021397E+03  0.64215387979E+02  0.15692716686E+03  0.46999998093E+01 0.  1.
       -5    1    3    3    0  502 -0.93305750690E+02 -0.10851021397E+03 -0.46406948453E+03  0.48565729287E+03  0.46999998093E+01 0. -1.
</event>
<event>
 5   0  0.4631619E-02  0.4993179E+03  0.7818609E-02  0.1013957E+00
       -2   -1    0    0    0  501  0.00000000000E+00  0.00000000000E+00  0.37485578451E+03  0.37485578452E+03  0.25500000920E-02 0. -1.
        2   -1    0    0  501    0  0.00000000000E+00  0.00000000000E+00 -0.16627617269E+03  0.16627617270E+03  0.25500000920E-02 0.  1.
    10030    2    1    2    0    0  0.00000000000E+00  0.00000000000E+00  0.20857961182E+03  0.54113195722E+03  0.49931787536E+03 0.  0.
        5    1    3    3  502    0 -0.13425952077E+02 -0.23379028921E+03  0.19795261369E+03  0.30666835961E+03  0.46999998093E+01 0. -1.
       -5    1    3    3    0  502  0.13425952077E+02  0.23379028921E+03  0.10626998132E+02  0.23446359761E+03  0.46999998093E+01 0.  1.
</event>
<event>
 5   0  0.1805500E-02  0.4888932E+03  0.7818609E-02  0.1016719E+00
       -4   -1    0    0    0  501  0.00000000000E+00  0.00000000000E+00  0.85512587250E+03  0.85512681558E+03  0.12699999809E+01 0. -1.
        4   -1    0    0  501    0  0.00000000000E+00  0.00000000000E+00 -0.69870835358E+02  0.69882376416E+02  0.12699999809E+01 0.  1.
    10030    2    1    2    0    0  0.00000000000E+00  0.00000000000E+00  0.78525503714E+03  0.92500919199E+03  0.48889317025E+03 0.  0.
        4    1    3    3  502    0 -0.14355737606E+03  0.87895476844E+01  0.76659563176E+03  0.77997208406E+03  0.12699999809E+01 0. -1.
       -4    1    3    3    0  502  0.14355737606E+03 -0.87895476844E+01  0.18659405377E+02  0.14503710793E+03  0.12699999809E+01 0.  1.
</event>
<event>
 5   0  0.4409622E-02  0.5006820E+03  0.7818609E-02  0.1013601E+00
        2   -1    0    0  501    0  0.00000000000E+00  0.00000000000E+00  0.61087088730E+03  0.61087088730E+03  0.25500000920E-02 0.  1.
       -2   -1    0    0    0  501  0.00000000000E+00  0.00000000000E+00 -0.10259223982E+03  0.10259223985E+03  0.25500000920E-02 0. -1.
    10030    2    1    2    0    0  0.00000000000E+00  0.00000000000E+00  0.50827864748E+03  0.71346312715E+03  0.50068198521E+03 0.  0.
        3    1    3    3  502    0 -0.72191171056E+02 -0.61868241237E+02  0.58414314146E+03  0.59182975961E+03  0.10100000352E+00 0.  1.
       -3    1    3    3    0  502  0.72191171056E+02  0.61868241237E+02 -0.75864493972E+02  0.12163336754E+03  0.10100000352E+00 0. -1.
</event>
<event>
 5   0  0.2719671E-02  0.5003839E+03  0.7818609E-02  0.1013679E+00
        1   -1    0    0  501    0  0.00000000000E+00  0.00000000000E+00  0.20725311895E+03  0.20725311901E+03  0.50400001928E-02 0.  1.
       -1   -1    0    0    0  501  0.00000000000E+00  0.00000000000E+00 -0.30202686432E+03  0.30202686436E+03  0.50400001928E-02 0. -1.
    10030    2    1    2    0    0  0.00000000000E+00  0.00000000000E+00 -0.94773745376E+02  0.50927998337E+03  0.50038389128E+03 0.  0.
        2    1    3    3  502    0  0.15775174539E+02  0.13879234705E+02  0.20635354282E+03  0.20742052437E+03  0.25500000920E-02 0.  1.
       -2    1    3    3    0  502 -0.15775174539E+02 -0.13879234705E+02 -0.30112728820E+03  0.30185945900E+03  0.25500000920E-02 0. -1.
</event>
<event>
 5   0  0.4519539E-02  0.5000236E+03  0.7818609E-02  0.1013773E+00
       -2   -1    0    0    0  501  0.00000000000E+00  0.00000000000E+00  0.29670855983E+02  0.29670856092E+02  0.25500000920E-02 0. -1.
        2   -1    0    0  501    0  0.00000000000E+00  0.00000000000E+00 -0.21066430017E+04  0.21066430017E+04  0.25500000920E-02 0.  1.
    10030    2    1    2    0    0  0.00000000000E+00  0.00000000000E+00 -0.20769721458E+04  0.21363138578E+04  0.50002360437E+03 0.  0.
        4    1    3    3  502    0  0.17182267192E+03 -0.93001369496E+02 -0.37204234942E+03  0.42022542519E+03  0.12699999809E+01 0.  1.
       -4    1    3    3    0  502 -0.17182267192E+03  0.93001369496E+02 -0.17049297963E+04  0.17160884326E+04  0.12699999809E+01 0. -1.
</event>
<event>
 5   0  0.2779445E-02  0.5003141E+03  0.7818609E-02  0.1013697E+00
       -1   -1    0    0    0  501  0.00000000000E+00  0.00000000000E+00  0.13369627930E+03  0.13369627940E+03  0.50400001928E-02 0. -1.
        1   -1    0    0  501    0  0.00000000000E+00  0.00000000000E+00 -0.46806509781E+03  0.46806509784E+03  0.50400001928E-02 0.  1.
    10030    2    1    2    0    0  0.00000000000E+00  0.00000000000E+00 -0.33436881851E+03  0.60176137724E+03  0.50031414966E+03 0.  0.
        3    1    3    3  502    0 -0.24458260307E+02  0.19147831157E+03 -0.35855822337E+03  0.40721758318E+03  0.10100000352E+00 0.  1.
       -3    1    3    3    0  502  0.24458260307E+02 -0.19147831157E+03  0.24189404861E+02  0.19454379406E+03  0.10100000352E+00 0. -1.
</event>
<event>
 5   0  0.4409622E-02  0.4963518E+03  0.7818609E-02  0.1014736E+00
       -2   -1    0    0    0  501  0.00000000000E+00  0.00000000000E+00  0.13668751684E+03  0.13668751687E+03  0.25500000920E-02 0. -1.
        2   -1    0    0  501    0  0.00000000000E+00  0.00000000000E+00 -0.45059915156E+03  0.45059915157E+03  0.25500000920E-02 0.  1.
    10030    2    1    2    0    0  0.00000000000E+00  0.00000000000E+00 -0.31391163472E+03  0.58728666844E+03  0.49635180720E+03 0.  0.
        3    1    3    3  502    0 -0.23924035571E+02  0.37903747548E+02 -0.44577022764E+03  0.44801803491E+03  0.10100000352E+00 0.  1.
       -3    1    3    3    0  502  0.23924035571E+02 -0.37903747548E+02  0.13185859292E+03  0.13926863353E+03  0.10100000352E+00 0. -1.
</event>
<event>
 5   0  0.2723308E-02  0.5055081E+03  0.7818609E-02  0.1012351E+00
       -1   -1    0    0    0  501  0.00000000000E+00  0.00000000000E+00  0.35923055113E+02  0.35923055467E+02  0.50400001928E-02 0. -1.
        1   -1    0    0  501    0  0.00000000000E+00  0.00000000000E+00 -0.17783733424E+04  0.17783733424E+04  0.50400001928E-02 0.  1.
    10030    2    1    2    0    0  0.00000000000E+00  0.00000000000E+00 -0.17424502873E+04  0.18142963979E+04  0.50550807676E+03 0.  0.
        4    1    3    3  502    0  0.10572239896E+03  0.76624171715E+02 -0.94507641806E+02  0.16118869871E+03  0.12699999809E+01 0. -1.
       -4    1    3    3    0  502 -0.10572239896E+03 -0.76624171715E+02 -0.16479426455E+04  0.16531076991E+04  0.12699999809E+01 0.  1.
</event>
<event>
 5   0  0.4451135E-02  0.5005782E+03  0.7818609E-02  0.1013628E+00
       -2   -1    0    0    0  501  0.00000000000E+00  0.00000000000E+00  0.42234638496E+02  0.42234638573E+02  0.25500000920E-02 0. -1.
        2   -1    0    0  501    0  0.00000000000E+00  0.00000000000E+00 -0.14832527163E+04  0.14832527163E+04  0.25500000920E-02 0.  1.
    10030    2    1    2    0    0  0.00000000000E+00  0.00000000000E+00 -0.14410180778E+04  0.15254873548E+04  0.50057823497E+03 0.  0.
        1    1    3    3  502    0 -0.21031038439E+03  0.12226699218E+03 -0.89989407392E+03  0.93219580532E+03  0.50400001928E-02 0.  1.
       -1    1    3    3    0  502  0.21031038439E+03 -0.12226699218E+03 -0.54112400386E+03  0.59329154953E+03  0.50400001928E-02 0. -1.
</event>
<event>
 5   0  0.2715483E-02  0.5054101E+03  0.7818609E-02  0.1012376E+00
       -1   -1    0    0    0  501  0.00000000000E+00  0.00000000000E+00  0.37091648228E+02  0.37091648570E+02  0.50400001928E-02 0. -1.
        1   -1    0    0  501    0  0.00000000000E+00  0.00000000000E+00 -0.17216772654E+04  0.17216772654E+04  0.50400001928E-02 0.  1.
    10030    2    1    2    0    0  0.00000000000E+00  0.00000000000E+00 -0.16845856172E+04  0.17587689140E+04  0.50541012177E+03 0.  0.
        5    1    3    3  502    0 -0.14575337848E+03  0.12062402330E+03 -0.14250416018E+04  0.14375534282E+04  0.46999998093E+01 0.  1.
       -5    1    3    3    0  502  0.14575337848E+03 -0.12062402330E+03 -0.25954401542E+03  0.32121548573E+03  0.46999998093E+01 0. -1.
</event>
<event>
 5   0  0.2723308E-02  0.5029806E+03  0.7818609E-02  0.1013004E+00
       -1   -1    0    0    0  501  0.00000000000E+00  0.00000000000E+00  0.43617419140E+03  0.43617419143E+03  0.50400001928E-02 0. -1.
        1   -1    0    0  501    0  0.00000000000E+00  0.00000000000E+00 -0.14500484829E+03  0.14500484837E+03  0.50400001928E-02 0.  1.
    10030    2    1    2    0    0  0.00000000000E+00  0.00000000000E+00  0.29116934312E+03  0.58117903981E+03  0.50298060593E+03 0.  0.
        4    1    3    3  502    0  0.13729841122E+03  0.45734610699E+02  0.38323891688E+03  0.40965374239E+03  0.12699999809E+01 0. -1.
       -4    1    3    3    0  502 -0.13729841122E+03 -0.45734610699E+02 -0.92069573766E+02  0.17152529742E+03  0.12699999809E+01 0.  1.
</event>
<event>
 5   0  0.4409622E-02  0.4992470E+03  0.7818609E-02  0.1013976E+00
        2   -1    0    0  501    0  0.00000000000E+00  0.00000000000E+00  0.97781738099E+03  0.97781738099E+03  0.25500000920E-02 0.  1.
       -2   -1    0    0    0  501  0.00000000000E+00  0.00000000000E+00 -0.63725488156E+02  0.63725488207E+02  0.25500000920E-02 0. -1.
    10030    2    1    2    0    0  0.00000000000E+00  0.00000000000E+00  0.91409189283E+03  0.10415428692E+04  0.49924699282E+03 0.  0.
        3    1    3    3  502    0 -0.14734207897E+03  0.11923081053E+03  0.11816265133E+03  0.22335643439E+03  0.10100000352E+00 0. -1.
       -3    1    3    3    0  502  0.14734207897E+03 -0.11923081053E+03  0.79592924150E+03  0.81818643480E+03  0.10100000352E+00 0.  1.
</event>
<event>
 5   0  0.2715483E-02  0.4991541E+03  0.7818609E-02  0.1014000E+00
       -1   -1    0    0    0  501  0.00000000000E+00  0.00000000000E+00  0.20164131242E+03  0.20164131248E+03  0.50400001928E-02 0. -1.
        1   -1    0    0  501    0  0.00000000000E+00  0.00000000000E+00 -0.30890846950E+03  0.30890846954E+03  0.50400001928E-02 0.  1.
    10030    2    1    2    0    0  0.00000000000E+00  0.00000000000E+00 -0.10726715708E+03  0.51054978202E+03  0.49915412143E+03 0.  0.
        5    1    3    3  502    0 -0.31891854996E+02 -0.13200214011E+03 -0.26775702099E+03  0.30026249799E+03  0.46999998093E+01 0.  1.
       -5    1    3    3    0  502  0.31891854996E+02  0.13200214011E+03  0.16048986391E+03  0.21028728403E+03  0.46999998093E+01 0. -1.
</event>
<event>
 5   0  0.2779445E-02  0.5003000E+03  0.7818609E-02  0.1013701E+00
        1   -1    0    0  501    0  0.00000000000E+00  0.00000000000E+00  0.21944379124E+03  0.21944379130E+03  0.50400001928E-02 0. -1.
       -1   -1    0    0    0  501  0.00000000000E+00  0.00000000000E+00 -0.28515288562E+03  0.28515288567E+03  0.50400001928E-02 0.  1.
    10030    2    1    2    0    0  0.00000000000E+00  0.00000000000E+00 -0.65709094383E+02  0.50459667697E+03  0.50030003130E+03 0.  0.
        3    1    3    3  502    0 -0.39436625820E+02  0.15073154851E+03  0.16452945738E+03  0.22659479191E+03  0.10100000352E+00 0. -1.
       -3    1    3    3    0  502  0.39436625820E+02 -0.15073154851E+03 -0.23023855177E+03  0.27800188505E+03  0.10100000352E+00 0.  1.
</event>
<event>
 5   0  0.2719671E-02  0.5018982E+03  0.7818609E-02  0.1013285E+00
       -1   -1    0    0    0  501  0.00000000000E+00  0.00000000000E+00  0.10433558353E+04  0.10433558354E+04  0.50400001928E-02 0. -1.
        1   -1    0    0  501    0  0.00000000000E+00  0.00000000000E+00 -0.60358546505E+02  0.60358546715E+02  0.50400001928E-02 0.  1.
    10030    2    1    2    0    0  0.00000000000E+00  0.00000000000E+00  0.98299728883E+03  0.11037143821E+04  0.50189816430E+03 0.  0.
        2    1    3    3  502    0  0.72082196270E+02 -0.18357169000E+03  0.15024393395E+03  0.24792669901E+03  0.25500000920E-02 0.  1.
       -2    1    3    3    0  502 -0.72082196270E+02  0.18357169000E+03  0.83275335489E+03  0.85578768306E+03  0.25500000920E-02 0. -1.
</event>
<event>
 5   0  0.4534223E-02  0.4988473E+03  0.7818609E-02  0.1014080E+00
        2   -1    0    0  501    0  0.00000000000E+00  0.00000000000E+00  0.10302955883E+03  0.10302955886E+03  0.25500000920E-02 0.  1.
       -2   -1    0    0    0  501  0.00000000000E+00  0.00000000000E+00 -0.60382829706E+03  0.60382829706E+03  0.25500000920E-02 0. -1.
    10030    2    1    2    0    0  0.00000000000E+00  0.00000000000E+00 -0.50079873823E+03  0.70685785592E+03  0.49884732360E+03 0.  0.
        2    1    3    3  502    0 -0.95126879153E+02  0.69158523747E+02 -0.56207151868E+03  0.57424421343E+03  0.25500000920E-02 0. -1.
       -2    1    3    3    0  502  0.95126879153E+02 -0.69158523747E+02  0.61272780448E+02  0.13261364249E+03  0.25500000920E-02 0.  1.
</event>
<event>
 5   0  0.2719671E-02  0.5007379E+03  0.7818609E-02  0.1013586E+00
        1   -1    0    0  501    0  0.00000000000E+00  0.00000000000E+00  0.15229615023E+03  0.15229615031E+03  0.50400001928E-02 0. -1.
       -1   -1    0    0    0  501  0.00000000000E+00  0.00000000000E+00 -0.41159681289E+03  0.41159681292E+03  0.50400001928E-02 0.  1.
    10030    2    1    2    0    0  0.00000000000E+00  0.00000000000E+00 -0.25930066266E+03  0.56389296323E+03  0.50073789583E+03 0.  0.
        2    1    3    3  502    0  0.50498009341E+02  0.15981254727E+03 -0.33910488772E+03  0.37826211031E+03  0.25500000920E-02 0.  1.
       -2    1    3    3    0  502 -0.50498009341E+02 -0.15981254727E+03  0.79804225063E+02  0.18563085292E+03  0.25500000920E-02 0. -1.
</event>
<event>
 5   0  0.2719671E-02  0.5053289E+03  0.7818609E-02  0.1012397E+00
       -1   -1    0    0    0  501  0.00000000000E+00  0.00000000000E+00  0.15669494196E+03  0.15669494204E+03  0.50400001928E-02 0.  1.
        1   -1    0    0  501    0  0.00000000000E+00  0.00000000000E+00 -0.40741151137E+03  0.40741151141E+03  0.50400001928E-02 0. -1.
    10030    2    1    2    0    0  0.00000000000E+00  0.00000000000E+00 -0.25071656942E+03  0.56410645344E+03  0.50532889551E+03 0.  0.
        2    1    3    3  502    0  0.57714662378E+02  0.22519409589E+03 -0.23584509574E+03  0.33115898337E+03  0.25500000920E-02 0. -1.
       -2    1    3    3    0  502 -0.57714662378E+02 -0.22519409589E+03 -0.14871473681E+02  0.23294747007E+03  0.25500000920E-02 0.  1.
</event>
<event>
 5   0  0.2779445E-02  0.4991892E+03  0.7818609E-02  0.1013991E+00
       -1   -1    0    0    0  501  0.00000000000E+00  0.00000000000E+00  0.94533753388E+02  0.94533753523E+02  0.50400001928E-02 0.  1.
        1   -1    0    0  501    0  0.00000000000E+00  0.00000000000E+00 -0.65899693266E+03  0.65899693268E+03  0.50400001928E-02 0. -1.
    10030    2    1    2    0    0  0.00000000000E+00  0.00000000000E+00 -0.56446317927E+03  0.75353068620E+03  0.49918915683E+03 0.  0.
        3    1    3    3  502    0  0.21317158333E+03 -0.51507650215E+02 -0.46212483484E+03  0.51152178365E+03  0.10100000352E+00 0. -1.
       -3    1    3    3    0  502 -0.21317158333E+03  0.51507650215E+02 -0.10233834443E+03  0.24200890255E+03  0.10100000352E+00 0.  1.
</event>
<event>
 5   0  0.4451135E-02  0.4990040E+03  0.7818609E-02  0.1014039E+00
        2   -1    0    0  501    0  0.00000000000E+00  0.00000000000E+00  0.47530677146E+03  0.47530677147E+03  0.25500000920E-02 0.  1.
       -2   -1    0    0    0  501  0.00000000000E+00  0.00000000000E+00 -0.13097065831E+03  0.13097065833E+03  0.25500000920E-02 0. -1.
    10030    2    1    2    0    0  0.00000000000E+00  0.00000000000E+00  0.34433611315E+03  0.60627742981E+03  0.49900397100E+03 0.  0.
        1    1    3    3  502    0  0.21081274548E+03  0.12075250656E+03  0.24119810016E+03  0.34234442458E+03  0.50400001928E-02 0.  1.
       -1    1    3    3    0  502 -0.21081274548E+03 -0.12075250656E+03  0.10313801299E+03  0.26393300522E+03  0.50400001928E-02 0. -1.
</event>
<event>
 5   0  0.1805500E-02  0.4945844E+03  0.7818609E-02  0.1015202E+00
        3   -1    0    0  501    0  0.00000000000E+00  0.00000000000E+00  0.22032502903E+03  0.22032505218E+03  0.10100000352E+00 0. -1.
       -3   -1    0    0    0  501  0.00000000000E+00  0.00000000000E+00 -0.27756003391E+03  0.27756005229E+03  0.10100000352E+00 0.  1.
    10030    2    1    2    0    0  0.00000000000E+00  0.00000000000E+00 -0.57235004880E+02  0.49788510447E+03  0.49458440277E+03 0.  0.
        4    1    3    3  502    0  0.25727958815E+02 -0.24511558530E+03 -0.48957342241E+02  0.25128074396E+03  0.12699999809E+01 0.  1.
       -4    1    3    3    0  502 -0.25727958815E+02  0.24511558530E+03 -0.82776626389E+01  0.24660436051E+03  0.12699999809E+01 0. -1.
</event>
<event>
 5   0  0.4519539E-02  0.4997894E+03  0.7818609E-02  0.1013834E+00
        2   -1    0    0  501    0  0.00000000000E+00  0.00000000000E+00  0.29266926894E+03  0.29266926895E+03  0.25500000920E-02 0.  1.
       -2   -1    0    0    0  501  0.00000000000E+00  0.00000000000E+00 -0.21337177659E+03  0.21337177661E+03  0.25500000920E-02 0. -1.
    10030    2    1    2    0    0  0.00000000000E+00  0.00000000000E+00  0.79297492347E+02  0.50604104556E+03  0.49978940315E+03 0.  0.
        4    1    3    3  502    0 -0.21930444806E+03 -0.11620922886E+03  0.10186257997E+02  0.24840370078E+03  0.12699999809E+01 0. -1.
       -4    1    3    3    0  502  0.21930444806E+03  0.11620922886E+03  0.69111234350E+02  0.25763734478E+03  0.12699999809E+01 0.  1.
</event>
<event>
 5   0  0.2643185E-02  0.5001096E+03  0.7818609E-02  0.1013750E+00
       -1   -1    0    0    0  501  0.00000000000E+00  0.00000000000E+00  0.43810191224E+03  0.43810191227E+03  0.50400001928E-02 0. -1.
        1   -1    0    0  501    0  0.00000000000E+00  0.00000000000E+00 -0.14272343717E+03  0.14272343726E+03  0.50400001928E-02 0.  1.
    10030    2    1    2    0    0  0.00000000000E+00  0.00000000000E+00  0.29537847507E+03  0.58082534953E+03  0.50010963110E+03 0.  0.
        1    1    3    3  502    0 -0.17586931084E+03 -0.17341477282E+02  0.35315024129E+03  0.39489977751E+03  0.50400001928E-02 0. -1.
       -1    1    3    3    0  502  0.17586931084E+03  0.17341477282E+02 -0.57771766226E+02  0.18592557201E+03  0.50400001928E-02 0.  1.
</event>
<event>
 5   0  0.4451135E-02  0.4832414E+03  0.7818609E-02  0.1018248E+00
       -2   -1    0    0    0  501  0.00000000000E+00  0.00000000000E+00  0.46157303882E+02  0.46157303953E+02  0.25500000920E-02 0. -1.
        2   -1    0    0  501    0  0.00000000000E+00  0.00000000000E+00 -0.12648176927E+04  0.12648176927E+04  0.25500000920E-02 0.  1.
    10030    2    1    2    0    0  0.00000000000E+00  0.00000000000E+00 -0.12186603888E+04  0.13109749967E+04  0.48324144957E+03 0.  0.
        1    1    3    3  502    0  0.16890710584E+03  0.16906568053E+03 -0.70592387917E+03  0.74527936906E+03  0.50400001928E-02 0.  1.
       -1    1    3    3    0  502 -0.16890710584E+03 -0.16906568053E+03 -0.51273650966E+03  0.56569562761E+03  0.50400001928E-02 0. -1.
</event>
<event>
 5   0  0.1805500E-02  0.4998947E+03  0.7818609E-02  0.1013806E+00
       -3   -1    0    0    0  501  0.00000000000E+00  0.00000000000E+00  0.22701005070E+03  0.22701007317E+03  0.10100000352E+00 0. -1.
        3   -1    0    0  501    0  0.00000000000E+00  0.00000000000E+00 -0.27520223708E+03  0.27520225562E+03  0.10100000352E+00 0.  1.
    10030    2    1    2    0    0  0.00000000000E+00  0.00000000000E+00 -0.48192186385E+02  0.50221232878E+03  0.49989472527E+03 0.  0.
        1    1    3    3  502    0 -0.23573847235E+03 -0.45405730269E+00  0.59360399025E+02  0.24309769746E+03  0.50400001928E-02 0.  1.
       -1    1    3    3    0  502  0.23573847235E+03  0.45405730269E+00 -0.10755258541E+03  0.25911463132E+03  0.50400001928E-02 0. -1.
</event>
<event>
 5   0  0.4519539E-02  0.5016907E+03  0.7818609E-02  0.1013339E+00
        2   -1    0    0  501    0  0.00000000000E+00  0.00000000000E+00  0.15928372142E+04  0.15928372142E+04  0.25500000920E-02 0.  1.
       -2   -1    0    0    0  501  0.00000000000E+00  0.00000000000E+00 -0.39503968763E+02  0.39503968846E+02  0.25500000920E-02 0. -1.
    10030    2    1    2    0    0  0.00000000000E+00  0.00000000000E+00  0.15533332455E+04  0.16323411831E+04  0.50169070801E+03 0.  0.
        4    1    3    3  502    0 -0.70205942401E+02  0.10032049383E+03  0.14889826534E+04  0.14940093812E+04  0.12699999809E+01 0.  1.
       -4    1    3    3    0  502  0.70205942401E+02 -0.10032049383E+03  0.64350592038E+02  0.13833180193E+03  0.12699999809E+01 0. -1.
</event>
<event>
 5   0  0.4631619E-02  0.5027433E+03  0.7818609E-02  0.1013065E+00
        2   -1    0    0  501    0  0.00000000000E+00  0.00000000000E+00  0.82183185114E+03  0.82183185114E+03  0.25500000920E-02 0. -1.
       -2   -1    0    0    0  501  0.00000000000E+00  0.00000000000E+00 -0.76886425006E+02  0.76886425048E+02  0.25500000920E-02 0.  1.
    10030    2    1    2    0    0  0.00000000000E+00  0.00000000000E+00  0.74494542613E+03  0.89871827619E+03  0.50274332620E+03 0.  0.
        5    1    3    3  502    0  0.12875803712E+03 -0.12186454878E+03  0.54013727008E+02  0.18538924746E+03  0.46999998093E+01 0. -1.
       -5    1    3    3    0  502 -0.12875803712E+03  0.12186454878E+03  0.69093169913E+03  0.71332902873E+03  0.46999998093E+01 0.  1.
</event>
<event>
 5   0  0.4451135E-02  0.4984076E+03  0.7818609E-02  0.1014195E+00
       -2   -1    0    0    0  501  0.00000000000E+00  0.00000000000E+00  0.52483509654E+02  0.52483509716E+02  0.25500000920E-02 0. -1.
        2   -1    0    0  501    0  0.00000000000E+00  0.00000000000E+00 -0.11832769633E+04  0.11832769633E+04  0.25500000920E-02 0.  1.
    10030    2    1    2    0    0  0.00000000000E+00  0.00000000000E+00 -0.11307934536E+04  0.12357604730E+04  0.49840757605E+03 0.  0.
        1    1    3    3  502    0  0.18214881491E+03 -0.16384263860E+03 -0.45231987603E+03  0.51440827294E+03  0.50400001928E-02 0. -1.
       -1    1    3    3    0  502 -0.18214881491E+03  0.16384263860E+03 -0.67847357760E+03  0.72135220005E+03  0.50400001928E-02 0.  1.
</event>
<event>
 5   0  0.4631619E-02  0.5008238E+03  0.7818609E-02  0.1013564E+00
       -2   -1    0    0    0  501  0.00000000000E+00  0.00000000000E+00  0.89048083975E+02  0.89048084011E+02  0.25500000920E-02 0. -1.
        2   -1    0    0  501    0  0.00000000000E+00  0.00000000000E+00 -0.70418259276E+03  0.70418259276E+03  0.25500000920E-02 0.  1.
    10030    2    1    2    0    0  0.00000000000E+00  0.00000000000E+00 -0.61513450878E+03  0.79323067677E+03  0.50082376409E+03 0.  0.
        5    1    3    3  502    0 -0.23362629071E+03 -0.89040666722E+02 -0.28664262061E+03  0.38038870381E+03  0.46999998093E+01 0.  1.
       -5    1    3    3    0  502  0.23362629071E+03  0.89040666722E+02 -0.32849188817E+03  0.41284197296E+03  0.46999998093E+01 0. -1.
</event>
<event>
 5   0  0.4451135E-02  0.5016570E+03  0.7818609E-02  0.1013347E+00
       -2   -1    0    0    0  501  0.00000000000E+00  0.00000000000E+00  0.10428580663E+03  0.10428580666E+03  0.25500000920E-02 0. -1.
        2   -1    0    0  501    0  0.00000000000E+00  0.00000000000E+00 -0.60329333662E+03  0.60329333662E+03  0.25500000920E-02 0.  1.
    10030    2    1    2    0    0  0.00000000000E+00  0.00000000000E+00 -0.49900752999E+03  0.70757914328E+03  0.50165698342E+03 0.  0.
        1    1    3    3  502    0 -0.13122170075E+03 -0.12708191453E+03 -0.49195108816E+03  0.52477120816E+03  0.50400001928E-02 0. -1.
       -1    1    3    3    0  502  0.13122170075E+03  0.12708191453E+03 -0.70564418296E+01  0.18280793512E+03  0.50400001928E-02 0.  1.
</event>
<event>
 5   0  0.2723308E-02  0.4961937E+03  0.7818609E-02  0.1014777E+00
       -1   -1    0    0    0  501  0.00000000000E+00  0.00000000000E+00  0.12410007731E+03  0.12410007741E+03  0.50400001928E-02 0.  1.
        1   -1    0    0  501    0  0.00000000000E+00  0.00000000000E+00 -0.49598711880E+03  0.49598711882E+03  0.50400001928E-02 0. -1.
    10030    2    1    2    0    0  0.00000000000E+00  0.00000000000E+00 -0.37188704149E+03  0.62008719624E+03  0.49619367117E+03 0.  0.
        4    1    3    3  502    0 -0.20190030695E+03 -0.71045541234E+02 -0.34272443844E+03  0.40407036080E+03  0.12699999809E+01 0. -1.
       -4    1    3    3    0  502  0.20190030695E+03  0.71045541234E+02 -0.29162603047E+02  0.21601683543E+03  0.12699999809E+01 0.  1.
</event>
<event>
 5   0  0.2779445E-02  0.5190433E+03  0.7818609E-02  0.1008924E+00
        1   -1    0    0  501    0  0.00000000000E+00  0.00000000000E+00  0.15632614396E+04  0.15632614396E+04  0.50400001928E-02 0. -1.
       -1   -1    0    0    0  501  0.00000000000E+00  0.00000000000E+00 -0.43083956421E+02  0.43083956716E+02  0.50400001928E-02 0.  1.
    10030    2    1    2    0    0  0.00000000000E+00  0.00000000000E+00  0.15201774831E+04  0.16063453963E+04  0.51904330447E+03 0.  0.
        3    1    3    3  502    0  0.47388882208E+02  0.21175218064E+03  0.12006717830E+04  0.12201218926E+04  0.10100000352E+00 0. -1.
       -3    1    3    3    0  502 -0.47388882208E+02 -0.21175218064E+03  0.31950570018E+03  0.38622350370E+03  0.10100000352E+00 0.  1.
</event>
<event>
 5   0  0.4451135E-02  0.4996340E+03  0.7818609E-02  0.1013874E+00
       -2   -1    0    0    0  501  0.00000000000E+00  0.00000000000E+00  0.53875721785E+02  0.53875721845E+02  0.25500000920E-02 0. -1.
        2   -1    0    0  501    0  0.00000000000E+00  0.00000000000E+00 -0.11583795401E+04  0.11583795401E+04  0.25500000920E-02 0.  1.
    10030    2    1    2    0    0  0.00000000000E+00  0.00000000000E+00 -0.11045038184E+04  0.12122552620E+04  0.49963400150E+03 0.  0.
        1    1    3    3  502    0 -0.17875905679E+03 -0.10867489995E+03 -0.88353998988E+03  0.90796913384E+03  0.50400001928E-02 0.  1.
       -1    1    3    3    0  502  0.17875905679E+03  0.10867489995E+03 -0.22096382849E+03  0.30428612816E+03  0.50400001928E-02 0. -1.
</event>
<event>
 5   0  0.2719671E-02  0.4974072E+03  0.7818609E-02  0.1014458E+00
       -1   -1    0    0    0  501  0.00000000000E+00  0.00000000000E+00  0.73750364386E+02  0.73750364558E+02  0.50400001928E-02 0.  1.
        1   -1    0    0  501    0  0.00000000000E+00  0.00000000000E+00 -0.83868701046E+03  0.83868701048E+03  0.50400001928E-02 0. -1.
    10030    2    1    2    0    0  0.00000000000E+00  0.00000000000E+00 -0.76493664608E+03  0.91243737503E+03  0.49740716807E+03 0.  0.
        2    1    3    3  502    0 -0.20765522677E+03  0.12890522979E+03 -0.46685454832E+03  0.52696339604E+03  0.25500000920E-02 0.  1.
       -2    1    3    3    0  502  0.20765522677E+03 -0.12890522979E+03 -0.29808209776E+03  0.38547397899E+03  0.25500000920E-02 0. -1.
</event>
<event>
 5   0  0.4534223E-02  0.5016623E+03  0.7818609E-02  0.1013346E+00
       -2   -1    0    0    0  501  0.00000000000E+00  0.00000000000E+00  0.19276760674E+03  0.19276760675E+03  0.25500000920E-02 0.  1.
        2   -1    0    0  501    0  0.00000000000E+00  0.00000000000E+00 -0.32638400760E+03  0.32638400761E+03  0.25500000920E-02 0. -1.
    10030    2    1    2    0    0  0.00000000000E+00  0.00000000000E+00 -0.13361640087E+03  0.51915161437E+03  0.50166229290E+03 0.  0.
        2    1    3    3  502    0  0.60922592617E+02  0.78228017665E+02  0.17162623842E+03  0.19820885641E+03  0.25500000920E-02 0.  1.
       -2    1    3    3    0  502 -0.60922592617E+02 -0.78228017665E+02 -0.30524263929E+03  0.32094275796E+03  0.25500000920E-02 0. -1.
</event>
<event>
 5   0  0.2723308E-02  0.4675584E+03  0.7818609E-02  0.1022612E+00
        1   -1    0    0  501    0  0.00000000000E+00  0.00000000000E+00  0.19460845549E+03  0.19460845556E+03  0.50400001928E-02 0.  1.
       -1   -1    0    0    0  501  0.00000000000E+00  0.00000000000E+00 -0.28083416719E+03  0.28083416724E+03  0.50400001928E-02 0. -1.
    10030    2    1    2    0    0  0.00000000000E+00  0.00000000000E+00 -0.86225711700E+02  0.47544262279E+03  0.46755835380E+03 0.  0.
        4    1    3    3  502    0  0.97774564477E+02  0.70218569625E+02 -0.24689318892E+03  0.27467867156E+03  0.12699999809E+01 0. -1.
       -4    1    3    3    0  502 -0.97774564477E+02 -0.70218569625E+02  0.16066747722E+03  0.20076395123E+03  0.12699999809E+01 0.  1.
</event>
<event>
 5   0  0.4631619E-02  0.5008931E+03  0.7818609E-02  0.1013546E+00
       -2   -1    0    0    0  501  0.00000000000E+00  0.00000000000E+00  0.39577855597E+02  0.39577855679E+02  0.25500000920E-02 0. -1.
        2   -1    0    0  501    0  0.00000000000E+00  0.00000000000E+00 -0.15848125810E+04  0.15848125810E+04  0.25500000920E-02 0.  1.
    10030    2    1    2    0    0  0.00000000000E+00  0.00000000000E+00 -0.15452347254E+04  0.16243904367E+04  0.50089313650E+03 0.  0.
        5    1    3    3  502    0 -0.20785888429E+03 -0.69308454680E+02 -0.11657073210E+04  0.11861301049E+04  0.46999998093E+01 0.  1.
       -5    1    3    3    0  502  0.20785888429E+03  0.69308454680E+02 -0.37952740443E+03  0.43826033174E+03  0.46999998093E+01 0. -1.
</event>
<event>
 5   0  0.2723308E-02  0.5008672E+03  0.7818609E-02  0.1013553E+00
        1   -1    0    0  501    0  0.00000000000E+00  0.00000000000E+00  0.28996182265E+03  0.28996182269E+03  0.50400001928E-02 0. -1.
       -1   -1    0    0    0  501  0.00000000000E+00  0.00000000000E+00 -0.21629396306E+03  0.21629396312E+03  0.50400001928E-02 0.  1.
    10030    2    1    2    0    0  0.00000000000E+00  0.00000000000E+00  0.73667859584E+02  0.50625578581E+03  0.50086721507E+03 0.  0.
        4    1    3    3  502    0  0.16904211678E+02  0.24139426185E+03 -0.28345784137E+02  0.24364326054E+03  0.12699999809E+01 0.  1.
       -4    1    3    3    0  502 -0.16904211678E+02 -0.24139426185E+03  0.10201364372E+03  0.26261252528E+03  0.12699999809E+01 0. -1.
</event>
<event>
 5   0  0.4451135E-02  0.4982922E+03  0.7818609E-02  0.1014226E+00
       -2   -1    0    0    0  501  0.00000000000E+00  0.00000000000E+00  0.23831050401E+03  0.23831050402E+03  0.25500000920E-02 0.  1.
        2   -1    0    0  501    0  0.00000000000E+00  0.00000000000E+00 -0.26047440063E+03  0.26047440065E+03  0.25500000920E-02 0. -1.
    10030    2    1    2    0    0  0.00000000000E+00  0.00000000000E+00 -0.22163896628E+02  0.49878490466E+03  0.49829222632E+03 0.  0.
        1    1    3    3  502    0  0.19707854077E+03 -0.12707069667E+03  0.73184851088E+02  0.24564799132E+03  0.50400001928E-02 0.  1.
       -1    1    3    3    0  502 -0.19707854077E+03  0.12707069667E+03 -0.95348747716E+02  0.25313691335E+03  0.50400001928E-02 0. -1.
</event>
<event>
 5   0  0.2719671E-02  0.5040622E+03  0.7818609E-02  0.1012724E+00
        1   -1    0    0  501    0  0.00000000000E+00  0.00000000000E+00  0.44192381217E+03  0.44192381220E+03  0.50400001928E-02 0.  1.
       -1   -1    0    0    0  501  0.00000000000E+00  0.00000000000E+00 -0.14373444198E+03  0.14373444206E+03  0.50400001928E-02 0. -1.
    10030    2    1    2    0    0  0.00000000000E+00  0.00000000000E+00  0.29818937020E+03  0.58565825427E+03  0.50406218891E+03 0.  0.
        2    1    3    3  502    0 -0.90011000479E+02  0.76277158165E+02  0.40785563819E+03  0.42457791590E+03  0.25500000920E-02 0.  1.
       -2    1    3    3    0  502  0.90011000479E+02 -0.76277158165E+02 -0.10966626799E+03  0.16108033836E+03  0.25500000920E-02 0. -1.
</event>
<event>
 5   0  0.1805500E-02  0.5002245E+03  0.7818609E-02  0.1013720E+00
       -4   -1    0    0    0  501  0.00000000000E+00  0.00000000000E+00  0.10846420013E+03  0.10847163505E+03  0.12699999809E+01 0. -1.
        4   -1    0    0  501    0  0.00000000000E+00  0.00000000000E+00 -0.57671657873E+03  0.57671797708E+03  0.12699999809E+01 0.  1.
    10030    2    1    2    0    0  0.00000000000E+00  0.00000000000E+00 -0.46825237860E+03  0.68518961213E+03  0.50022446412E+03 0.  0.
        5    1    3    3  502    0  0.23325279333E+03  0.63625904590E+02 -0.14664427205E+03  0.28281045570E+03  0.46999998093E+01 0.  1.
       -5    1    3    3    0  502 -0.23325279333E+03 -0.63625904590E+02 -0.32160810655E+03  0.40237915643E+03  0.46999998093E+01 0. -1.
</event>
<event>
 5   0  0.2779445E-02  0.5015919E+03  0.7818609E-02  0.1013364E+00
        1   -1    0    0  501    0  0.00000000000E+00  0.00000000000E+00  0.67901876740E+03  0.67901876741E+03  0.50400001928E-02 0. -1.
       -1   -1    0    0    0  501  0.00000000000E+00  0.00000000000E+00 -0.92631620002E+02  0.92631620139E+02  0.50400001928E-02 0.  1.
    10030    2    1    2    0    0  0.00000000000E+00  0.00000000000E+00  0.58638714739E+03  0.77165038755E+03  0.50159189984E+03 0.  0.
        3    1    3    3  502    0  0.14665043611E+03 -0.16417827675E+03  0.47804367480E+03  0.52629518541E+03  0.10100000352E+00 0. -1.
       -3    1    3    3    0  502 -0.14665043611E+03  0.16417827675E+03  0.10834347260E+03  0.24535520215E+03  0.10100000352E+00 0.  1.
</event>
<event>
 5   0  0.2715483E-02  0.4988478E+03  0.7818609E-02  0.1014080E+00
        1   -1    0    0  501    0  0.00000000000E+00  0.00000000000E+00  0.10414424992E+04  0.10414424992E+04  0.50400001928E-02 0.  1.
       -1   -1    0    0    0  501  0.00000000000E+00  0.00000000000E+00 -0.59736645281E+02  0.59736645494E+02  0.50400001928E-02 0. -1.
    10030    2    1    2    0    0  0.00000000000E+00  0.00000000000E+00  0.98170585393E+03  0.11011791447E+04  0.49884779755E+03 0.  0.
        5    1    3    3  502    0 -0.23490991506E+03 -0.83254715837E+02  0.51011917848E+03  0.56776551688E+03  0.46999998093E+01 0. -1.
       -5    1    3    3    0  502  0.23490991506E+03  0.83254715837E+02  0.47158667545E+03  0.53341362784E+03  0.46999998093E+01 0.  1.
</event>
<event>
 5   0  0.2723308E-02  0.4964004E+03  0.7818609E-02  0.1014723E+00
        1   -1    0    0  501    0  0.00000000000E+00  0.00000000000E+00  0.90799575158E+03  0.90799575159E+03  0.50400001928E-02 0.  1.
       -1   -1    0    0    0  501  0.00000000000E+00  0.00000000000E+00 -0.67845406453E+02  0.67845406641E+02  0.50400001928E-02 0. -1.
    10030    2    1    2    0    0  0.00000000000E+00  0.00000000000E+00  0.84015034512E+03  0.97584115823E+03  0.49640040662E+03 0.  0.
        4    1    3    3  502    0 -0.19975846019E+03  0.14319730475E+03  0.48796958073E+03  0.54637426287E+03  0.12699999809E+01 0.  1.
       -4    1    3    3    0  502  0.19975846019E+03 -0.14319730475E+03  0.35218076439E+03  0.42946689536E+03  0.12699999809E+01 0. -1.
</event>
<event>
 5   0  0.4519539E-02  0.4983200E+03  0.7818609E-02  0.1014218E+00
        2   -1    0    0  501    0  0.00000000000E+00  0.00000000000E+00  0.10998022660E+03  0.10998022663E+03  0.25500000920E-02 0.  1.
       -2   -1    0    0    0  501  0.00000000000E+00  0.00000000000E+00 -0.56447143739E+03  0.56447143739E+03  0.25500000920E-02 0. -1.
    10030    2    1    2    0    0  0.00000000000E+00  0.00000000000E+00 -0.45449121078E+03  0.67445166403E+03  0.49831996391E+03 0.  0.
        4    1    3    3  502    0 -0.86759966108E+02 -0.13792647430E+03 -0.48235615075E+03  0.50913659572E+03  0.12699999809E+01 0. -1.
       -4    1    3    3    0  502  0.86759966108E+02  0.13792647430E+03  0.27864939964E+02  0.16531506831E+03  0.12699999809E+01 0.  1.
</event>
<event>
 5   0  0.4451135E-02  0.4983590E+03  0.7818609E-02  0.1014208E+00
        2   -1    0    0  501    0  0.00000000000E+00  0.00000000000E+00  0.11802028795E+04  0.11802028795E+04  0.25500000920E-02 0.  1.
       -2   -1    0    0    0  501  0.00000000000E+00  0.00000000000E+00 -0.52609966497E+02  0.52609966558E+02  0.25500000920E-02 0. -1.
    10030    2    1    2    0    0  0.00000000000E+00  0.00000000000E+00  0.11275929130E+04  0.12328128461E+04  0.49835904322E+03 0.  0.
        1    1    3    3  502    0  0.15625485322E+03 -0.25159415840E+01  0.83682739315E+02  0.17727016105E+03  0.50400001928E-02 0. -1.
       -1    1    3    3    0  502 -0.15625485322E+03  0.25159415840E+01  0.10439101737E+04  0.10555426850E+04  0.50400001928E-02 0.  1.
</event>
<event>
 5   0  0.4631619E-02  0.4999993E+03  0.7818609E-02  0.1013779E+00
        2   -1    0    0  501    0  0.00000000000E+00  0.00000000000E+00  0.79382251206E+03  0.79382251207E+03  0.25500000920E-02 0.  1.
       -2   -1    0    0    0  501  0.00000000000E+00  0.00000000000E+00 -0.78732740591E+02  0.78732740632E+02  0.25500000920E-02 0. -1.
    10030    2    1    2    0    0  0.00000000000E+00  0.00000000000E+00  0.71508977147E+03  0.87255525270E+03  0.49999928775E+03 0.  0.
        5    1    3    3  502    0 -0.78834627608E+02 -0.22728188525E+03  0.23911125176E+03  0.33921709065E+03  0.46999998093E+01 0. -1.
       -5    1    3    3    0  502  0.78834627608E+02  0.22728188525E+03  0.47597851971E+03  0.53333816205E+03  0.46999998093E+01 0.  1.
</event>
<event>
 5   0  0.4534223E-02  0.4993470E+03  0.7818609E-02  0.1013949E+00
       -2   -1    0    0    0  501  0.00000000000E+00  0.00000000000E+00  0.11697682012E+03  0.11697682014E+03  0.25500000920E-02 0. -1.
        2   -1    0    0  501    0  0.00000000000E+00  0.00000000000E+00 -0.53289924444E+03  0.53289924444E+03  0.25500000920E-02 0.  1.
    10030    2    1    2    0    0  0.00000000000E+00  0.00000000000E+00 -0.41592242432E+03  0.64987606459E+03  0.49934700987E+03 0.  0.
        2    1    3    3  502    0 -0.16175096895E+03  0.18963122268E+03 -0.18894564794E+03  0.31276802019E+03  0.25500000920E-02 0. -1.
       -2    1    3    3    0  502  0.16175096895E+03 -0.18963122268E+03 -0.22697677638E+03  0.33710804440E+03  0.25500000920E-02 0.  1.
</event>
<event>
 5   0  0.1805500E-02  0.5017057E+03  0.7818609E-02  0.1013335E+00
       -4   -1    0    0    0  501  0.00000000000E+00  0.00000000000E+00  0.63951829694E+03  0.63951955797E+03  0.12699999809E+01 0. -1.
        4   -1    0    0  501    0  0.00000000000E+00  0.00000000000E+00 -0.98392293803E+02  0.98400489733E+02  0.12699999809E+01 0.  1.
    10030    2    1    2    0    0  0.00000000000E+00  0.00000000000E+00  0.54112600314E+03  0.73792004770E+03  0.50170573599E+03 0.  0.
        5    1    3    3  502    0  0.12040116035E+03  0.20537248301E+03  0.38666275141E+03  0.45409742294E+03  0.46999998093E+01 0. -1.
       -5    1    3    3    0  502 -0.12040116035E+03 -0.20537248301E+03  0.15446325173E+03  0.28382262476E+03  0.46999998093E+01 0.  1.
</event>
<event>
 5   0  0.2643185E-02  0.4998927E+03  0.7818609E-02  0.1013807E+00
        1   -1    0    0  501    0  0.00000000000E+00  0.00000000000E+00  0.74884083811E+02  0.74884083980E+02  0.50400001928E-02 0. -1.
       -1   -1    0    0    0  501  0.00000000000E+00  0.00000000000E+00 -0.83426509349E+03  0.83426509350E+03  0.50400001928E-02 0.  1.
    10030    2    1    2    0    0  0.00000000000E+00  0.00000000000E+00 -0.75938100967E+03  0.90914917748E+03  0.49989269755E+03 0.  0.
        1    1    3    3  502    0  0.68819100294E+02 -0.76028630299E+02 -0.79424284534E+03  0.80083588743E+03  0.50400001928E-02 0.  1.
       -1    1    3    3    0  502 -0.68819100294E+02  0.76028630299E+02  0.34861835668E+02  0.10831329005E+03  0.50400001928E-02 0. -1.
</event>
<event>
 5   0  0.4631619E-02  0.5147927E+03  0.7818609E-02  0.1009988E+00
        2   -1    0    0  501    0  0.00000000000E+00  0.00000000000E+00  0.31660020048E+04  0.31660020048E+04  0.25500000920E-02 0.  1.
       -2   -1    0    0    0  501  0.00000000000E+00  0.00000000000E+00 -0.20926353218E+02  0.20926353373E+02  0.25500000920E-02 0. -1.
    10030    2    1    2    0    0  0.00000000000E+00  0.00000000000E+00  0.31450756516E+04  0.31869283582E+04  0.51479268251E+03 0.  0.
        5    1    3    3  502    0  0.53078184285E+02  0.10321701018E+03  0.29945105495E+04  0.29967626809E+04  0.46999998093E+01 0.  1.
       -5    1    3    3    0  502 -0.53078184285E+02 -0.10321701018E+03  0.15056510215E+03  0.19016567729E+03  0.46999998093E+01 0. -1.
</event>
<event>
 5   0  0.4451135E-02  0.4972904E+03  0.7818609E-02  0.1014489E+00
       -2   -1    0    0    0  501  0.00000000000E+00  0.00000000000E+00  0.60392011547E+02  0.60392011601E+02  0.25500000920E-02 0.  1.
        2   -1    0    0  501    0  0.00000000000E+00  0.00000000000E+00 -0.10237189037E+04  0.10237189037E+04  0.25500000920E-02 0. -1.
    10030    2    1    2    0    0  0.00000000000E+00  0.00000000000E+00 -0.96332689213E+03  0.10841109153E+04  0.49729043378E+03 0.  0.
        1    1    3    3  502    0  0.11526946203E+03  0.14896158644E+03 -0.83552723804E+03  0.85649423153E+03  0.50400001928E-02 0. -1.
       -1    1    3    3    0  502 -0.11526946203E+03 -0.14896158644E+03 -0.12779965409E+03  0.22761668375E+03  0.50400001928E-02 0.  1.
</event>
<event>
 5   0  0.2715483E-02  0.5002584E+03  0.7818609E-02  0.1013711E+00
       -1   -1    0    0    0  501  0.00000000000E+00  0.00000000000E+00  0.58514358363E+02  0.58514358580E+02  0.50400001928E-02 0.  1.
        1   -1    0    0  501    0  0.00000000000E+00  0.00000000000E+00 -0.10692181046E+04  0.10692181046E+04  0.50400001928E-02 0. -1.
    10030    2    1    2    0    0  0.00000000000E+00  0.00000000000E+00 -0.10107037462E+04  0.11277324632E+04  0.50025837912E+03 0.  0.
        5    1    3    3  502    0  0.14935257907E+03 -0.15504262328E+03 -0.79226071368E+03  0.82100154467E+03  0.46999998093E+01 0. -1.
       -5    1    3    3    0  502 -0.14935257907E+03  0.15504262328E+03 -0.21844303256E+03  0.30673091852E+03  0.46999998093E+01 0.  1.
</event>
<event>
 5   0  0.2643185E-02  0.4988256E+03  0.7818609E-02  0.1014086E+00
       -1   -1    0    0    0  501  0.00000000000E+00  0.00000000000E+00  0.34431494616E+02  0.34431494985E+02  0.50400001928E-02 0. -1.
        1   -1    0    0  501    0  0.00000000000E+00  0.00000000000E+00 -0.18066812309E+04  0.18066812309E+04  0.50400001928E-02 0.  1.
    10030    2    1    2    0    0  0.00000000000E+00  0.00000000000E+00 -0.17722497363E+04  0.18411127259E+04  0.49882556238E+03 0.  0.
        1    1    3    3  502    0  0.16128727975E+03 -0.12554646070E+03 -0.14136935280E+04  0.14283924152E+04  0.50400001928E-02 0.  1.
       -1    1    3    3    0  502 -0.16128727975E+03  0.12554646070E+03 -0.35855620823E+03  0.41272031073E+03  0.50400001928E-02 0. -1.
</event>
<event>
 5   0  0.4631619E-02  0.5041731E+03  0.7818609E-02  0.1012695E+00
        2   -1    0    0  501    0  0.00000000000E+00  0.00000000000E+00  0.10412938806E+04  0.10412938806E+04  0.25500000920E-02 0. -1.
       -2   -1    0    0    0  501  0.00000000000E+00  0.00000000000E+00 -0.61027556894E+02  0.61027556947E+02  0.25500000920E-02 0.  1.
    10030    2    1    2    0    0  0.00000000000E+00  0.00000000000E+00  0.98026632366E+03  0.11023214375E+04  0.50417307175E+03 0.  0.
        5    1    3    3  502    0  0.53531259712E+01  0.12553566362E+03  0.96783754822E+03  0.97597103878E+03  0.46999998093E+01 0. -1.
       -5    1    3    3    0  502 -0.53531259712E+01 -0.12553566362E+03  0.12428775437E+02  0.12635039872E+03  0.46999998093E+01 0.  1.
</event>
<event>
 5   0  0.2779445E-02  0.5003660E+03  0.7818609E-02  0.1013683E+00
       -1   -1    0    0    0  501  0.00000000000E+00  0.00000000000E+00  0.10028460932E+04  0.10028460932E+04  0.50400001928E-02 0. -1.
        1   -1    0    0  501    0  0.00000000000E+00  0.00000000000E+00 -0.62413908269E+02  0.62413908472E+02  0.50400001928E-02 0.  1.
    10030    2    1    2    0    0  0.00000000000E+00  0.00000000000E+00  0.94043218496E+03  0.10652600017E+04  0.50036604275E+03 0.  0.
        3    1    3    3  502    0 -0.21319060397E+03  0.35651718748E+02  0.73841669462E+03  0.76940269285E+03  0.10100000352E+00 0. -1.
       -3    1    3    3    0  502  0.21319060397E+03 -0.35651718748E+02  0.20201549034E+03  0.29585730886E+03  0.10100000352E+00 0.  1.
</event>
<event>
 5   0  0.4631619E-02  0.4990256E+03  0.7818609E-02  0.1014034E+00
       -2   -1    0    0    0  501  0.00000000000E+00  0.00000000000E+00  0.54274338526E+02  0.54274338586E+02  0.25500000920E-02 0. -1.
        2   -1    0    0  501    0  0.00000000000E+00  0.00000000000E+00 -0.11470732455E+04  0.11470732455E+04  0.25500000920E-02 0.  1.
    10030    2    1    2    0    0  0.00000000000E+00  0.00000000000E+00 -0.10927989069E+04  0.12013475840E+04  0.49902561728E+03 0.  0.
        5    1    3    3  502    0 -0.23005321653E+03  0.31997962396E+02 -0.76554040103E+03  0.80001409215E+03  0.46999998093E+01 0.  1.
       -5    1    3    3    0  502  0.23005321653E+03 -0.31997962396E+02 -0.32725850590E+03  0.40133349190E+03  0.46999998093E+01 0. -1.
</event>
<event>
 5   0  0.2719671E-02  0.4989688E+03  0.7818609E-02  0.1014048E+00
       -1   -1    0    0    0  501  0.00000000000E+00  0.00000000000E+00  0.33056676749E+03  0.33056676753E+03  0.50400001928E-02 0. -1.
        1   -1    0    0  501    0  0.00000000000E+00  0.00000000000E+00 -0.18829016716E+03  0.18829016723E+03  0.50400001928E-02 0.  1.
    10030    2    1    2    0    0  0.00000000000E+00  0.00000000000E+00  0.14227660033E+03  0.51885693476E+03  0.49896882442E+03 0.  0.
        2    1    3    3  502    0 -0.93213373505E+02  0.21220866569E+03 -0.24851509799E+02  0.23310694614E+03  0.25500000920E-02 0.  1.
       -2    1    3    3    0  502  0.93213373505E+02 -0.21220866569E+03  0.16712811013E+03  0.28574998862E+03  0.25500000920E-02 0. -1.
</event>
<event>
 5   0  0.4451135E-02  0.4998223E+03  0.7818609E-02  0.1013825E+00
        2   -1    0    0  501    0  0.00000000000E+00  0.00000000000E+00  0.94512888087E+02  0.94512888122E+02  0.25500000920E-02 0. -1.
       -2   -1    0    0    0  501  0.00000000000E+00  0.00000000000E+00 -0.66081542345E+03  0.66081542345E+03  0.25500000920E-02 0.  1.
    10030    2    1    2    0    0  0.00000000000E+00  0.00000000000E+00 -0.56630253536E+03  0.75532831157E+03  0.49982226512E+03 0.  0.
        1    1    3    3  502    0  0.51774538398E+02  0.21157899746E+03 -0.46829131570E+03  0.51647171401E+03  0.50400001928E-02 0.  1.
       -1    1    3    3    0  502 -0.51774538398E+02 -0.21157899746E+03 -0.98011219662E+02  0.23885659756E+03  0.50400001928E-02 0. -1.
</event>
<event>
 5   0  0.2719671E-02  0.4996265E+03  0.7818609E-02  0.1013876E+00
        1   -1    0    0  501    0  0.00000000000E+00  0.00000000000E+00  0.21041490623E+03  0.21041490629E+03  0.50400001928E-02 0.  1.
       -1   -1    0    0    0  501  0.00000000000E+00  0.00000000000E+00 -0.29658855034E+03  0.29658855038E+03  0.50400001928E-02 0. -1.
    10030    2    1    2    0    0  0.00000000000E+00  0.00000000000E+00 -0.86173644110E+02  0.50700345667E+03  0.49962646861E+03 0.  0.
        2    1    3    3  502    0  0.13729650158E+03  0.19951879408E+03 -0.10521641343E+03  0.26406168256E+03  0.25500000920E-02 0. -1.
       -2    1    3    3    0  502 -0.13729650158E+03 -0.19951879408E+03  0.19042769321E+02  0.24294177411E+03  0.25500000920E-02 0.  1.
</event>
<event>
 5   0  0.1805500E-02  0.4910258E+03  0.7818609E-02  0.1016148E+00
       -3   -1    0    0    0  501  0.00000000000E+00  0.00000000000E+00  0.13000473141E+03  0.13000477065E+03  0.10100000352E+00 0.  1.
        3   -1    0    0  501    0  0.00000000000E+00  0.00000000000E+00 -0.46364909702E+03  0.46364910802E+03  0.10100000352E+00 0. -1.
    10030    2    1    2    0    0  0.00000000000E+00  0.00000000000E+00 -0.33364436561E+03  0.59365387867E+03  0.49102582922E+03 0.  0.
        1    1    3    3  502    0 -0.20720340635E+03 -0.10193027487E+03 -0.26763889582E+03  0.35348778072E+03  0.50400001928E-02 0. -1.
       -1    1    3    3    0  502  0.20720340635E+03  0.10193027487E+03 -0.66005469787E+02  0.24016609795E+03  0.50400001928E-02 0.  1.
</event>
<event>
 5   0  0.4519539E-02  0.4993430E+03  0.7818609E-02  0.1013951E+00
        2   -1    0    0  501    0  0.00000000000E+00  0.00000000000E+00  0.12505261408E+04  0.12505261408E+04  0.25500000920E-02 0.  1.
       -2   -1    0    0    0  501  0.00000000000E+00  0.00000000000E+00 -0.49847702520E+02  0.49847702585E+02  0.25500000920E-02 0. -1.
    10030    2    1    2    0    0  0.00000000000E+00  0.00000000000E+00  0.12006784383E+04  0.13003738434E+04  0.49934298875E+03 0.  0.
        4    1    3    3  502    0  0.15750333526E+03  0.28247347930E+02  0.10125482291E+03  0.18936569211E+03  0.12699999809E+01 0. -1.
       -4    1    3    3    0  502 -0.15750333526E+03 -0.28247347930E+02  0.10994236153E+04  0.11110081513E+04  0.12699999809E+01 0.  1.
</event>
<event>
 5   0  0.2719671E-02  0.5013505E+03  0.7818609E-02  0.1013427E+00
       -1   -1    0    0    0  501  0.00000000000E+00  0.00000000000E+00  0.13159912969E+03  0.13159912978E+03  0.50400001928E-02 0.  1.
        1   -1    0    0  501    0  0.00000000000E+00  0.00000000000E+00 -0.47749624507E+03  0.47749624510E+03  0.50400001928E-02 0. -1.
    10030    2    1    2    0    0  0.00000000000E+00  0.00000000000E+00 -0.34589711539E+03  0.60909537488E+03  0.50135053732E+03 0.  0.
        2    1    3    3  502    0  0.11295739401E+03  0.13872539834E+03  0.40384726573E+02  0.18339856911E+03  0.25500000920E-02 0.  1.
       -2    1    3    3    0  502 -0.11295739401E+03 -0.13872539834E+03 -0.38628184196E+03  0.42569680577E+03  0.25500000920E-02 0. -1.
</event>
<event>
 5   0  0.1805500E-02  0.5011324E+03  0.7818609E-02  0.1013484E+00
        4   -1    0    0  501    0  0.00000000000E+00  0.00000000000E+00  0.22652077866E+03  0.22652433879E+03  0.12699999809E+01 0. -1.
       -4   -1    0    0    0  501  0.00000000000E+00  0.00000000000E+00 -0.27715684207E+03  0.27715975178E+03  0.12699999809E+01 0.  1.
    10030    2    1    2    0    0  0.00000000000E+00  0.00000000000E+00 -0.50636063414E+02  0.50368409057E+03  0.50113236991E+03 0.  0.
        4    1    3    3  502    0 -0.35821244182E+02  0.90944423909E+02 -0.25720419387E+03  0.27515388426E+03  0.12699999809E+01 0.  1.
       -4    1    3    3    0  502  0.35821244182E+02 -0.90944423909E+02  0.20656813046E+03  0.22853020631E+03  0.12699999809E+01 0. -1.
</event>
<event>
 5   0  0.2779445E-02  0.4953652E+03  0.7818609E-02  0.1014996E+00
        1   -1    0    0  501    0  0.00000000000E+00  0.00000000000E+00  0.22372014269E+03  0.22372014275E+03  0.50400001928E-02 0. -1.
       -1   -1    0    0    0  501  0.00000000000E+00  0.00000000000E+00 -0.27421162465E+03  0.27421162469E+03  0.50400001928E-02 0.  1.
    10030    2    1    2    0    0  0.00000000000E+00  0.00000000000E+00 -0.50491481955E+02  0.49793176744E+03  0.49536517366E+03 0.  0.
        3    1    3    3  502    0  0.14704709568E+03  0.19917168995E+03 -0.17828948174E+02  0.24821380304E+03  0.10100000352E+00 0.  1.
       -3    1    3    3    0  502 -0.14704709568E+03 -0.19917168995E+03 -0.32662533781E+02  0.24971796440E+03  0.10100000352E+00 0. -1.
</event>
<event>
 5   0  0.2719671E-02  0.4997861E+03  0.7818609E-02  0.1013835E+00
        1   -1    0    0  501    0  0.00000000000E+00  0.00000000000E+00  0.40661371005E+03  0.40661371008E+03  0.50400001928E-02 0. -1.
       -1   -1    0    0    0  501  0.00000000000E+00  0.00000000000E+00 -0.15357705717E+03  0.15357705725E+03  0.50400001928E-02 0.  1.
    10030    2    1    2    0    0  0.00000000000E+00  0.00000000000E+00  0.25303665288E+03  0.56019076733E+03  0.49978610235E+03 0.  0.
        2    1    3    3  502    0  0.21547465791E+03 -0.97359627397E+02  0.21715095676E+03  0.32103389739E+03  0.25500000920E-02 0.  1.
       -2    1    3    3    0  502 -0.21547465791E+03  0.97359627397E+02  0.35885696115E+02  0.23915686994E+03  0.25500000920E-02 0. -1.
</event>
<event>
 5   0  0.2643185E-02  0.5000093E+03  0.7818609E-02  0.1013776E+00
       -1   -1    0    0    0  501  0.00000000000E+00  0.00000000000E+00  0.25742207923E+03  0.25742207928E+03  0.50400001928E-02 0. -1.
        1   -1    0    0  501    0  0.00000000000E+00  0.00000000000E+00 -0.24280092337E+03  0.24280092342E+03  0.50400001928E-02 0.  1.
    10030    2    1    2    0    0  0.00000000000E+00  0.00000000000E+00  0.14621155858E+02  0.50022300270E+03  0.50000927415E+03 0.  0.
        1    1    3    3  502    0 -0.15617822150E+03 -0.17661950779E+03 -0.75888851572E+02  0.24767964232E+03  0.50400001928E-02 0.  1.
       -1    1    3    3    0  502  0.15617822150E+03  0.17661950779E+03  0.90510007431E+02  0.25254336038E+03  0.50400001928E-02 0. -1.
</event>
<event>
 5   0  0.1805500E-02  0.4970436E+03  0.7818609E-02  0.1014553E+00
       -3   -1    0    0    0  501  0.00000000000E+00  0.00000000000E+00  0.32673134848E+02  0.32673290955E+02  0.10100000352E+00 0.  1.
        3   -1    0    0  501    0  0.00000000000E+00  0.00000000000E+00 -0.18903276583E+04  0.18903276610E+04  0.10100000352E+00 0. -1.
    10030    2    1    2    0    0  0.00000000000E+00  0.00000000000E+00 -0.18576545234E+04  0.19230009519E+04  0.49704359236E+03 0.  0.
        5    1    3    3  502    0  0.13355973093E+03  0.82853326011E+02 -0.18425050607E+03  0.24222554436E+03  0.46999998093E+01 0.  1.
       -5    1    3    3    0  502 -0.13355973093E+03 -0.82853326011E+02 -0.16734040174E+04  0.16807754076E+04  0.46999998093E+01 0. -1.
</event>
<event>
 5   0  0.2779445E-02  0.4984877E+03  0.7818609E-02  0.1014174E+00
       -1   -1    0    0    0  501  0.00000000000E+00  0.00000000000E+00  0.17433369459E+03  0.17433369466E+03  0.50400001928E-02 0.  1.
        1   -1    0    0  501    0  0.00000000000E+00  0.00000000000E+00 -0.35634246661E+03  0.35634246664E+03  0.50400001928E-02 0. -1.
    10030    2    1    2    0    0  0.00000000000E+00  0.00000000000E+00 -0.18200877202E+03  0.53067616131E+03  0.49848770806E+03 0.  0.
        3    1    3    3  502    0 -0.22537366852E+03 -0.92519146104E+02 -0.14702765120E+03  0.28455267224E+03  0.10100000352E+00 0.  1.
       -3    1    3    3    0  502  0.22537366852E+03  0.92519146104E+02 -0.34981120815E+02  0.24612348907E+03  0.10100000352E+00 0. -1.
</event>
<event>
 5   0  0.2715483E-02  0.5002290E+03  0.7818609E-02  0.1013719E+00
        1   -1    0    0  501    0  0.00000000000E+00  0.00000000000E+00  0.49147870805E+03  0.49147870807E+03  0.50400001928E-02 0.  1.
       -1   -1    0    0    0  501  0.00000000000E+00  0.00000000000E+00 -0.12728379317E+03  0.12728379327E+03  0.50400001928E-02 0. -1.
    10030    2    1    2    0    0  0.00000000000E+00  0.00000000000E+00  0.36419491487E+03  0.61876250135E+03  0.50022904459E+03 0.  0.
        5    1    3    3  502    0 -0.48503629095E+02 -0.24281109382E+03  0.22539727203E+03  0.33486691319E+03  0.46999998093E+01 0. -1.
       -5    1    3    3    0  502  0.48503629095E+02  0.24281109382E+03  0.13879764285E+03  0.28389558816E+03  0.46999998093E+01 0.  1.
</event>
<event>
 5   0  0.2715483E-02  0.4994193E+03  0.7818609E-02  0.1013931E+00
        1   -1    0    0  501    0  0.00000000000E+00  0.00000000000E+00  0.11550727686E+04  0.11550727686E+04  0.50400001928E-02 0.  1.
       -1   -1    0    0    0  501  0.00000000000E+00  0.00000000000E+00 -0.53983523960E+02  0.53983524195E+02  0.50400001928E-02 0. -1.
    10030    2    1    2    0    0  0.00000000000E+00  0.00000000000E+00  0.11010892447E+04  0.12090562928E+04  0.49941925725E+03 0.  0.
        5    1    3    3  502    0  0.13884687640E+03  0.88566395645E+01  0.48671664215E+02  0.14747174660E+03  0.46999998093E+01 0. -1.
       -5    1    3    3    0  502 -0.13884687640E+03 -0.88566395645E+01  0.10524175804E+04  0.10615845462E+04  0.46999998093E+01 0.  1.
</event>
<event>
 5   0  0.4519539E-02  0.5057637E+03  0.7818609E-02  0.1012285E+00
       -2   -1    0    0    0  501  0.00000000000E+00  0.00000000000E+00  0.89221912910E+02  0.89221912947E+02  0.25500000920E-02 0. -1.
        2   -1    0    0  501    0  0.00000000000E+00  0.00000000000E+00 -0.71674361923E+03  0.71674361923E+03  0.25500000920E-02 0.  1.
    10030    2    1    2    0    0  0.00000000000E+00  0.00000000000E+00 -0.62752170632E+03  0.80596553218E+03  0.50576372662E+03 0.  0.
        4    1    3    3  502    0 -0.16910450322E+03 -0.27339304518E+02 -0.17324800306E+02  0.17217877972E+03  0.12699999809E+01 0. -1.
       -4    1    3    3    0  502  0.16910450322E+03  0.27339304518E+02 -0.61019690601E+03  0.63378675246E+03  0.12699999809E+01 0.  1.
</event>
<event>
 5   0  0.2723308E-02  0.5005558E+03  0.7818609E-02  0.1013634E+00
        1   -1    0    0  501    0  0.00000000000E+00  0.00000000000E+00  0.25301490610E+03  0.25301490615E+03  0.50400001928E-02 0.  1.
       -1   -1    0    0    0  501  0.00000000000E+00  0.00000000000E+00 -0.24757050946E+03  0.24757050951E+03  0.50400001928E-02 0. -1.
    10030    2    1    2    0    0  0.00000000000E+00  0.00000000000E+00  0.54443966384E+01  0.50058541566E+03  0.50055580799E+03 0.  0.
        4    1    3    3  502    0 -0.24343454317E+01  0.68085790268E+02 -0.23811525000E+03  0.24767334547E+03  0.12699999809E+01 0. -1.
       -4    1    3    3    0  502  0.24343454317E+01 -0.68085790268E+02  0.24355964664E+03  0.25291207019E+03  0.12699999809E+01 0.  1.
</event>
<event>
 5   0  0.4409622E-02  0.4984607E+03  0.7818609E-02  0.1014181E+00
       -2   -1    0    0    0  501  0.00000000000E+00  0.00000000000E+00  0.67496818826E+02  0.67496818874E+02  0.25500000920E-02 0. -1.
        2   -1    0    0  501    0  0.00000000000E+00  0.00000000000E+00 -0.92027678811E+03  0.92027678811E+03  0.25500000920E-02 0.  1.
    10030    2    1    2    0    0  0.00000000000E+00  0.00000000000E+00 -0.85277996928E+03  0.98777360698E+03  0.49846065306E+03 0.  0.
        3    1    3    3  502    0 -0.20200610417E+03 -0.14483059999E+03 -0.46257211389E+03  0.52512411824E+03  0.10100000352E+00 0.  1.
       -3    1    3    3    0  502  0.20200610417E+03  0.14483059999E+03 -0.39020785540E+03  0.46264948874E+03  0.10100000352E+00 0. -1.
</event>
<event>
 5   0  0.1805500E-02  0.5000621E+03  0.7818609E-02  0.1013763E+00
        3   -1    0    0  501    0  0.00000000000E+00  0.00000000000E+00  0.29552309448E+03  0.29552311174E+03  0.10100000352E+00 0. -1.
       -3   -1    0    0    0  501  0.00000000000E+00  0.00000000000E+00 -0.21154187587E+03  0.21154189998E+03  0.10100000352E+00 0.  1.
    10030    2    1    2    0    0  0.00000000000E+00  0.00000000000E+00  0.83981218603E+02  0.50706501172E+03  0.50006207718E+03 0.  0.
        3    1    3    3  502    0  0.14047780773E+03 -0.20166559014E+03  0.88596045448E+02  0.26125140034E+03  0.10100000352E+00 0. -1.
       -3    1    3    3    0  502 -0.14047780773E+03  0.20166559014E+03 -0.46148268444E+01  0.24581361138E+03  0.10100000352E+00 0.  1.
</event>
<event>
 5   0  0.4451135E-02  0.4992171E+03  0.7818609E-02  0.1013983E+00
        2   -1    0    0  501    0  0.00000000000E+00  0.00000000000E+00  0.61906194767E+03  0.61906194768E+03  0.25500000920E-02 0.  1.
       -2   -1    0    0    0  501  0.00000000000E+00  0.00000000000E+00 -0.10064326631E+03  0.10064326634E+03  0.25500000920E-02 0. -1.
    10030    2    1    2    0    0  0.00000000000E+00  0.00000000000E+00  0.51841868136E+03  0.71970521401E+03  0.49921705289E+03 0.  0.
        1    1    3    3  502    0 -0.33300249336E+01  0.20594953522E+03  0.55948905643E+02  0.21343987489E+03  0.50400001928E-02 0. -1.
       -1    1    3    3    0  502  0.33300249336E+01 -0.20594953522E+03  0.46246977572E+03  0.50626533913E+03  0.50400001928E-02 0.  1.
</event>
<event>
 5   0  0.2719671E-02  0.4989702E+03  0.7818609E-02  0.1014048E+00
        1   -1    0    0  501    0  0.00000000000E+00  0.00000000000E+00  0.16320772824E+04  0.16320772824E+04  0.50400001928E-02 0.  1.
       -1   -1    0    0    0  501  0.00000000000E+00  0.00000000000E+00 -0.38137169405E+02  0.38137169738E+02  0.50400001928E-02 0. -1.
    10030    2    1    2    0    0  0.00000000000E+00  0.00000000000E+00  0.15939401130E+04  0.16702144521E+04  0.49897017179E+03 0.  0.
        2    1    3    3  502    0 -0.19967867003E+03  0.84143556926E+02  0.12108906153E+04  0.12301251122E+04  0.25500000920E-02 0.  1.
       -2    1    3    3    0  502  0.19967867003E+03 -0.84143556926E+02  0.38304949767E+03  0.44008933991E+03  0.25500000920E-02 0. -1.
</event>
<event>
 5   0  0.4451135E-02  0.4997911E+03  0.7818609E-02  0.1013833E+00
        2   -1    0    0  501    0  0.00000000000E+00  0.00000000000E+00  0.18376421032E+03  0.18376421034E+03  0.25500000920E-02 0.  1.
       -2   -1    0    0    0  501  0.00000000000E+00  0.00000000000E+00 -0.33982562685E+03  0.33982562686E+03  0.25500000920E-02 0. -1.
    10030    2    1    2    0    0  0.00000000000E+00  0.00000000000E+00 -0.15606141654E+03  0.52358983720E+03  0.49979110825E+03 0.  0.
        1    1    3    3  502    0 -0.73420124268E+01  0.36827227131E+02 -0.33685291942E+03  0.33893958038E+03  0.50400001928E-02 0. -1.
       -1    1    3    3    0  502  0.73420124268E+01 -0.36827227131E+02  0.18079150288E+03  0.18465025682E+03  0.50400001928E-02 0.  1.
</event>
<event>
 5   0  0.4409622E-02  0.4999377E+03  0.7818609E-02  0.1013795E+00
       -2   -1    0    0    0  501  0.00000000000E+00  0.00000000000E+00  0.14899820150E+03  0.14899820152E+03  0.25500000920E-02 0. -1.
        2   -1    0    0  501    0  0.00000000000E+00  0.00000000000E+00 -0.41936363261E+03  0.41936363262E+03  0.25500000920E-02 0.  1.
    10030    2    1    2    0    0  0.00000000000E+00  0.00000000000E+00 -0.27036543111E+03  0.56836183414E+03  0.49993770429E+03 0.  0.
        3    1    3    3  502    0  0.15931316486E+03  0.14687929827E+03 -0.27685914297E+03  0.35157532337E+03  0.10100000352E+00 0. -1.
       -3    1    3    3    0  502 -0.15931316486E+03 -0.14687929827E+03  0.64937118626E+01  0.21678651077E+03  0.10100000352E+00 0.  1.
</event>
<event>
 5   0  0.2719671E-02  0.4995296E+03  0.7818609E-02  0.1013902E+00
       -1   -1    0    0    0  501  0.00000000000E+00  0.00000000000E+00  0.10951583803E+03  0.10951583814E+03  0.50400001928E-02 0.  1.
        1   -1    0    0  501    0  0.00000000000E+00  0.00000000000E+00 -0.56962037003E+03  0.56962037005E+03  0.50400001928E-02 0. -1.
    10030    2    1    2    0    0  0.00000000000E+00  0.00000000000E+00 -0.46010453200E+03  0.67913620820E+03  0.49952958763E+03 0.  0.
        2    1    3    3  502    0 -0.60129267475E+02 -0.19187849032E+03 -0.43147508078E+03  0.47602902138E+03  0.25500000920E-02 0. -1.
       -2    1    3    3    0  502  0.60129267475E+02  0.19187849032E+03 -0.28629451222E+02  0.20310718682E+03  0.25500000920E-02 0.  1.
</event>
<event>
 5   0  0.4409622E-02  0.4998617E+03  0.7818609E-02  0.1013815E+00
        2   -1    0    0  501    0  0.00000000000E+00  0.00000000000E+00  0.58537802197E+03  0.58537802198E+03  0.25500000920E-02 0.  1.
       -2   -1    0    0    0  501  0.00000000000E+00  0.00000000000E+00 -0.10670955954E+03  0.10670955957E+03  0.25500000920E-02 0. -1.
    10030    2    1    2    0    0  0.00000000000E+00  0.00000000000E+00  0.47866846243E+03  0.69208758155E+03  0.49986170449E+03 0.  0.
        3    1    3    3  502    0  0.96036916955E+02  0.11017773606E+03 -0.41370023937E+02  0.15190033582E+03  0.10100000352E+00 0. -1.
       -3    1    3    3    0  502 -0.96036916955E+02 -0.11017773606E+03  0.52003848636E+03  0.54018724572E+03  0.10100000352E+00 0.  1.
</event>
<event>
 5   0  0.2723308E-02  0.4968053E+03  0.7818609E-02  0.1014616E+00
        1   -1    0    0  501    0  0.00000000000E+00  0.00000000000E+00  0.25891856554E+03  0.25891856559E+03  0.50400001928E-02 0.  1.
       -1   -1    0    0    0  501  0.00000000000E+00  0.00000000000E+00 -0.23831385049E+03  0.23831385055E+03  0.50400001928E-02 0. -1.
    10030    2    1    2    0    0  0.00000000000E+00  0.00000000000E+00  0.20604715052E+02  0.49723241614E+03  0.49680531537E+03 0.  0.
        4    1    3    3  502    0  0.54464255515E+02 -0.18205833272E+03 -0.14980602776E+03  0.24198150858E+03  0.12699999809E+01 0. -1.
       -4    1    3    3    0  502 -0.54464255515E+02  0.18205833272E+03  0.17041074281E+03  0.25525090756E+03  0.12699999809E+01 0.  1.
</event>
<event>
 5   0  0.1805500E-02  0.4964022E+03  0.7818609E-02  0.1014722E+00
        4   -1    0    0  501    0  0.00000000000E+00  0.00000000000E+00  0.14092057814E+03  0.14092630075E+03  0.12699999809E+01 0. -1.
       -4   -1    0    0    0  501  0.00000000000E+00  0.00000000000E+00 -0.43713699463E+03  0.43713883947E+03  0.12699999809E+01 0.  1.
    10030    2    1    2    0    0  0.00000000000E+00  0.00000000000E+00 -0.29621641649E+03  0.57806514023E+03  0.49640219676E+03 0.  0.
        1    1    3    3  502    0  0.47592737647E+02  0.18825309242E+03  0.31918690409E+02  0.19678185462E+03  0.50400001928E-02 0. -1.
       -1    1    3    3    0  502 -0.47592737647E+02 -0.18825309242E+03 -0.32813510690E+03  0.38128328561E+03  0.50400001928E-02 0.  1.
</event>
<event>
 5   0  0.2723308E-02  0.4985178E+03  0.7818609E-02  0.1014167E+00
        1   -1    0    0  501    0  0.00000000000E+00  0.00000000000E+00  0.48286665824E+03  0.48286665827E+03  0.50400001928E-02 0.  1.
       -1   -1    0    0    0  501  0.00000000000E+00  0.00000000000E+00 -0.12866908082E+03  0.12866908091E+03  0.50400001928E-02 0. -1.
    10030    2    1    2    0    0  0.00000000000E+00  0.00000000000E+00  0.35419757742E+03  0.61153573918E+03  0.49851783964E+03 0.  0.
        4    1    3    3  502    0  0.23435232325E+02 -0.11301172612E+03 -0.93910751692E+02  0.14880088218E+03  0.12699999809E+01 0. -1.
       -4    1    3    3    0  502 -0.23435232325E+02  0.11301172612E+03  0.44810832912E+03  0.46273485700E+03  0.12699999809E+01 0.  1.
</event>
<event>
 5   0  0.4451135E-02  0.5007460E+03  0.7818609E-02  0.1013584E+00
        2   -1    0    0  501    0  0.00000000000E+00  0.00000000000E+00  0.52563190448E+03  0.52563190449E+03  0.25500000920E-02 0. -1.
       -2   -1    0    0    0  501  0.00000000000E+00  0.00000000000E+00 -0.11925958332E+03  0.11925958335E+03  0.25500000920E-02 0.  1.
    10030    2    1    2    0    0  0.00000000000E+00  0.00000000000E+00  0.40637232116E+03  0.64489148784E+03  0.50074601115E+03 0.  0.
        1    1    3    3  502    0 -0.16110183713E+03 -0.13296623547E+03  0.38095219345E+03  0.43446334186E+03  0.50400001928E-02 0.  1.
       -1    1    3    3    0  502  0.16110183713E+03  0.13296623547E+03  0.25420127716E+02  0.21042814598E+03  0.50400001928E-02 0. -1.
</event>
<event>
 5   0  0.2643185E-02  0.4985289E+03  0.7818609E-02  0.1014164E+00
        1   -1    0    0  501    0  0.00000000000E+00  0.00000000000E+00  0.59440030261E+03  0.59440030263E+03  0.50400001928E-02 0. -1.
       -1   -1    0    0    0  501  0.00000000000E+00  0.00000000000E+00 -0.10453019052E+03  0.10453019064E+03  0.50400001928E-02 0.  1.
    10030    2    1    2    0    0  0.00000000000E+00  0.00000000000E+00  0.48987011209E+03  0.69893049328E+03  0.49852894371E+03 0.  0.
        1    1    3    3  502    0 -0.86310662185E+02  0.20287070198E+03  0.40799223995E+03  0.46374963075E+03  0.50400001928E-02 0. -1.
       -1    1    3    3    0  502  0.86310662185E+02 -0.20287070198E+03  0.81877872134E+02  0.23518086253E+03  0.50400001928E-02 0.  1.
</event>
<event>
 5   0  0.2719671E-02  0.4959904E+03  0.7818609E-02  0.1014831E+00
        1   -1    0    0  501    0  0.00000000000E+00  0.00000000000E+00  0.71427875152E+02  0.71427875329E+02  0.50400001928E-02 0. -1.
       -1   -1    0    0    0  501  0.00000000000E+00  0.00000000000E+00 -0.86103118331E+03  0.86103118333E+03  0.50400001928E-02 0.  1.
    10030    2    1    2    0    0  0.00000000000E+00  0.00000000000E+00 -0.78960330816E+03  0.93245905866E+03  0.49599043520E+03 0.  0.
        2    1    3    3  502    0 -0.14669794894E+03  0.54387255817E+02 -0.33063413625E+02  0.15991075994E+03  0.25500000920E-02 0. -1.
       -2    1    3    3    0  502  0.14669794894E+03 -0.54387255817E+02 -0.75653989454E+03  0.77254829872E+03  0.25500000920E-02 0.  1.
</event>
<event>
 5   0  0.4534223E-02  0.4994558E+03  0.7818609E-02  0.1013921E+00
       -2   -1    0    0    0  501  0.00000000000E+00  0.00000000000E+00  0.24791924154E+03  0.24791924156E+03  0.25500000920E-02 0. -1.
        2   -1    0    0  501    0  0.00000000000E+00  0.00000000000E+00 -0.25154972986E+03  0.25154972987E+03  0.25500000920E-02 0.  1.
    10030    2    1    2    0    0  0.00000000000E+00  0.00000000000E+00 -0.36304883160E+01  0.49946897143E+03  0.49945577680E+03 0.  0.
        2    1    3    3  502    0  0.76432442038E+02  0.18419185799E+03  0.14850658845E+03  0.24864184195E+03  0.25500000920E-02 0. -1.
       -2    1    3    3    0  502 -0.76432442038E+02 -0.18419185799E+03 -0.15213707677E+03  0.25082712948E+03  0.25500000920E-02 0.  1.
</event>
<event>
 5   0  0.4534223E-02  0.5012520E+03  0.7818609E-02  0.1013453E+00
        2   -1    0    0  501    0  0.00000000000E+00  0.00000000000E+00  0.38816234093E+03  0.38816234094E+03  0.25500000920E-02 0. -1.
       -2   -1    0    0    0  501  0.00000000000E+00  0.00000000000E+00 -0.16182250795E+03  0.16182250797E+03  0.25500000920E-02 0.  1.
    10030    2    1    2    0    0  0.00000000000E+00  0.00000000000E+00  0.22633983298E+03  0.54998484891E+03  0.50125204642E+03 0.  0.
        2    1    3    3  502    0  0.19396129016E+03 -0.79808631191E+02 -0.37365619074E+02  0.21304128518E+03  0.25500000920E-02 0.  1.
       -2    1    3    3    0  502 -0.19396129016E+03  0.79808631191E+02  0.26370545205E+03  0.33694356374E+03  0.25500000920E-02 0. -1.
</event>
<event>
 5   0  0.1805500E-02  0.5015629E+03  0.7818609E-02  0.1013372E+00
       -4   -1    0    0    0  501  0.00000000000E+00  0.00000000000E+00  0.57530600675E+03  0.57530740853E+03  0.12699999809E+01 0. -1.
        4   -1    0    0  501    0  0.00000000000E+00  0.00000000000E+00 -0.10931285484E+03  0.10932023204E+03  0.12699999809E+01 0.  1.
    10030    2    1    2    0    0  0.00000000000E+00  0.00000000000E+00  0.46599315191E+03  0.68462764057E+03  0.50156294580E+03 0.  0.
        2    1    3    3  502    0  0.18021760667E+03  0.82160114552E+02  0.44296835214E+03  0.48523152328E+03  0.25500000920E-02 0. -1.
       -2    1    3    3    0  502 -0.18021760667E+03 -0.82160114552E+02  0.23024799770E+02  0.19939611729E+03  0.25500000920E-02 0.  1.
</event>
<event>
 5   0  0.4451135E-02  0.5014920E+03  0.7818609E-02  0.1013390E+00
       -2   -1    0    0    0  501  0.00000000000E+00  0.00000000000E+00  0.28551707627E+02  0.28551707741E+02  0.25500000920E-02 0.  1.
        2   -1    0    0  501    0  0.00000000000E+00  0.00000000000E+00 -0.22020944904E+04  0.22020944904E+04  0.25500000920E-02 0. -1.
    10030    2    1    2    0    0  0.00000000000E+00  0.00000000000E+00 -0.21735427828E+04  0.22306461982E+04  0.50149200666E+03 0.  0.
        1    1    3    3  502    0  0.18643071276E+03  0.14410729500E+03 -0.70542706417E+03  0.74374099391E+03  0.50400001928E-02 0.  1.
       -1    1    3    3    0  502 -0.18643071276E+03 -0.14410729500E+03 -0.14681157186E+04  0.14869052042E+04  0.50400001928E-02 0. -1.
</event>
<event>
 5   0  0.2643185E-02  0.5000983E+03  0.7818609E-02  0.1013753E+00
        1   -1    0    0  501    0  0.00000000000E+00  0.00000000000E+00  0.83445781217E+02  0.83445781369E+02  0.50400001928E-02 0.  1.
       -1   -1    0    0    0  501  0.00000000000E+00  0.00000000000E+00 -0.74928373509E+03  0.74928373510E+03  0.50400001928E-02 0. -1.
    10030    2    1    2    0    0  0.00000000000E+00  0.00000000000E+00 -0.66583795387E+03  0.83272951647E+03  0.50009825714E+03 0.  0.
        1    1    3    3  502    0 -0.23309568125E+03 -0.48665276127E+02 -0.20585882541E+03  0.31476937866E+03  0.50400001928E-02 0.  1.
       -1    1    3    3    0  502  0.23309568125E+03  0.48665276127E+02 -0.45997912846E+03  0.51796013781E+03  0.50400001928E-02 0. -1.
</event>
<event>
 5   0  0.4519539E-02  0.5016064E+03  0.7818609E-02  0.1013360E+00
        2   -1    0    0  501    0  0.00000000000E+00  0.00000000000E+00  0.59640671507E+03  0.59640671507E+03  0.25500000920E-02 0.  1.
       -2   -1    0    0    0  501  0.00000000000E+00  0.00000000000E+00 -0.10546870256E+03  0.10546870259E+03  0.25500000920E-02 0. -1.
    10030    2    1    2    0    0  0.00000000000E+00  0.00000000000E+00  0.49093801251E+03  0.70187541766E+03  0.50160638930E+03 0.  0.
        4    1    3    3  502    0  0.86254904301E+02 -0.93601624742E+02 -0.56910871491E+02  0.13943325595E+03  0.12699999809E+01 0. -1.
       -4    1    3    3    0  502 -0.86254904301E+02  0.93601624742E+02  0.54784888400E+03  0.56244216171E+03  0.12699999809E+01 0.  1.
</event>
<event>
 5   0  0.4631619E-02  0.5018517E+03  0.7818609E-02  0.1013297E+00
       -2   -1    0    0    0  501  0.00000000000E+00  0.00000000000E+00  0.38298531423E+02  0.38298531507E+02  0.25500000920E-02 0. -1.
        2   -1    0    0  501    0  0.00000000000E+00  0.00000000000E+00 -0.16440257763E+04  0.16440257763E+04  0.25500000920E-02 0.  1.
    10030    2    1    2    0    0  0.00000000000E+00  0.00000000000E+00 -0.16057272449E+04  0.16823243078E+04  0.50185166305E+03 0.  0.
        5    1    3    3  502    0  0.19450101180E+03 -0.10004994624E+03 -0.12148073463E+04  0.12343498750E+04  0.46999998093E+01 0.  1.
       -5    1    3    3    0  502 -0.19450101180E+03  0.10004994624E+03 -0.39091989860E+03  0.44797443282E+03  0.46999998093E+01 0. -1.
</event>
<event>
 5   0  0.4409622E-02  0.5012819E+03  0.7818609E-02  0.1013445E+00
        2   -1    0    0  501    0  0.00000000000E+00  0.00000000000E+00  0.12942452800E+04  0.12942452800E+04  0.25500000920E-02 0.  1.
       -2   -1    0    0    0  501  0.00000000000E+00  0.00000000000E+00 -0.48538624151E+02  0.48538624218E+02  0.25500000920E-02 0. -1.
    10030    2    1    2    0    0  0.00000000000E+00  0.00000000000E+00  0.12457066558E+04  0.13427839042E+04  0.50128189774E+03 0.  0.
        3    1    3    3  502    0 -0.12129257865E+02  0.21036902926E+03  0.98639377722E+03  0.10086500589E+04  0.10100000352E+00 0.  1.
       -3    1    3    3    0  502  0.12129257865E+02 -0.21036902926E+03  0.25931287863E+03  0.33413384533E+03  0.10100000352E+00 0. -1.
</event>
<event>
 5   0  0.2643185E-02  0.4992561E+03  0.7818609E-02  0.1013973E+00
        1   -1    0    0  501    0  0.00000000000E+00  0.00000000000E+00  0.27344075755E+03  0.27344075759E+03  0.50400001928E-02 0.  1.
       -1   -1    0    0    0  501  0.00000000000E+00  0.00000000000E+00 -0.22788907433E+03  0.22788907439E+03  0.50400001928E-02 0. -1.
    10030    2    1    2    0    0  0.00000000000E+00  0.00000000000E+00  0.45551683216E+02  0.50132983198E+03  0.49925609119E+03 0.  0.
        1    1    3    3  502    0  0.11252677613E+03 -0.14760817513E+03  0.19039346000E+03  0.26589493856E+03  0.50400001928E-02 0.  1.
       -1    1    3    3    0  502 -0.11252677613E+03  0.14760817513E+03 -0.14484177679E+03  0.23543489342E+03  0.50400001928E-02 0. -1.
</event>
<event>
 5   0  0.1805500E-02  0.4977960E+03  0.7818609E-02  0.1014356E+00
       -4   -1    0    0    0  501  0.00000000000E+00  0.00000000000E+00  0.47838887497E+02  0.47855742152E+02  0.12699999809E+01 0.  1.
        4   -1    0    0  501    0  0.00000000000E+00  0.00000000000E+00 -0.12947307373E+04  0.12947313602E+04  0.12699999809E+01 0. -1.
    10030    2    1    2    0    0  0.00000000000E+00  0.00000000000E+00 -0.12468918498E+04  0.13425871023E+04  0.49779598453E+03 0.  0.
        1    1    3    3  502    0  0.10354122968E+03 -0.17022331292E+03 -0.10257827064E+04  0.10449530723E+04  0.50400001928E-02 0. -1.
       -1    1    3    3    0  502 -0.10354122968E+03  0.17022331292E+03 -0.22110914334E+03  0.29763402997E+03  0.50400001928E-02 0.  1.
</event>
<event>
 5   0  0.2719671E-02  0.4996939E+03  0.7818609E-02  0.1013859E+00
       -1   -1    0    0    0  501  0.00000000000E+00  0.00000000000E+00  0.62434129462E+02  0.62434129666E+02  0.50400001928E-02 0. -1.
        1   -1    0    0  501    0  0.00000000000E+00  0.00000000000E+00 -0.99982969468E+03  0.99982969469E+03  0.50400001928E-02 0.  1.
    10030    2    1    2    0    0  0.00000000000E+00  0.00000000000E+00 -0.93739556521E+03  0.10622638244E+04  0.49969389315E+03 0.  0.
        2    1    3    3  502    0 -0.11433426877E+03 -0.65708871496E+01 -0.94074671752E+03  0.94769187403E+03  0.25500000920E-02 0.  1.
       -2    1    3    3    0  502  0.11433426877E+03  0.65708871496E+01  0.33511523081E+01  0.11457195032E+03  0.25500000920E-02 0. -1.
</event>
<event>
 5   0  0.4534223E-02  0.4983740E+03  0.7818609E-02  0.1014204E+00
        2   -1    0    0  501    0  0.00000000000E+00  0.00000000000E+00  0.14047051843E+03  0.14047051846E+03  0.25500000920E-02 0. -1.
       -2   -1    0    0    0  501  0.00000000000E+00  0.00000000000E+00 -0.44204406315E+03  0.44204406315E+03  0.25500000920E-02 0.  1.
    10030    2    1    2    0    0  0.00000000000E+00  0.00000000000E+00 -0.30157354471E+03  0.58251458161E+03  0.49837399101E+03 0.  0.
        2    1    3    3  502    0 -0.15300587848E+03 -0.15266579167E+03 -0.58493935007E+01  0.21622178014E+03  0.25500000920E-02 0. -1.
       -2    1    3    3    0  502  0.15300587848E+03  0.15266579167E+03 -0.29572415121E+03  0.36629280147E+03  0.25500000920E-02 0.  1.
</event>
<event>
 5   0  0.4519539E-02  0.4981590E+03  0.7818609E-02  0.1014261E+00
        2   -1    0    0  501    0  0.00000000000E+00  0.00000000000E+00  0.11997156462E+04  0.11997156463E+04  0.25500000920E-02 0. -1.
       -2   -1    0    0    0  501  0.00000000000E+00  0.00000000000E+00 -0.51712744784E+02  0.51712744847E+02  0.25500000920E-02 0.  1.
    10030    2    1    2    0    0  0.00000000000E+00  0.00000000000E+00  0.11480029015E+04  0.12514283911E+04  0.49815896687E+03 0.  0.
        4    1    3    3  502    0 -0.21016306359E+03 -0.50425052551E+02  0.88501380263E+03  0.91102263581E+03  0.12699999809E+01 0. -1.
       -4    1    3    3    0  502  0.21016306359E+03  0.50425052551E+02  0.26298909884E+03  0.34040575528E+03  0.12699999809E+01 0.  1.
</event>
<event>
 5   0  0.4631619E-02  0.5003182E+03  0.7818609E-02  0.1013696E+00
        2   -1    0    0  501    0  0.00000000000E+00  0.00000000000E+00  0.68574506502E+03  0.68574506502E+03  0.25500000920E-02 0.  1.
       -2   -1    0    0    0  501  0.00000000000E+00  0.00000000000E+00 -0.91257782034E+02  0.91257782069E+02  0.25500000920E-02 0. -1.
    10030    2    1    2    0    0  0.00000000000E+00  0.00000000000E+00  0.59448728299E+03  0.77700284709E+03  0.50031819351E+03 0.  0.
        5    1    3    3  502    0  0.14217431629E+03  0.98710851635E+02  0.16838558453E+02  0.17396262671E+03  0.46999998093E+01 0. -1.
       -5    1    3    3    0  502 -0.14217431629E+03 -0.98710851635E+02  0.57764872453E+03  0.60304022038E+03  0.46999998093E+01 0.  1.
</event>
<event>
 5   0  0.2723308E-02  0.4982521E+03  0.7818609E-02  0.1014236E+00
       -1   -1    0    0    0  501  0.00000000000E+00  0.00000000000E+00  0.13279742269E+03  0.13279742279E+03  0.50400001928E-02 0. -1.
        1   -1    0    0  501    0  0.00000000000E+00  0.00000000000E+00 -0.46735688887E+03  0.46735688890E+03  0.50400001928E-02 0.  1.
    10030    2    1    2    0    0  0.00000000000E+00  0.00000000000E+00 -0.33455946618E+03  0.60015431169E+03  0.49825210629E+03 0.  0.
        4    1    3    3  502    0 -0.86000244076E+02  0.79360312534E+02  0.97627120621E+02  0.15240330957E+03  0.12699999809E+01 0. -1.
       -4    1    3    3    0  502  0.86000244076E+02 -0.79360312534E+02 -0.43218658680E+03  0.44775100212E+03  0.12699999809E+01 0.  1.
</event>
<event>
 5   0  0.2723308E-02  0.4993588E+03  0.7818609E-02  0.1013946E+00
       -1   -1    0    0    0  501  0.00000000000E+00  0.00000000000E+00  0.77785784022E+02  0.77785784185E+02  0.50400001928E-02 0.  1.
        1   -1    0    0  501    0  0.00000000000E+00  0.00000000000E+00 -0.80142925255E+03  0.80142925257E+03  0.50400001928E-02 0. -1.
    10030    2    1    2    0    0  0.00000000000E+00  0.00000000000E+00 -0.72364346853E+03  0.87921503676E+03  0.49935880017E+03 0.  0.
        4    1    3    3  502    0  0.23354269898E+03  0.30648722965E+02 -0.21602812102E+03  0.31961116758E+03  0.12699999809E+01 0.  1.
       -4    1    3    3    0  502 -0.23354269898E+03 -0.30648722965E+02 -0.50761534751E+03  0.55960386918E+03  0.12699999809E+01 0. -1.
</event>
<event>
 5   0  0.4534223E-02  0.4994674E+03  0.7818609E-02  0.1013918E+00
       -2   -1    0    0    0  501  0.00000000000E+00  0.00000000000E+00  0.50054437899E+03  0.50054437900E+03  0.25500000920E-02 0. -1.
        2   -1    0    0  501    0  0.00000000000E+00  0.00000000000E+00 -0.12459816339E+03  0.12459816342E+03  0.25500000920E-02 0.  1.
    10030    2    1    2    0    0  0.00000000000E+00  0.00000000000E+00  0.37594621560E+03  0.62514254242E+03  0.49946735761E+03 0.  0.
        2    1    3    3  502    0  0.19844675275E+03 -0.14408027354E+03  0.12891221443E+03  0.27705342073E+03  0.25500000920E-02 0. -1.
       -2    1    3    3    0  502 -0.19844675275E+03  0.14408027354E+03  0.24703400117E+03  0.34808912169E+03  0.25500000920E-02 0.  1.
</event>
<event>
 5   0  0.4451135E-02  0.4996058E+03  0.7818609E-02  0.1013882E+00
        2   -1    0    0  501    0  0.00000000000E+00  0.00000000000E+00  0.84942213988E+03  0.84942213988E+03  0.25500000920E-02 0. -1.
       -2   -1    0    0    0  501  0.00000000000E+00  0.00000000000E+00 -0.73463447977E+02  0.73463448021E+02  0.25500000920E-02 0.  1.
    10030    2    1    2    0    0  0.00000000000E+00  0.00000000000E+00  0.77595869190E+03  0.92288558791E+03  0.49960576140E+03 0.  0.
        1    1    3    3  502    0 -0.50055531070E+02  0.22563827651E+03  0.56306000149E+03  0.60864994317E+03  0.50400001928E-02 0. -1.
       -1    1    3    3    0  502  0.50055531070E+02 -0.22563827651E+03  0.21289869042E+03  0.31423564474E+03  0.50400001928E-02 0.  1.
</event>
<event>
 5   0  0.4451135E-02  0.4896029E+03  0.7818609E-02  0.1016529E+00
        2   -1    0    0  501    0  0.00000000000E+00  0.00000000000E+00  0.55975358995E+03  0.55975358995E+03  0.25500000920E-02 0. -1.
       -2   -1    0    0    0  501  0.00000000000E+00  0.00000000000E+00 -0.10706094757E+03  0.10706094760E+03  0.25500000920E-02 0.  1.
    10030    2    1    2    0    0  0.00000000000E+00  0.00000000000E+00  0.45269264238E+03  0.66681453755E+03  0.48960289932E+03 0.  0.
        1    1    3    3  502    0 -0.30972685556E+02 -0.13785243561E+03  0.49861757668E+03  0.51824906084E+03  0.50400001928E-02 0. -1.
       -1    1    3    3    0  502  0.30972685556E+02  0.13785243561E+03 -0.45924934301E+02  0.14856547671E+03  0.50400001928E-02 0.  1.
</event>
<event>
 5   0  0.1805500E-02  0.4992647E+03  0.7818609E-02  0.1013971E+00
        4   -1    0    0  501    0  0.00000000000E+00  0.00000000000E+00  0.31465211489E+03  0.31465467787E+03  0.12699999809E+01 0. -1.
       -4   -1    0    0    0  501  0.00000000000E+00  0.00000000000E+00 -0.19804286917E+03  0.19804694123E+03  0.12699999809E+01 0.  1.
    10030    2    1    2    0    0  0.00000000000E+00  0.00000000000E+00  0.11660924571E+03  0.51270161910E+03  0.49926469336E+03 0.  0.
        5    1    3    3  502    0  0.97537322222E+02  0.19902533681E+03 -0.59542830448E+02  0.22954749525E+03  0.46999998093E+01 0.  1.
       -5    1    3    3    0  502 -0.97537322222E+02 -0.19902533681E+03  0.17615207616E+03  0.28315412385E+03  0.46999998093E+01 0. -1.
</event>
<event>
 5   0  0.4631619E-02  0.5007540E+03  0.7818609E-02  0.1013582E+00
       -2   -1    0    0    0  501  0.00000000000E+00  0.00000000000E+00  0.41531544400E+03  0.41531544401E+03  0.25500000920E-02 0.  1.
        2   -1    0    0  501    0  0.00000000000E+00  0.00000000000E+00 -0.15094223722E+03  0.15094223725E+03  0.25500000920E-02 0. -1.
    10030    2    1    2    0    0  0.00000000000E+00  0.00000000000E+00  0.26437320677E+03  0.56625768125E+03  0.50075400060E+03 0.  0.
        5    1    3    3  502    0 -0.66814684432E+02 -0.41399346575E+02 -0.13657640018E+03  0.15764932932E+03  0.46999998093E+01 0. -1.
       -5    1    3    3    0  502  0.66814684432E+02  0.41399346575E+02  0.40094960695E+03  0.40860835193E+03  0.46999998093E+01 0.  1.
</event>
<event>
 5   0  0.2723308E-02  0.4995107E+03  0.7818609E-02  0.1013907E+00
        1   -1    0    0  501    0  0.00000000000E+00  0.00000000000E+00  0.59224595801E+03  0.59224595803E+03  0.50400001928E-02 0.  1.
       -1   -1    0    0    0  501  0.00000000000E+00  0.00000000000E+00 -0.10532405077E+03  0.10532405089E+03  0.50400001928E-02 0. -1.
    10030    2    1    2    0    0  0.00000000000E+00  0.00000000000E+00  0.48692190724E+03  0.69757000892E+03  0.49951073421E+03 0.  0.
        4    1    3    3  502    0 -0.62467232946E+01  0.22142127259E+03  0.82349067742E+02  0.23632474133E+03  0.12699999809E+01 0. -1.
       -4    1    3    3    0  502  0.62467232946E+01 -0.22142127259E+03  0.40457283950E+03  0.46124526758E+03  0.12699999809E+01 0.  1.
</event>
<event>
 5   0  0.2643185E-02  0.5008138E+03  0.7818609E-02  0.1013567E+00
        1   -1    0    0  501    0  0.00000000000E+00  0.00000000000E+00  0.15972834265E+03  0.15972834273E+03  0.50400001928E-02 0.  1.
       -1   -1    0    0    0  501  0.00000000000E+00  0.00000000000E+00 -0.39256419118E+03  0.39256419121E+03  0.50400001928E-02 0. -1.
    10030    2    1    2    0    0  0.00000000000E+00  0.00000000000E+00 -0.23283584853E+03  0.55229253394E+03  0.50081384834E+03 0.  0.
        1    1    3    3  502    0  0.28752477918E+02  0.22515381082E+03 -0.23303600026E+03  0.32531019190E+03  0.50400001928E-02 0. -1.
       -1    1    3    3    0  502 -0.28752477918E+02 -0.22515381082E+03  0.20015172882E+00  0.22698234204E+03  0.50400001928E-02 0.  1.
</event>
<event>
 5   0  0.2643185E-02  0.5009375E+03  0.7818609E-02  0.1013534E+00
        1   -1    0    0  501    0  0.00000000000E+00  0.00000000000E+00  0.99602919057E+03  0.99602919058E+03  0.50400001928E-02 0. -1.
       -1   -1    0    0    0  501  0.00000000000E+00  0.00000000000E+00 -0.62984703483E+02  0.62984703685E+02  0.50400001928E-02 0.  1.
    10030    2    1    2    0    0  0.00000000000E+00  0.00000000000E+00  0.93304448709E+03  0.10590138943E+04  0.50093753440E+03 0.  0.
        1    1    3    3  502    0  0.19971079872E+03  0.11240406478E+03  0.68019465910E+03  0.71776308849E+03  0.50400001928E-02 0. -1.
       -1    1    3    3    0  502 -0.19971079872E+03 -0.11240406478E+03  0.25284982799E+03  0.34125080578E+03  0.50400001928E-02 0.  1.
</event>
<event>
 5   0  0.1805500E-02  0.5001547E+03  0.7818609E-02  0.1013739E+00
        4   -1    0    0  501    0  0.00000000000E+00  0.00000000000E+00  0.59678448086E+03  0.59678583218E+03  0.12699999809E+01 0. -1.
       -4   -1    0    0    0  501  0.00000000000E+00  0.00000000000E+00 -0.10478743879E+03  0.10479513456E+03  0.12699999809E+01 0.  1.
    10030    2    1    2    0    0  0.00000000000E+00  0.00000000000E+00  0.49199704207E+03  0.70158096674E+03  0.50015473955E+03 0.  0.
        3    1    3    3  502    0 -0.10747336759E+03  0.13302126548E+03 -0.99502973936E+01  0.17130148986E+03  0.10100000352E+00 0.  1.
       -3    1    3    3    0  502  0.10747336759E+03 -0.13302126548E+03  0.50194733946E+03  0.53027947688E+03  0.10100000352E+00 0. -1.
</event>
<event>
 5   0  0.1805500E-02  0.5027610E+03  0.7818609E-02  0.1013061E+00
       -3   -1    0    0    0  501  0.00000000000E+00  0.00000000000E+00  0.61129435606E+03  0.61129436440E+03  0.10100000352E+00 0. -1.
        3   -1    0    0  501    0  0.00000000000E+00  0.00000000000E+00 -0.10337430506E+03  0.10337435440E+03  0.10100000352E+00 0.  1.
    10030    2    1    2    0    0  0.00000000000E+00  0.00000000000E+00  0.50792005100E+03  0.71466871880E+03  0.50276097644E+03 0.  0.
        4    1    3    3  502    0  0.11177851056E+03 -0.10892687811E+03  0.53407266464E+03  0.55641236886E+03  0.12699999809E+01 0. -1.
       -4    1    3    3    0  502 -0.11177851056E+03  0.10892687811E+03 -0.26152613646E+02  0.15825634995E+03  0.12699999809E+01 0.  1.
</event>
<event>
 5   0  0.2643185E-02  0.5036091E+03  0.7818609E-02  0.1012841E+00
       -1   -1    0    0    0  501  0.00000000000E+00  0.00000000000E+00  0.44872341660E+03  0.44872341663E+03  0.50400001928E-02 0. -1.
        1   -1    0    0  501    0  0.00000000000E+00  0.00000000000E+00 -0.14130202357E+03  0.14130202366E+03  0.50400001928E-02 0.  1.
    10030    2    1    2    0    0  0.00000000000E+00  0.00000000000E+00  0.30742139303E+03  0.59002544029E+03  0.50360908182E+03 0.  0.
        1    1    3    3  502    0 -0.45313173133E+01  0.14440111854E+03 -0.87914254908E+02  0.16911869238E+03  0.50400001928E-02 0.  1.
       -1    1    3    3    0  502  0.45313173133E+01 -0.14440111854E+03  0.39533564794E+03  0.42090674790E+03  0.50400001928E-02 0. -1.
</event>
<event>
 5   0  0.4409622E-02  0.5000510E+03  0.7818609E-02  0.1013766E+00
        2   -1    0    0  501    0  0.00000000000E+00  0.00000000000E+00  0.10329440486E+04  0.10329440486E+04  0.25500000920E-02 0. -1.
       -2   -1    0    0    0  501  0.00000000000E+00  0.00000000000E+00 -0.60519012060E+02  0.60519012113E+02  0.25500000920E-02 0.  1.
    10030    2    1    2    0    0  0.00000000000E+00  0.00000000000E+00  0.97242503656E+03  0.10934630607E+04  0.50005101086E+03 0.  0.
        3    1    3    3  502    0 -0.21647455440E+03 -0.41525382522E+02  0.74427268954E+03  0.77622640814E+03  0.10100000352E+00 0. -1.
       -3    1    3    3    0  502  0.21647455440E+03  0.41525382522E+02  0.22815234702E+03  0.31723665259E+03  0.10100000352E+00 0.  1.
</event>
<event>
 5   0  0.2643185E-02  0.5019537E+03  0.7818609E-02  0.1013270E+00
        1   -1    0    0  501    0  0.00000000000E+00  0.00000000000E+00  0.66041535522E+03  0.66041535524E+03  0.50400001928E-02 0.  1.
       -1   -1    0    0    0  501  0.00000000000E+00  0.00000000000E+00 -0.95378424549E+02  0.95378424682E+02  0.50400001928E-02 0. -1.
    10030    2    1    2    0    0  0.00000000000E+00  0.00000000000E+00  0.56503693068E+03  0.75579377993E+03  0.50195368785E+03 0.  0.
        1    1    3    3  502    0 -0.54024050078E+02  0.63297411459E+02  0.63903735089E+03  0.64443300361E+03  0.50400001928E-02 0.  1.
       -1    1    3    3    0  502  0.54024050078E+02 -0.63297411459E+02 -0.74000420215E+02  0.11136077632E+03  0.50400001928E-02 0. -1.
</event>
<event>
 5   0  0.4519539E-02  0.5001581E+03  0.7818609E-02  0.1013738E+00
       -2   -1    0    0    0  501  0.00000000000E+00  0.00000000000E+00  0.11981591696E+03  0.11981591699E+03  0.25500000920E-02 0. -1.
        2   -1    0    0  501    0  0.00000000000E+00  0.00000000000E+00 -0.52196353752E+03  0.52196353752E+03  0.25500000920E-02 0.  1.
    10030    2    1    2    0    0  0.00000000000E+00  0.00000000000E+00 -0.40214762055E+03  0.64177945451E+03  0.50015813451E+03 0.  0.
        4    1    3    3  502    0 -0.15758338936E+03  0.12061728808E+03 -0.58115003718E+01  0.19853574294E+03  0.12699999809E+01 0. -1.
       -4    1    3    3    0  502  0.15758338936E+03 -0.12061728808E+03 -0.39633612018E+03  0.44324371157E+03  0.12699999809E+01 0.  1.
</event>
<event>
 5   0  0.4409622E-02  0.4981367E+03  0.7818609E-02  0.1014266E+00
       -2   -1    0    0    0  501  0.00000000000E+00  0.00000000000E+00  0.53214962238E+02  0.53214962299E+02  0.25500000920E-02 0. -1.
        2   -1    0    0  501    0  0.00000000000E+00  0.00000000000E+00 -0.11657444924E+04  0.11657444924E+04  0.25500000920E-02 0.  1.
    10030    2    1    2    0    0  0.00000000000E+00  0.00000000000E+00 -0.11125295301E+04  0.12189594547E+04  0.49813672493E+03 0.  0.
        3    1    3    3  502    0 -0.20047408249E+03 -0.87629460054E+02 -0.84751634328E+03  0.87530151511E+03  0.10100000352E+00 0.  1.
       -3    1    3    3    0  502  0.20047408249E+03  0.87629460054E+02 -0.26501318686E+03  0.34365793957E+03  0.10100000352E+00 0. -1.
</event>
<event>
 5   0  0.4534223E-02  0.5054090E+03  0.7818609E-02  0.1012377E+00
        2   -1    0    0  501    0  0.00000000000E+00  0.00000000000E+00  0.14951646162E+04  0.14951646162E+04  0.25500000920E-02 0. -1.
       -2   -1    0    0    0  501  0.00000000000E+00  0.00000000000E+00 -0.42710722240E+02  0.42710722316E+02  0.25500000920E-02 0.  1.
    10030    2    1    2    0    0  0.00000000000E+00  0.00000000000E+00  0.14524538939E+04  0.15378753385E+04  0.50540898561E+03 0.  0.
        2    1    3    3  502    0  0.98511749704E+02 -0.21701608282E+02  0.21208057190E+02  0.10307912654E+03  0.25500000920E-02 0.  1.
       -2    1    3    3    0  502 -0.98511749704E+02  0.21701608282E+02  0.14312458367E+04  0.14347962119E+04  0.25500000920E-02 0. -1.
</event>
<event>
 5   0  0.2715483E-02  0.4996552E+03  0.7818609E-02  0.1013869E+00
       -1   -1    0    0    0  501  0.00000000000E+00  0.00000000000E+00  0.42850540832E+03  0.42850540835E+03  0.50400001928E-02 0.  1.
        1   -1    0    0  501    0  0.00000000000E+00  0.00000000000E+00 -0.14565471199E+03  0.14565471208E+03  0.50400001928E-02 0. -1.
    10030    2    1    2    0    0  0.00000000000E+00  0.00000000000E+00  0.28285069633E+03  0.57416012043E+03  0.49965520859E+03 0.  0.
        5    1    3    3  502    0 -0.19000590015E+03  0.15027530263E+03  0.71463040302E+02  0.25261426088E+03  0.46999998093E+01 0. -1.
       -5    1    3    3    0  502  0.19000590015E+03 -0.15027530263E+03  0.21138765602E+03  0.32154585954E+03  0.46999998093E+01 0.  1.
</event>
<event>
 5   0  0.2643185E-02  0.5026244E+03  0.7818609E-02  0.1013096E+00
       -1   -1    0    0    0  501  0.00000000000E+00  0.00000000000E+00  0.43947959639E+02  0.43947959928E+02  0.50400001928E-02 0.  1.
        1   -1    0    0  501    0  0.00000000000E+00  0.00000000000E+00 -0.14371046693E+04  0.14371046693E+04  0.50400001928E-02 0. -1.
    10030    2    1    2    0    0  0.00000000000E+00  0.00000000000E+00 -0.13931567097E+04  0.14810526293E+04  0.50262438550E+03 0.  0.
        1    1    3    3  502    0 -0.95241675133E+02  0.17990075690E+03 -0.11308709564E+04  0.11490449856E+04  0.50400001928E-02 0. -1.
       -1    1    3    3    0  502  0.95241675133E+02 -0.17990075690E+03 -0.26228575334E+03  0.33200764366E+03  0.50400001928E-02 0.  1.
</event>
<event>
 5   0  0.4451135E-02  0.5004397E+03  0.7818609E-02  0.1013664E+00
        2   -1    0    0  501    0  0.00000000000E+00  0.00000000000E+00  0.95390651938E+03  0.95390651938E+03  0.25500000920E-02 0. -1.
       -2   -1    0    0    0  501  0.00000000000E+00  0.00000000000E+00 -0.65635337054E+02  0.65635337103E+02  0.25500000920E-02 0.  1.
    10030    2    1    2    0    0  0.00000000000E+00  0.00000000000E+00  0.88827118232E+03  0.10195418565E+04  0.50043971043E+03 0.  0.
        1    1    3    3  502    0  0.23710851322E+03 -0.73479311466E+02  0.38002334434E+03  0.45391342624E+03  0.50400001928E-02 0.  1.
       -1    1    3    3    0  502 -0.23710851322E+03  0.73479311466E+02  0.50824783798E+03  0.56562843024E+03  0.50400001928E-02 0. -1.
</event>
<event>
 5   0  0.4519539E-02  0.5006871E+03  0.7818609E-02  0.1013600E+00
        2   -1    0    0  501    0  0.00000000000E+00  0.00000000000E+00  0.30610908260E+03  0.30610908261E+03  0.25500000920E-02 0. -1.
       -2   -1    0    0    0  501  0.00000000000E+00  0.00000000000E+00 -0.20473709675E+03  0.20473709677E+03  0.25500000920E-02 0.  1.
    10030    2    1    2    0    0  0.00000000000E+00  0.00000000000E+00  0.10137198585E+03  0.51084617938E+03  0.50068706741E+03 0.  0.
        4    1    3    3  502    0  0.64608379520E+00 -0.11872395314E+03  0.27555408995E+03  0.30004576961E+03  0.12699999809E+01 0. -1.
       -4    1    3    3    0  502 -0.64608379520E+00  0.11872395314E+03 -0.17418210409E+03  0.21080040977E+03  0.12699999809E+01 0.  1.
</event>
<event>
 5   0  0.1805500E-02  0.4972860E+03  0.7818609E-02  0.1014490E+00
        4   -1    0    0  501    0  0.00000000000E+00  0.00000000000E+00  0.69150931085E+02  0.69162592273E+02  0.12699999809E+01 0.  1.
       -4   -1    0    0    0  501  0.00000000000E+00  0.00000000000E+00 -0.89394738825E+03  0.89394829037E+03  0.12699999809E+01 0. -1.
    10030    2    1    2    0    0  0.00000000000E+00  0.00000000000E+00 -0.82479645717E+03  0.96311088265E+03  0.49728601078E+03 0.  0.
        2    1    3    3  502    0 -0.33001240298E+02 -0.18052812306E+03 -0.87489131336E+02  0.20330723840E+03  0.25500000920E-02 0.  1.
       -2    1    3    3    0  502  0.33001240298E+02  0.18052812306E+03 -0.73730732583E+03  0.75980364424E+03  0.25500000920E-02 0. -1.
</event>
<event>
 5   0  0.4409622E-02  0.5005083E+03  0.7818609E-02  0.1013646E+00
       -2   -1    0    0    0  501  0.00000000000E+00  0.00000000000E+00  0.13281701492E+03  0.13281701494E+03  0.25500000920E-02 0.  1.
        2   -1    0    0  501    0  0.00000000000E+00  0.00000000000E+00 -0.47152956709E+03  0.47152956710E+03  0.25500000920E-02 0. -1.
    10030    2    1    2    0    0  0.00000000000E+00  0.00000000000E+00 -0.33871255218E+03  0.60434658204E+03  0.50050833982E+03 0.  0.
        3    1    3    3  502    0  0.23924103552E+03 -0.73403456843E+02 -0.16733623194E+03  0.30104113552E+03  0.10100000352E+00 0.  1.
       -3    1    3    3    0  502 -0.23924103552E+03  0.73403456843E+02 -0.17137632024E+03  0.30330544653E+03  0.10100000352E+00 0. -1.
</event>
<event>
 5   0  0.1805500E-02  0.4992609E+03  0.7818609E-02  0.1013972E+00
       -3   -1    0    0    0  501  0.00000000000E+00  0.00000000000E+00  0.15029571252E+04  0.15029571286E+04  0.10100000352E+00 0. -1.
        3   -1    0    0  501    0  0.00000000000E+00  0.00000000000E+00 -0.41461768867E+02  0.41461891883E+02  0.10100000352E+00 0.  1.
    10030    2    1    2    0    0  0.00000000000E+00  0.00000000000E+00  0.14614953563E+04  0.15444190204E+04  0.49926088793E+03 0.  0.
        1    1    3    3  502    0  0.11416447187E+03  0.15051858289E+03  0.22598124868E+03  0.29454523458E+03  0.50400001928E-02 0.  1.
       -1    1    3    3    0  502 -0.11416447187E+03 -0.15051858289E+03  0.12355141076E+04  0.12498737859E+04  0.50400001928E-02 0. -1.
</event>
<event>
 5   0  0.4519539E-02  0.5050910E+03  0.7818609E-02  0.1012459E+00
        2   -1    0    0  501    0  0.00000000000E+00  0.00000000000E+00  0.20436345373E+03  0.20436345374E+03  0.25500000920E-02 0.  1.
       -2   -1    0    0    0  501  0.00000000000E+00  0.00000000000E+00 -0.31208722014E+03  0.31208722015E+03  0.25500000920E-02 0. -1.
    10030    2    1    2    0    0  0.00000000000E+00  0.00000000000E+00 -0.10772376641E+03  0.51645067389E+03  0.50509097073E+03 0.  0.
        4    1    3    3  502    0  0.14663464188E+03  0.64217453061E+02  0.14585645973E+03  0.21656712405E+03  0.12699999809E+01 0.  1.
       -4    1    3    3    0  502 -0.14663464188E+03 -0.64217453061E+02 -0.25358022614E+03  0.29988354984E+03  0.12699999809E+01 0. -1.
</event>
<event>
 5   0  0.1805500E-02  0.4975906E+03  0.7818609E-02  0.1014410E+00
       -3   -1    0    0    0  501  0.00000000000E+00  0.00000000000E+00  0.56569075866E+03  0.56569076768E+03  0.10100000352E+00 0.  1.
        3   -1    0    0  501    0  0.00000000000E+00  0.00000000000E+00 -0.10942213401E+03  0.10942218062E+03  0.10100000352E+00 0. -1.
    10030    2    1    2    0    0  0.00000000000E+00  0.00000000000E+00  0.45626862465E+03  0.67511294830E+03  0.49759063005E+03 0.  0.
        4    1    3    3  502    0  0.43126315189E+02 -0.74074032394E+02  0.54502116920E+03  0.55172142347E+03  0.12699999809E+01 0.  1.
       -4    1    3    3    0  502 -0.43126315189E+02  0.74074032394E+02 -0.88752544546E+02  0.12339152483E+03  0.12699999809E+01 0. -1.
</event>
<event>
 5   0  0.2715483E-02  0.4993758E+03  0.7818609E-02  0.1013942E+00
       -1   -1    0    0    0  501  0.00000000000E+00  0.00000000000E+00  0.26537149735E+03  0.26537149740E+03  0.50400001928E-02 0. -1.
        1   -1    0    0  501    0  0.00000000000E+00  0.00000000000E+00 -0.23493125530E+03  0.23493125536E+03  0.50400001928E-02 0.  1.
    10030    2    1    2    0    0  0.00000000000E+00  0.00000000000E+00  0.30440242047E+02  0.50030275275E+03  0.49937584651E+03 0.  0.
        5    1    3    3  502    0 -0.74315393005E+02 -0.22787833571E+03 -0.54699500060E+02  0.24589721192E+03  0.46999998093E+01 0.  1.
       -5    1    3    3    0  502  0.74315393005E+02  0.22787833571E+03  0.85139742106E+02  0.25440554084E+03  0.46999998093E+01 0. -1.
</event>
<event>
 5   0  0.2719671E-02  0.5002900E+03  0.7818609E-02  0.1013703E+00
       -1   -1    0    0    0  501  0.00000000000E+00  0.00000000000E+00  0.96545975776E+02  0.96545975907E+02  0.50400001928E-02 0. -1.
        1   -1    0    0  501    0  0.00000000000E+00  0.00000000000E+00 -0.64811101858E+03  0.64811101860E+03  0.50400001928E-02 0.  1.
    10030    2    1    2    0    0  0.00000000000E+00  0.00000000000E+00 -0.55156504281E+03  0.74465699451E+03  0.50028995895E+03 0.  0.
        2    1    3    3  502    0  0.15694523541E+03 -0.18142353101E+03 -0.38130734592E+03  0.45049039566E+03  0.25500000920E-02 0.  1.
       -2    1    3    3    0  502 -0.15694523541E+03  0.18142353101E+03 -0.17025769689E+03  0.29416659885E+03  0.25500000920E-02 0. -1.
</event>
<event>
 5   0  0.1805500E-02  0.4957740E+03  0.7818609E-02  0.1014888E+00
        3   -1    0    0  501    0  0.00000000000E+00  0.00000000000E+00  0.35074410032E+03  0.35074411487E+03  0.10100000352E+00 0. -1.
       -3   -1    0    0    0  501  0.00000000000E+00  0.00000000000E+00 -0.17519309133E+03  0.17519312044E+03  0.10100000352E+00 0.  1.
    10030    2    1    2    0    0  0.00000000000E+00  0.00000000000E+00  0.17555100899E+03  0.52593723531E+03  0.49577395931E+03 0.  0.
        4    1    3    3  502    0  0.46399686712E+02  0.91037616518E+02  0.32736014989E+03  0.34293885633E+03  0.12699999809E+01 0. -1.
       -4    1    3    3    0  502 -0.46399686712E+02 -0.91037616518E+02 -0.15180914090E+03  0.18299837898E+03  0.12699999809E+01 0.  1.
</event>
<event>
 5   0  0.4519539E-02  0.4952778E+03  0.7818609E-02  0.1015019E+00
        2   -1    0    0  501    0  0.00000000000E+00  0.00000000000E+00  0.29903891273E+03  0.29903891274E+03  0.25500000920E-02 0.  1.
       -2   -1    0    0    0  501  0.00000000000E+00  0.00000000000E+00 -0.20507376178E+03  0.20507376180E+03  0.25500000920E-02 0. -1.
    10030    2    1    2    0    0  0.00000000000E+00  0.00000000000E+00  0.93965150951E+02  0.50411267454E+03  0.49527784024E+03 0.  0.
        4    1    3    3  502    0  0.17899513813E+03  0.67315249827E+02 -0.11315419187E+03  0.22220730495E+03  0.12699999809E+01 0. -1.
       -4    1    3    3    0  502 -0.17899513813E+03 -0.67315249827E+02  0.20711934282E+03  0.28190536959E+03  0.12699999809E+01 0.  1.
</event>
<event>
 5   0  0.4409622E-02  0.4987597E+03  0.7818609E-02  0.1014103E+00
        2   -1    0    0  501    0  0.00000000000E+00  0.00000000000E+00  0.15712220173E+04  0.15712220173E+04  0.25500000920E-02 0.  1.
       -2   -1    0    0    0  501  0.00000000000E+00  0.00000000000E+00 -0.39580855642E+02  0.39580855724E+02  0.25500000920E-02 0. -1.
    10030    2    1    2    0    0  0.00000000000E+00  0.00000000000E+00  0.15316411616E+04  0.16108028730E+04  0.49875970934E+03 0.  0.
        3    1    3    3  502    0 -0.38162272945E+02  0.83120193204E+02  0.15150985361E+04  0.15178566829E+04  0.10100000352E+00 0.  1.
       -3    1    3    3    0  502  0.38162272945E+02 -0.83120193204E+02  0.16542625565E+02  0.92946190111E+02  0.10100000352E+00 0. -1.
</event>
<event>
 5   0  0.2715483E-02  0.5001669E+03  0.7818609E-02  0.1013735E+00
        1   -1    0    0  501    0  0.00000000000E+00  0.00000000000E+00  0.76286623490E+03  0.76286623492E+03  0.50400001928E-02 0. -1.
       -1   -1    0    0    0  501  0.00000000000E+00  0.00000000000E+00 -0.81982582029E+02  0.81982582183E+02  0.50400001928E-02 0.  1.
    10030    2    1    2    0    0  0.00000000000E+00  0.00000000000E+00  0.68088365287E+03  0.84484881710E+03  0.50016694714E+03 0.  0.
        5    1    3    3  502    0 -0.14826139915E+03 -0.12418754506E+03  0.72749234998E+02  0.20668461485E+03  0.46999998093E+01 0.  1.
       -5    1    3    3    0  502  0.14826139915E+03  0.12418754506E+03  0.60813441788E+03  0.63816420225E+03  0.46999998093E+01 0. -1.
</event>
<event>
 5   0  0.4534223E-02  0.5031152E+03  0.7818609E-02  0.1012969E+00
        2   -1    0    0  501    0  0.00000000000E+00  0.00000000000E+00  0.19741475114E+03  0.19741475116E+03  0.25500000920E-02 0.  1.
       -2   -1    0    0    0  501  0.00000000000E+00  0.00000000000E+00 -0.32054965164E+03  0.32054965166E+03  0.25500000920E-02 0. -1.
    10030    2    1    2    0    0  0.00000000000E+00  0.00000000000E+00 -0.12313490050E+03  0.51796440281E+03  0.50311521430E+03 0.  0.
        2    1    3    3  502    0  0.82968726530E+02 -0.79731363386E+01 -0.30592016966E+03  0.31707180685E+03  0.25500000920E-02 0. -1.
       -2    1    3    3    0  502 -0.82968726530E+02  0.79731363386E+01  0.18278526916E+03  0.20089259597E+03  0.25500000920E-02 0.  1.
</event>
<event>
 5   0  0.1805500E-02  0.5057717E+03  0.7818609E-02  0.1012283E+00
       -3   -1    0    0    0  501  0.00000000000E+00  0.00000000000E+00  0.13190188410E+03  0.13190192277E+03  0.10100000352E+00 0.  1.
        3   -1    0    0  501    0  0.00000000000E+00  0.00000000000E+00 -0.48483945249E+03  0.48483946301E+03  0.10100000352E+00 0. -1.
    10030    2    1    2    0    0  0.00000000000E+00  0.00000000000E+00 -0.35293756839E+03  0.61674138577E+03  0.50577169725E+03 0.  0.
        1    1    3    3  502    0  0.17219111145E+02 -0.20554631859E+03 -0.35487538073E+03  0.41046598245E+03  0.50400001928E-02 0. -1.
       -1    1    3    3    0  502 -0.17219111145E+02  0.20554631859E+03  0.19378123394E+01  0.20627540332E+03  0.50400001928E-02 0.  1.
</event>
<event>
 5   0  0.4519539E-02  0.4999109E+03  0.7818609E-02  0.1013802E+00
       -2   -1    0    0    0  501  0.00000000000E+00  0.00000000000E+00  0.21924726143E+03  0.21924726145E+03  0.25500000920E-02 0. -1.
        2   -1    0    0  501    0  0.00000000000E+00  0.00000000000E+00 -0.28496471775E+03  0.28496471776E+03  0.25500000920E-02 0.  1.
    10030    2    1    2    0    0  0.00000000000E+00  0.00000000000E+00 -0.65717456313E+02  0.50421197921E+03  0.49991092798E+03 0.  0.
        4    1    3    3  502    0  0.14772409307E+02 -0.22605027020E+03 -0.13940457402E+03  0.26599285120E+03  0.12699999809E+01 0. -1.
       -4    1    3    3    0  502 -0.14772409307E+02  0.22605027020E+03  0.73687117703E+02  0.23821912801E+03  0.12699999809E+01 0.  1.
</event>
<event>
 5   0  0.2643185E-02  0.5005378E+03  0.7818609E-02  0.1013639E+00
       -1   -1    0    0    0  501  0.00000000000E+00  0.00000000000E+00  0.14064321692E+03  0.14064321701E+03  0.50400001928E-02 0. -1.
        1   -1    0    0  501    0  0.00000000000E+00  0.00000000000E+00 -0.44534336158E+03  0.44534336161E+03  0.50400001928E-02 0.  1.
    10030    2    1    2    0    0  0.00000000000E+00  0.00000000000E+00 -0.30470014467E+03  0.58598657862E+03  0.50053780293E+03 0.  0.
        1    1    3    3  502    0  0.49046483021E+02  0.22362305333E+03 -0.33988082797E+02  0.23144765559E+03  0.50400001928E-02 0. -1.
       -1    1    3    3    0  502 -0.49046483021E+02 -0.22362305333E+03 -0.27071206187E+03  0.35453892303E+03  0.50400001928E-02 0.  1.
</event>
<event>
 5   0  0.4534223E-02  0.4967690E+03  0.7818609E-02  0.1014626E+00
       -2   -1    0    0    0  501  0.00000000000E+00  0.00000000000E+00  0.64746284585E+02  0.64746284635E+02  0.25500000920E-02 0.  1.
        2   -1    0    0  501    0  0.00000000000E+00  0.00000000000E+00 -0.95287100555E+03  0.95287100555E+03  0.25500000920E-02 0. -1.
    10030    2    1    2    0    0  0.00000000000E+00  0.00000000000E+00 -0.88812472097E+03  0.10176172902E+04  0.49676898988E+03 0.  0.
        2    1    3    3  502    0 -0.15917722770E+03  0.17978443850E+03 -0.31393967542E+03  0.39524417004E+03  0.25500000920E-02 0.  1.
       -2    1    3    3    0  502  0.15917722770E+03 -0.17978443850E+03 -0.57418504555E+03  0.62237312015E+03  0.25500000920E-02 0. -1.
</event>
<event>
 5   0  0.2715483E-02  0.5014221E+03  0.7818609E-02  0.1013408E+00
       -1   -1    0    0    0  501  0.00000000000E+00  0.00000000000E+00  0.97842251952E+02  0.97842252082E+02  0.50400001928E-02 0. -1.
        1   -1    0    0  501    0  0.00000000000E+00  0.00000000000E+00 -0.64242212604E+03  0.64242212606E+03  0.50400001928E-02 0.  1.
    10030    2    1    2    0    0  0.00000000000E+00  0.00000000000E+00 -0.54457987409E+03  0.74026437815E+03  0.50142208795E+03 0.  0.
        5    1    3    3  502    0  0.39585920221E+02  0.22623611357E+03 -0.12403736008E+03  0.26106930278E+03  0.46999998093E+01 0.  1.
       -5    1    3    3    0  502 -0.39585920221E+02 -0.22623611357E+03 -0.42054251401E+03  0.47919507536E+03  0.46999998093E+01 0. -1.
</event>
<event>
 5   0  0.1805500E-02  0.5001825E+03  0.7818609E-02  0.1013731E+00
        3   -1    0    0  501    0  0.00000000000E+00  0.00000000000E+00  0.14364987577E+03  0.14364991128E+03  0.10100000352E+00 0.  1.
       -3   -1    0    0    0  501  0.00000000000E+00  0.00000000000E+00 -0.43540320746E+03  0.43540321918E+03  0.10100000352E+00 0. -1.
    10030    2    1    2    0    0  0.00000000000E+00  0.00000000000E+00 -0.29175333169E+03  0.57905313045E+03  0.50018248803E+03 0.  0.
        2    1    3    3  502    0 -0.34273930368E+02 -0.36244418681E+02  0.13783208082E+03  0.14658118126E+03  0.25500000920E-02 0.  1.
       -2    1    3    3    0  502  0.34273930368E+02  0.36244418681E+02 -0.42958541251E+03  0.43247194919E+03  0.25500000920E-02 0. -1.
</event>
<event>
 5   0  0.2643185E-02  0.5038648E+03  0.7818609E-02  0.1012775E+00
       -1   -1    0    0    0  501  0.00000000000E+00  0.00000000000E+00  0.28099656001E+03  0.28099656006E+03  0.50400001928E-02 0.  1.
        1   -1    0    0  501    0  0.00000000000E+00  0.00000000000E+00 -0.22587441035E+03  0.22587441041E+03  0.50400001928E-02 0. -1.
    10030    2    1    2    0    0  0.00000000000E+00  0.00000000000E+00  0.55122149660E+02  0.50687097046E+03  0.50386479269E+03 0.  0.
        1    1    3    3  502    0  0.17801857122E+03  0.58944370561E+02  0.19680538553E+03  0.27184078119E+03  0.50400001928E-02 0.  1.
       -1    1    3    3    0  502 -0.17801857122E+03 -0.58944370561E+02 -0.14168323587E+03  0.23503018927E+03  0.50400001928E-02 0. -1.
</event>
<event>
 5   0  0.4631619E-02  0.4999838E+03  0.7818609E-02  0.1013783E+00
        2   -1    0    0  501    0  0.00000000000E+00  0.00000000000E+00  0.12358206372E+04  0.12358206372E+04  0.25500000920E-02 0.  1.
       -2   -1    0    0    0  501  0.00000000000E+00  0.00000000000E+00 -0.50570408501E+02  0.50570408565E+02  0.25500000920E-02 0. -1.
    10030    2    1    2    0    0  0.00000000000E+00  0.00000000000E+00  0.11852502287E+04  0.12863910458E+04  0.49998381774E+03 0.  0.
        5    1    3    3  502    0 -0.66576014366E+02 -0.21185830313E+03  0.29750099099E+03  0.37127514855E+03  0.46999998093E+01 0. -1.
       -5    1    3    3    0  502  0.66576014366E+02  0.21185830313E+03  0.88774923772E+03  0.91511589723E+03  0.46999998093E+01 0.  1.
</event>
<event>
 5   0  0.2715483E-02  0.4997335E+03  0.7818609E-02  0.1013849E+00
       -1   -1    0    0    0  501  0.00000000000E+00  0.00000000000E+00  0.22390779973E+03  0.22390779978E+03  0.50400001928E-02 0. -1.
        1   -1    0    0  501    0  0.00000000000E+00  0.00000000000E+00 -0.27883523445E+03  0.27883523450E+03  0.50400001928E-02 0.  1.
    10030    2    1    2    0    0  0.00000000000E+00  0.00000000000E+00 -0.54927434722E+02  0.50274303428E+03  0.49973346439E+03 0.  0.
        5    1    3    3  502    0 -0.15262279317E+03  0.29790822390E+02 -0.22416638694E+03  0.27286236297E+03  0.46999998093E+01 0.  1.
       -5    1    3    3    0  502  0.15262279317E+03 -0.29790822390E+02  0.16923895222E+03  0.22988067131E+03  0.46999998093E+01 0. -1.
</event>
<event>
 5   0  0.4409622E-02  0.4989307E+03  0.7818609E-02  0.1014058E+00
        2   -1    0    0  501    0  0.00000000000E+00  0.00000000000E+00  0.88000750546E+03  0.88000750546E+03  0.25500000920E-02 0. -1.
       -2   -1    0    0    0  501  0.00000000000E+00  0.00000000000E+00 -0.70718666151E+02  0.70718666197E+02  0.25500000920E-02 0.  1.
    10030    2    1    2    0    0  0.00000000000E+00  0.00000000000E+00  0.80928883930E+03  0.95072617166E+03  0.49893068461E+03 0.  0.
        3    1    3    3  502    0 -0.23123797108E+03  0.84729441778E+02  0.32883245449E+03  0.41082949128E+03  0.10100000352E+00 0.  1.
       -3    1    3    3    0  502  0.23123797108E+03 -0.84729441778E+02  0.48045638481E+03  0.53989668038E+03  0.10100000352E+00 0. -1.
</event>
<event>
 5   0  0.2643185E-02  0.5023527E+03  0.7818609E-02  0.1013167E+00
        1   -1    0    0  501    0  0.00000000000E+00  0.00000000000E+00  0.21195856394E+03  0.21195856400E+03  0.50400001928E-02 0. -1.
       -1   -1    0    0    0  501  0.00000000000E+00  0.00000000000E+00 -0.29765047298E+03  0.29765047302E+03  0.50400001928E-02 0.  1.
    10030    2    1    2    0    0  0.00000000000E+00  0.00000000000E+00 -0.85691909041E+02  0.50960903702E+03  0.50235273199E+03 0.  0.
        1    1    3    3  502    0 -0.14219895387E+03 -0.17990544338E+03  0.61118813322E+02  0.23732260830E+03  0.50400001928E-02 0. -1.
       -1    1    3    3    0  502  0.14219895387E+03  0.17990544338E+03 -0.14681072236E+03  0.27228642872E+03  0.50400001928E-02 0.  1.
</event>
<event>
 5   0  0.2779445E-02  0.5022631E+03  0.7818609E-02  0.1013190E+00
       -1   -1    0    0    0  501  0.00000000000E+00  0.00000000000E+00  0.12099028400E+03  0.12099028411E+03  0.50400001928E-02 0. -1.
        1   -1    0    0  501    0  0.00000000000E+00  0.00000000000E+00 -0.52125723879E+03  0.52125723881E+03  0.50400001928E-02 0.  1.
    10030    2    1    2    0    0  0.00000000000E+00  0.00000000000E+00 -0.40026695478E+03  0.64224752292E+03  0.50226312387E+03 0.  0.
        3    1    3    3  502    0 -0.51252837607E+02 -0.22192079341E+03 -0.64860028208E+02  0.23681749380E+03  0.10100000352E+00 0. -1.
       -3    1    3    3    0  502  0.51252837607E+02  0.22192079341E+03 -0.33540692658E+03  0.40543002911E+03  0.10100000352E+00 0.  1.
</event>
<event>
 5   0  0.4409622E-02  0.5010713E+03  0.7818609E-02  0.1013500E+00
       -2   -1    0    0    0  501  0.00000000000E+00  0.00000000000E+00  0.98612413873E+02  0.98612413906E+02  0.25500000920E-02 0. -1.
        2   -1    0    0  501    0  0.00000000000E+00  0.00000000000E+00 -0.63651338721E+03  0.63651338722E+03  0.25500000920E-02 0.  1.
    10030    2    1    2    0    0  0.00000000000E+00  0.00000000000E+00 -0.53790097334E+03  0.73512580112E+03  0.50107133859E+03 0.  0.
        3    1    3    3  502    0  0.19826662565E+03 -0.14166483922E+03 -0.35436503267E+03  0.43006181893E+03  0.10100000352E+00 0.  1.
       -3    1    3    3    0  502 -0.19826662565E+03  0.14166483922E+03 -0.18353594067E+03  0.30506398220E+03  0.10100000352E+00 0. -1.
</event>
<event>
 5   0  0.4631619E-02  0.5025308E+03  0.7818609E-02  0.1013120E+00
       -2   -1    0    0    0  501  0.00000000000E+00  0.00000000000E+00  0.46406746347E+03  0.46406746347E+03  0.25500000920E-02 0.  1.
        2   -1    0    0  501    0  0.00000000000E+00  0.00000000000E+00 -0.13604551149E+03  0.13604551152E+03  0.25500000920E-02 0. -1.
    10030    2    1    2    0    0  0.00000000000E+00  0.00000000000E+00  0.32802195197E+03  0.60011297499E+03  0.50253077694E+03 0.  0.
        5    1    3    3  502    0 -0.38212009501E+02  0.15567399236E+03  0.39500919962E+03  0.42632019346E+03  0.46999998093E+01 0.  1.
       -5    1    3    3    0  502  0.38212009501E+02 -0.15567399236E+03 -0.66987247642E+02  0.17379278153E+03  0.46999998093E+01 0. -1.
</event>
<event>
 5   0  0.4631619E-02  0.5021717E+03  0.7818609E-02  0.1013214E+00
        2   -1    0    0  501    0  0.00000000000E+00  0.00000000000E+00  0.36715525163E+03  0.36715525164E+03  0.25500000920E-02 0. -1.
       -2   -1    0    0    0  501  0.00000000000E+00  0.00000000000E+00 -0.17170968670E+03  0.17170968672E+03  0.25500000920E-02 0.  1.
    10030    2    1    2    0    0  0.00000000000E+00  0.00000000000E+00  0.19544556494E+03  0.53886493836E+03  0.50217173650E+03 0.  0.
        5    1    3    3  502    0 -0.41077730936E+02 -0.20578666419E+03  0.24558255285E+03  0.32306100259E+03  0.46999998093E+01 0. -1.
       -5    1    3    3    0  502  0.41077730936E+02  0.20578666419E+03 -0.50136987908E+02  0.21580393576E+03  0.46999998093E+01 0.  1.
</event>
<event>
 5   0  0.2723308E-02  0.5004922E+03  0.7818609E-02  0.1013651E+00
       -1   -1    0    0    0  501  0.00000000000E+00  0.00000000000E+00  0.79976809925E+02  0.79976810084E+02  0.50400001928E-02 0. -1.
        1   -1    0    0  501    0  0.00000000000E+00  0.00000000000E+00 -0.78301596694E+03  0.78301596695E+03  0.50400001928E-02 0.  1.
    10030    2    1    2    0    0  0.00000000000E+00  0.00000000000E+00 -0.70303915701E+03  0.86299277704E+03  0.50049223463E+03 0.  0.
        4    1    3    3  502    0 -0.12921942232E+03 -0.42573539875E+02 -0.71366662465E+03  0.72652035722E+03  0.12699999809E+01 0.  1.
       -4    1    3    3    0  502  0.12921942232E+03  0.42573539875E+02  0.10627467644E+02  0.13647241982E+03  0.12699999809E+01 0. -1.
</event>
<event>
 5   0  0.2715483E-02  0.5040825E+03  0.7818609E-02  0.1012719E+00
       -1   -1    0    0    0  501  0.00000000000E+00  0.00000000000E+00  0.10696394735E+04  0.10696394735E+04  0.50400001928E-02 0. -1.
        1   -1    0    0  501    0  0.00000000000E+00  0.00000000000E+00 -0.59388983246E+02  0.59388983460E+02  0.50400001928E-02 0.  1.
    10030    2    1    2    0    0  0.00000000000E+00  0.00000000000E+00  0.10102504903E+04  0.11290284570E+04  0.50408253650E+03 0.  0.
        5    1    3    3  502    0  0.51908186069E+02  0.14978308005E+03  0.66374670732E+02  0.17192183620E+03  0.46999998093E+01 0. -1.
       -5    1    3    3    0  502 -0.51908186069E+02 -0.14978308005E+03  0.94387581956E+03  0.95710662081E+03  0.46999998093E+01 0.  1.
</event>
<event>
 5   0  0.2719671E-02  0.4966145E+03  0.7818609E-02  0.1014666E+00
        1   -1    0    0  501    0  0.00000000000E+00  0.00000000000E+00  0.11223753481E+03  0.11223753493E+03  0.50400001928E-02 0. -1.
       -1   -1    0    0    0  501  0.00000000000E+00  0.00000000000E+00 -0.54933930600E+03  0.54933930603E+03  0.50400001928E-02 0.  1.
    10030    2    1    2    0    0  0.00000000000E+00  0.00000000000E+00 -0.43710177119E+03  0.66157684095E+03  0.49661449647E+03 0.  0.
        2    1    3    3  502    0 -0.18348737032E+03 -0.13537697941E+03 -0.34949719021E+03  0.41730423865E+03  0.25500000920E-02 0.  1.
       -2    1    3    3    0  502  0.18348737032E+03  0.13537697941E+03 -0.87604580983E+02  0.24427260231E+03  0.25500000920E-02 0. -1.
</event>
<event>
 5   0  0.2643185E-02  0.5006631E+03  0.7818609E-02  0.1013606E+00
       -1   -1    0    0    0  501  0.00000000000E+00  0.00000000000E+00  0.60130710030E+02  0.60130710241E+02  0.50400001928E-02 0. -1.
        1   -1    0    0  501    0  0.00000000000E+00  0.00000000000E+00 -0.10421609678E+04  0.10421609678E+04  0.50400001928E-02 0.  1.
    10030    2    1    2    0    0  0.00000000000E+00  0.00000000000E+00 -0.98203025777E+03  0.11022916781E+04  0.50066307666E+03 0.  0.
        1    1    3    3  502    0 -0.22057965657E+03  0.46631232472E+02 -0.25148847226E+03  0.33775184447E+03  0.50400001928E-02 0. -1.
       -1    1    3    3    0  502  0.22057965657E+03 -0.46631232472E+02 -0.73054178551E+03  0.76453983359E+03  0.50400001928E-02 0.  1.
</event>
<event>
 5   0  0.1805500E-02  0.5083325E+03  0.7818609E-02  0.1011627E+00
        3   -1    0    0  501    0  0.00000000000E+00  0.00000000000E+00  0.56616527696E+03  0.56616528597E+03  0.10100000352E+00 0. -1.
       -3   -1    0    0    0  501  0.00000000000E+00  0.00000000000E+00 -0.11410178616E+03  0.11410183086E+03  0.10100000352E+00 0.  1.
    10030    2    1    2    0    0  0.00000000000E+00  0.00000000000E+00  0.45206349080E+03  0.68026711683E+03  0.50833251964E+03 0.  0.
        4    1    3    3  502    0  0.18963883579E+03 -0.52134393885E+02  0.44147468068E+03  0.48330362056E+03  0.12699999809E+01 0. -1.
       -4    1    3    3    0  502 -0.18963883579E+03  0.52134393885E+02  0.10588810122E+02  0.19696349627E+03  0.12699999809E+01 0.  1.
</event>
<event>
 5   0  0.2723308E-02  0.5020820E+03  0.7818609E-02  0.1013237E+00
       -1   -1    0    0    0  501  0.00000000000E+00  0.00000000000E+00  0.75456375079E+02  0.75456375247E+02  0.50400001928E-02 0. -1.
        1   -1    0    0  501    0  0.00000000000E+00  0.00000000000E+00 -0.83520551565E+03  0.83520551567E+03  0.50400001928E-02 0.  1.
    10030    2    1    2    0    0  0.00000000000E+00  0.00000000000E+00 -0.75974914057E+03  0.91066189091E+03  0.50208198829E+03 0.  0.
        4    1    3    3  502    0  0.51354162315E+02 -0.24220087589E+03 -0.45512867231E+03  0.51811411439E+03  0.12699999809E+01 0.  1.
       -4    1    3    3    0  502 -0.51354162315E+02  0.24220087589E+03 -0.30462046826E+03  0.39254777653E+03  0.12699999809E+01 0. -1.
</event>
<event>
 5   0  0.4409622E-02  0.4809990E+03  0.7818609E-02  0.1018861E+00
        2   -1    0    0  501    0  0.00000000000E+00  0.00000000000E+00  0.13375008371E+04  0.13375008371E+04  0.25500000920E-02 0.  1.
       -2   -1    0    0    0  501  0.00000000000E+00  0.00000000000E+00 -0.43244848334E+02  0.43244848409E+02  0.25500000920E-02 0. -1.
    10030    2    1    2    0    0  0.00000000000E+00  0.00000000000E+00  0.12942559887E+04  0.13807456855E+04  0.48099904740E+03 0.  0.
        3    1    3    3  502    0  0.13569285173E+03 -0.53909377276E+02  0.98545134438E+02  0.17615312853E+03  0.10100000352E+00 0. -1.
       -3    1    3    3    0  502 -0.13569285173E+03  0.53909377276E+02  0.11957108543E+04  0.12045925569E+04  0.10100000352E+00 0.  1.
</event>
<event>
 5   0  0.1805500E-02  0.4996779E+03  0.7818609E-02  0.1013863E+00
       -3   -1    0    0    0  501  0.00000000000E+00  0.00000000000E+00  0.71787003402E+03  0.71787004113E+03  0.10100000352E+00 0.  1.
        3   -1    0    0  501    0  0.00000000000E+00  0.00000000000E+00 -0.86950931020E+02  0.86950989680E+02  0.10100000352E+00 0. -1.
    10030    2    1    2    0    0  0.00000000000E+00  0.00000000000E+00  0.63091910300E+03  0.80482103081E+03  0.49967787333E+03 0.  0.
        5    1    3    3  502    0  0.31062317237E+01  0.24623974411E+03  0.24800794474E+03  0.34953353331E+03  0.46999998093E+01 0. -1.
       -5    1    3    3    0  502 -0.31062317237E+01 -0.24623974411E+03  0.38291115826E+03  0.45528749749E+03  0.46999998093E+01 0.  1.
</event>
<event>
 5   0  0.4631619E-02  0.5003256E+03  0.7818609E-02  0.1013694E+00
        2   -1    0    0  501    0  0.00000000000E+00  0.00000000000E+00  0.44973082137E+03  0.44973082137E+03  0.25500000920E-02 0. -1.
       -2   -1    0    0    0  501  0.00000000000E+00  0.00000000000E+00 -0.13915307590E+03  0.13915307592E+03  0.25500000920E-02 0.  1.
    10030    2    1    2    0    0  0.00000000000E+00  0.00000000000E+00  0.31057774547E+03  0.58888389730E+03  0.50032560250E+03 0.  0.
        5    1    3    3  502    0 -0.13396047498E+03 -0.19257184907E+03  0.53153832679E+02  0.24057586296E+03  0.46999998093E+01 0. -1.
       -5    1    3    3    0  502  0.13396047498E+03  0.19257184907E+03  0.25742391279E+03  0.34830803434E+03  0.46999998093E+01 0.  1.
</event>
<event>
 5   0  0.4631619E-02  0.4806846E+03  0.7818609E-02  0.1018947E+00
        2   -1    0    0  501    0  0.00000000000E+00  0.00000000000E+00  0.96075461703E+03  0.96075461704E+03  0.25500000920E-02 0.  1.
       -2   -1    0    0    0  501  0.00000000000E+00  0.00000000000E+00 -0.60124019673E+02  0.60124019727E+02  0.25500000920E-02 0. -1.
    10030    2    1    2    0    0  0.00000000000E+00  0.00000000000E+00  0.90063059736E+03  0.10208786368E+04  0.48068463477E+03 0.  0.
        5    1    3    3  502    0  0.11048208202E+03 -0.19486293219E+03  0.63503091297E+03  0.67339750758E+03  0.46999998093E+01 0.  1.
       -5    1    3    3    0  502 -0.11048208202E+03  0.19486293219E+03  0.26559968439E+03  0.34748112918E+03  0.46999998093E+01 0. -1.
</event>
<event>
 5   0  0.2643185E-02  0.4993111E+03  0.7818609E-02  0.1013959E+00
        1   -1    0    0  501    0  0.00000000000E+00  0.00000000000E+00  0.57492093865E+03  0.57492093867E+03  0.50400001928E-02 0. -1.
       -1   -1    0    0    0  501  0.00000000000E+00  0.00000000000E+00 -0.10841125422E+03  0.10841125433E+03  0.50400001928E-02 0.  1.
    10030    2    1    2    0    0  0.00000000000E+00  0.00000000000E+00  0.46650968443E+03  0.68333219300E+03  0.49931112578E+03 0.  0.
        1    1    3    3  502    0 -0.13726022118E+03  0.10182508398E+03  0.48231281707E+03  0.51169753720E+03  0.50400001928E-02 0. -1.
       -1    1    3    3    0  502  0.13726022118E+03 -0.10182508398E+03 -0.15803132639E+02  0.17163465580E+03  0.50400001928E-02 0.  1.
</event>
<event>
 5   0  0.4451135E-02  0.5013677E+03  0.7818609E-02  0.1013423E+00
        2   -1    0    0  501    0  0.00000000000E+00  0.00000000000E+00  0.22485411464E+03  0.22485411466E+03  0.25500000920E-02 0.  1.
       -2   -1    0    0    0  501  0.00000000000E+00  0.00000000000E+00 -0.27948076084E+03  0.27948076085E+03  0.25500000920E-02 0. -1.
    10030    2    1    2    0    0  0.00000000000E+00  0.00000000000E+00 -0.54626646196E+02  0.50433487551E+03  0.50136772551E+03 0.  0.
        1    1    3    3  502    0 -0.86252543542E+02  0.23134858687E+03  0.16310703603E+02  0.24744233468E+03  0.50400001928E-02 0. -1.
       -1    1    3    3    0  502  0.86252543542E+02 -0.23134858687E+03 -0.70937349799E+02  0.25689254083E+03  0.50400001928E-02 0.  1.
</event>
<event>
 5   0  0.4451135E-02  0.4994366E+03  0.7818609E-02  0.1013926E+00
       -2   -1    0    0    0  501  0.00000000000E+00  0.00000000000E+00  0.40114769041E+02  0.40114769122E+02  0.25500000920E-02 0. -1.
        2   -1    0    0  501    0  0.00000000000E+00  0.00000000000E+00 -0.15545206497E+04  0.15545206497E+04  0.25500000920E-02 0.  1.
    10030    2    1    2    0    0  0.00000000000E+00  0.00000000000E+00 -0.15144058806E+04  0.15946354188E+04  0.49943663020E+03 0.  0.
        1    1    3    3  502    0  0.14924242376E+03  0.15388011264E+03 -0.11661749402E+04  0.11857134483E+04  0.50400001928E-02 0.  1.
       -1    1    3    3    0  502 -0.14924242376E+03 -0.15388011264E+03 -0.34823094040E+03  0.40892197054E+03  0.50400001928E-02 0. -1.
</event>
<event>
 5   0  0.2643185E-02  0.5007840E+03  0.7818609E-02  0.1013574E+00
       -1   -1    0    0    0  501  0.00000000000E+00  0.00000000000E+00  0.58039804980E+03  0.58039804983E+03  0.50400001928E-02 0.  1.
        1   -1    0    0  501    0  0.00000000000E+00  0.00000000000E+00 -0.10802268822E+03  0.10802268834E+03  0.50400001928E-02 0. -1.
    10030    2    1    2    0    0  0.00000000000E+00  0.00000000000E+00  0.47237536158E+03  0.68842073817E+03  0.50078401583E+03 0.  0.
        1    1    3    3  502    0  0.60154835988E+02  0.67676818207E+02  0.55710369090E+03  0.56441410193E+03  0.50400001928E-02 0.  1.
       -1    1    3    3    0  502 -0.60154835988E+02 -0.67676818207E+02 -0.84728329321E+02  0.12400663624E+03  0.50400001928E-02 0. -1.
</event>
<event>
 5   0  0.4519539E-02  0.5014416E+03  0.7818609E-02  0.1013403E+00
       -2   -1    0    0    0  501  0.00000000000E+00  0.00000000000E+00  0.90773461750E+02  0.90773461786E+02  0.25500000920E-02 0. -1.
        2   -1    0    0  501    0  0.00000000000E+00  0.00000000000E+00 -0.69250317062E+03  0.69250317063E+03  0.25500000920E-02 0.  1.
    10030    2    1    2    0    0  0.00000000000E+00  0.00000000000E+00 -0.60172970887E+03  0.78327663242E+03  0.50144156224E+03 0.  0.
        4    1    3    3  502    0  0.11990364873E+03  0.10655815934E+03 -0.60184945785E+03  0.62286106727E+03  0.12699999809E+01 0.  1.
       -4    1    3    3    0  502 -0.11990364873E+03 -0.10655815934E+03  0.11974897949E+00  0.16041556515E+03  0.12699999809E+01 0. -1.
</event>
<event>
 5   0  0.2719671E-02  0.5035346E+03  0.7818609E-02  0.1012860E+00
       -1   -1    0    0    0  501  0.00000000000E+00  0.00000000000E+00  0.23044104484E+03  0.23044104489E+03  0.50400001928E-02 0.  1.
        1   -1    0    0  501    0  0.00000000000E+00  0.00000000000E+00 -0.27506722902E+03  0.27506722907E+03  0.50400001928E-02 0. -1.
    10030    2    1    2    0    0  0.00000000000E+00  0.00000000000E+00 -0.44626184185E+02  0.50550827396E+03  0.50353462515E+03 0.  0.
        2    1    3    3  502    0  0.56026635625E+02 -0.24088396672E+03 -0.69643512801E+02  0.25693245845E+03  0.25500000920E-02 0.  1.
       -2    1    3    3    0  502 -0.56026635625E+02  0.24088396672E+03  0.25017328616E+02  0.24857581551E+03  0.25500000920E-02 0. -1.
</event>
<event>
 5   0  0.4534223E-02  0.5019854E+03  0.7818609E-02  0.1013262E+00
        2   -1    0    0  501    0  0.00000000000E+00  0.00000000000E+00  0.51053853364E+02  0.51053853427E+02  0.25500000920E-02 0.  1.
       -2   -1    0    0    0  501  0.00000000000E+00  0.00000000000E+00 -0.12339389782E+04  0.12339389782E+04  0.25500000920E-02 0. -1.
    10030    2    1    2    0    0  0.00000000000E+00  0.00000000000E+00 -0.11828851249E+04  0.12849928317E+04  0.50198541691E+03 0.  0.
        2    1    3    3  502    0 -0.22281341091E+02  0.24660584957E+03 -0.69656480073E+03  0.73926546303E+03  0.25500000920E-02 0.  1.
       -2    1    3    3    0  502  0.22281341091E+02 -0.24660584957E+03 -0.48632032416E+03  0.54572736865E+03  0.25500000920E-02 0. -1.
</event>
<event>
 5   0  0.2643185E-02  0.5012515E+03  0.7818609E-02  0.1013453E+00
       -1   -1    0    0    0  501  0.00000000000E+00  0.00000000000E+00  0.65076921185E+02  0.65076921380E+02  0.50400001928E-02 0.  1.
        1   -1    0    0  501    0  0.00000000000E+00  0.00000000000E+00 -0.96521551676E+03  0.96521551677E+03  0.50400001928E-02 0. -1.
    10030    2    1    2    0    0  0.00000000000E+00  0.00000000000E+00 -0.90013859557E+03  0.10302924381E+04  0.50125145074E+03 0.  0.
        1    1    3    3  502    0  0.92059081993E+02  0.22752534740E+03 -0.34585632725E+03  0.42409816954E+03  0.50400001928E-02 0. -1.
       -1    1    3    3    0  502 -0.92059081993E+02 -0.22752534740E+03 -0.55428226832E+03  0.60619426861E+03  0.50400001928E-02 0.  1.
</event>
<event>
 5   0  0.4534223E-02  0.5000481E+03  0.7818609E-02  0.1013766E+00
       -2   -1    0    0    0  501  0.00000000000E+00  0.00000000000E+00  0.26152383877E+02  0.26152384002E+02  0.25500000920E-02 0. -1.
        2   -1    0    0  501    0  0.00000000000E+00  0.00000000000E+00 -0.23902996956E+04  0.23902996956E+04  0.25500000920E-02 0.  1.
    10030    2    1    2    0    0  0.00000000000E+00  0.00000000000E+00 -0.23641473117E+04  0.24164520796E+04  0.50004813917E+03 0.  0.
        2    1    3    3  502    0 -0.10101328323E+03  0.39757681993E+02 -0.93672820687E+02  0.14338393916E+03  0.25500000920E-02 0. -1.
       -2    1    3    3    0  502  0.10101328323E+03 -0.39757681993E+02 -0.22704744910E+04  0.22730681404E+04  0.25500000920E-02 0.  1.
</event>
<event>
 5   0  0.4631619E-02  0.5006272E+03  0.7818609E-02  0.1013615E+00
        2   -1    0    0  501    0  0.00000000000E+00  0.00000000000E+00  0.39436904541E+03  0.39436904542E+03  0.25500000920E-02 0. -1.
       -2   -1    0    0    0  501  0.00000000000E+00  0.00000000000E+00 -0.15887884795E+03  0.15887884797E+03  0.25500000920E-02 0.  1.
    10030    2    1    2    0    0  0.00000000000E+00  0.00000000000E+00  0.23549019746E+03  0.55324789340E+03  0.50062720506E+03 0.  0.
        5    1    3    3  502    0  0.16114659568E+03 -0.10270637161E+03 -0.60852313204E+02  0.20060388353E+03  0.46999998093E+01 0.  1.
       -5    1    3    3    0  502 -0.16114659568E+03  0.10270637161E+03  0.29634251066E+03  0.35264400986E+03  0.46999998093E+01 0. -1.
</event>
<event>
 5   0  0.4631619E-02  0.4971256E+03  0.7818609E-02  0.1014532E+00
       -2   -1    0    0    0  501  0.00000000000E+00  0.00000000000E+00  0.17163796950E+03  0.17163796952E+03  0.25500000920E-02 0.  1.
        2   -1    0    0  501    0  0.00000000000E+00  0.00000000000E+00 -0.35996387955E+03  0.35996387956E+03  0.25500000920E-02 0. -1.
    10030    2    1    2    0    0  0.00000000000E+00  0.00000000000E+00 -0.18832591005E+03  0.53160184908E+03  0.49712561547E+03 0.  0.
        5    1    3    3  502    0 -0.80736376067E+02  0.18928247670E+03 -0.24316452320E+03  0.31858639918E+03  0.46999998093E+01 0. -1.
       -5    1    3    3    0  502  0.80736376067E+02 -0.18928247670E+03  0.54838613151E+02  0.21301544990E+03  0.46999998093E+01 0.  1.
</event>
<event>
 5   0  0.1805500E-02  0.5045061E+03  0.7818609E-02  0.1012609E+00
       -4   -1    0    0    0  501  0.00000000000E+00  0.00000000000E+00  0.10923242828E+03  0.10923981091E+03  0.12699999809E+01 0.  1.
        4   -1    0    0  501    0  0.00000000000E+00  0.00000000000E+00 -0.58250629838E+03  0.58250768283E+03  0.12699999809E+01 0. -1.
    10030    2    1    2    0    0  0.00000000000E+00  0.00000000000E+00 -0.47327387011E+03  0.69174749374E+03  0.50450613373E+03 0.  0.
        2    1    3    3  502    0  0.25061941295E+03 -0.32297959111E+01 -0.27568640416E+03  0.37259027789E+03  0.25500000920E-02 0. -1.
       -2    1    3    3    0  502 -0.25061941295E+03  0.32297959111E+01 -0.19758746594E+03  0.31915721586E+03  0.25500000920E-02 0.  1.
</event>
<event>
 5   0  0.2643185E-02  0.5073260E+03  0.7818609E-02  0.1011884E+00
        1   -1    0    0  501    0  0.00000000000E+00  0.00000000000E+00  0.77817347281E+02  0.77817347444E+02  0.50400001928E-02 0. -1.
       -1   -1    0    0    0  501  0.00000000000E+00  0.00000000000E+00 -0.82687116886E+03  0.82687116887E+03  0.50400001928E-02 0.  1.
    10030    2    1    2    0    0  0.00000000000E+00  0.00000000000E+00 -0.74905382158E+03  0.90468851632E+03  0.50732601346E+03 0.  0.
        1    1    3    3  502    0  0.88504349945E+01 -0.15769911761E+03 -0.72848082054E+03  0.74540703499E+03  0.50400001928E-02 0.  1.
       -1    1    3    3    0  502 -0.88504349945E+01  0.15769911761E+03 -0.20573001037E+02  0.15928148132E+03  0.50400001928E-02 0. -1.
</event>
<event>
 5   0  0.1805500E-02  0.5014960E+03  0.7818609E-02  0.1013389E+00
       -3   -1    0    0    0  501  0.00000000000E+00  0.00000000000E+00  0.54468597648E+02  0.54468691289E+02  0.10100000352E+00 0. -1.
        3   -1    0    0  501    0  0.00000000000E+00  0.00000000000E+00 -0.11543257108E+04  0.11543257152E+04  0.10100000352E+00 0.  1.
    10030    2    1    2    0    0  0.00000000000E+00  0.00000000000E+00 -0.10998571131E+04  0.12087944065E+04  0.50149600980E+03 0.  0.
        3    1    3    3  502    0 -0.20011563651E+03  0.64668415117E+02 -0.22078825776E+03  0.30491923006E+03  0.10100000352E+00 0. -1.
       -3    1    3    3    0  502  0.20011563651E+03 -0.64668415117E+02 -0.87906885537E+03  0.90387517644E+03  0.10100000352E+00 0.  1.
</event>
<event>
 5   0  0.2643185E-02  0.4995479E+03  0.7818609E-02  0.1013897E+00
        1   -1    0    0  501    0  0.00000000000E+00  0.00000000000E+00  0.71996619429E+03  0.71996619430E+03  0.50400001928E-02 0.  1.
       -1   -1    0    0    0  501  0.00000000000E+00  0.00000000000E+00 -0.86652727812E+02  0.86652727958E+02  0.50400001928E-02 0. -1.
    10030    2    1    2    0    0  0.00000000000E+00  0.00000000000E+00  0.63331346648E+03  0.80661892226E+03  0.49954793457E+03 0.  0.
        1    1    3    3  502    0 -0.41874951960E+01 -0.14207689731E+03  0.64829401020E+03  0.66369307933E+03  0.50400001928E-02 0.  1.
       -1    1    3    3    0  502  0.41874951960E+01  0.14207689731E+03 -0.14980543720E+02  0.14292584294E+03  0.50400001928E-02 0. -1.
</event>
<event>
 5   0  0.2779445E-02  0.4986985E+03  0.7818609E-02  0.1014119E+00
        1   -1    0    0  501    0  0.00000000000E+00  0.00000000000E+00  0.85625389385E+03  0.85625389387E+03  0.50400001928E-02 0. -1.
       -1   -1    0    0    0  501  0.00000000000E+00  0.00000000000E+00 -0.72612862690E+02  0.72612862865E+02  0.50400001928E-02 0.  1.
    10030    2    1    2    0    0  0.00000000000E+00  0.00000000000E+00  0.78364103116E+03  0.92886675673E+03  0.49869849212E+03 0.  0.
        3    1    3    3  502    0 -0.20564706705E+03 -0.13190905434E+03  0.29898390749E+03  0.38611151490E+03  0.10100000352E+00 0.  1.
       -3    1    3    3    0  502  0.20564706705E+03  0.13190905434E+03  0.48465712367E+03  0.54275524183E+03  0.10100000352E+00 0. -1.
</event>
<event>
 5   0  0.4451135E-02  0.4953274E+03  0.7818609E-02  0.1015006E+00
        2   -1    0    0  501    0  0.00000000000E+00  0.00000000000E+00  0.82600134828E+03  0.82600134829E+03  0.25500000920E-02 0. -1.
       -2   -1    0    0    0  501  0.00000000000E+00  0.00000000000E+00 -0.74258132567E+02  0.74258132611E+02  0.25500000920E-02 0.  1.
    10030    2    1    2    0    0  0.00000000000E+00  0.00000000000E+00  0.75174321572E+03  0.90025948090E+03  0.49532743773E+03 0.  0.
        1    1    3    3  502    0  0.12586336440E+03  0.15440100848E+03  0.64333542487E+03  0.67346991531E+03  0.50400001928E-02 0.  1.
       -1    1    3    3    0  502 -0.12586336440E+03 -0.15440100848E+03  0.10840779085E+03  0.22678956559E+03  0.50400001928E-02 0. -1.
</event>
<event>
 5   0  0.2779445E-02  0.5020725E+03  0.7818609E-02  0.1013239E+00
        1   -1    0    0  501    0  0.00000000000E+00  0.00000000000E+00  0.49619127754E+03  0.49619127757E+03  0.50400001928E-02 0. -1.
       -1   -1    0    0    0  501  0.00000000000E+00  0.00000000000E+00 -0.12700584857E+03  0.12700584867E+03  0.50400001928E-02 0.  1.
    10030    2    1    2    0    0  0.00000000000E+00  0.00000000000E+00  0.36918542897E+03  0.62319712624E+03  0.50207248200E+03 0.  0.
        3    1    3    3  502    0  0.17089607825E+03  0.53308240347E+02  0.40303829874E+03  0.44100693703E+03  0.10100000352E+00 0. -1.
       -3    1    3    3    0  502 -0.17089607825E+03 -0.53308240347E+02 -0.33852869772E+02  0.18219018921E+03  0.10100000352E+00 0.  1.
</event>
<event>
 5   0  0.4451135E-02  0.4994418E+03  0.7818609E-02  0.1013925E+00
        2   -1    0    0  501    0  0.00000000000E+00  0.00000000000E+00  0.99198230513E+03  0.99198230514E+03  0.25500000920E-02 0. -1.
       -2   -1    0    0    0  501  0.00000000000E+00  0.00000000000E+00 -0.62864545730E+02  0.62864545782E+02  0.25500000920E-02 0.  1.
    10030    2    1    2    0    0  0.00000000000E+00  0.00000000000E+00  0.92911775940E+03  0.10548468509E+04  0.49944175642E+03 0.  0.
        1    1    3    3  502    0  0.54503903685E+02  0.23618722280E+03  0.33774011094E+03  0.41572041362E+03  0.50400001928E-02 0. -1.
       -1    1    3    3    0  502 -0.54503903685E+02 -0.23618722280E+03  0.59137764846E+03  0.63912643730E+03  0.50400001928E-02 0.  1.
</event>
<event>
 5   0  0.4409622E-02  0.5001860E+03  0.7818609E-02  0.1013730E+00
       -2   -1    0    0    0  501  0.00000000000E+00  0.00000000000E+00  0.50269147119E+02  0.50269147183E+02  0.25500000920E-02 0.  1.
        2   -1    0    0  501    0  0.00000000000E+00  0.00000000000E+00 -0.12442327220E+04  0.12442327220E+04  0.25500000920E-02 0. -1.
    10030    2    1    2    0    0  0.00000000000E+00  0.00000000000E+00 -0.11939635749E+04  0.12945018692E+04  0.50018603658E+03 0.  0.
        3    1    3    3  502    0  0.12169792410E+03  0.92391497032E+02 -0.84576282398E+02  0.17464172239E+03  0.10100000352E+00 0.  1.
       -3    1    3    3    0  502 -0.12169792410E+03 -0.92391497032E+02 -0.11093872925E+04  0.11198601468E+04  0.10100000352E+00 0. -1.
</event>
<event>
 5   0  0.4534223E-02  0.4921068E+03  0.7818609E-02  0.1015860E+00
        2   -1    0    0  501    0  0.00000000000E+00  0.00000000000E+00  0.35056061648E+03  0.35056061649E+03  0.25500000920E-02 0. -1.
       -2   -1    0    0    0  501  0.00000000000E+00  0.00000000000E+00 -0.17270132937E+03  0.17270132939E+03  0.25500000920E-02 0.  1.
    10030    2    1    2    0    0  0.00000000000E+00  0.00000000000E+00  0.17785928711E+03  0.52326194587E+03  0.49210683595E+03 0.  0.
        2    1    3    3  502    0 -0.79620204598E+02  0.20486753513E+03  0.20653092405E+03  0.30160422166E+03  0.25500000920E-02 0. -1.
       -2    1    3    3    0  502  0.79620204598E+02 -0.20486753513E+03 -0.28671636936E+02  0.22165772421E+03  0.25500000920E-02 0.  1.
</event>
<event>
 5   0  0.2719671E-02  0.5015095E+03  0.7818609E-02  0.1013386E+00
        1   -1    0    0  501    0  0.00000000000E+00  0.00000000000E+00  0.33862488452E+03  0.33862488455E+03  0.50400001928E-02 0. -1.
       -1   -1    0    0    0  501  0.00000000000E+00  0.00000000000E+00 -0.18568613454E+03  0.18568613460E+03  0.50400001928E-02 0.  1.
    10030    2    1    2    0    0  0.00000000000E+00  0.00000000000E+00  0.15293874998E+03  0.52431101916E+03  0.50150950496E+03 0.  0.
        2    1    3    3  502    0  0.21771481815E+03  0.54060813926E+00 -0.53597287808E+02  0.22421575227E+03  0.25500000920E-02 0.  1.
       -2    1    3    3    0  502 -0.21771481815E+03 -0.54060813926E+00  0.20653603779E+03  0.30009526689E+03  0.25500000920E-02 0. -1.
</event>
<event>
 5   0  0.4631619E-02  0.5001690E+03  0.7818609E-02  0.1013735E+00
        2   -1    0    0  501    0  0.00000000000E+00  0.00000000000E+00  0.75200627017E+03  0.75200627017E+03  0.25500000920E-02 0.  1.
       -2   -1    0    0    0  501  0.00000000000E+00  0.00000000000E+00 -0.83167198750E+02  0.83167198789E+02  0.25500000920E-02 0. -1.
    10030    2    1    2    0    0  0.00000000000E+00  0.00000000000E+00  0.66883907142E+03  0.83517346896E+03  0.50016899124E+03 0.  0.
        5    1    3    3  502    0  0.12689982310E+03 -0.21544274743E+03  0.33610793923E+03  0.41893887303E+03  0.46999998093E+01 0.  1.
       -5    1    3    3    0  502 -0.12689982310E+03  0.21544274743E+03  0.33273113219E+03  0.41623459593E+03  0.46999998093E+01 0. -1.
</event>
<event>
 5   0  0.2715483E-02  0.5011365E+03  0.7818609E-02  0.1013483E+00
       -1   -1    0    0    0  501  0.00000000000E+00  0.00000000000E+00  0.89456177938E+02  0.89456178080E+02  0.50400001928E-02 0.  1.
        1   -1    0    0  501    0  0.00000000000E+00  0.00000000000E+00 -0.70184593536E+03  0.70184593538E+03  0.50400001928E-02 0. -1.
    10030    2    1    2    0    0  0.00000000000E+00  0.00000000000E+00 -0.61238975742E+03  0.79130211346E+03  0.50113652807E+03 0.  0.
        5    1    3    3  502    0  0.20034086007E+03 -0.61258238704E+02 -0.89269399134E+02  0.22777213974E+03  0.46999998093E+01 0.  1.
       -5    1    3    3    0  502 -0.20034086007E+03  0.61258238704E+02 -0.52312035829E+03  0.56352997371E+03  0.46999998093E+01 0. -1.
</event>
<event>
 5   0  0.4631619E-02  0.4964559E+03  0.7818609E-02  0.1014708E+00
        2   -1    0    0  501    0  0.00000000000E+00  0.00000000000E+00  0.92660732018E+03  0.92660732018E+03  0.25500000920E-02 0.  1.
       -2   -1    0    0    0  501  0.00000000000E+00  0.00000000000E+00 -0.66497561752E+02  0.66497561801E+02  0.25500000920E-02 0. -1.
    10030    2    1    2    0    0  0.00000000000E+00  0.00000000000E+00  0.86010975843E+03  0.99310488198E+03  0.49645594978E+03 0.  0.
        5    1    3    3  502    0  0.14120533986E+03  0.20332561889E+03  0.46554598212E+03  0.52729062837E+03  0.46999998093E+01 0.  1.
       -5    1    3    3    0  502 -0.14120533986E+03 -0.20332561889E+03  0.39456377631E+03  0.46581425361E+03  0.46999998093E+01 0. -1.
</event>
<event>
 5   0  0.4451135E-02  0.5017023E+03  0.7818609E-02  0.1013336E+00
        2   -1    0    0  501    0  0.00000000000E+00  0.00000000000E+00  0.10779480373E+04  0.10779480373E+04  0.25500000920E-02 0. -1.
       -2   -1    0    0    0  501  0.00000000000E+00  0.00000000000E+00 -0.58376005246E+02  0.58376005302E+02  0.25500000920E-02 0.  1.
    10030    2    1    2    0    0  0.00000000000E+00  0.00000000000E+00  0.10195720321E+04  0.11363240426E+04  0.50170230343E+03 0.  0.
        1    1    3    3  502    0 -0.18784752829E+03 -0.15680132732E+03  0.63493172345E+03  0.68044958932E+03  0.50400001928E-02 0.  1.
       -1    1    3    3    0  502  0.18784752829E+03  0.15680132732E+03  0.38464030864E+03  0.45587445332E+03  0.50400001928E-02 0. -1.
</event>
<event>
 5   0  0.4519539E-02  0.4991768E+03  0.7818609E-02  0.1013994E+00
       -2   -1    0    0    0  501  0.00000000000E+00  0.00000000000E+00  0.22025885822E+03  0.22025885824E+03  0.25500000920E-02 0.  1.
        2   -1    0    0  501    0  0.00000000000E+00  0.00000000000E+00 -0.28282344719E+03  0.28282344720E+03  0.25500000920E-02 0. -1.
    10030    2    1    2    0    0  0.00000000000E+00  0.00000000000E+00 -0.62564588967E+02  0.50308230544E+03  0.49917680059E+03 0.  0.
        4    1    3    3  502    0 -0.10549230271E+03 -0.79404983383E+02 -0.24473877444E+03  0.27808714089E+03  0.12699999809E+01 0. -1.
       -4    1    3    3    0  502  0.10549230271E+03  0.79404983383E+02  0.18217418547E+03  0.22499516454E+03  0.12699999809E+01 0.  1.
</event>
<event>
 5   0  0.1805500E-02  0.5000323E+03  0.7818609E-02  0.1013770E+00
        3   -1    0    0  501    0  0.00000000000E+00  0.00000000000E+00  0.39576639265E+02  0.39576768141E+02  0.10100000352E+00 0. -1.
       -3   -1    0    0    0  501  0.00000000000E+00  0.00000000000E+00 -0.15794157478E+04  0.15794157510E+04  0.10100000352E+00 0.  1.
    10030    2    1    2    0    0  0.00000000000E+00  0.00000000000E+00 -0.15398391085E+04  0.16189925192E+04  0.50003229591E+03 0.  0.
        5    1    3    3  502    0 -0.21848675682E+03  0.77680861144E+02 -0.46765613288E+03  0.52201065862E+03  0.46999998093E+01 0. -1.
       -5    1    3    3    0  502  0.21848675682E+03 -0.77680861144E+02 -0.10721829757E+04  0.10969818606E+04  0.46999998093E+01 0.  1.
</event>
<event>
 5   0  0.2719671E-02  0.5014070E+03  0.7818609E-02  0.1013412E+00
       -1   -1    0    0    0  501  0.00000000000E+00  0.00000000000E+00  0.28856273743E+03  0.28856273748E+03  0.50400001928E-02 0.  1.
        1   -1    0    0  501    0  0.00000000000E+00  0.00000000000E+00 -0.21781139450E+03  0.21781139456E+03  0.50400001928E-02 0. -1.
    10030    2    1    2    0    0  0.00000000000E+00  0.00000000000E+00  0.70751342934E+02  0.50637413203E+03  0.50140702933E+03 0.  0.
        2    1    3    3  502    0  0.39869069500E+02  0.24573788646E+03  0.54919866582E+01  0.24901167336E+03  0.25500000920E-02 0.  1.
       -2    1    3    3    0  502 -0.39869069500E+02 -0.24573788646E+03  0.65259356276E+02  0.25736245867E+03  0.25500000920E-02 0. -1.
</event>
<event>
 5   0  0.2719671E-02  0.5003578E+03  0.7818609E-02  0.1013686E+00
        1   -1    0    0  501    0  0.00000000000E+00  0.00000000000E+00  0.86641153790E+03  0.86641153792E+03  0.50400001928E-02 0.  1.
       -1   -1    0    0    0  501  0.00000000000E+00  0.00000000000E+00 -0.72239904653E+02  0.72239904829E+02  0.50400001928E-02 0. -1.
    10030    2    1    2    0    0  0.00000000000E+00  0.00000000000E+00  0.79417163325E+03  0.93865144275E+03  0.50035781988E+03 0.  0.
        2    1    3    3  502    0 -0.14904730902E+03 -0.29991262999E+02  0.76980713967E+03  0.78467675413E+03  0.25500000920E-02 0.  1.
       -2    1    3    3    0  502  0.14904730902E+03  0.29991262999E+02  0.24364493584E+02  0.15397468862E+03  0.25500000920E-02 0. -1.
</event>
<event>
 5   0  0.4631619E-02  0.5013400E+03  0.7818609E-02  0.1013430E+00
        2   -1    0    0  501    0  0.00000000000E+00  0.00000000000E+00  0.11407268614E+04  0.11407268614E+04  0.25500000920E-02 0. -1.
       -2   -1    0    0    0  501  0.00000000000E+00  0.00000000000E+00 -0.55083701267E+02  0.55083701326E+02  0.25500000920E-02 0.  1.
    10030    2    1    2    0    0  0.00000000000E+00  0.00000000000E+00  0.10856431601E+04  0.11958105627E+04  0.50134003509E+03 0.  0.
        5    1    3    3  502    0 -0.24602251707E+03  0.28492018813E+02  0.63441229567E+03  0.68105794536E+03  0.46999998093E+01 0. -1.
       -5    1    3    3    0  502  0.24602251707E+03 -0.28492018813E+02  0.45123086445E+03  0.51475261736E+03  0.46999998093E+01 0.  1.
</event>
<event>
 5   0  0.4409622E-02  0.4999947E+03  0.7818609E-02  0.1013780E+00
       -2   -1    0    0    0  501  0.00000000000E+00  0.00000000000E+00  0.24865508235E+03  0.24865508236E+03  0.25500000920E-02 0.  1.
        2   -1    0    0  501    0  0.00000000000E+00  0.00000000000E+00 -0.25134683955E+03  0.25134683956E+03  0.25500000920E-02 0. -1.
    10030    2    1    2    0    0  0.00000000000E+00  0.00000000000E+00 -0.26917572000E+01  0.50000192193E+03  0.49999467635E+03 0.  0.
        3    1    3    3  502    0  0.19357765985E+03 -0.91307626096E+02  0.12784293523E+03  0.24930547380E+03  0.10100000352E+00 0.  1.
       -3    1    3    3    0  502 -0.19357765985E+03  0.91307626096E+02 -0.13053469243E+03  0.25069644813E+03  0.10100000352E+00 0. -1.
</event>
<event>
 5   0  0.2719671E-02  0.4988603E+03  0.7818609E-02  0.1014077E+00
       -1   -1    0    0    0  501  0.00000000000E+00  0.00000000000E+00  0.56086419317E+02  0.56086419543E+02  0.50400001928E-02 0. -1.
        1   -1    0    0  501    0  0.00000000000E+00  0.00000000000E+00 -0.11092774209E+04  0.11092774209E+04  0.50400001928E-02 0.  1.
    10030    2    1    2    0    0  0.00000000000E+00  0.00000000000E+00 -0.10531910015E+04  0.11653638404E+04  0.49886029589E+03 0.  0.
        2    1    3    3  502    0 -0.93089290906E+02  0.16105399743E+03 -0.13842122318E+03  0.23187160500E+03  0.25500000920E-02 0. -1.
       -2    1    3    3    0  502  0.93089290906E+02 -0.16105399743E+03 -0.91476977836E+03  0.93349223542E+03  0.25500000920E-02 0.  1.
</event>
<event>
 5   0  0.4519539E-02  0.4979940E+03  0.7818609E-02  0.1014304E+00
       -2   -1    0    0    0  501  0.00000000000E+00  0.00000000000E+00  0.75826574825E+03  0.75826574825E+03  0.25500000920E-02 0. -1.
        2   -1    0    0  501    0  0.00000000000E+00  0.00000000000E+00 -0.81764879697E+02  0.81764879737E+02  0.25500000920E-02 0.  1.
    10030    2    1    2    0    0  0.00000000000E+00  0.00000000000E+00  0.67650086855E+03  0.84003062799E+03  0.49799400680E+03 0.  0.
        4    1    3    3  502    0 -0.18093817525E+03  0.16351294817E+03  0.42297538488E+03  0.48824675790E+03  0.12699999809E+01 0. -1.
       -4    1    3    3    0  502  0.18093817525E+03 -0.16351294817E+03  0.25352548367E+03  0.35178387009E+03  0.12699999809E+01 0.  1.
</event>
<event>
 5   0  0.2719671E-02  0.5001298E+03  0.7818609E-02  0.1013745E+00
       -1   -1    0    0    0  501  0.00000000000E+00  0.00000000000E+00  0.87504455596E+02  0.87504455741E+02  0.50400001928E-02 0.  1.
        1   -1    0    0  501    0  0.00000000000E+00  0.00000000000E+00 -0.71462016049E+03  0.71462016051E+03  0.50400001928E-02 0. -1.
    10030    2    1    2    0    0  0.00000000000E+00  0.00000000000E+00 -0.62711570490E+03  0.80212461625E+03  0.50012977583E+03 0.  0.
        2    1    3    3  502    0 -0.18588424325E+01  0.47643931845E+02  0.80146547434E+02  0.93257003002E+02  0.25500000920E-02 0.  1.
       -2    1    3    3    0  502  0.18588424325E+01 -0.47643931845E+02 -0.70726225233E+03  0.70886761325E+03  0.25500000920E-02 0. -1.
</event>
<event>
 5   0  0.1805500E-02  0.4998270E+03  0.7818609E-02  0.1013824E+00
        3   -1    0    0  501    0  0.00000000000E+00  0.00000000000E+00  0.32172938777E+03  0.32172940362E+03  0.10100000352E+00 0.  1.
       -3   -1    0    0    0  501  0.00000000000E+00  0.00000000000E+00 -0.19412817420E+03  0.19412820047E+03  0.10100000352E+00 0. -1.
    10030    2    1    2    0    0  0.00000000000E+00  0.00000000000E+00  0.12760121357E+03  0.51585760409E+03  0.49982696806E+03 0.  0.
        1    1    3    3  502    0 -0.12545117795E+03  0.97781706113E+02 -0.13514453270E+03  0.20871824272E+03  0.50400001928E-02 0. -1.
       -1    1    3    3    0  502  0.12545117795E+03 -0.97781706113E+02  0.26274574627E+03  0.30713936138E+03  0.50400001928E-02 0.  1.
</event>
<event>
 5   0  0.2779445E-02  0.5001586E+03  0.7818609E-02  0.1013738E+00
       -1   -1    0    0    0  501  0.00000000000E+00  0.00000000000E+00  0.34831921724E+03  0.34831921727E+03  0.50400001928E-02 0.  1.
        1   -1    0    0  501    0  0.00000000000E+00  0.00000000000E+00 -0.17954692622E+03  0.17954692630E+03  0.50400001928E-02 0. -1.
    10030    2    1    2    0    0  0.00000000000E+00  0.00000000000E+00  0.16877229101E+03  0.52786614357E+03  0.50015855417E+03 0.  0.
        3    1    3    3  502    0 -0.22265070196E+03  0.10660360529E+03  0.12662804276E+03  0.27743888545E+03  0.10100000352E+00 0. -1.
       -3    1    3    3    0  502  0.22265070196E+03 -0.10660360529E+03  0.42144248256E+02  0.25042725812E+03  0.10100000352E+00 0.  1.
</event>
<event>
 5   0  0.4409622E-02  0.5004868E+03  0.7818609E-02  0.1013652E+00
       -2   -1    0    0    0  501  0.00000000000E+00  0.00000000000E+00  0.43261401144E+03  0.43261401145E+03  0.25500000920E-02 0.  1.
        2   -1    0    0  501    0  0.00000000000E+00  0.00000000000E+00 -0.14475204879E+03  0.14475204881E+03  0.25500000920E-02 0. -1.
    10030    2    1    2    0    0  0.00000000000E+00  0.00000000000E+00  0.28786196265E+03  0.57736606026E+03  0.50048682100E+03 0.  0.
        3    1    3    3  502    0  0.34799231420E+02 -0.23442890376E+03  0.51254770310E+02  0.24247671869E+03  0.10100000352E+00 0. -1.
       -3    1    3    3    0  502 -0.34799231420E+02  0.23442890376E+03  0.23660719234E+03  0.33488934157E+03  0.10100000352E+00 0.  1.
</event>
<event>
 5   0  0.2719671E-02  0.5000851E+03  0.7818609E-02  0.1013757E+00
       -1   -1    0    0    0  501  0.00000000000E+00  0.00000000000E+00  0.40730246308E+03  0.40730246311E+03  0.50400001928E-02 0.  1.
        1   -1    0    0  501    0  0.00000000000E+00  0.00000000000E+00 -0.15350085074E+03  0.15350085082E+03  0.50400001928E-02 0. -1.
    10030    2    1    2    0    0  0.00000000000E+00  0.00000000000E+00  0.25380161234E+03  0.56080331393E+03  0.50008509125E+03 0.  0.
        2    1    3    3  502    0  0.13853840090E+03  0.10938801216E+03 -0.71696353058E+02  0.19052294554E+03  0.25500000920E-02 0. -1.
       -2    1    3    3    0  502 -0.13853840090E+03 -0.10938801216E+03  0.32549796540E+03  0.37028036839E+03  0.25500000920E-02 0.  1.
</event>
<event>
 5   0  0.4451135E-02  0.5005470E+03  0.7818609E-02  0.1013636E+00
        2   -1    0    0  501    0  0.00000000000E+00  0.00000000000E+00  0.10841806272E+04  0.10841806272E+04  0.25500000920E-02 0.  1.
       -2   -1    0    0    0  501  0.00000000000E+00  0.00000000000E+00 -0.57773416503E+02  0.57773416559E+02  0.25500000920E-02 0. -1.
    10030    2    1    2    0    0  0.00000000000E+00  0.00000000000E+00  0.10264072107E+04  0.11419540438E+04  0.50054697671E+03 0.  0.
        1    1    3    3  502    0 -0.16744043949E+03 -0.14018831650E+03  0.79213137642E+03  0.82168192289E+03  0.50400001928E-02 0.  1.
       -1    1    3    3    0  502  0.16744043949E+03  0.14018831650E+03  0.23427583427E+03  0.32027212087E+03  0.50400001928E-02 0. -1.
</event>
<event>
 5   0  0.1805500E-02  0.4996364E+03  0.7818609E-02  0.1013874E+00
       -3   -1    0    0    0  501  0.00000000000E+00  0.00000000000E+00  0.10427305388E+03  0.10427310279E+03  0.10100000352E+00 0. -1.
        3   -1    0    0  501    0  0.00000000000E+00  0.00000000000E+00 -0.59851610678E+03  0.59851611530E+03  0.10100000352E+00 0.  1.
    10030    2    1    2    0    0  0.00000000000E+00  0.00000000000E+00 -0.49424305290E+03  0.70278921810E+03  0.49963635750E+03 0.  0.
        3    1    3    3  502    0  0.12088728830E+03  0.17147397972E+03 -0.56362047958E+02  0.21724123192E+03  0.10100000352E+00 0. -1.
       -3    1    3    3    0  502 -0.12088728830E+03 -0.17147397972E+03 -0.43788100494E+03  0.48554798618E+03  0.10100000352E+00 0.  1.
</event>
<event>
 5   0  0.4409622E-02  0.4996889E+03  0.7818609E-02  0.1013860E+00
       -2   -1    0    0    0  501  0.00000000000E+00  0.00000000000E+00  0.22247595409E+02  0.22247595555E+02  0.25500000920E-02 0.  1.
        2   -1    0    0  501    0  0.00000000000E+00  0.00000000000E+00 -0.28057980267E+04  0.28057980267E+04  0.25500000920E-02 0. -1.
    10030    2    1    2    0    0  0.00000000000E+00  0.00000000000E+00 -0.27835504313E+04  0.28280456223E+04  0.49968894126E+03 0.  0.
        3    1    3    3  502    0 -0.14363669249E+03 -0.17681479284E+03 -0.19724657379E+04  0.19855770113E+04  0.10100000352E+00 0. -1.
       -3    1    3    3    0  502  0.14363669249E+03  0.17681479284E+03 -0.81108469339E+03  0.84246861096E+03  0.10100000352E+00 0.  1.
</event>
<event>
 5   0  0.2643185E-02  0.5003924E+03  0.7818609E-02  0.1013677E+00
       -1   -1    0    0    0  501  0.00000000000E+00  0.00000000000E+00  0.45984282495E+02  0.45984282771E+02  0.50400001928E-02 0.  1.
        1   -1    0    0  501    0  0.00000000000E+00  0.00000000000E+00 -0.13612941234E+04  0.13612941234E+04  0.50400001928E-02 0. -1.
    10030    2    1    2    0    0  0.00000000000E+00  0.00000000000E+00 -0.13153098409E+04  0.14072784062E+04  0.50039238095E+03 0.  0.
        1    1    3    3  502    0 -0.57079835641E+02 -0.21327239830E+03 -0.32662199445E+03  0.39423996600E+03  0.50400001928E-02 0. -1.
       -1    1    3    3    0  502  0.57079835641E+02  0.21327239830E+03 -0.98868784643E+03  0.10130384402E+04  0.50400001928E-02 0.  1.
</event>
<event>
 5   0  0.2643185E-02  0.4993476E+03  0.7818609E-02  0.1013949E+00
       -1   -1    0    0    0  501  0.00000000000E+00  0.00000000000E+00  0.57774644710E+02  0.57774644930E+02  0.50400001928E-02 0.  1.
        1   -1    0    0  501    0  0.00000000000E+00  0.00000000000E+00 -0.10789684217E+04  0.10789684217E+04  0.50400001928E-02 0. -1.
    10030    2    1    2    0    0  0.00000000000E+00  0.00000000000E+00 -0.10211937770E+04  0.11367430667E+04  0.49934764383E+03 0.  0.
        1    1    3    3  502    0 -0.13364165457E+03 -0.20912754585E+03 -0.57263168119E+03  0.62410052443E+03  0.50400001928E-02 0. -1.
       -1    1    3    3    0  502  0.13364165457E+03  0.20912754585E+03 -0.44856209582E+03  0.51264254222E+03  0.50400001928E-02 0.  1.
</event>
<event>
 5   0  0.4451135E-02  0.4972640E+03  0.7818609E-02  0.1014496E+00
        2   -1    0    0  501    0  0.00000000000E+00  0.00000000000E+00  0.31220194863E+03  0.31220194864E+03  0.25500000920E-02 0. -1.
       -2   -1    0    0    0  501  0.00000000000E+00  0.00000000000E+00 -0.19800600718E+03  0.19800600720E+03  0.25500000920E-02 0.  1.
    10030    2    1    2    0    0  0.00000000000E+00  0.00000000000E+00  0.11419594145E+03  0.51020795584E+03  0.49726395924E+03 0.  0.
        1    1    3    3  502    0 -0.15494676142E+03 -0.17564756697E+03  0.14267957827E+03  0.27425905406E+03  0.50400001928E-02 0. -1.
       -1    1    3    3    0  502  0.15494676142E+03  0.17564756697E+03 -0.28483636822E+02  0.23594890177E+03  0.50400001928E-02 0.  1.
</event>
<event>
 5   0  0.1805500E-02  0.5002583E+03  0.7818609E-02  0.1013712E+00
       -4   -1    0    0    0  501  0.00000000000E+00  0.00000000000E+00  0.22529457481E+03  0.22529815432E+03  0.12699999809E+01 0.  1.
        4   -1    0    0  501    0  0.00000000000E+00  0.00000000000E+00 -0.27769409170E+03  0.27769699578E+03  0.12699999809E+01 0. -1.
    10030    2    1    2    0    0  0.00000000000E+00  0.00000000000E+00 -0.52399516883E+02  0.50299515009E+03  0.50025834491E+03 0.  0.
        5    1    3    3  502    0 -0.84664521278E+02 -0.14609926302E+02 -0.26234839880E+03  0.27609835831E+03  0.46999998093E+01 0. -1.
       -5    1    3    3    0  502  0.84664521278E+02  0.14609926302E+02  0.20994888191E+03  0.22689679179E+03  0.46999998093E+01 0.  1.
</event>
<event>
 5   0  0.2643185E-02  0.5000588E+03  0.7818609E-02  0.1013764E+00
       -1   -1    0    0    0  501  0.00000000000E+00  0.00000000000E+00  0.12346484040E+03  0.12346484050E+03  0.50400001928E-02 0.  1.
        1   -1    0    0  501    0  0.00000000000E+00  0.00000000000E+00 -0.50633614873E+03  0.50633614876E+03  0.50400001928E-02 0. -1.
    10030    2    1    2    0    0  0.00000000000E+00  0.00000000000E+00 -0.38287130833E+03  0.62980098926E+03  0.50005884386E+03 0.  0.
        1    1    3    3  502    0  0.13662922370E+03  0.10653195227E+03  0.35608999292E+02  0.17687453881E+03  0.50400001928E-02 0.  1.
       -1    1    3    3    0  502 -0.13662922370E+03 -0.10653195227E+03 -0.41848030762E+03  0.45292645045E+03  0.50400001928E-02 0. -1.
</event>
<event>
 5   0  0.4409622E-02  0.5001504E+03  0.7818609E-02  0.1013740E+00
        2   -1    0    0  501    0  0.00000000000E+00  0.00000000000E+00  0.15247501695E+03  0.15247501697E+03  0.25500000920E-02 0. -1.
       -2   -1    0    0    0  501  0.00000000000E+00  0.00000000000E+00 -0.41014991369E+03  0.41014991369E+03  0.25500000920E-02 0.  1.
    10030    2    1    2    0    0  0.00000000000E+00  0.00000000000E+00 -0.25767489674E+03  0.56262493066E+03  0.50015043756E+03 0.  0.
        3    1    3    3  502    0  0.21300889562E+03 -0.12416484292E+03 -0.17586771948E+03  0.30285171749E+03  0.10100000352E+00 0.  1.
       -3    1    3    3    0  502 -0.21300889562E+03  0.12416484292E+03 -0.81807177260E+02  0.25977321317E+03  0.10100000352E+00 0. -1.
</event>
<event>
 5   0  0.2723308E-02  0.5148515E+03  0.7818609E-02  0.1009974E+00
       -1   -1    0    0    0  501  0.00000000000E+00  0.00000000000E+00  0.45196832533E+02  0.45196832814E+02  0.50400001928E-02 0. -1.
        1   -1    0    0  501    0  0.00000000000E+00  0.00000000000E+00 -0.14662090464E+04  0.14662090464E+04  0.50400001928E-02 0.  1.
    10030    2    1    2    0    0  0.00000000000E+00  0.00000000000E+00 -0.14210122139E+04  0.15114058793E+04  0.51485145411E+03 0.  0.
        4    1    3    3  502    0  0.23711696013E+03 -0.74845121284E+02 -0.51489304904E+03  0.57178904310E+03  0.12699999809E+01 0.  1.
       -4    1    3    3    0  502 -0.23711696013E+03  0.74845121284E+02 -0.90611916486E+03  0.93961683616E+03  0.12699999809E+01 0. -1.
</event>
<event>
 5   0  0.2723308E-02  0.4990237E+03  0.7818609E-02  0.1014034E+00
       -1   -1    0    0    0  501  0.00000000000E+00  0.00000000000E+00  0.66053215121E+02  0.66053215313E+02  0.50400001928E-02 0.  1.
        1   -1    0    0  501    0  0.00000000000E+00  0.00000000000E+00 -0.94251537435E+03  0.94251537436E+03  0.50400001928E-02 0. -1.
    10030    2    1    2    0    0  0.00000000000E+00  0.00000000000E+00 -0.87646215923E+03  0.10085685897E+04  0.49902373042E+03 0.  0.
        4    1    3    3  502    0  0.84728283985E+02 -0.18775187951E+03 -0.72280154638E+03  0.75158056037E+03  0.12699999809E+01 0. -1.
       -4    1    3    3    0  502 -0.84728283985E+02  0.18775187951E+03 -0.15366061285E+03  0.25698802931E+03  0.12699999809E+01 0.  1.
</event>
<event>
 5   0  0.2723308E-02  0.5004353E+03  0.7818609E-02  0.1013665E+00
       -1   -1    0    0    0  501  0.00000000000E+00  0.00000000000E+00  0.15713833966E+03  0.15713833974E+03  0.50400001928E-02 0. -1.
        1   -1    0    0  501    0  0.00000000000E+00  0.00000000000E+00 -0.39843148175E+03  0.39843148178E+03  0.50400001928E-02 0.  1.
    10030    2    1    2    0    0  0.00000000000E+00  0.00000000000E+00 -0.24129314208E+03  0.55556982152E+03  0.50043525672E+03 0.  0.
        4    1    3    3  502    0  0.24723929512E+03  0.28118160124E+02 -0.91498473334E+02  0.26512541089E+03  0.12699999809E+01 0.  1.
       -4    1    3    3    0  502 -0.24723929512E+03 -0.28118160124E+02 -0.14979466875E+03  0.29044441063E+03  0.12699999809E+01 0. -1.
</event>
<event>
 5   0  0.4534223E-02  0.5017341E+03  0.7818609E-02  0.1013327E+00
       -2   -1    0    0    0  501  0.00000000000E+00  0.00000000000E+00  0.14558821370E+03  0.14558821372E+03  0.25500000920E-02 0.  1.
        2   -1    0    0  501    0  0.00000000000E+00  0.00000000000E+00 -0.43227582732E+03  0.43227582732E+03  0.25500000920E-02 0. -1.
    10030    2    1    2    0    0  0.00000000000E+00  0.00000000000E+00 -0.28668761361E+03  0.57786404105E+03  0.50173405519E+03 0.  0.
        2    1    3    3  502    0 -0.24539209544E+03  0.24933520250E+02 -0.19606383972E+03  0.31508727393E+03  0.25500000920E-02 0. -1.
       -2    1    3    3    0  502  0.24539209544E+03 -0.24933520250E+02 -0.90623773891E+02  0.26277676712E+03  0.25500000920E-02 0.  1.
</event>
<event>
 5   0  0.4519539E-02  0.5007745E+03  0.7818609E-02  0.1013577E+00
       -2   -1    0    0    0  501  0.00000000000E+00  0.00000000000E+00  0.10667387776E+03  0.10667387779E+03  0.25500000920E-02 0.  1.
        2   -1    0    0  501    0  0.00000000000E+00  0.00000000000E+00 -0.58771448645E+03  0.58771448646E+03  0.25500000920E-02 0. -1.
    10030    2    1    2    0    0  0.00000000000E+00  0.00000000000E+00 -0.48104060869E+03  0.69438836425E+03  0.50077453329E+03 0.  0.
        4    1    3    3  502    0  0.20144092739E+03  0.11459371388E+03 -0.10910473531E+03  0.25615546579E+03  0.12699999809E+01 0.  1.
       -4    1    3    3    0  502 -0.20144092739E+03 -0.11459371388E+03 -0.37193587338E+03  0.43823289846E+03  0.12699999809E+01 0. -1.
</event>
<event>
 5   0  0.4409622E-02  0.4816269E+03  0.7818609E-02  0.1018689E+00
        2   -1    0    0  501    0  0.00000000000E+00  0.00000000000E+00  0.57647243738E+03  0.57647243739E+03  0.25500000920E-02 0.  1.
       -2   -1    0    0    0  501  0.00000000000E+00  0.00000000000E+00 -0.10059649827E+03  0.10059649830E+03  0.25500000920E-02 0. -1.
    10030    2    1    2    0    0  0.00000000000E+00  0.00000000000E+00  0.47587593911E+03  0.67706893569E+03  0.48162686205E+03 0.  0.
        3    1    3    3  502    0  0.19715523950E+03  0.13751456092E+03  0.21753428863E+03  0.32419379984E+03  0.10100000352E+00 0.  1.
       -3    1    3    3    0  502 -0.19715523950E+03 -0.13751456092E+03  0.25834165049E+03  0.35287513585E+03  0.10100000352E+00 0. -1.
</event>
<event>
 5   0  0.2779445E-02  0.4902224E+03  0.7818609E-02  0.1016363E+00
        1   -1    0    0  501    0  0.00000000000E+00  0.00000000000E+00  0.29178955573E+03  0.29178955577E+03  0.50400001928E-02 0. -1.
       -1   -1    0    0    0  501  0.00000000000E+00  0.00000000000E+00 -0.20590011418E+03  0.20590011424E+03  0.50400001928E-02 0.  1.
    10030    2    1    2    0    0  0.00000000000E+00  0.00000000000E+00  0.85889441544E+02  0.49768967001E+03  0.49022241021E+03 0.  0.
        3    1    3    3  502    0 -0.18633135248E+03  0.32824601981E+02 -0.11525788855E+03  0.22154281412E+03  0.10100000352E+00 0.  1.
       -3    1    3    3    0  502  0.18633135248E+03 -0.32824601981E+02  0.20114733010E+03  0.27614685589E+03  0.10100000352E+00 0. -1.
</event>
<event>
 5   0  0.4631619E-02  0.4962599E+03  0.7818609E-02  0.1014760E+00
       -2   -1    0    0    0  501  0.00000000000E+00  0.00000000000E+00  0.22014983865E+03  0.22014983866E+03  0.25500000920E-02 0. -1.
        2   -1    0    0  501    0  0.00000000000E+00  0.00000000000E+00 -0.27966626226E+03  0.27966626228E+03  0.25500000920E-02 0.  1.
    10030    2    1    2    0    0  0.00000000000E+00  0.00000000000E+00 -0.59516423615E+02  0.49981610094E+03  0.49625994204E+03 0.  0.
        5    1    3    3  502    0  0.31597100715E+02 -0.23050456080E+03 -0.11648954460E+03  0.26023572645E+03  0.46999998093E+01 0.  1.
       -5    1    3    3    0  502 -0.31597100715E+02  0.23050456080E+03  0.56973120980E+02  0.23958037448E+03  0.46999998093E+01 0. -1.
</event>
<event>
 5   0  0.1805500E-02  0.5001410E+03  0.7818609E-02  0.1013742E+00
        3   -1    0    0  501    0  0.00000000000E+00  0.00000000000E+00  0.65882871641E+03  0.65882872415E+03  0.10100000352E+00 0.  1.
       -3   -1    0    0    0  501  0.00000000000E+00  0.00000000000E+00 -0.94918811118E+02  0.94918864853E+02  0.10100000352E+00 0. -1.
    10030    2    1    2    0    0  0.00000000000E+00  0.00000000000E+00  0.56390990529E+03  0.75374758901E+03  0.50014102676E+03 0.  0.
        4    1    3    3  502    0 -0.50835894424E+02 -0.15707989424E+03  0.56500850654E+03  0.58863792496E+03  0.12699999809E+01 0.  1.
       -4    1    3    3    0  502  0.50835894424E+02  0.15707989424E+03 -0.10986012476E+01  0.16510966405E+03  0.12699999809E+01 0. -1.
</event>
<event>
 5   0  0.1805500E-02  0.5012833E+03  0.7818609E-02  0.1013444E+00
        3   -1    0    0  501    0  0.00000000000E+00  0.00000000000E+00  0.53503941212E+03  0.53503942165E+03  0.10100000352E+00 0. -1.
       -3   -1    0    0    0  501  0.00000000000E+00  0.00000000000E+00 -0.11741419495E+03  0.11741423839E+03  0.10100000352E+00 0.  1.
    10030    2    1    2    0    0  0.00000000000E+00  0.00000000000E+00  0.41762521717E+03  0.65245366004E+03  0.50128330960E+03 0.  0.
        5    1    3    3  502    0  0.92579726732E+02 -0.22166574376E+03  0.30169415670E+03  0.38567883264E+03  0.46999998093E+01 0. -1.
       -5    1    3    3    0  502 -0.92579726732E+02  0.22166574376E+03  0.11593106046E+03  0.26677482740E+03  0.46999998093E+01 0.  1.
</event>
<event>
 5   0  0.4534223E-02  0.5002738E+03  0.7818609E-02  0.1013707E+00
        2   -1    0    0  501    0  0.00000000000E+00  0.00000000000E+00  0.12592157947E+04  0.12592157947E+04  0.25500000920E-02 0.  1.
       -2   -1    0    0    0  501  0.00000000000E+00  0.00000000000E+00 -0.49688434749E+02  0.49688434814E+02  0.25500000920E-02 0. -1.
    10030    2    1    2    0    0  0.00000000000E+00  0.00000000000E+00  0.12095273599E+04  0.13089042295E+04  0.50027377262E+03 0.  0.
        2    1    3    3  502    0 -0.13479477675E+03 -0.19316194562E+03  0.38450130183E+03  0.45091287428E+03  0.25500000920E-02 0. -1.
       -2    1    3    3    0  502  0.13479477675E+03  0.19316194562E+03  0.82502605810E+03  0.85799135521E+03  0.25500000920E-02 0.  1.
</event>
<event>
 5   0  0.2779445E-02  0.4996891E+03  0.7818609E-02  0.1013860E+00
       -1   -1    0    0    0  501  0.00000000000E+00  0.00000000000E+00  0.76743001340E+02  0.76743001506E+02  0.50400001928E-02 0.  1.
        1   -1    0    0  501    0  0.00000000000E+00  0.00000000000E+00 -0.81339403762E+03  0.81339403764E+03  0.50400001928E-02 0. -1.
    10030    2    1    2    0    0  0.00000000000E+00  0.00000000000E+00 -0.73665103628E+03  0.89013703914E+03  0.49968910254E+03 0.  0.
        3    1    3    3  502    0  0.23073865651E+02  0.15620747385E+02  0.73966414216E+02  0.79040822731E+02  0.10100000352E+00 0.  1.
       -3    1    3    3    0  502 -0.23073865651E+02 -0.15620747385E+02 -0.81061745050E+03  0.81109621641E+03  0.10100000352E+00 0. -1.
</event>
<event>
 5   0  0.4631619E-02  0.4971190E+03  0.7818609E-02  0.1014534E+00
       -2   -1    0    0    0  501  0.00000000000E+00  0.00000000000E+00  0.91755662059E+02  0.91755662094E+02  0.25500000920E-02 0.  1.
        2   -1    0    0  501    0  0.00000000000E+00  0.00000000000E+00 -0.67332981607E+03  0.67332981608E+03  0.25500000920E-02 0. -1.
    10030    2    1    2    0    0  0.00000000000E+00  0.00000000000E+00 -0.58157415401E+03  0.76508547817E+03  0.49711899209E+03 0.  0.
        5    1    3    3  502    0 -0.23822382213E+03  0.64944510290E+02 -0.24749234394E+03  0.34963256307E+03  0.46999998093E+01 0.  1.
       -5    1    3    3    0  502  0.23822382213E+03 -0.64944510290E+02 -0.33408181007E+03  0.41545291510E+03  0.46999998093E+01 0. -1.
</event>
<event>
 5   0  0.2715483E-02  0.5006688E+03  0.7818609E-02  0.1013605E+00
        1   -1    0    0  501    0  0.00000000000E+00  0.00000000000E+00  0.27402884946E+03  0.27402884950E+03  0.50400001928E-02 0. -1.
       -1   -1    0    0    0  501  0.00000000000E+00  0.00000000000E+00 -0.22868870515E+03  0.22868870520E+03  0.50400001928E-02 0.  1.
    10030    2    1    2    0    0  0.00000000000E+00  0.00000000000E+00  0.45340144309E+02  0.50271755470E+03  0.50066876388E+03 0.  0.
        5    1    3    3  502    0  0.13387598576E+03 -0.88105240738E+02  0.21570635503E+03  0.26876873816E+03  0.46999998093E+01 0. -1.
       -5    1    3    3    0  502 -0.13387598576E+03  0.88105240738E+02 -0.17036621073E+03  0.23394881655E+03  0.46999998093E+01 0.  1.
</event>
<event>
 5   0  0.4631619E-02  0.5006879E+03  0.7818609E-02  0.1013600E+00
        2   -1    0    0  501    0  0.00000000000E+00  0.00000000000E+00  0.45794097946E+03  0.45794097947E+03  0.25500000920E-02 0. -1.
       -2   -1    0    0    0  501  0.00000000000E+00  0.00000000000E+00 -0.13685628526E+03  0.13685628529E+03  0.25500000920E-02 0.  1.
    10030    2    1    2    0    0  0.00000000000E+00  0.00000000000E+00  0.32108469420E+03  0.59479726475E+03  0.50068793206E+03 0.  0.
        5    1    3    3  502    0 -0.25516500199E+02  0.24355851610E+02 -0.13383624553E+03  0.13848656940E+03  0.46999998093E+01 0.  1.
       -5    1    3    3    0  502  0.25516500199E+02 -0.24355851610E+02  0.45492093973E+03  0.45631069535E+03  0.46999998093E+01 0. -1.
</event>
<event>
 5   0  0.4451135E-02  0.5028759E+03  0.7818609E-02  0.1013031E+00
        2   -1    0    0  501    0  0.00000000000E+00  0.00000000000E+00  0.77382023320E+03  0.77382023320E+03  0.25500000920E-02 0.  1.
       -2   -1    0    0    0  501  0.00000000000E+00  0.00000000000E+00 -0.81699896099E+02  0.81699896138E+02  0.25500000920E-02 0. -1.
    10030    2    1    2    0    0  0.00000000000E+00  0.00000000000E+00  0.69212033710E+03  0.85552012934E+03  0.50287586011E+03 0.  0.
        1    1    3    3  502    0  0.11000354263E+03  0.70516289017E+02  0.71152408478E+03  0.72342231763E+03  0.50400001928E-02 0.  1.
       -1    1    3    3    0  502 -0.11000354263E+03 -0.70516289017E+02 -0.19403747677E+02  0.13209781171E+03  0.50400001928E-02 0. -1.
</event>
<event>
 5   0  0.4519539E-02  0.4988243E+03  0.7818609E-02  0.1014086E+00
       -2   -1    0    0    0  501  0.00000000000E+00  0.00000000000E+00  0.84339244478E+02  0.84339244517E+02  0.25500000920E-02 0.  1.
        2   -1    0    0  501    0  0.00000000000E+00  0.00000000000E+00 -0.73757395105E+03  0.73757395106E+03  0.25500000920E-02 0. -1.
    10030    2    1    2    0    0  0.00000000000E+00  0.00000000000E+00 -0.65323470657E+03  0.82191319557E+03  0.49882433700E+03 0.  0.
        4    1    3    3  502    0 -0.46003883987E+02 -0.88593781114E+02 -0.70321555913E+03  0.71026681670E+03  0.12699999809E+01 0. -1.
       -4    1    3    3    0  502  0.46003883987E+02  0.88593781114E+02  0.49980852558E+02  0.11164637888E+03  0.12699999809E+01 0.  1.
</event>
<event>
 5   0  0.2779445E-02  0.5007859E+03  0.7818609E-02  0.1013574E+00
        1   -1    0    0  501    0  0.00000000000E+00  0.00000000000E+00  0.14632720232E+03  0.14632720241E+03  0.50400001928E-02 0. -1.
       -1   -1    0    0    0  501  0.00000000000E+00  0.00000000000E+00 -0.42846871067E+03  0.42846871070E+03  0.50400001928E-02 0.  1.
    10030    2    1    2    0    0  0.00000000000E+00  0.00000000000E+00 -0.28214150835E+03  0.57479591311E+03  0.50078589336E+03 0.  0.
        3    1    3    3  502    0  0.28699598002E+02 -0.14812632922E+03 -0.37043177939E+03  0.39998098670E+03  0.10100000352E+00 0.  1.
       -3    1    3    3    0  502 -0.28699598002E+02  0.14812632922E+03  0.88290271046E+02  0.17481492641E+03  0.10100000352E+00 0. -1.
</event>
<event>
 5   0  0.2723308E-02  0.5014884E+03  0.7818609E-02  0.1013391E+00
       -1   -1    0    0    0  501  0.00000000000E+00  0.00000000000E+00  0.21292956881E+03  0.21292956887E+03  0.50400001928E-02 0. -1.
        1   -1    0    0  501    0  0.00000000000E+00  0.00000000000E+00 -0.29527444735E+03  0.29527444740E+03  0.50400001928E-02 0.  1.
    10030    2    1    2    0    0  0.00000000000E+00  0.00000000000E+00 -0.82344878542E+02  0.50820401627E+03  0.50148842771E+03 0.  0.
        4    1    3    3  502    0  0.80886142664E+02 -0.20385469992E+03 -0.16433905863E+03  0.27405883647E+03  0.12699999809E+01 0.  1.
       -4    1    3    3    0  502 -0.80886142664E+02  0.20385469992E+03  0.81994180092E+02  0.23414517980E+03  0.12699999809E+01 0. -1.
</event>
<event>
 5   0  0.4451135E-02  0.5015632E+03  0.7818609E-02  0.1013372E+00
       -2   -1    0    0    0  501  0.00000000000E+00  0.00000000000E+00  0.45185750052E+02  0.45185750124E+02  0.25500000920E-02 0. -1.
        2   -1    0    0  501    0  0.00000000000E+00  0.00000000000E+00 -0.13918416291E+04  0.13918416291E+04  0.25500000920E-02 0.  1.
    10030    2    1    2    0    0  0.00000000000E+00  0.00000000000E+00 -0.13466558791E+04  0.14370273793E+04  0.50156318852E+03 0.  0.
        1    1    3    3  502    0 -0.14622412385E+03 -0.13758699551E+03 -0.11038533427E+04  0.11219642944E+04  0.50400001928E-02 0.  1.
       -1    1    3    3    0  502  0.14622412385E+03  0.13758699551E+03 -0.24280253637E+03  0.31506308483E+03  0.50400001928E-02 0. -1.
</event>
<event>
 5   0  0.2723308E-02  0.5016442E+03  0.7818609E-02  0.1013351E+00
       -1   -1    0    0    0  501  0.00000000000E+00  0.00000000000E+00  0.33550083476E+02  0.33550083854E+02  0.50400001928E-02 0.  1.
        1   -1    0    0  501    0  0.00000000000E+00  0.00000000000E+00 -0.18751588927E+04  0.18751588928E+04  0.50400001928E-02 0. -1.
    10030    2    1    2    0    0  0.00000000000E+00  0.00000000000E+00 -0.18416088093E+04  0.19087089766E+04  0.50164424745E+03 0.  0.
        4    1    3    3  502    0 -0.17775073057E+03 -0.17434147166E+03 -0.80540506998E+03  0.84301198722E+03  0.12699999809E+01 0.  1.
       -4    1    3    3    0  502  0.17775073057E+03  0.17434147166E+03 -0.10362037393E+04  0.10656969894E+04  0.12699999809E+01 0. -1.
</event>
<event>
 5   0  0.4519539E-02  0.5045403E+03  0.7818609E-02  0.1012601E+00
       -2   -1    0    0    0  501  0.00000000000E+00  0.00000000000E+00  0.66458518333E+02  0.66458518382E+02  0.25500000920E-02 0. -1.
        2   -1    0    0  501    0  0.00000000000E+00  0.00000000000E+00 -0.95759339939E+03  0.95759339939E+03  0.25500000920E-02 0.  1.
    10030    2    1    2    0    0  0.00000000000E+00  0.00000000000E+00 -0.89113488105E+03  0.10240519178E+04  0.50454033938E+03 0.  0.
        4    1    3    3  502    0 -0.12489984581E+03 -0.20321962976E+03 -0.27893096101E+03  0.36701809671E+03  0.12699999809E+01 0. -1.
       -4    1    3    3    0  502  0.12489984581E+03  0.20321962976E+03 -0.61220392004E+03  0.65703382106E+03  0.12699999809E+01 0.  1.
</event>
<event>
 5   0  0.4631619E-02  0.4972689E+03  0.7818609E-02  0.1014494E+00
       -2   -1    0    0    0  501  0.00000000000E+00  0.00000000000E+00  0.28302443252E+03  0.28302443253E+03  0.25500000920E-02 0. -1.
        2   -1    0    0  501    0  0.00000000000E+00  0.00000000000E+00 -0.21842319721E+03  0.21842319723E+03  0.25500000920E-02 0.  1.
    10030    2    1    2    0    0  0.00000000000E+00  0.00000000000E+00  0.64601235311E+02  0.50144762976E+03  0.49726894714E+03 0.  0.
        5    1    3    3  502    0  0.11873565876E+03  0.73044024896E+02  0.23985398154E+03  0.27746280596E+03  0.46999998093E+01 0. -1.
       -5    1    3    3    0  502 -0.11873565876E+03 -0.73044024896E+02 -0.17525274622E+03  0.22398482380E+03  0.46999998093E+01 0.  1.
</event>
<event>
 5   0  0.4631619E-02  0.4922477E+03  0.7818609E-02  0.1015822E+00
        2   -1    0    0  501    0  0.00000000000E+00  0.00000000000E+00  0.53225807240E+03  0.53225807241E+03  0.25500000920E-02 0. -1.
       -2   -1    0    0    0  501  0.00000000000E+00  0.00000000000E+00 -0.11381124546E+03  0.11381124549E+03  0.25500000920E-02 0.  1.
    10030    2    1    2    0    0  0.00000000000E+00  0.00000000000E+00  0.41844682694E+03  0.64606931789E+03  0.49224771868E+03 0.  0.
        5    1    3    3  502    0 -0.14880833128E+03  0.36785491740E+02 -0.43435752813E+02  0.15939211549E+03  0.46999998093E+01 0.  1.
       -5    1    3    3    0  502  0.14880833128E+03 -0.36785491740E+02  0.46188257976E+03  0.48667720240E+03  0.46999998093E+01 0. -1.
</event>
<event>
 5   0  0.2719671E-02  0.5086130E+03  0.7818609E-02  0.1011555E+00
       -1   -1    0    0    0  501  0.00000000000E+00  0.00000000000E+00  0.43523676927E+03  0.43523676930E+03  0.50400001928E-02 0.  1.
        1   -1    0    0  501    0  0.00000000000E+00  0.00000000000E+00 -0.14858993870E+03  0.14858993879E+03  0.50400001928E-02 0. -1.
    10030    2    1    2    0    0  0.00000000000E+00  0.00000000000E+00  0.28664683056E+03  0.58382670808E+03  0.50861303522E+03 0.  0.
        2    1    3    3  502    0  0.14899863948E+03 -0.46034484264E+02  0.37390743264E+03  0.40512533431E+03  0.25500000920E-02 0.  1.
       -2    1    3    3    0  502 -0.14899863948E+03  0.46034484264E+02 -0.87260602071E+02  0.17870137378E+03  0.25500000920E-02 0. -1.
</event>
<event>
 5   0  0.2719671E-02  0.4961370E+03  0.7818609E-02  0.1014792E+00
        1   -1    0    0  501    0  0.00000000000E+00  0.00000000000E+00  0.70710714600E+03  0.70710714602E+03  0.50400001928E-02 0.  1.
       -1   -1    0    0    0  501  0.00000000000E+00  0.00000000000E+00 -0.87027811373E+02  0.87027811519E+02  0.50400001928E-02 0. -1.
    10030    2    1    2    0    0  0.00000000000E+00  0.00000000000E+00  0.62007933463E+03  0.79413495754E+03  0.49613702699E+03 0.  0.
        2    1    3    3  502    0  0.12321308869E+03  0.52891867326E+02  0.64410506006E+03  0.65791362902E+03  0.25500000920E-02 0.  1.
       -2    1    3    3    0  502 -0.12321308869E+03 -0.52891867326E+02 -0.24025725430E+02  0.13622132852E+03  0.25500000920E-02 0. -1.
</event>
<event>
 5   0  0.1805500E-02  0.4998593E+03  0.7818609E-02  0.1013816E+00
       -3   -1    0    0    0  501  0.00000000000E+00  0.00000000000E+00  0.24183286192E+03  0.24183288301E+03  0.10100000352E+00 0.  1.
        3   -1    0    0  501    0  0.00000000000E+00  0.00000000000E+00 -0.25829746133E+03  0.25829748108E+03  0.10100000352E+00 0. -1.
    10030    2    1    2    0    0  0.00000000000E+00  0.00000000000E+00 -0.16464599414E+02  0.50013036409E+03  0.49985927825E+03 0.  0.
        2    1    3    3  502    0  0.15602870268E+03 -0.38825747797E+02  0.18321521828E+03  0.24376261192E+03  0.25500000920E-02 0.  1.
       -2    1    3    3    0  502 -0.15602870268E+03  0.38825747797E+02 -0.19967981770E+03  0.25636775217E+03  0.25500000920E-02 0. -1.
</event>
<event>
 5   0  0.2643185E-02  0.5014105E+03  0.7818609E-02  0.1013411E+00
       -1   -1    0    0    0  501  0.00000000000E+00  0.00000000000E+00  0.99256740845E+03  0.99256740846E+03  0.50400001928E-02 0. -1.
        1   -1    0    0  501    0  0.00000000000E+00  0.00000000000E+00 -0.63323775561E+02  0.63323775761E+02  0.50400001928E-02 0.  1.
    10030    2    1    2    0    0  0.00000000000E+00  0.00000000000E+00  0.92924363289E+03  0.10558911842E+04  0.50141047422E+03 0.  0.
        1    1    3    3  502    0 -0.21071253245E+03  0.37818494332E+02  0.73937653795E+03  0.76974520118E+03  0.50400001928E-02 0. -1.
       -1    1    3    3    0  502  0.21071253245E+03 -0.37818494332E+02  0.18986709494E+03  0.28614598304E+03  0.50400001928E-02 0.  1.
</event>
<event>
 5   0  0.4631619E-02  0.5004064E+03  0.7818609E-02  0.1013673E+00
       -2   -1    0    0    0  501  0.00000000000E+00  0.00000000000E+00  0.57867173414E+02  0.57867173470E+02  0.25500000920E-02 0.  1.
        2   -1    0    0  501    0  0.00000000000E+00  0.00000000000E+00 -0.10818160136E+04  0.10818160136E+04  0.25500000920E-02 0. -1.
    10030    2    1    2    0    0  0.00000000000E+00  0.00000000000E+00 -0.10239488402E+04  0.11396831871E+04  0.50040637443E+03 0.  0.
        5    1    3    3  502    0 -0.51475131052E+02  0.17623595252E+03 -0.89895600789E+03  0.91752536433E+03  0.46999998093E+01 0. -1.
       -5    1    3    3    0  502  0.51475131052E+02 -0.17623595252E+03 -0.12499283228E+03  0.22215782272E+03  0.46999998093E+01 0.  1.
</event>
<event>
 5   0  0.4451135E-02  0.4995378E+03  0.7818609E-02  0.1013900E+00
        2   -1    0    0  501    0  0.00000000000E+00  0.00000000000E+00  0.37991027301E+03  0.37991027302E+03  0.25500000920E-02 0.  1.
       -2   -1    0    0    0  501  0.00000000000E+00  0.00000000000E+00 -0.16420850545E+03  0.16420850547E+03  0.25500000920E-02 0. -1.
    10030    2    1    2    0    0  0.00000000000E+00  0.00000000000E+00  0.21570176756E+03  0.54411877848E+03  0.49953777892E+03 0.  0.
        1    1    3    3  502    0 -0.13583377849E+03  0.20701500695E+03  0.72080027438E+02  0.25787896165E+03  0.50400001928E-02 0.  1.
       -1    1    3    3    0  502  0.13583377849E+03 -0.20701500695E+03  0.14362174012E+03  0.28623981683E+03  0.50400001928E-02 0. -1.
</event>
<event>
 5   0  0.4451135E-02  0.5000856E+03  0.7818609E-02  0.1013757E+00
        2   -1    0    0  501    0  0.00000000000E+00  0.00000000000E+00  0.11863728456E+04  0.11863728456E+04  0.25500000920E-02 0. -1.
       -2   -1    0    0    0  501  0.00000000000E+00  0.00000000000E+00 -0.52699613647E+02  0.52699613709E+02  0.25500000920E-02 0.  1.
    10030    2    1    2    0    0  0.00000000000E+00  0.00000000000E+00  0.11336732320E+04  0.12390724593E+04  0.50008555526E+03 0.  0.
        1    1    3    3  502    0  0.77028637618E+02 -0.23035132857E+03  0.41970410813E+03  0.48491925513E+03  0.50400001928E-02 0. -1.
       -1    1    3    3    0  502 -0.77028637618E+02  0.23035132857E+03  0.71396912384E+03  0.75415320420E+03  0.50400001928E-02 0.  1.
</event>
<event>
 5   0  0.4451135E-02  0.4980306E+03  0.7818609E-02  0.1014294E+00
       -2   -1    0    0    0  501  0.00000000000E+00  0.00000000000E+00  0.31973769209E+02  0.31973769310E+02  0.25500000920E-02 0.  1.
        2   -1    0    0  501    0  0.00000000000E+00  0.00000000000E+00 -0.19393593895E+04  0.19393593895E+04  0.25500000920E-02 0. -1.
    10030    2    1    2    0    0  0.00000000000E+00  0.00000000000E+00 -0.19073856203E+04  0.19713331588E+04  0.49803064016E+03 0.  0.
        1    1    3    3  502    0 -0.18659631216E+03  0.41186335860E+02 -0.32168262609E+03  0.37415800129E+03  0.50400001928E-02 0.  1.
       -1    1    3    3    0  502  0.18659631216E+03 -0.41186335860E+02 -0.15857029942E+04  0.15971751575E+04  0.50400001928E-02 0. -1.
</event>
<event>
 5   0  0.2719671E-02  0.5075392E+03  0.7818609E-02  0.1011830E+00
        1   -1    0    0  501    0  0.00000000000E+00  0.00000000000E+00  0.24610248189E+03  0.24610248194E+03  0.50400001928E-02 0. -1.
       -1   -1    0    0    0  501  0.00000000000E+00  0.00000000000E+00 -0.26167554152E+03  0.26167554157E+03  0.50400001928E-02 0.  1.
    10030    2    1    2    0    0  0.00000000000E+00  0.00000000000E+00 -0.15573059625E+02  0.50777802351E+03  0.50753916201E+03 0.  0.
        2    1    3    3  502    0 -0.20533328250E+03 -0.14116084313E+03  0.40307496004E+02  0.25241401462E+03  0.25500000920E-02 0. -1.
       -2    1    3    3    0  502  0.20533328250E+03  0.14116084313E+03 -0.55880555630E+02  0.25536400889E+03  0.25500000920E-02 0.  1.
</event>
<event>
 5   0  0.2715483E-02  0.4999119E+03  0.7818609E-02  0.1013802E+00
       -1   -1    0    0    0  501  0.00000000000E+00  0.00000000000E+00  0.47227260585E+02  0.47227260854E+02  0.50400001928E-02 0.  1.
        1   -1    0    0  501    0  0.00000000000E+00  0.00000000000E+00 -0.13229218743E+04  0.13229218743E+04  0.50400001928E-02 0. -1.
    10030    2    1    2    0    0  0.00000000000E+00  0.00000000000E+00 -0.12756946137E+04  0.13701491351E+04  0.49991189736E+03 0.  0.
        5    1    3    3  502    0 -0.12328231536E+03 -0.21715716336E+03 -0.66527202457E+03  0.71060869651E+03  0.46999998093E+01 0. -1.
       -5    1    3    3    0  502  0.12328231536E+03  0.21715716336E+03 -0.61042258910E+03  0.65954043861E+03  0.46999998093E+01 0.  1.
</event>
<event>
 5   0  0.4631619E-02  0.4996534E+03  0.7818609E-02  0.1013869E+00
        2   -1    0    0  501    0  0.00000000000E+00  0.00000000000E+00  0.57453383153E+03  0.57453383153E+03  0.25500000920E-02 0.  1.
       -2   -1    0    0    0  501  0.00000000000E+00  0.00000000000E+00 -0.10863308569E+03  0.10863308572E+03  0.25500000920E-02 0. -1.
    10030    2    1    2    0    0  0.00000000000E+00  0.00000000000E+00  0.46590074584E+03  0.68316691726E+03  0.49965341174E+03 0.  0.
        5    1    3    3  502    0 -0.17273253805E+03 -0.10328539413E+03  0.43522900306E+03  0.47953183152E+03  0.46999998093E+01 0.  1.
       -5    1    3    3    0  502  0.17273253805E+03  0.10328539413E+03  0.30671742778E+02  0.20363508574E+03  0.46999998093E+01 0. -1.
</event>
<event>
 5   0  0.2723308E-02  0.4973819E+03  0.7818609E-02  0.1014465E+00
        1   -1    0    0  501    0  0.00000000000E+00  0.00000000000E+00  0.12975907094E+03  0.12975907104E+03  0.50400001928E-02 0. -1.
       -1   -1    0    0    0  501  0.00000000000E+00  0.00000000000E+00 -0.47663091485E+03  0.47663091488E+03  0.50400001928E-02 0.  1.
    10030    2    1    2    0    0  0.00000000000E+00  0.00000000000E+00 -0.34687184391E+03  0.60638998592E+03  0.49738188440E+03 0.  0.
        4    1    3    3  502    0 -0.72891104846E+02  0.22316243380E+02 -0.46203144561E+03  0.46827961467E+03  0.12699999809E+01 0.  1.
       -4    1    3    3    0  502  0.72891104846E+02 -0.22316243380E+02  0.11515960170E+03  0.13811037125E+03  0.12699999809E+01 0. -1.
</event>
<event>
 5   0  0.4534223E-02  0.4999785E+03  0.7818609E-02  0.1013785E+00
        2   -1    0    0  501    0  0.00000000000E+00  0.00000000000E+00  0.11644067555E+03  0.11644067558E+03  0.25500000920E-02 0.  1.
       -2   -1    0    0    0  501  0.00000000000E+00  0.00000000000E+00 -0.53670779427E+03  0.53670779428E+03  0.25500000920E-02 0. -1.
    10030    2    1    2    0    0  0.00000000000E+00  0.00000000000E+00 -0.42026711872E+03  0.65314846986E+03  0.49997847213E+03 0.  0.
        2    1    3    3  502    0 -0.13498114913E+03  0.15215404392E+03 -0.39999955534E+03  0.44874314254E+03  0.25500000920E-02 0. -1.
       -2    1    3    3    0  502  0.13498114913E+03 -0.15215404392E+03 -0.20267563381E+02  0.20440532731E+03  0.25500000920E-02 0.  1.
</event>
<event>
 5   0  0.2643185E-02  0.4995173E+03  0.7818609E-02  0.1013905E+00
        1   -1    0    0  501    0  0.00000000000E+00  0.00000000000E+00  0.43240130114E+03  0.43240130117E+03  0.50400001928E-02 0. -1.
       -1   -1    0    0    0  501  0.00000000000E+00  0.00000000000E+00 -0.14426269451E+03  0.14426269460E+03  0.50400001928E-02 0.  1.
    10030    2    1    2    0    0  0.00000000000E+00  0.00000000000E+00  0.28813860663E+03  0.57666399577E+03  0.49951727437E+03 0.  0.
        1    1    3    3  502    0 -0.12988809785E+03  0.20584309245E+03  0.79409387836E+02  0.25602372463E+03  0.50400001928E-02 0.  1.
       -1    1    3    3    0  502  0.12988809785E+03 -0.20584309245E+03  0.20872921880E+03  0.32064027114E+03  0.50400001928E-02 0. -1.
</event>
<event>
 5   0  0.4409622E-02  0.4995293E+03  0.7818609E-02  0.1013902E+00
       -2   -1    0    0    0  501  0.00000000000E+00  0.00000000000E+00  0.28665404929E+03  0.28665404930E+03  0.25500000920E-02 0.  1.
        2   -1    0    0  501    0  0.00000000000E+00  0.00000000000E+00 -0.21762254661E+03  0.21762254662E+03  0.25500000920E-02 0. -1.
    10030    2    1    2    0    0  0.00000000000E+00  0.00000000000E+00  0.69031502676E+02  0.50427659592E+03  0.49952931529E+03 0.  0.
        3    1    3    3  502    0  0.16846715914E+03  0.42037753314E+02 -0.14672883844E+03  0.22732733809E+03  0.10100000352E+00 0. -1.
       -3    1    3    3    0  502 -0.16846715914E+03 -0.42037753314E+02  0.21576034112E+03  0.27694925783E+03  0.10100000352E+00 0.  1.
</event>
<event>
 5   0  0.4631619E-02  0.5011710E+03  0.7818609E-02  0.1013474E+00
       -2   -1    0    0    0  501  0.00000000000E+00  0.00000000000E+00  0.97491323391E+02  0.97491323425E+02  0.25500000920E-02 0. -1.
        2   -1    0    0  501    0  0.00000000000E+00  0.00000000000E+00 -0.64408915388E+03  0.64408915389E+03  0.25500000920E-02 0.  1.
    10030    2    1    2    0    0  0.00000000000E+00  0.00000000000E+00 -0.54659783049E+03  0.74158047731E+03  0.50117104469E+03 0.  0.
        5    1    3    3  502    0  0.17796004183E+03  0.17306786895E+03 -0.22314727665E+03  0.33382489546E+03  0.46999998093E+01 0.  1.
       -5    1    3    3    0  502 -0.17796004183E+03 -0.17306786895E+03 -0.32345055385E+03  0.40775558186E+03  0.46999998093E+01 0. -1.
</event>
<event>
 5   0  0.2643185E-02  0.5001088E+03  0.7818609E-02  0.1013751E+00
       -1   -1    0    0    0  501  0.00000000000E+00  0.00000000000E+00  0.77304453084E+02  0.77304453248E+02  0.50400001928E-02 0.  1.
        1   -1    0    0  501    0  0.00000000000E+00  0.00000000000E+00 -0.80884346986E+03  0.80884346988E+03  0.50400001928E-02 0. -1.
    10030    2    1    2    0    0  0.00000000000E+00  0.00000000000E+00 -0.73153901678E+03  0.88614792313E+03  0.50010879675E+03 0.  0.
        1    1    3    3  502    0 -0.41682868123E+02  0.20623823491E+03 -0.12636133883E+03  0.24543605891E+03  0.50400001928E-02 0. -1.
       -1    1    3    3    0  502  0.41682868123E+02 -0.20623823491E+03 -0.60517767795E+03  0.64071186422E+03  0.50400001928E-02 0.  1.
</event>
<event>
 5   0  0.2723308E-02  0.4990334E+03  0.7818609E-02  0.1014032E+00
        1   -1    0    0  501    0  0.00000000000E+00  0.00000000000E+00  0.68973666374E+03  0.68973666375E+03  0.50400001928E-02 0.  1.
       -1   -1    0    0    0  501  0.00000000000E+00  0.00000000000E+00 -0.90264297990E+02  0.90264298131E+02  0.50400001928E-02 0. -1.
    10030    2    1    2    0    0  0.00000000000E+00  0.00000000000E+00  0.59947236575E+03  0.78000096188E+03  0.49903344903E+03 0.  0.
        4    1    3    3  502    0  0.26375867469E+02  0.15877037052E+03  0.17218176848E+01  0.16096053708E+03  0.12699999809E+01 0. -1.
       -4    1    3    3    0  502 -0.26375867469E+02 -0.15877037052E+03  0.59775054806E+03  0.61904042481E+03  0.12699999809E+01 0.  1.
</event>
<event>
 5   0  0.2715483E-02  0.5013835E+03  0.7818609E-02  0.1013418E+00
        1   -1    0    0  501    0  0.00000000000E+00  0.00000000000E+00  0.10771564623E+04  0.10771564623E+04  0.50400001928E-02 0.  1.
       -1   -1    0    0    0  501  0.00000000000E+00  0.00000000000E+00 -0.58344676206E+02  0.58344676424E+02  0.50400001928E-02 0. -1.
    10030    2    1    2    0    0  0.00000000000E+00  0.00000000000E+00  0.10188117861E+04  0.11355011387E+04  0.50138346660E+03 0.  0.
        5    1    3    3  502    0 -0.24423645376E+03  0.47117637200E+02  0.57931026269E+03  0.63047124244E+03  0.46999998093E+01 0.  1.
       -5    1    3    3    0  502  0.24423645376E+03 -0.47117637200E+02  0.43950152337E+03  0.50502989627E+03  0.46999998093E+01 0. -1.
</event>
<event>
 5   0  0.2715483E-02  0.4863150E+03  0.7818609E-02  0.1017414E+00
       -1   -1    0    0    0  501  0.00000000000E+00  0.00000000000E+00  0.82197614421E+02  0.82197614575E+02  0.50400001928E-02 0. -1.
        1   -1    0    0  501    0  0.00000000000E+00  0.00000000000E+00 -0.71931013529E+03  0.71931013531E+03  0.50400001928E-02 0.  1.
    10030    2    1    2    0    0  0.00000000000E+00  0.00000000000E+00 -0.63711252087E+03  0.80150774989E+03  0.48631503048E+03 0.  0.
        5    1    3    3  502    0 -0.16914993593E+03  0.20958519221E+02 -0.32842912268E+02  0.17364246956E+03  0.46999998093E+01 0. -1.
       -5    1    3    3    0  502  0.16914993593E+03 -0.20958519221E+02 -0.60426960860E+03  0.62786528032E+03  0.46999998093E+01 0.  1.
</event>
<event>
 5   0  0.4631619E-02  0.4997110E+03  0.7818609E-02  0.1013854E+00
       -2   -1    0    0    0  501  0.00000000000E+00  0.00000000000E+00  0.34712796392E+02  0.34712796486E+02  0.25500000920E-02 0. -1.
        2   -1    0    0  501    0  0.00000000000E+00  0.00000000000E+00 -0.17984083170E+04  0.17984083170E+04  0.25500000920E-02 0.  1.
    10030    2    1    2    0    0  0.00000000000E+00  0.00000000000E+00 -0.17636955206E+04  0.18331211135E+04  0.49971104381E+03 0.  0.
        5    1    3    3  502    0 -0.48356269858E+01  0.25944181316E+02 -0.17931180229E+04  0.17933183816E+04  0.46999998093E+01 0.  1.
       -5    1    3    3    0  502  0.48356269858E+01 -0.25944181316E+02  0.29422502232E+02  0.39802731920E+02  0.46999998093E+01 0. -1.
</event>
<event>
 5   0  0.4631619E-02  0.5025297E+03  0.7818609E-02  0.1013121E+00
        2   -1    0    0  501    0  0.00000000000E+00  0.00000000000E+00  0.12900499159E+04  0.12900499159E+04  0.25500000920E-02 0. -1.
       -2   -1    0    0    0  501  0.00000000000E+00  0.00000000000E+00 -0.48939218839E+02  0.48939218906E+02  0.25500000920E-02 0.  1.
    10030    2    1    2    0    0  0.00000000000E+00  0.00000000000E+00  0.12411106970E+04  0.13389891348E+04  0.50252974118E+03 0.  0.
        5    1    3    3  502    0  0.38425031641E+02  0.24686530892E+03  0.69069701334E+03  0.73450896390E+03  0.46999998093E+01 0. -1.
       -5    1    3    3    0  502 -0.38425031641E+02 -0.24686530892E+03  0.55041368369E+03  0.60448017089E+03  0.46999998093E+01 0.  1.
</event>
<event>
 5   0  0.4409622E-02  0.5006983E+03  0.7818609E-02  0.1013597E+00
        2   -1    0    0  501    0  0.00000000000E+00  0.00000000000E+00  0.15655558144E+04  0.15655558144E+04  0.25500000920E-02 0. -1.
       -2   -1    0    0    0  501  0.00000000000E+00  0.00000000000E+00 -0.40033508819E+02  0.40033508900E+02  0.25500000920E-02 0.  1.
    10030    2    1    2    0    0  0.00000000000E+00  0.00000000000E+00  0.15255223056E+04  0.16055893233E+04  0.50069828268E+03 0.  0.
        3    1    3    3  502    0  0.50687148745E+02 -0.13009774713E+03  0.96414764149E+02  0.16967742279E+03  0.10100000352E+00 0.  1.
       -3    1    3    3    0  502 -0.50687148745E+02  0.13009774713E+03  0.14291075414E+04  0.14359119005E+04  0.10100000352E+00 0. -1.
</event>
<event>
 5   0  0.4631619E-02  0.4959551E+03  0.7818609E-02  0.1014840E+00
       -2   -1    0    0    0  501  0.00000000000E+00  0.00000000000E+00  0.91977764342E+03  0.91977764342E+03  0.25500000920E-02 0.  1.
        2   -1    0    0  501    0  0.00000000000E+00  0.00000000000E+00 -0.66856219976E+02  0.66856220025E+02  0.25500000920E-02 0. -1.
    10030    2    1    2    0    0  0.00000000000E+00  0.00000000000E+00  0.85292142344E+03  0.98663386345E+03  0.49595506443E+03 0.  0.
        5    1    3    3  502    0 -0.15060619994E+03  0.15279181000E+03  0.17924141793E+03  0.27960175350E+03  0.46999998093E+01 0. -1.
       -5    1    3    3    0  502  0.15060619994E+03 -0.15279181000E+03  0.67368000551E+03  0.70703210994E+03  0.46999998093E+01 0.  1.
</event>
<event>
 5   0  0.2719671E-02  0.4989867E+03  0.7818609E-02  0.1014044E+00
       -1   -1    0    0    0  501  0.00000000000E+00  0.00000000000E+00  0.20865505253E+03  0.20865505259E+03  0.50400001928E-02 0. -1.
        1   -1    0    0  501    0  0.00000000000E+00  0.00000000000E+00 -0.29832460765E+03  0.29832460769E+03  0.50400001928E-02 0.  1.
    10030    2    1    2    0    0  0.00000000000E+00  0.00000000000E+00 -0.89669555123E+02  0.50697966028E+03  0.49898672009E+03 0.  0.
        2    1    3    3  502    0  0.24582830227E+03 -0.19758504931E+02 -0.83188413377E+02  0.26027344244E+03  0.25500000920E-02 0. -1.
       -2    1    3    3    0  502 -0.24582830227E+03  0.19758504931E+02 -0.64811417462E+01  0.24670621784E+03  0.25500000920E-02 0.  1.
</event>
<event>
 5   0  0.4409622E-02  0.5048596E+03  0.7818609E-02  0.1012518E+00
       -2   -1    0    0    0  501  0.00000000000E+00  0.00000000000E+00  0.73104932847E+02  0.73104932891E+02  0.25500000920E-02 0. -1.
        2   -1    0    0  501    0  0.00000000000E+00  0.00000000000E+00 -0.87163487844E+03  0.87163487845E+03  0.25500000920E-02 0.  1.
    10030    2    1    2    0    0  0.00000000000E+00  0.00000000000E+00 -0.79852994560E+03  0.94473981134E+03  0.50485962120E+03 0.  0.
        3    1    3    3  502    0  0.10873336123E+03  0.26113075903E+02  0.24226089655E+02  0.11441918633E+03  0.10100000352E+00 0. -1.
       -3    1    3    3    0  502 -0.10873336123E+03 -0.26113075903E+02 -0.82275603525E+03  0.83032062501E+03  0.10100000352E+00 0.  1.
</event>
<event>
 5   0  0.4519539E-02  0.5003027E+03  0.7818609E-02  0.1013700E+00
       -2   -1    0    0    0  501  0.00000000000E+00  0.00000000000E+00  0.12819778895E+03  0.12819778898E+03  0.25500000920E-02 0. -1.
        2   -1    0    0  501    0  0.00000000000E+00  0.00000000000E+00 -0.48811838571E+03  0.48811838571E+03  0.25500000920E-02 0.  1.
    10030    2    1    2    0    0  0.00000000000E+00  0.00000000000E+00 -0.35992059676E+03  0.61631617469E+03  0.50030269959E+03 0.  0.
        4    1    3    3  502    0 -0.68200284278E+02 -0.23922962981E+03 -0.21236594842E+03  0.32708256374E+03  0.12699999809E+01 0. -1.
       -4    1    3    3    0  502  0.68200284278E+02  0.23922962981E+03 -0.14755464834E+03  0.28923361095E+03  0.12699999809E+01 0.  1.
</event>
<event>
 5   0  0.4409622E-02  0.5016047E+03  0.7818609E-02  0.1013361E+00
        2   -1    0    0  501    0  0.00000000000E+00  0.00000000000E+00  0.63367246123E+03  0.63367246124E+03  0.25500000920E-02 0.  1.
       -2   -1    0    0    0  501  0.00000000000E+00  0.00000000000E+00 -0.99265515473E+02  0.99265515506E+02  0.25500000920E-02 0. -1.
    10030    2    1    2    0    0  0.00000000000E+00  0.00000000000E+00  0.53440694576E+03  0.73293797674E+03  0.50160471895E+03 0.  0.
        3    1    3    3  502    0 -0.53314923089E+02 -0.35944512457E+02  0.62142387380E+03  0.62474165071E+03  0.10100000352E+00 0.  1.
       -3    1    3    3    0  502  0.53314923089E+02  0.35944512457E+02 -0.87016928043E+02  0.10819632603E+03  0.10100000352E+00 0. -1.
</event>
<event>
 5   0  0.1805500E-02  0.5003885E+03  0.7818609E-02  0.1013678E+00
       -4   -1    0    0    0  501  0.00000000000E+00  0.00000000000E+00  0.21511332932E+03  0.21511707824E+03  0.12699999809E+01 0.  1.
        4   -1    0    0  501    0  0.00000000000E+00  0.00000000000E+00 -0.29098849763E+03  0.29099126903E+03  0.12699999809E+01 0. -1.
    10030    2    1    2    0    0  0.00000000000E+00  0.00000000000E+00 -0.75875168312E+02  0.50610834727E+03  0.50038846711E+03 0.  0.
        3    1    3    3  502    0  0.94817640020E+01 -0.22766759979E+02  0.21388415932E+03  0.21530135396E+03  0.10100000352E+00 0.  1.
       -3    1    3    3    0  502 -0.94817640020E+01  0.22766759979E+02 -0.28975932763E+03  0.29080699331E+03  0.10100000352E+00 0. -1.
</event>
<event>
 5   0  0.4534223E-02  0.4985963E+03  0.7818609E-02  0.1014146E+00
        2   -1    0    0  501    0  0.00000000000E+00  0.00000000000E+00  0.91511290410E+02  0.91511290446E+02  0.25500000920E-02 0. -1.
       -2   -1    0    0    0  501  0.00000000000E+00  0.00000000000E+00 -0.67914645458E+03  0.67914645458E+03  0.25500000920E-02 0.  1.
    10030    2    1    2    0    0  0.00000000000E+00  0.00000000000E+00 -0.58763516417E+03  0.77065774503E+03  0.49859630344E+03 0.  0.
        2    1    3    3  502    0 -0.55577512379E+02  0.13346211462E+03  0.20100949974E+02  0.14596247503E+03  0.25500000920E-02 0. -1.
       -2    1    3    3    0  502  0.55577512379E+02 -0.13346211462E+03 -0.60773611414E+03  0.62469527000E+03  0.25500000920E-02 0.  1.
</event>
<event>
 5   0  0.2719671E-02  0.4939418E+03  0.7818609E-02  0.1015372E+00
        1   -1    0    0  501    0  0.00000000000E+00  0.00000000000E+00  0.11475248455E+04  0.11475248456E+04  0.50400001928E-02 0.  1.
       -1   -1    0    0    0  501  0.00000000000E+00  0.00000000000E+00 -0.53153198116E+02  0.53153198355E+02  0.50400001928E-02 0. -1.
    10030    2    1    2    0    0  0.00000000000E+00  0.00000000000E+00  0.10943716474E+04  0.12006780439E+04  0.49394176016E+03 0.  0.
        2    1    3    3  502    0 -0.36514912840E+02 -0.24359920443E+03  0.59071728467E+03  0.64001626673E+03  0.25500000920E-02 0.  1.
       -2    1    3    3    0  502  0.36514912840E+02  0.24359920443E+03  0.50365436275E+03  0.56066177718E+03  0.25500000920E-02 0. -1.
</event>
<event>
 5   0  0.2719671E-02  0.5013802E+03  0.7818609E-02  0.1013419E+00
        1   -1    0    0  501    0  0.00000000000E+00  0.00000000000E+00  0.40823547816E+03  0.40823547820E+03  0.50400001928E-02 0.  1.
       -1   -1    0    0    0  501  0.00000000000E+00  0.00000000000E+00 -0.15394432002E+03  0.15394432010E+03  0.50400001928E-02 0. -1.
    10030    2    1    2    0    0  0.00000000000E+00  0.00000000000E+00  0.25429115815E+03  0.56217979829E+03  0.50138022747E+03 0.  0.
        2    1    3    3  502    0 -0.70552781738E+02  0.23649788594E+03  0.77802453456E+02  0.25877049066E+03  0.25500000920E-02 0. -1.
       -2    1    3    3    0  502  0.70552781738E+02 -0.23649788594E+03  0.17648870469E+03  0.30340930763E+03  0.25500000920E-02 0.  1.
</event>
<event>
 5   0  0.1805500E-02  0.5017661E+03  0.7818609E-02  0.1013319E+00
        3   -1    0    0  501    0  0.00000000000E+00  0.00000000000E+00  0.11507094779E+03  0.11507099211E+03  0.10100000352E+00 0. -1.
       -3   -1    0    0    0  501  0.00000000000E+00  0.00000000000E+00 -0.54698687407E+03  0.54698688340E+03  0.10100000352E+00 0.  1.
    10030    2    1    2    0    0  0.00000000000E+00  0.00000000000E+00 -0.43191592629E+03  0.66205787551E+03  0.50176614388E+03 0.  0.
        5    1    3    3  502    0  0.12682843846E+03 -0.13665211526E+02 -0.50093592670E+03  0.51694398484E+03  0.46999998093E+01 0.  1.
       -5    1    3    3    0  502 -0.12682843846E+03  0.13665211526E+02  0.69020000412E+02  0.14511389066E+03  0.46999998093E+01 0. -1.
</event>
<event>
 5   0  0.4519539E-02  0.5045169E+03  0.7818609E-02  0.1012607E+00
       -2   -1    0    0    0  501  0.00000000000E+00  0.00000000000E+00  0.72030088805E+02  0.72030088850E+02  0.25500000920E-02 0. -1.
        2   -1    0    0  501    0  0.00000000000E+00  0.00000000000E+00 -0.88344081717E+03  0.88344081718E+03  0.25500000920E-02 0.  1.
    10030    2    1    2    0    0  0.00000000000E+00  0.00000000000E+00 -0.81141072837E+03  0.95547090603E+03  0.50451687995E+03 0.  0.
        4    1    3    3  502    0  0.30252504639E+02 -0.10206794076E+03 -0.83880824296E+03  0.84553767505E+03  0.12699999809E+01 0.  1.
       -4    1    3    3    0  502 -0.30252504639E+02  0.10206794076E+03  0.27397514593E+02  0.10993323098E+03  0.12699999809E+01 0. -1.
</event>
<event>
 5   0  0.1805500E-02  0.5001694E+03  0.7818609E-02  0.1013735E+00
        3   -1    0    0  501    0  0.00000000000E+00  0.00000000000E+00  0.24189514548E+03  0.24189516657E+03  0.10100000352E+00 0.  1.
       -3   -1    0    0    0  501  0.00000000000E+00  0.00000000000E+00 -0.25855152080E+03  0.25855154053E+03  0.10100000352E+00 0. -1.
    10030    2    1    2    0    0  0.00000000000E+00  0.00000000000E+00 -0.16656375320E+02  0.50044670710E+03  0.50016944310E+03 0.  0.
        3    1    3    3  502    0 -0.13112085868E+03 -0.20180862075E+03  0.59701846602E+02  0.24795910889E+03  0.10100000352E+00 0.  1.
       -3    1    3    3    0  502  0.13112085868E+03  0.20180862075E+03 -0.76358221923E+02  0.25248759821E+03  0.10100000352E+00 0. -1.
</event>
<event>
 5   0  0.2779445E-02  0.5009772E+03  0.7818609E-02  0.1013524E+00
       -1   -1    0    0    0  501  0.00000000000E+00  0.00000000000E+00  0.24492347962E+03  0.24492347967E+03  0.50400001928E-02 0.  1.
        1   -1    0    0  501    0  0.00000000000E+00  0.00000000000E+00 -0.25618018633E+03  0.25618018638E+03  0.50400001928E-02 0. -1.
    10030    2    1    2    0    0  0.00000000000E+00  0.00000000000E+00 -0.11256706708E+02  0.50110366604E+03  0.50097721573E+03 0.  0.
        3    1    3    3  502    0  0.13316932447E+03  0.20589580364E+03 -0.56801617771E+02  0.25170138045E+03  0.10100000352E+00 0.  1.
       -3    1    3    3    0  502 -0.13316932447E+03 -0.20589580364E+03  0.45544911063E+02  0.24940228560E+03  0.10100000352E+00 0. -1.
</event>
<event>
 5   0  0.1805500E-02  0.5028732E+03  0.7818609E-02  0.1013032E+00
       -4   -1    0    0    0  501  0.00000000000E+00  0.00000000000E+00  0.28108575767E+03  0.28108862671E+03  0.12699999809E+01 0.  1.
        4   -1    0    0  501    0  0.00000000000E+00  0.00000000000E+00 -0.22490907800E+03  0.22491266364E+03  0.12699999809E+01 0. -1.
    10030    2    1    2    0    0  0.00000000000E+00  0.00000000000E+00  0.56176679676E+02  0.50600129035E+03  0.50287323104E+03 0.  0.
        1    1    3    3  502    0 -0.13437780982E+03  0.20736305322E+03  0.74891542226E+02  0.25819677522E+03  0.50400001928E-02 0. -1.
       -1    1    3    3    0  502  0.13437780982E+03 -0.20736305322E+03 -0.18714862550E+02  0.24780451513E+03  0.50400001928E-02 0.  1.
</event>
<event>
 5   0  0.4409622E-02  0.5013194E+03  0.7818609E-02  0.1013435E+00
        2   -1    0    0  501    0  0.00000000000E+00  0.00000000000E+00  0.16188267793E+04  0.16188267793E+04  0.25500000920E-02 0.  1.
       -2   -1    0    0    0  501  0.00000000000E+00  0.00000000000E+00 -0.38812231697E+02  0.38812231781E+02  0.25500000920E-02 0. -1.
    10030    2    1    2    0    0  0.00000000000E+00  0.00000000000E+00  0.15800145476E+04  0.16576390111E+04  0.50131937967E+03 0.  0.
        3    1    3    3  502    0  0.16797116634E+03 -0.68763116097E+02  0.21836949716E+03  0.28395057025E+03  0.10100000352E+00 0. -1.
       -3    1    3    3    0  502 -0.16797116634E+03  0.68763116097E+02  0.13616450505E+04  0.13736884409E+04  0.10100000352E+00 0.  1.
</event>
<event>
 5   0  0.4409622E-02  0.5007097E+03  0.7818609E-02  0.1013594E+00
        2   -1    0    0  501    0  0.00000000000E+00  0.00000000000E+00  0.77752201339E+02  0.77752201381E+02  0.25500000920E-02 0.  1.
       -2   -1    0    0    0  501  0.00000000000E+00  0.00000000000E+00 -0.80611919001E+03  0.80611919002E+03  0.25500000920E-02 0. -1.
    10030    2    1    2    0    0  0.00000000000E+00  0.00000000000E+00 -0.72836698867E+03  0.88387139140E+03  0.50070966272E+03 0.  0.
        3    1    3    3  502    0 -0.19721481732E+03 -0.11462968970E+03 -0.18206539082E+03  0.29185864158E+03  0.10100000352E+00 0.  1.
       -3    1    3    3    0  502  0.19721481732E+03  0.11462968970E+03 -0.54630159785E+03  0.59201274982E+03  0.10100000352E+00 0. -1.
</event>
<event>
 5   0  0.4519539E-02  0.5004288E+03  0.7818609E-02  0.1013667E+00
       -2   -1    0    0    0  501  0.00000000000E+00  0.00000000000E+00  0.17249279241E+03  0.17249279243E+03  0.25500000920E-02 0.  1.
        2   -1    0    0  501    0  0.00000000000E+00  0.00000000000E+00 -0.36295573153E+03  0.36295573154E+03  0.25500000920E-02 0. -1.
    10030    2    1    2    0    0  0.00000000000E+00  0.00000000000E+00 -0.19046293912E+03  0.53544852397E+03  0.50042880677E+03 0.  0.
        4    1    3    3  502    0 -0.43080185460E+02 -0.39357331085E+02 -0.35557030974E+03  0.36032868323E+03  0.12699999809E+01 0. -1.
       -4    1    3    3    0  502  0.43080185460E+02  0.39357331085E+02  0.16510737062E+03  0.17511984075E+03  0.12699999809E+01 0.  1.
</event>
<event>
 5   0  0.2643185E-02  0.4992600E+03  0.7818609E-02  0.1013972E+00
        1   -1    0    0  501    0  0.00000000000E+00  0.00000000000E+00  0.29661579068E+03  0.29661579072E+03  0.50400001928E-02 0.  1.
       -1   -1    0    0    0  501  0.00000000000E+00  0.00000000000E+00 -0.21008708184E+03  0.21008708190E+03  0.50400001928E-02 0. -1.
    10030    2    1    2    0    0  0.00000000000E+00  0.00000000000E+00  0.86528708847E+02  0.50670287262E+03  0.49926003612E+03 0.  0.
        1    1    3    3  502    0  0.82448952226E+02 -0.13672490748E+03 -0.15149116664E+03  0.22009339755E+03  0.50400001928E-02 0. -1.
       -1    1    3    3    0  502 -0.82448952226E+02  0.13672490748E+03  0.23801987549E+03  0.28660947507E+03  0.50400001928E-02 0.  1.
</event>
<event>
 5   0  0.4519539E-02  0.5002598E+03  0.7818609E-02  0.1013711E+00
        2   -1    0    0  501    0  0.00000000000E+00  0.00000000000E+00  0.18621870720E+04  0.18621870720E+04  0.25500000920E-02 0. -1.
       -2   -1    0    0    0  501  0.00000000000E+00  0.00000000000E+00 -0.33597572091E+02  0.33597572188E+02  0.25500000920E-02 0.  1.
    10030    2    1    2    0    0  0.00000000000E+00  0.00000000000E+00  0.18285894999E+04  0.18957846442E+04  0.50025979048E+03 0.  0.
        4    1    3    3  502    0  0.15934430280E+01  0.11061784033E+03  0.64169013228E+02  0.12789886949E+03  0.12699999809E+01 0.  1.
       -4    1    3    3    0  502 -0.15934430280E+01 -0.11061784033E+03  0.17644204867E+04  0.17678857747E+04  0.12699999809E+01 0. -1.
</event>
<event>
 5   0  0.2643185E-02  0.5012178E+03  0.7818609E-02  0.1013462E+00
        1   -1    0    0  501    0  0.00000000000E+00  0.00000000000E+00  0.20668305868E+03  0.20668305874E+03  0.50400001928E-02 0. -1.
       -1   -1    0    0    0  501  0.00000000000E+00  0.00000000000E+00 -0.30387022373E+03  0.30387022377E+03  0.50400001928E-02 0.  1.
    10030    2    1    2    0    0  0.00000000000E+00  0.00000000000E+00 -0.97187165048E+02  0.51055328252E+03  0.50121782614E+03 0.  0.
        1    1    3    3  502    0 -0.44428561685E+02 -0.33238703946E+02 -0.29753474367E+03  0.30266422360E+03  0.50400001928E-02 0.  1.
       -1    1    3    3    0  502  0.44428561685E+02  0.33238703946E+02  0.20034757862E+03  0.20788905892E+03  0.50400001928E-02 0. -1.
</event>
<event>
 5   0  0.4409622E-02  0.5005331E+03  0.7818609E-02  0.1013640E+00
       -2   -1    0    0    0  501  0.00000000000E+00  0.00000000000E+00  0.47800227887E+02  0.47800227955E+02  0.25500000920E-02 0.  1.
        2   -1    0    0  501    0  0.00000000000E+00  0.00000000000E+00 -0.13103150527E+04  0.13103150527E+04  0.25500000920E-02 0. -1.
    10030    2    1    2    0    0  0.00000000000E+00  0.00000000000E+00 -0.12625148248E+04  0.13581152806E+04  0.50053314843E+03 0.  0.
        3    1    3    3  502    0  0.75938221478E+02 -0.23256537001E+03 -0.48819264780E+03  0.54606349116E+03  0.10100000352E+00 0. -1.
       -3    1    3    3    0  502 -0.75938221478E+02  0.23256537001E+03 -0.77432217699E+03  0.81205178948E+03  0.10100000352E+00 0.  1.
</event>
<event>
 5   0  0.4409622E-02  0.5004221E+03  0.7818609E-02  0.1013669E+00
        2   -1    0    0  501    0  0.00000000000E+00  0.00000000000E+00  0.38069759033E+03  0.38069759034E+03  0.25500000920E-02 0.  1.
       -2   -1    0    0    0  501  0.00000000000E+00  0.00000000000E+00 -0.16444959893E+03  0.16444959895E+03  0.25500000920E-02 0. -1.
    10030    2    1    2    0    0  0.00000000000E+00  0.00000000000E+00  0.21624799140E+03  0.54514718929E+03  0.50042208605E+03 0.  0.
        3    1    3    3  502    0  0.15322637731E+03 -0.97957282501E+02  0.29533045355E+03  0.34683431044E+03  0.10100000352E+00 0.  1.
       -3    1    3    3    0  502 -0.15322637731E+03  0.97957282501E+02 -0.79082462152E+02  0.19831287886E+03  0.10100000352E+00 0. -1.
</event>
<event>
 5   0  0.2723308E-02  0.5005796E+03  0.7818609E-02  0.1013628E+00
       -1   -1    0    0    0  501  0.00000000000E+00  0.00000000000E+00  0.13931901335E+03  0.13931901344E+03  0.50400001928E-02 0. -1.
        1   -1    0    0  501    0  0.00000000000E+00  0.00000000000E+00 -0.44965139272E+03  0.44965139275E+03  0.50400001928E-02 0.  1.
    10030    2    1    2    0    0  0.00000000000E+00  0.00000000000E+00 -0.31033237937E+03  0.58897040619E+03  0.50057961772E+03 0.  0.
        4    1    3    3  502    0  0.21476016362E+03  0.71957095091E+02 -0.28047921780E+03  0.36051346151E+03  0.12699999809E+01 0.  1.
       -4    1    3    3    0  502 -0.21476016362E+03 -0.71957095091E+02 -0.29853161565E+02  0.22845694467E+03  0.12699999809E+01 0. -1.
</event>
<event>
 5   0  0.2643185E-02  0.4961668E+03  0.7818609E-02  0.1014784E+00
        1   -1    0    0  501    0  0.00000000000E+00  0.00000000000E+00  0.91599617659E+03  0.91599617661E+03  0.50400001928E-02 0. -1.
       -1   -1    0    0    0  501  0.00000000000E+00  0.00000000000E+00 -0.67189562332E+02  0.67189562522E+02  0.50400001928E-02 0.  1.
    10030    2    1    2    0    0  0.00000000000E+00  0.00000000000E+00  0.84880661426E+03  0.98318573913E+03  0.49616683607E+03 0.  0.
        1    1    3    3  502    0 -0.16548332708E+03  0.13417113702E+03  0.17251279501E+03  0.27413006040E+03  0.50400001928E-02 0.  1.
       -1    1    3    3    0  502  0.16548332708E+03 -0.13417113702E+03  0.67629381925E+03  0.70905567873E+03  0.50400001928E-02 0. -1.
</event>
<event>
 5   0  0.4451135E-02  0.4993302E+03  0.7818609E-02  0.1013954E+00
       -2   -1    0    0    0  501  0.00000000000E+00  0.00000000000E+00  0.11704822945E+03  0.11704822948E+03  0.25500000920E-02 0. -1.
        2   -1    0    0  501    0  0.00000000000E+00  0.00000000000E+00 -0.53253837639E+03  0.53253837639E+03  0.25500000920E-02 0.  1.
    10030    2    1    2    0    0  0.00000000000E+00  0.00000000000E+00 -0.41549014694E+03  0.64958660587E+03  0.49933024776E+03 0.  0.
        1    1    3    3  502    0  0.21338598025E+03 -0.36836957357E+02 -0.36940518491E+03  0.42819473216E+03  0.50400001928E-02 0.  1.
       -1    1    3    3    0  502 -0.21338598025E+03  0.36836957357E+02 -0.46084962030E+02  0.22139187371E+03  0.50400001928E-02 0. -1.
</event>
<event>
 5   0  0.2719671E-02  0.4984831E+03  0.7818609E-02  0.1014176E+00
       -1   -1    0    0    0  501  0.00000000000E+00  0.00000000000E+00  0.63854257840E+03  0.63854257842E+03  0.50400001928E-02 0. -1.
        1   -1    0    0  501    0  0.00000000000E+00  0.00000000000E+00 -0.97286157537E+02  0.97286157667E+02  0.50400001928E-02 0.  1.
    10030    2    1    2    0    0  0.00000000000E+00  0.00000000000E+00  0.54125642086E+03  0.73582873608E+03  0.49848311478E+03 0.  0.
        2    1    3    3  502    0  0.15622429699E+03 -0.12563189871E+03  0.48923563394E+03  0.52871628542E+03  0.25500000920E-02 0.  1.
       -2    1    3    3    0  502 -0.15622429699E+03  0.12563189871E+03  0.52020786924E+02  0.20711245067E+03  0.25500000920E-02 0. -1.
</event>
<event>
 5   0  0.4631619E-02  0.4995640E+03  0.7818609E-02  0.1013893E+00
       -2   -1    0    0    0  501  0.00000000000E+00  0.00000000000E+00  0.11354400579E+03  0.11354400582E+03  0.25500000920E-02 0. -1.
        2   -1    0    0  501    0  0.00000000000E+00  0.00000000000E+00 -0.54948789782E+03  0.54948789782E+03  0.25500000920E-02 0.  1.
    10030    2    1    2    0    0  0.00000000000E+00  0.00000000000E+00 -0.43594389202E+03  0.66303190364E+03  0.49956403819E+03 0.  0.
        5    1    3    3  502    0  0.71454399371E+02  0.90097982128E+02  0.76257092808E+02  0.13806017447E+03  0.46999998093E+01 0. -1.
       -5    1    3    3    0  502 -0.71454399371E+02 -0.90097982128E+02 -0.51220098483E+03  0.52497172917E+03  0.46999998093E+01 0.  1.
</event>
<event>
 5   0  0.2719671E-02  0.5018140E+03  0.7818609E-02  0.1013307E+00
       -1   -1    0    0    0  501  0.00000000000E+00  0.00000000000E+00  0.30414269269E+03  0.30414269273E+03  0.50400001928E-02 0. -1.
        1   -1    0    0  501    0  0.00000000000E+00  0.00000000000E+00 -0.20698945730E+03  0.20698945736E+03  0.50400001928E-02 0.  1.
    10030    2    1    2    0    0  0.00000000000E+00  0.00000000000E+00  0.97153235394E+02  0.51113215009E+03  0.50181403300E+03 0.  0.
        2    1    3    3  502    0 -0.66249082390E+02 -0.15239238055E+03  0.24006201727E+03  0.29196258444E+03  0.25500000920E-02 0. -1.
       -2    1    3    3    0  502  0.66249082390E+02  0.15239238055E+03 -0.14290878188E+03  0.21916956566E+03  0.25500000920E-02 0.  1.
</event>
<event>
 5   0  0.2715483E-02  0.4997763E+03  0.7818609E-02  0.1013837E+00
       -1   -1    0    0    0  501  0.00000000000E+00  0.00000000000E+00  0.49236466056E+02  0.49236466314E+02  0.50400001928E-02 0.  1.
        1   -1    0    0  501    0  0.00000000000E+00  0.00000000000E+00 -0.12682485964E+04  0.12682485964E+04  0.50400001928E-02 0. -1.
    10030    2    1    2    0    0  0.00000000000E+00  0.00000000000E+00 -0.12190121304E+04  0.13174850628E+04  0.49977626653E+03 0.  0.
        5    1    3    3  502    0 -0.13293188263E+03  0.20348620265E+03 -0.76195825358E+03  0.79979996892E+03  0.46999998093E+01 0.  1.
       -5    1    3    3    0  502  0.13293188263E+03 -0.20348620265E+03 -0.45705387680E+03  0.51768509384E+03  0.46999998093E+01 0. -1.
</event>
<event>
 5   0  0.2643185E-02  0.5008217E+03  0.7818609E-02  0.1013565E+00
       -1   -1    0    0    0  501  0.00000000000E+00  0.00000000000E+00  0.66200959860E+03  0.66200959862E+03  0.50400001928E-02 0.  1.
        1   -1    0    0  501    0  0.00000000000E+00  0.00000000000E+00 -0.94720063255E+02  0.94720063389E+02  0.50400001928E-02 0. -1.
    10030    2    1    2    0    0  0.00000000000E+00  0.00000000000E+00  0.56728953534E+03  0.75672966201E+03  0.50082168928E+03 0.  0.
        1    1    3    3  502    0  0.58889358909E+02 -0.19035522741E+03  0.54481315890E+02  0.20657028586E+03  0.50400001928E-02 0. -1.
       -1    1    3    3    0  502 -0.58889358909E+02  0.19035522741E+03  0.51280821945E+03  0.55015937614E+03  0.50400001928E-02 0.  1.
</event>
<event>
 5   0  0.4631619E-02  0.4992996E+03  0.7818609E-02  0.1013962E+00
       -2   -1    0    0    0  501  0.00000000000E+00  0.00000000000E+00  0.91967921567E+02  0.91967921602E+02  0.25500000920E-02 0. -1.
        2   -1    0    0  501    0  0.00000000000E+00  0.00000000000E+00 -0.67768206913E+03  0.67768206913E+03  0.25500000920E-02 0.  1.
    10030    2    1    2    0    0  0.00000000000E+00  0.00000000000E+00 -0.58571414756E+03  0.76964999073E+03  0.49929955496E+03 0.  0.
        5    1    3    3  502    0 -0.13654596968E+03 -0.13312823118E+03 -0.44615130496E+02  0.19590948838E+03  0.46999998093E+01 0. -1.
       -5    1    3    3    0  502  0.13654596968E+03  0.13312823118E+03 -0.54109901707E+03  0.57374050235E+03  0.46999998093E+01 0.  1.
</event>
<event>
 5   0  0.2719671E-02  0.5042633E+03  0.7818609E-02  0.1012672E+00
       -1   -1    0    0    0  501  0.00000000000E+00  0.00000000000E+00  0.13483527376E+03  0.13483527385E+03  0.50400001928E-02 0.  1.
        1   -1    0    0  501    0  0.00000000000E+00  0.00000000000E+00 -0.47146698713E+03  0.47146698716E+03  0.50400001928E-02 0. -1.
    10030    2    1    2    0    0  0.00000000000E+00  0.00000000000E+00 -0.33663171338E+03  0.60630226101E+03  0.50426334514E+03 0.  0.
        2    1    3    3  502    0  0.65464788902E+02 -0.40731261728E+02  0.12031311166E+03  0.14289828239E+03  0.25500000920E-02 0.  1.
       -2    1    3    3    0  502 -0.65464788902E+02  0.40731261728E+02 -0.45694482503E+03  0.46340397862E+03  0.25500000920E-02 0. -1.
</event>
<event>
 5   0  0.2779445E-02  0.5029295E+03  0.7818609E-02  0.1013017E+00
        1   -1    0    0  501    0  0.00000000000E+00  0.00000000000E+00  0.75073559278E+03  0.75073559279E+03  0.50400001928E-02 0. -1.
       -1   -1    0    0    0  501  0.00000000000E+00  0.00000000000E+00 -0.84230068117E+02  0.84230068268E+02  0.50400001928E-02 0.  1.
    10030    2    1    2    0    0  0.00000000000E+00  0.00000000000E+00  0.66650552466E+03  0.83496566106E+03  0.50292945902E+03 0.  0.
        3    1    3    3  502    0 -0.11954326432E+03  0.13780019036E+03  0.45912612383E+02  0.18811555673E+03  0.10100000352E+00 0.  1.
       -3    1    3    3    0  502  0.11954326432E+03 -0.13780019036E+03  0.62059291228E+03  0.64685010433E+03  0.10100000352E+00 0. -1.
</event>
<event>
 5   0  0.4409622E-02  0.4976331E+03  0.7818609E-02  0.1014399E+00
       -2   -1    0    0    0  501  0.00000000000E+00  0.00000000000E+00  0.14274286514E+03  0.14274286516E+03  0.25500000920E-02 0. -1.
        2   -1    0    0  501    0  0.00000000000E+00  0.00000000000E+00 -0.43371465633E+03  0.43371465634E+03  0.25500000920E-02 0.  1.
    10030    2    1    2    0    0  0.00000000000E+00  0.00000000000E+00 -0.29097179119E+03  0.57645752150E+03  0.49763308856E+03 0.  0.
        3    1    3    3  502    0 -0.12973444576E+03  0.21162030739E+03 -0.12557351088E+03  0.27817781679E+03  0.10100000352E+00 0. -1.
       -3    1    3    3    0  502  0.12973444576E+03 -0.21162030739E+03 -0.16539828030E+03  0.29827970471E+03  0.10100000352E+00 0.  1.
</event>
<event>
 5   0  0.4631619E-02  0.5032615E+03  0.7818609E-02  0.1012931E+00
        2   -1    0    0  501    0  0.00000000000E+00  0.00000000000E+00  0.14726914613E+04  0.14726914614E+04  0.25500000920E-02 0.  1.
       -2   -1    0    0    0  501  0.00000000000E+00  0.00000000000E+00 -0.42994773858E+02  0.42994773933E+02  0.25500000920E-02 0. -1.
    10030    2    1    2    0    0  0.00000000000E+00  0.00000000000E+00  0.14296966875E+04  0.15156862353E+04  0.50326150817E+03 0.  0.
        5    1    3    3  502    0  0.21423729892E+03 -0.12164214009E+03  0.86846164944E+03  0.90274146744E+03  0.46999998093E+01 0.  1.
       -5    1    3    3    0  502 -0.21423729892E+03  0.12164214009E+03  0.56123503805E+03  0.61294476785E+03  0.46999998093E+01 0. -1.
</event>
<event>
 5   0  0.4451135E-02  0.4998685E+03  0.7818609E-02  0.1013813E+00
       -2   -1    0    0    0  501  0.00000000000E+00  0.00000000000E+00  0.29414531067E+03  0.29414531068E+03  0.25500000920E-02 0. -1.
        2   -1    0    0  501    0  0.00000000000E+00  0.00000000000E+00 -0.21236829243E+03  0.21236829244E+03  0.25500000920E-02 0.  1.
    10030    2    1    2    0    0  0.00000000000E+00  0.00000000000E+00  0.81777018239E+02  0.50651360312E+03  0.49986853215E+03 0.  0.
        1    1    3    3  502    0  0.32969547133E+02 -0.19290665797E+03  0.19841303918E+03  0.27868926041E+03  0.50400001928E-02 0. -1.
       -1    1    3    3    0  502 -0.32969547133E+02  0.19290665797E+03 -0.11663602094E+03  0.22782434271E+03  0.50400001928E-02 0.  1.
</event>
<event>
 5   0  0.2723308E-02  0.5029164E+03  0.7818609E-02  0.1013020E+00
        1   -1    0    0  501    0  0.00000000000E+00  0.00000000000E+00  0.12530807066E+04  0.12530807066E+04  0.50400001928E-02 0.  1.
       -1   -1    0    0    0  501  0.00000000000E+00  0.00000000000E+00 -0.50460624230E+02  0.50460624482E+02  0.50400001928E-02 0. -1.
    10030    2    1    2    0    0  0.00000000000E+00  0.00000000000E+00  0.12026200823E+04  0.13035413310E+04  0.50291643375E+03 0.  0.
        4    1    3    3  502    0  0.71941166627E+02 -0.64488276247E+02 -0.42407861672E+00  0.96623299321E+02  0.12699999809E+01 0. -1.
       -4    1    3    3    0  502 -0.71941166627E+02  0.64488276247E+02  0.12030441609E+04  0.12069180317E+04  0.12699999809E+01 0.  1.
</event>
<event>
 5   0  0.2779445E-02  0.5001461E+03  0.7818609E-02  0.1013741E+00
       -1   -1    0    0    0  501  0.00000000000E+00  0.00000000000E+00  0.24265470790E+03  0.24265470796E+03  0.50400001928E-02 0.  1.
        1   -1    0    0  501    0  0.00000000000E+00  0.00000000000E+00 -0.25771813607E+03  0.25771813612E+03  0.50400001928E-02 0. -1.
    10030    2    1    2    0    0  0.00000000000E+00  0.00000000000E+00 -0.15063428168E+02  0.50037284408E+03  0.50014605489E+03 0.  0.
        3    1    3    3  502    0 -0.17374698354E+02  0.24908362940E+03  0.63300467729E+01  0.24976912194E+03  0.10100000352E+00 0. -1.
       -3    1    3    3    0  502  0.17374698354E+02 -0.24908362940E+03 -0.21393474941E+02  0.25060372214E+03  0.10100000352E+00 0.  1.
</event>
<event>
 5   0  0.2643185E-02  0.4926827E+03  0.7818609E-02  0.1015707E+00
       -1   -1    0    0    0  501  0.00000000000E+00  0.00000000000E+00  0.12710020091E+03  0.12710020101E+03  0.50400001928E-02 0. -1.
        1   -1    0    0  501    0  0.00000000000E+00  0.00000000000E+00 -0.47745061833E+03  0.47745061836E+03  0.50400001928E-02 0.  1.
    10030    2    1    2    0    0  0.00000000000E+00  0.00000000000E+00 -0.35035041742E+03  0.60455081937E+03  0.49268273587E+03 0.  0.
        1    1    3    3  502    0 -0.61376113543E+02  0.21642040543E+02 -0.46671128520E+03  0.47122694001E+03  0.50400001928E-02 0.  1.
       -1    1    3    3    0  502  0.61376113543E+02 -0.21642040543E+02  0.11636086778E+03  0.13332387936E+03  0.50400001928E-02 0. -1.
</event>
<event>
 5   0  0.4534223E-02  0.4928807E+03  0.7818609E-02  0.1015654E+00
        2   -1    0    0  501    0  0.00000000000E+00  0.00000000000E+00  0.97703679349E+03  0.97703679349E+03  0.25500000920E-02 0.  1.
       -2   -1    0    0    0  501  0.00000000000E+00  0.00000000000E+00 -0.62160232489E+02  0.62160232541E+02  0.25500000920E-02 0. -1.
    10030    2    1    2    0    0  0.00000000000E+00  0.00000000000E+00  0.91487656100E+03  0.10391970260E+04  0.49288065193E+03 0.  0.
        2    1    3    3  502    0 -0.16361120772E+03 -0.94626098106E+02  0.79087537509E+03  0.81314610290E+03  0.25500000920E-02 0.  1.
       -2    1    3    3    0  502  0.16361120772E+03  0.94626098106E+02  0.12400118591E+03  0.22605092313E+03  0.25500000920E-02 0. -1.
</event>
<event>
 5   0  0.2643185E-02  0.4998790E+03  0.7818609E-02  0.1013810E+00
        1   -1    0    0  501    0  0.00000000000E+00  0.00000000000E+00  0.77814160003E+03  0.77814160005E+03  0.50400001928E-02 0.  1.
       -1   -1    0    0    0  501  0.00000000000E+00  0.00000000000E+00 -0.80280711583E+02  0.80280711741E+02  0.50400001928E-02 0. -1.
    10030    2    1    2    0    0  0.00000000000E+00  0.00000000000E+00  0.69786088845E+03  0.85842231179E+03  0.49987903112E+03 0.  0.
        1    1    3    3  502    0  0.15426012815E+03 -0.95031851864E+02  0.53269711533E+02  0.18885153481E+03  0.50400001928E-02 0. -1.
       -1    1    3    3    0  502 -0.15426012815E+03  0.95031851864E+02  0.64459117692E+03  0.66957077698E+03  0.50400001928E-02 0.  1.
</event>
<event>
 5   0  0.1805500E-02  0.4967559E+03  0.7818609E-02  0.1014629E+00
       -4   -1    0    0    0  501  0.00000000000E+00  0.00000000000E+00  0.16180197207E+03  0.16180695617E+03  0.12699999809E+01 0. -1.
        4   -1    0    0  501    0  0.00000000000E+00  0.00000000000E+00 -0.38126647761E+03  0.38126859280E+03  0.12699999809E+01 0.  1.
    10030    2    1    2    0    0  0.00000000000E+00  0.00000000000E+00 -0.21946450554E+03  0.54307554897E+03  0.49675585824E+03 0.  0.
        4    1    3    3  502    0 -0.54280117683E+02  0.50691045774E+02 -0.36884286231E+03  0.37624803425E+03  0.12699999809E+01 0.  1.
       -4    1    3    3    0  502  0.54280117683E+02 -0.50691045774E+02  0.14937835677E+03  0.16682751472E+03  0.12699999809E+01 0. -1.
</event>
<event>
 5   0  0.2723308E-02  0.5006659E+03  0.7818609E-02  0.1013605E+00
        1   -1    0    0  501    0  0.00000000000E+00  0.00000000000E+00  0.42103183796E+03  0.42103183799E+03  0.50400001928E-02 0. -1.
       -1   -1    0    0    0  501  0.00000000000E+00  0.00000000000E+00 -0.14884047308E+03  0.14884047317E+03  0.50400001928E-02 0.  1.
    10030    2    1    2    0    0  0.00000000000E+00  0.00000000000E+00  0.27219136488E+03  0.56987231115E+03  0.50066586852E+03 0.  0.
        4    1    3    3  502    0  0.20942367504E+03 -0.91654329251E+02  0.25220714576E+03  0.34039513658E+03  0.12699999809E+01 0. -1.
       -4    1    3    3    0  502 -0.20942367504E+03  0.91654329251E+02  0.19984219117E+02  0.22947717457E+03  0.12699999809E+01 0.  1.
</event>
<event>
 5   0  0.4409622E-02  0.4997131E+03  0.7818609E-02  0.1013854E+00
        2   -1    0    0  501    0  0.00000000000E+00  0.00000000000E+00  0.79014671733E+03  0.79014671733E+03  0.25500000920E-02 0.  1.
       -2   -1    0    0    0  501  0.00000000000E+00  0.00000000000E+00 -0.79008484850E+02  0.79008484891E+02  0.25500000920E-02 0. -1.
    10030    2    1    2    0    0  0.00000000000E+00  0.00000000000E+00  0.71113823248E+03  0.86915520222E+03  0.49971309755E+03 0.  0.
        3    1    3    3  502    0 -0.11410682549E+03 -0.13265564546E+03  0.66578293869E+03  0.68839292526E+03  0.10100000352E+00 0.  1.
       -3    1    3    3    0  502  0.11410682549E+03  0.13265564546E+03  0.45355293785E+02  0.18076227696E+03  0.10100000352E+00 0. -1.
</event>
<event>
 5   0  0.4409622E-02  0.4979822E+03  0.7818609E-02  0.1014307E+00
       -2   -1    0    0    0  501  0.00000000000E+00  0.00000000000E+00  0.34448260336E+03  0.34448260337E+03  0.25500000920E-02 0. -1.
        2   -1    0    0  501    0  0.00000000000E+00  0.00000000000E+00 -0.17997012673E+03  0.17997012675E+03  0.25500000920E-02 0.  1.
    10030    2    1    2    0    0  0.00000000000E+00  0.00000000000E+00  0.16451247663E+03  0.52445273012E+03  0.49798223981E+03 0.  0.
        3    1    3    3  502    0  0.23471327773E+03 -0.48074984734E+02  0.15364620464E+03  0.28462026158E+03  0.10100000352E+00 0. -1.
       -3    1    3    3    0  502 -0.23471327773E+03  0.48074984734E+02  0.10866271990E+02  0.23983246854E+03  0.10100000352E+00 0.  1.
</event>
<event>
 5   0  0.1805500E-02  0.5013749E+03  0.7818609E-02  0.1013421E+00
       -4   -1    0    0    0  501  0.00000000000E+00  0.00000000000E+00  0.43657040978E+03  0.43657225701E+03  0.12699999809E+01 0. -1.
        4   -1    0    0  501    0  0.00000000000E+00  0.00000000000E+00 -0.14394480502E+03  0.14395040741E+03  0.12699999809E+01 0.  1.
    10030    2    1    2    0    0  0.00000000000E+00  0.00000000000E+00  0.29262560476E+03  0.58052266442E+03  0.50137492892E+03 0.  0.
        5    1    3    3  502    0 -0.63821419579E+01 -0.62165855295E+02  0.42735795764E+03  0.43192851174E+03  0.46999998093E+01 0. -1.
       -5    1    3    3    0  502  0.63821419579E+01  0.62165855295E+02 -0.13473235288E+03  0.14859415268E+03  0.46999998093E+01 0.  1.
</event>
<event>
 5   0  0.2715483E-02  0.5001624E+03  0.7818609E-02  0.1013737E+00
        1   -1    0    0  501    0  0.00000000000E+00  0.00000000000E+00  0.74032479154E+03  0.74032479156E+03  0.50400001928E-02 0. -1.
       -1   -1    0    0    0  501  0.00000000000E+00  0.00000000000E+00 -0.84477262806E+02  0.84477262956E+02  0.50400001928E-02 0.  1.
    10030    2    1    2    0    0  0.00000000000E+00  0.00000000000E+00  0.65584752873E+03  0.82480205451E+03  0.50016242180E+03 0.  0.
        5    1    3    3  502    0 -0.13553112247E+03  0.73720869328E+02  0.65239686662E+03  0.67040824376E+03  0.46999998093E+01 0. -1.
       -5    1    3    3    0  502  0.13553112247E+03 -0.73720869328E+02  0.34506621182E+01  0.15439381075E+03  0.46999998093E+01 0.  1.
</event>
<event>
 5   0  0.2715483E-02  0.5012388E+03  0.7818609E-02  0.1013456E+00
        1   -1    0    0  501    0  0.00000000000E+00  0.00000000000E+00  0.39652721119E+03  0.39652721122E+03  0.50400001928E-02 0. -1.
       -1   -1    0    0    0  501  0.00000000000E+00  0.00000000000E+00 -0.15840044129E+03  0.15840044137E+03  0.50400001928E-02 0.  1.
    10030    2    1    2    0    0  0.00000000000E+00  0.00000000000E+00  0.23812676990E+03  0.55492765260E+03  0.50123880644E+03 0.  0.
        5    1    3    3  502    0 -0.11807958691E+03 -0.14545126735E+03 -0.65160686362E+02  0.19841084915E+03  0.46999998093E+01 0.  1.
       -5    1    3    3    0  502  0.11807958691E+03  0.14545126735E+03  0.30328745626E+03  0.35651680345E+03  0.46999998093E+01 0. -1.
</event>
<event>
 5   0  0.4631619E-02  0.4996975E+03  0.7818609E-02  0.1013858E+00
        2   -1    0    0  501    0  0.00000000000E+00  0.00000000000E+00  0.28242171720E+03  0.28242171721E+03  0.25500000920E-02 0.  1.
       -2   -1    0    0    0  501  0.00000000000E+00  0.00000000000E+00 -0.22103255189E+03  0.22103255191E+03  0.25500000920E-02 0. -1.
    10030    2    1    2    0    0  0.00000000000E+00  0.00000000000E+00  0.61389165307E+02  0.50345426912E+03  0.49969747996E+03 0.  0.
        5    1    3    3  502    0  0.21348188287E+03  0.12398051711E+03 -0.77580424092E+01  0.24703837790E+03  0.46999998093E+01 0. -1.
       -5    1    3    3    0  502 -0.21348188287E+03 -0.12398051711E+03  0.69147207716E+02  0.25641589122E+03  0.46999998093E+01 0.  1.
</event>
<event>
 5   0  0.4451135E-02  0.4994804E+03  0.7818609E-02  0.1013915E+00
        2   -1    0    0  501    0  0.00000000000E+00  0.00000000000E+00  0.77366727559E+03  0.77366727559E+03  0.25500000920E-02 0.  1.
       -2   -1    0    0    0  501  0.00000000000E+00  0.00000000000E+00 -0.80616255266E+02  0.80616255306E+02  0.25500000920E-02 0. -1.
    10030    2    1    2    0    0  0.00000000000E+00  0.00000000000E+00  0.69305102032E+03  0.85428353090E+03  0.49948036437E+03 0.  0.
        1    1    3    3  502    0 -0.21629368301E+03 -0.11717650204E+03  0.27282437035E+03  0.36735055060E+03  0.50400001928E-02 0. -1.
       -1    1    3    3    0  502  0.21629368301E+03  0.11717650204E+03  0.42022664997E+03  0.48693298030E+03  0.50400001928E-02 0.  1.
</event>
<event>
 5   0  0.2715483E-02  0.4982426E+03  0.7818609E-02  0.1014239E+00
       -1   -1    0    0    0  501  0.00000000000E+00  0.00000000000E+00  0.52864119089E+02  0.52864119329E+02  0.50400001928E-02 0.  1.
        1   -1    0    0  501    0  0.00000000000E+00  0.00000000000E+00 -0.11739799281E+04  0.11739799281E+04  0.50400001928E-02 0. -1.
    10030    2    1    2    0    0  0.00000000000E+00  0.00000000000E+00 -0.11211158090E+04  0.12268440474E+04  0.49824257097E+03 0.  0.
        5    1    3    3  502    0  0.15440942516E+03 -0.11246595524E+02 -0.10410023852E+04  0.10524622618E+04  0.46999998093E+01 0. -1.
       -5    1    3    3    0  502 -0.15440942516E+03  0.11246595524E+02 -0.80113423779E+02  0.17438178562E+03  0.46999998093E+01 0.  1.
</event>
<event>
 5   0  0.2719671E-02  0.4997219E+03  0.7818609E-02  0.1013852E+00
       -1   -1    0    0    0  501  0.00000000000E+00  0.00000000000E+00  0.91486575873E+02  0.91486576011E+02  0.50400001928E-02 0.  1.
        1   -1    0    0  501    0  0.00000000000E+00  0.00000000000E+00 -0.68240068478E+03  0.68240068480E+03  0.50400001928E-02 0. -1.
    10030    2    1    2    0    0  0.00000000000E+00  0.00000000000E+00 -0.59091410891E+03  0.77388726081E+03  0.49972193102E+03 0.  0.
        2    1    3    3  502    0 -0.20931714738E+03  0.91930920220E+02 -0.45159717511E+03  0.50616693971E+03  0.25500000920E-02 0. -1.
       -2    1    3    3    0  502  0.20931714738E+03 -0.91930920220E+02 -0.13931693380E+03  0.26772032110E+03  0.25500000920E-02 0.  1.
</event>
<event>
 5   0  0.4519539E-02  0.4969506E+03  0.7818609E-02  0.1014578E+00
        2   -1    0    0  501    0  0.00000000000E+00  0.00000000000E+00  0.15497705705E+03  0.15497705707E+03  0.25500000920E-02 0.  1.
       -2   -1    0    0    0  501  0.00000000000E+00  0.00000000000E+00 -0.39838145967E+03  0.39838145968E+03  0.25500000920E-02 0. -1.
    10030    2    1    2    0    0  0.00000000000E+00  0.00000000000E+00 -0.24340440262E+03  0.55335851675E+03  0.49695064628E+03 0.  0.
        4    1    3    3  502    0  0.21478832200E+03 -0.92289359345E+02 -0.21544227628E+03  0.31791246661E+03  0.12699999809E+01 0.  1.
       -4    1    3    3    0  502 -0.21478832200E+03  0.92289359345E+02 -0.27962126342E+02  0.23544605014E+03  0.12699999809E+01 0. -1.
</event>
<event>
 5   0  0.4409622E-02  0.4952952E+03  0.7818609E-02  0.1015014E+00
       -2   -1    0    0    0  501  0.00000000000E+00  0.00000000000E+00  0.26942838685E+03  0.26942838686E+03  0.25500000920E-02 0.  1.
        2   -1    0    0  501    0  0.00000000000E+00  0.00000000000E+00 -0.22762761783E+03  0.22762761785E+03  0.25500000920E-02 0. -1.
    10030    2    1    2    0    0  0.00000000000E+00  0.00000000000E+00  0.41800769018E+02  0.49705600471E+03  0.49529523269E+03 0.  0.
        3    1    3    3  502    0  0.76377303529E+02 -0.23550085765E+03  0.26853185879E+02  0.24902861330E+03  0.10100000352E+00 0. -1.
       -3    1    3    3    0  502 -0.76377303529E+02  0.23550085765E+03  0.14947583139E+02  0.24802739141E+03  0.10100000352E+00 0.  1.
</event>
<event>
 5   0  0.4631619E-02  0.4999194E+03  0.7818609E-02  0.1013800E+00
       -2   -1    0    0    0  501  0.00000000000E+00  0.00000000000E+00  0.41216911533E+02  0.41216911612E+02  0.25500000920E-02 0.  1.
        2   -1    0    0  501    0  0.00000000000E+00  0.00000000000E+00 -0.15158791704E+04  0.15158791704E+04  0.25500000920E-02 0. -1.
    10030    2    1    2    0    0  0.00000000000E+00  0.00000000000E+00 -0.14746622588E+04  0.15570960820E+04  0.49991942440E+03 0.  0.
        5    1    3    3  502    0 -0.15591358116E+03  0.16194865258E+03 -0.10774088998E+04  0.11006218416E+04  0.46999998093E+01 0. -1.
       -5    1    3    3    0  502  0.15591358116E+03 -0.16194865258E+03 -0.39725335906E+03  0.45647424039E+03  0.46999998093E+01 0.  1.
</event>
<event>
 5   0  0.4631619E-02  0.4932810E+03  0.7818609E-02  0.1015548E+00
       -2   -1    0    0    0  501  0.00000000000E+00  0.00000000000E+00  0.11289634043E+03  0.11289634046E+03  0.25500000920E-02 0. -1.
        2   -1    0    0  501    0  0.00000000000E+00  0.00000000000E+00 -0.53882638403E+03  0.53882638403E+03  0.25500000920E-02 0.  1.
    10030    2    1    2    0    0  0.00000000000E+00  0.00000000000E+00 -0.42593004360E+03  0.65172272449E+03  0.49328096211E+03 0.  0.
        5    1    3    3  502    0 -0.82731141856E+02 -0.22900064741E+03 -0.26453750425E+03  0.35956629361E+03  0.46999998093E+01 0.  1.
       -5    1    3    3    0  502  0.82731141856E+02  0.22900064741E+03 -0.16139253934E+03  0.29215643088E+03  0.46999998093E+01 0. -1.
</event>
<event>
 5   0  0.4631619E-02  0.5047583E+03  0.7818609E-02  0.1012544E+00
        2   -1    0    0  501    0  0.00000000000E+00  0.00000000000E+00  0.92170970708E+03  0.92170970709E+03  0.25500000920E-02 0. -1.
       -2   -1    0    0    0  501  0.00000000000E+00  0.00000000000E+00 -0.69105528007E+02  0.69105528054E+02  0.25500000920E-02 0.  1.
    10030    2    1    2    0    0  0.00000000000E+00  0.00000000000E+00  0.85260417908E+03  0.99081523514E+03  0.50475830257E+03 0.  0.
        5    1    3    3  502    0 -0.37211143955E+01 -0.23531299223E+03  0.24760792791E+03  0.34163990834E+03  0.46999998093E+01 0.  1.
       -5    1    3    3    0  502  0.37211143955E+01  0.23531299223E+03  0.60499625117E+03  0.64917532680E+03  0.46999998093E+01 0. -1.
</event>
<event>
 5   0  0.2715483E-02  0.4978651E+03  0.7818609E-02  0.1014338E+00
       -1   -1    0    0    0  501  0.00000000000E+00  0.00000000000E+00  0.33161893065E+02  0.33161893448E+02  0.50400001928E-02 0. -1.
        1   -1    0    0  501    0  0.00000000000E+00  0.00000000000E+00 -0.18686332649E+04  0.18686332649E+04  0.50400001928E-02 0.  1.
    10030    2    1    2    0    0  0.00000000000E+00  0.00000000000E+00 -0.18354713718E+04  0.19017951584E+04  0.49786510976E+03 0.  0.
        5    1    3    3  502    0  0.93123219923E+01 -0.24585254905E+03 -0.10614336019E+04  0.10895841301E+04  0.46999998093E+01 0.  1.
       -5    1    3    3    0  502 -0.93123219923E+01  0.24585254905E+03 -0.77403776989E+03  0.81221102826E+03  0.46999998093E+01 0. -1.
</event>
<event>
 5   0  0.4451135E-02  0.5317998E+03  0.7818609E-02  0.1005797E+00
       -2   -1    0    0    0  501  0.00000000000E+00  0.00000000000E+00  0.12545689009E+03  0.12545689011E+03  0.25500000920E-02 0. -1.
        2   -1    0    0  501    0  0.00000000000E+00  0.00000000000E+00 -0.56356218035E+03  0.56356218035E+03  0.25500000920E-02 0.  1.
    10030    2    1    2    0    0  0.00000000000E+00  0.00000000000E+00 -0.43810529026E+03  0.68901907047E+03  0.53179980642E+03 0.  0.
        1    1    3    3  502    0 -0.92242650515E+02 -0.15379526907E+03  0.35305081736E+02  0.18277893802E+03  0.50400001928E-02 0. -1.
       -1    1    3    3    0  502  0.92242650515E+02  0.15379526907E+03 -0.47341037200E+03  0.50624013245E+03  0.50400001928E-02 0.  1.
</event>
<event>
 5   0  0.1805500E-02  0.5026674E+03  0.7818609E-02  0.1013085E+00
        4   -1    0    0  501    0  0.00000000000E+00  0.00000000000E+00  0.74682828908E+03  0.74682936891E+03  0.12699999809E+01 0.  1.
       -4   -1    0    0    0  501  0.00000000000E+00  0.00000000000E+00 -0.84576612013E+02  0.84586146617E+02  0.12699999809E+01 0. -1.
    10030    2    1    2    0    0  0.00000000000E+00  0.00000000000E+00  0.66225167707E+03  0.83141551553E+03  0.50266736087E+03 0.  0.
        5    1    3    3  502    0 -0.85220889638E+02  0.11264146353E+03  0.67488821883E+03  0.68952657472E+03  0.46999998093E+01 0.  1.
       -5    1    3    3    0  502  0.85220889638E+02 -0.11264146353E+03 -0.12636541759E+02  0.14188894081E+03  0.46999998093E+01 0. -1.
</event>
<event>
 5   0  0.2719671E-02  0.5010872E+03  0.7818609E-02  0.1013496E+00
       -1   -1    0    0    0  501  0.00000000000E+00  0.00000000000E+00  0.19070025557E+03  0.19070025564E+03  0.50400001928E-02 0.  1.
        1   -1    0    0  501    0  0.00000000000E+00  0.00000000000E+00 -0.32916625317E+03  0.32916625321E+03  0.50400001928E-02 0. -1.
    10030    2    1    2    0    0  0.00000000000E+00  0.00000000000E+00 -0.13846599760E+03  0.51986650885E+03  0.50108717258E+03 0.  0.
        2    1    3    3  502    0  0.73168801864E+02 -0.59382203151E+02 -0.31008007927E+03  0.32408266720E+03  0.25500000920E-02 0. -1.
       -2    1    3    3    0  502 -0.73168801864E+02  0.59382203151E+02  0.17161408166E+03  0.19578384164E+03  0.25500000920E-02 0.  1.
</event>
<event>
 5   0  0.2779445E-02  0.4988919E+03  0.7818609E-02  0.1014069E+00
       -1   -1    0    0    0  501  0.00000000000E+00  0.00000000000E+00  0.41171252293E+03  0.41171252296E+03  0.50400001928E-02 0. -1.
        1   -1    0    0  501    0  0.00000000000E+00  0.00000000000E+00 -0.15113284545E+03  0.15113284553E+03  0.50400001928E-02 0.  1.
    10030    2    1    2    0    0  0.00000000000E+00  0.00000000000E+00  0.26057967748E+03  0.56284536849E+03  0.49889191266E+03 0.  0.
        3    1    3    3  502    0  0.10037578087E+03  0.26066485569E+02 -0.12565917214E+03  0.16292635392E+03  0.10100000352E+00 0.  1.
       -3    1    3    3    0  502 -0.10037578087E+03 -0.26066485569E+02  0.38623884963E+03  0.39991901457E+03  0.10100000352E+00 0. -1.
</event>
<event>
 5   0  0.4451135E-02  0.5005192E+03  0.7818609E-02  0.1013643E+00
        2   -1    0    0  501    0  0.00000000000E+00  0.00000000000E+00  0.19834904537E+04  0.19834904537E+04  0.25500000920E-02 0. -1.
       -2   -1    0    0    0  501  0.00000000000E+00  0.00000000000E+00 -0.31575577433E+02  0.31575577536E+02  0.25500000920E-02 0.  1.
    10030    2    1    2    0    0  0.00000000000E+00  0.00000000000E+00  0.19519148762E+04  0.20150660312E+04  0.50051915652E+03 0.  0.
        1    1    3    3  502    0  0.56627662170E+02 -0.41179517728E+02  0.86609283416E+01  0.70551091475E+02  0.50400001928E-02 0.  1.
       -1    1    3    3    0  502 -0.56627662170E+02  0.41179517728E+02  0.19432539479E+04  0.19445149397E+04  0.50400001928E-02 0. -1.
</event>
<event>
 5   0  0.2723308E-02  0.5008690E+03  0.7818609E-02  0.1013552E+00
        1   -1    0    0  501    0  0.00000000000E+00  0.00000000000E+00  0.46519572119E+03  0.46519572122E+03  0.50400001928E-02 0.  1.
       -1   -1    0    0    0  501  0.00000000000E+00  0.00000000000E+00 -0.13481946283E+03  0.13481946292E+03  0.50400001928E-02 0. -1.
    10030    2    1    2    0    0  0.00000000000E+00  0.00000000000E+00  0.33037625836E+03  0.60001518414E+03  0.50086899396E+03 0.  0.
        4    1    3    3  502    0  0.27080765012E+02 -0.15418925739E+03 -0.68973634985E+02  0.17107504246E+03  0.12699999809E+01 0. -1.
       -4    1    3    3    0  502 -0.27080765012E+02  0.15418925739E+03  0.39934989335E+03  0.42894014168E+03  0.12699999809E+01 0.  1.
</event>
<event>
 5   0  0.2723308E-02  0.5000261E+03  0.7818609E-02  0.1013772E+00
        1   -1    0    0  501    0  0.00000000000E+00  0.00000000000E+00  0.76758678335E+02  0.76758678500E+02  0.50400001928E-02 0. -1.
       -1   -1    0    0    0  501  0.00000000000E+00  0.00000000000E+00 -0.81432525989E+03  0.81432525991E+03  0.50400001928E-02 0.  1.
    10030    2    1    2    0    0  0.00000000000E+00  0.00000000000E+00 -0.73756658156E+03  0.89108393841E+03  0.50002612238E+03 0.  0.
        4    1    3    3  502    0 -0.16371912354E+03 -0.17250791954E+03 -0.23141336401E+03  0.33183835170E+03  0.12699999809E+01 0. -1.
       -4    1    3    3    0  502  0.16371912354E+03  0.17250791954E+03 -0.50615321755E+03  0.55924558671E+03  0.12699999809E+01 0.  1.
</event>
<event>
 5   0  0.2779445E-02  0.4997227E+03  0.7818609E-02  0.1013851E+00
        1   -1    0    0  501    0  0.00000000000E+00  0.00000000000E+00  0.28685260958E+03  0.28685260962E+03  0.50400001928E-02 0. -1.
       -1   -1    0    0    0  501  0.00000000000E+00  0.00000000000E+00 -0.21764031150E+03  0.21764031156E+03  0.50400001928E-02 0.  1.
    10030    2    1    2    0    0  0.00000000000E+00  0.00000000000E+00  0.69212298075E+02  0.50449292118E+03  0.49972268841E+03 0.  0.
        3    1    3    3  502    0 -0.13982053106E+03 -0.13533772241E+03 -0.12362095054E+03  0.23053899807E+03  0.10100000352E+00 0.  1.
       -3    1    3    3    0  502  0.13982053106E+03  0.13533772241E+03  0.19283324862E+03  0.27395392311E+03  0.10100000352E+00 0. -1.
</event>
<event>
 5   0  0.4534223E-02  0.5006726E+03  0.7818609E-02  0.1013603E+00
       -2   -1    0    0    0  501  0.00000000000E+00  0.00000000000E+00  0.23565520312E+03  0.23565520314E+03  0.25500000920E-02 0. -1.
        2   -1    0    0  501    0  0.00000000000E+00  0.00000000000E+00 -0.26593205514E+03  0.26593205515E+03  0.25500000920E-02 0.  1.
    10030    2    1    2    0    0  0.00000000000E+00  0.00000000000E+00 -0.30276852013E+02  0.50158725828E+03  0.50067263746E+03 0.  0.
        2    1    3    3  502    0 -0.10896710610E+03  0.20022188891E+03 -0.11879549022E+03  0.25705058552E+03  0.25500000920E-02 0.  1.
       -2    1    3    3    0  502  0.10896710610E+03 -0.20022188891E+03  0.88518638204E+02  0.24453667277E+03  0.25500000920E-02 0. -1.
</event>
<event>
 5   0  0.4519539E-02  0.5004579E+03  0.7818609E-02  0.1013659E+00
        2   -1    0    0  501    0  0.00000000000E+00  0.00000000000E+00  0.17716082424E+04  0.17716082424E+04  0.25500000920E-02 0.  1.
       -2   -1    0    0    0  501  0.00000000000E+00  0.00000000000E+00 -0.35343320542E+02  0.35343320634E+02  0.25500000920E-02 0. -1.
    10030    2    1    2    0    0  0.00000000000E+00  0.00000000000E+00  0.17362649218E+04  0.18069515630E+04  0.50045786264E+03 0.  0.
        4    1    3    3  502    0  0.20804030438E+03 -0.11413133689E+03  0.58140981295E+03  0.62796951661E+03  0.12699999809E+01 0.  1.
       -4    1    3    3    0  502 -0.20804030438E+03  0.11413133689E+03  0.11548551089E+04  0.11789820464E+04  0.12699999809E+01 0. -1.
</event>
<event>
 5   0  0.4631619E-02  0.4995413E+03  0.7818609E-02  0.1013899E+00
        2   -1    0    0  501    0  0.00000000000E+00  0.00000000000E+00  0.89626465778E+03  0.89626465778E+03  0.25500000920E-02 0.  1.
       -2   -1    0    0    0  501  0.00000000000E+00  0.00000000000E+00 -0.69605966025E+02  0.69605966072E+02  0.25500000920E-02 0. -1.
    10030    2    1    2    0    0  0.00000000000E+00  0.00000000000E+00  0.82665869175E+03  0.96587062385E+03  0.49954125893E+03 0.  0.
        5    1    3    3  502    0  0.11918255737E+03 -0.21827931960E+03  0.36953900395E+03  0.44545651728E+03  0.46999998093E+01 0. -1.
       -5    1    3    3    0  502 -0.11918255737E+03  0.21827931960E+03  0.45711968780E+03  0.52041410657E+03  0.46999998093E+01 0.  1.
</event>
<event>
 5   0  0.4409622E-02  0.5012361E+03  0.7818609E-02  0.1013457E+00
       -2   -1    0    0    0  501  0.00000000000E+00  0.00000000000E+00  0.58841803288E+02  0.58841803343E+02  0.25500000920E-02 0.  1.
        2   -1    0    0  501    0  0.00000000000E+00  0.00000000000E+00 -0.10674284517E+04  0.10674284517E+04  0.25500000920E-02 0. -1.
    10030    2    1    2    0    0  0.00000000000E+00  0.00000000000E+00 -0.10085866484E+04  0.11262702550E+04  0.50123613202E+03 0.  0.
        3    1    3    3  502    0  0.22586290922E+02  0.67513434199E+02 -0.10442303986E+04  0.10466543555E+04  0.10100000352E+00 0. -1.
       -3    1    3    3    0  502 -0.22586290922E+02 -0.67513434199E+02  0.35643750172E+02  0.79615899557E+02  0.10100000352E+00 0.  1.
</event>
<event>
 5   0  0.4631619E-02  0.5004451E+03  0.7818609E-02  0.1013663E+00
       -2   -1    0    0    0  501  0.00000000000E+00  0.00000000000E+00  0.15269501013E+03  0.15269501015E+03  0.25500000920E-02 0. -1.
        2   -1    0    0  501    0  0.00000000000E+00  0.00000000000E+00 -0.41004170919E+03  0.41004170919E+03  0.25500000920E-02 0.  1.
    10030    2    1    2    0    0  0.00000000000E+00  0.00000000000E+00 -0.25734669906E+03  0.56273671934E+03  0.50044509367E+03 0.  0.
        5    1    3    3  502    0 -0.22204872938E+03 -0.62100835576E+02 -0.19494770718E+02  0.23143959920E+03  0.46999998093E+01 0. -1.
       -5    1    3    3    0  502  0.22204872938E+03  0.62100835576E+02 -0.23785192834E+03  0.33129712014E+03  0.46999998093E+01 0.  1.
</event>
<event>
 5   0  0.4534223E-02  0.5014757E+03  0.7818609E-02  0.1013394E+00
       -2   -1    0    0    0  501  0.00000000000E+00  0.00000000000E+00  0.96679472448E+03  0.96679472449E+03  0.25500000920E-02 0. -1.
        2   -1    0    0  501    0  0.00000000000E+00  0.00000000000E+00 -0.65028767657E+02  0.65028767707E+02  0.25500000920E-02 0.  1.
    10030    2    1    2    0    0  0.00000000000E+00  0.00000000000E+00  0.90176595683E+03  0.10318234922E+04  0.50147570046E+03 0.  0.
        2    1    3    3  502    0 -0.69069511120E+02  0.15057899384E+03  0.63616898816E+02  0.17745912367E+03  0.25500000920E-02 0.  1.
       -2    1    3    3    0  502  0.69069511120E+02 -0.15057899384E+03  0.83814905801E+03  0.85436436852E+03  0.25500000920E-02 0. -1.
</event>
<event>
 5   0  0.2643185E-02  0.5025841E+03  0.7818609E-02  0.1013107E+00
       -1   -1    0    0    0  501  0.00000000000E+00  0.00000000000E+00  0.88335250229E+02  0.88335250373E+02  0.50400001928E-02 0. -1.
        1   -1    0    0  501    0  0.00000000000E+00  0.00000000000E+00 -0.71486395747E+03  0.71486395749E+03  0.50400001928E-02 0.  1.
    10030    2    1    2    0    0  0.00000000000E+00  0.00000000000E+00 -0.62652870724E+03  0.80319920786E+03  0.50258406910E+03 0.  0.
        1    1    3    3  502    0 -0.87112285449E+02 -0.85259320080E+02  0.37926411339E+02  0.12765623619E+03  0.50400001928E-02 0. -1.
       -1    1    3    3    0  502  0.87112285449E+02  0.85259320080E+02 -0.66445511858E+03  0.67554297167E+03  0.50400001928E-02 0.  1.
</event>
<event>
 5   0  0.2723308E-02  0.4993289E+03  0.7818609E-02  0.1013954E+00
        1   -1    0    0  501    0  0.00000000000E+00  0.00000000000E+00  0.35535747576E+03  0.35535747579E+03  0.50400001928E-02 0.  1.
       -1   -1    0    0    0  501  0.00000000000E+00  0.00000000000E+00 -0.17540740626E+03  0.17540740633E+03  0.50400001928E-02 0. -1.
    10030    2    1    2    0    0  0.00000000000E+00  0.00000000000E+00  0.17995006949E+03  0.53076488213E+03  0.49932888219E+03 0.  0.
        4    1    3    3  502    0 -0.37476597658E+02 -0.22915759854E+03  0.18747207933E+03  0.29843775527E+03  0.12699999809E+01 0.  1.
       -4    1    3    3    0  502  0.37476597658E+02  0.22915759854E+03 -0.75220098380E+01  0.23232712686E+03  0.12699999809E+01 0. -1.
</event>
<event>
 5   0  0.4519539E-02  0.5002298E+03  0.7818609E-02  0.1013719E+00
        2   -1    0    0  501    0  0.00000000000E+00  0.00000000000E+00  0.54606827196E+03  0.54606827196E+03  0.25500000920E-02 0. -1.
       -2   -1    0    0    0  501  0.00000000000E+00  0.00000000000E+00 -0.11455976669E+03  0.11455976672E+03  0.25500000920E-02 0.  1.
    10030    2    1    2    0    0  0.00000000000E+00  0.00000000000E+00  0.43150850526E+03  0.66062803869E+03  0.50022976259E+03 0.  0.
        4    1    3    3  502    0 -0.53572280985E+02 -0.23365600099E+03  0.12152683547E+03  0.26876662875E+03  0.12699999809E+01 0.  1.
       -4    1    3    3    0  502  0.53572280985E+02  0.23365600099E+03  0.30998166979E+03  0.39186140994E+03  0.12699999809E+01 0. -1.
</event>
<event>
 5   0  0.4519539E-02  0.5008289E+03  0.7818609E-02  0.1013563E+00
        2   -1    0    0  501    0  0.00000000000E+00  0.00000000000E+00  0.52831248599E+03  0.52831248599E+03  0.25500000920E-02 0.  1.
       -2   -1    0    0    0  501  0.00000000000E+00  0.00000000000E+00 -0.11869377806E+03  0.11869377809E+03  0.25500000920E-02 0. -1.
    10030    2    1    2    0    0  0.00000000000E+00  0.00000000000E+00  0.40961870792E+03  0.64700626408E+03  0.50082893275E+03 0.  0.
        4    1    3    3  502    0  0.11413809442E+03 -0.22286758521E+03  0.20853723197E+03  0.32586324609E+03  0.12699999809E+01 0. -1.
       -4    1    3    3    0  502 -0.11413809442E+03  0.22286758521E+03  0.20108147596E+03  0.32114301800E+03  0.12699999809E+01 0.  1.
</event>
<event>
 5   0  0.2719671E-02  0.5007429E+03  0.7818609E-02  0.1013585E+00
       -1   -1    0    0    0  501  0.00000000000E+00  0.00000000000E+00  0.14691918926E+03  0.14691918934E+03  0.50400001928E-02 0. -1.
        1   -1    0    0  501    0  0.00000000000E+00  0.00000000000E+00 -0.42666892265E+03  0.42666892268E+03  0.50400001928E-02 0.  1.
    10030    2    1    2    0    0  0.00000000000E+00  0.00000000000E+00 -0.27974973340E+03  0.57358811202E+03  0.50074285708E+03 0.  0.
        2    1    3    3  502    0  0.56334607229E+01 -0.14220845371E+03  0.96078597276E+02  0.17171510431E+03  0.25500000920E-02 0. -1.
       -2    1    3    3    0  502 -0.56334607229E+01  0.14220845371E+03 -0.37582833067E+03  0.40187300771E+03  0.25500000920E-02 0.  1.
</event>
<event>
 5   0  0.1805500E-02  0.5000329E+03  0.7818609E-02  0.1013770E+00
        4   -1    0    0  501    0  0.00000000000E+00  0.00000000000E+00  0.39525839948E+03  0.39526043979E+03  0.12699999809E+01 0.  1.
       -4   -1    0    0    0  501  0.00000000000E+00  0.00000000000E+00 -0.15814024860E+03  0.15814534811E+03  0.12699999809E+01 0. -1.
    10030    2    1    2    0    0  0.00000000000E+00  0.00000000000E+00  0.23711815088E+03  0.55340578790E+03  0.50003294752E+03 0.  0.
        3    1    3    3  502    0  0.10939330438E+03  0.22455439532E+03  0.13051264441E+03  0.28182464770E+03  0.10100000352E+00 0.  1.
       -3    1    3    3    0  502 -0.10939330438E+03 -0.22455439532E+03  0.10660550647E+03  0.27158114020E+03  0.10100000352E+00 0. -1.
</event>
<event>
 5   0  0.4534223E-02  0.5016217E+03  0.7818609E-02  0.1013356E+00
        2   -1    0    0  501    0  0.00000000000E+00  0.00000000000E+00  0.16839041566E+04  0.16839041566E+04  0.25500000920E-02 0.  1.
       -2   -1    0    0    0  501  0.00000000000E+00  0.00000000000E+00 -0.37357282950E+02  0.37357283037E+02  0.25500000920E-02 0. -1.
    10030    2    1    2    0    0  0.00000000000E+00  0.00000000000E+00  0.16465468736E+04  0.17212614396E+04  0.50162170653E+03 0.  0.
        2    1    3    3  502    0  0.86848401153E+02 -0.19604263869E+03  0.12697598754E+04  0.12877365810E+04  0.25500000920E-02 0.  1.
       -2    1    3    3    0  502 -0.86848401153E+02  0.19604263869E+03  0.37678699825E+03  0.43352485860E+03  0.25500000920E-02 0. -1.
</event>
<event>
 5   0  0.4409622E-02  0.5003285E+03  0.7818609E-02  0.1013693E+00
       -2   -1    0    0    0  501  0.00000000000E+00  0.00000000000E+00  0.11784714051E+03  0.11784714054E+03  0.25500000920E-02 0. -1.
        2   -1    0    0  501    0  0.00000000000E+00  0.00000000000E+00 -0.53104525129E+03  0.53104525130E+03  0.25500000920E-02 0.  1.
    10030    2    1    2    0    0  0.00000000000E+00  0.00000000000E+00 -0.41319811078E+03  0.64889239183E+03  0.50032854948E+03 0.  0.
        3    1    3    3  502    0 -0.13424818034E+03  0.13266934548E+03 -0.41954268629E+03  0.46004326424E+03  0.10100000352E+00 0.  1.
       -3    1    3    3    0  502  0.13424818034E+03 -0.13266934548E+03  0.63445755100E+01  0.18884912759E+03  0.10100000352E+00 0. -1.
</event>
<event>
 5   0  0.1805500E-02  0.4965026E+03  0.7818609E-02  0.1014696E+00
        3   -1    0    0  501    0  0.00000000000E+00  0.00000000000E+00  0.41698234637E+03  0.41698235860E+03  0.10100000352E+00 0.  1.
       -3   -1    0    0    0  501  0.00000000000E+00  0.00000000000E+00 -0.14779687811E+03  0.14779691262E+03  0.10100000352E+00 0. -1.
    10030    2    1    2    0    0  0.00000000000E+00  0.00000000000E+00  0.26918546826E+03  0.56477927122E+03  0.49650257691E+03 0.  0.
        3    1    3    3  502    0 -0.20184879189E+03  0.72286987320E+01 -0.29594124280E+02  0.20413478700E+03  0.10100000352E+00 0. -1.
       -3    1    3    3    0  502  0.20184879189E+03 -0.72286987320E+01  0.29877959254E+03  0.36064448421E+03  0.10100000352E+00 0.  1.
</event>
<event>
 5   0  0.1805500E-02  0.4997538E+03  0.7818609E-02  0.1013843E+00
       -3   -1    0    0    0  501  0.00000000000E+00  0.00000000000E+00  0.52553978865E+03  0.52553979836E+03  0.10100000352E+00 0. -1.
        3   -1    0    0  501    0  0.00000000000E+00  0.00000000000E+00 -0.11880820828E+03  0.11880825121E+03  0.10100000352E+00 0.  1.
    10030    2    1    2    0    0  0.00000000000E+00  0.00000000000E+00  0.40673158038E+03  0.64434804957E+03  0.49975376987E+03 0.  0.
        4    1    3    3  502    0 -0.10199828404E+03  0.16424452762E+03  0.40745891194E+03  0.45100365034E+03  0.12699999809E+01 0. -1.
       -4    1    3    3    0  502  0.10199828404E+03 -0.16424452762E+03 -0.72733156023E+00  0.19334439923E+03  0.12699999809E+01 0.  1.
</event>
<event>
 5   0  0.4534223E-02  0.5004992E+03  0.7818609E-02  0.1013649E+00
       -2   -1    0    0    0  501  0.00000000000E+00  0.00000000000E+00  0.61386098522E+03  0.61386098522E+03  0.25500000920E-02 0. -1.
        2   -1    0    0  501    0  0.00000000000E+00  0.00000000000E+00 -0.10201800014E+03  0.10201800018E+03  0.25500000920E-02 0.  1.
    10030    2    1    2    0    0  0.00000000000E+00  0.00000000000E+00  0.51184298507E+03  0.71587898540E+03  0.50049923113E+03 0.  0.
        2    1    3    3  502    0  0.49454179528E+02  0.13676247619E+03  0.54721468512E+03  0.56620985719E+03  0.25500000920E-02 0. -1.
       -2    1    3    3    0  502 -0.49454179528E+02 -0.13676247619E+03 -0.35371700047E+02  0.14966912820E+03  0.25500000920E-02 0.  1.
</event>
<event>
 5   0  0.4451135E-02  0.5012368E+03  0.7818609E-02  0.1013457E+00
       -2   -1    0    0    0  501  0.00000000000E+00  0.00000000000E+00  0.51486363934E+02  0.51486363997E+02  0.25500000920E-02 0.  1.
        2   -1    0    0  501    0  0.00000000000E+00  0.00000000000E+00 -0.12199267107E+04  0.12199267107E+04  0.25500000920E-02 0. -1.
    10030    2    1    2    0    0  0.00000000000E+00  0.00000000000E+00 -0.11684403467E+04  0.12714130747E+04  0.50123683280E+03 0.  0.
        1    1    3    3  502    0 -0.19557975164E+03  0.96740765522E+01 -0.18747428677E+03  0.27109340684E+03  0.50400001928E-02 0.  1.
       -1    1    3    3    0  502  0.19557975164E+03 -0.96740765522E+01 -0.98096605996E+03  0.10003196678E+04  0.50400001928E-02 0. -1.
</event>
<event>
 5   0  0.2779445E-02  0.5010052E+03  0.7818609E-02  0.1013517E+00
        1   -1    0    0  501    0  0.00000000000E+00  0.00000000000E+00  0.88286606916E+03  0.88286606917E+03  0.50400001928E-02 0.  1.
       -1   -1    0    0    0  501  0.00000000000E+00  0.00000000000E+00 -0.71077078858E+02  0.71077079036E+02  0.50400001928E-02 0. -1.
    10030    2    1    2    0    0  0.00000000000E+00  0.00000000000E+00  0.81178899030E+03  0.95394314821E+03  0.50100515491E+03 0.  0.
        3    1    3    3  502    0  0.27445863967E+02 -0.17788408550E+02 -0.66994183984E+02  0.74551551402E+02  0.10100000352E+00 0. -1.
       -3    1    3    3    0  502 -0.27445863967E+02  0.17788408550E+02  0.87878317429E+03  0.87939159681E+03  0.10100000352E+00 0.  1.
</event>
<event>
 5   0  0.4631619E-02  0.4971767E+03  0.7818609E-02  0.1014518E+00
       -2   -1    0    0    0  501  0.00000000000E+00  0.00000000000E+00  0.27594381203E+02  0.27594381321E+02  0.25500000920E-02 0. -1.
        2   -1    0    0  501    0  0.00000000000E+00  0.00000000000E+00 -0.22394478271E+04  0.22394478271E+04  0.25500000920E-02 0.  1.
    10030    2    1    2    0    0  0.00000000000E+00  0.00000000000E+00 -0.22118534459E+04  0.22670422085E+04  0.49717673784E+03 0.  0.
        5    1    3    3  502    0  0.21109583151E+03  0.13320426316E+01 -0.17041318434E+04  0.17171635491E+04  0.46999998093E+01 0.  1.
       -5    1    3    3    0  502 -0.21109583151E+03 -0.13320426316E+01 -0.50772160250E+03  0.54987865940E+03  0.46999998093E+01 0. -1.
</event>
<event>
 5   0  0.4519539E-02  0.5338186E+03  0.7818609E-02  0.1005310E+00
       -2   -1    0    0    0  501  0.00000000000E+00  0.00000000000E+00  0.11952923784E+03  0.11952923787E+03  0.25500000920E-02 0.  1.
        2   -1    0    0  501    0  0.00000000000E+00  0.00000000000E+00 -0.59600956625E+03  0.59600956625E+03  0.25500000920E-02 0. -1.
    10030    2    1    2    0    0  0.00000000000E+00  0.00000000000E+00 -0.47648032840E+03  0.71553880412E+03  0.53381858046E+03 0.  0.
        4    1    3    3  502    0 -0.17665056336E+02  0.14031042885E+03 -0.54165972871E+03  0.55981777862E+03  0.12699999809E+01 0. -1.
       -4    1    3    3    0  502  0.17665056336E+02 -0.14031042885E+03  0.65179400304E+02  0.15572102550E+03  0.12699999809E+01 0.  1.
</event>
<event>
 5   0  0.4534223E-02  0.5037521E+03  0.7818609E-02  0.1012804E+00
        2   -1    0    0  501    0  0.00000000000E+00  0.00000000000E+00  0.91912157188E+03  0.91912157188E+03  0.25500000920E-02 0. -1.
       -2   -1    0    0    0  501  0.00000000000E+00  0.00000000000E+00 -0.69024115864E+02  0.69024115911E+02  0.25500000920E-02 0.  1.
    10030    2    1    2    0    0  0.00000000000E+00  0.00000000000E+00  0.85009745601E+03  0.98814568779E+03  0.50375213705E+03 0.  0.
        2    1    3    3  502    0  0.13702598577E+03 -0.67588721980E+02  0.81783933120E+03  0.83198889883E+03  0.25500000920E-02 0. -1.
       -2    1    3    3    0  502 -0.13702598577E+03  0.67588721980E+02  0.32258124812E+02  0.15615678896E+03  0.25500000920E-02 0.  1.
</event>
<event>
 5   0  0.2779445E-02  0.5251549E+03  0.7818609E-02  0.1007414E+00
       -1   -1    0    0    0  501  0.00000000000E+00  0.00000000000E+00  0.49922704731E+03  0.49922704733E+03  0.50400001928E-02 0. -1.
        1   -1    0    0  501    0  0.00000000000E+00  0.00000000000E+00 -0.13810733321E+03  0.13810733330E+03  0.50400001928E-02 0.  1.
    10030    2    1    2    0    0  0.00000000000E+00  0.00000000000E+00  0.36111971410E+03  0.63733438063E+03  0.52515489603E+03 0.  0.
        3    1    3    3  502    0 -0.10765002060E+01  0.10369203502E+03 -0.11220432831E+03  0.15278422193E+03  0.10100000352E+00 0.  1.
       -3    1    3    3    0  502  0.10765002060E+01 -0.10369203502E+03  0.47332404241E+03  0.48455015870E+03  0.10100000352E+00 0. -1.
</event>
<event>
 5   0  0.2715483E-02  0.4986329E+03  0.7818609E-02  0.1014136E+00
        1   -1    0    0  501    0  0.00000000000E+00  0.00000000000E+00  0.66188393677E+03  0.66188393679E+03  0.50400001928E-02 0. -1.
       -1   -1    0    0    0  501  0.00000000000E+00  0.00000000000E+00 -0.93911774516E+02  0.93911774652E+02  0.50400001928E-02 0.  1.
    10030    2    1    2    0    0  0.00000000000E+00  0.00000000000E+00  0.56797216226E+03  0.75579571144E+03  0.49863291141E+03 0.  0.
        5    1    3    3  502    0  0.23425965735E+03 -0.36667636455E+02  0.40055495252E+03  0.46549808014E+03  0.46999998093E+01 0. -1.
       -5    1    3    3    0  502 -0.23425965735E+03  0.36667636455E+02  0.16741720974E+03  0.29029763131E+03  0.46999998093E+01 0.  1.
</event>
<event>
 5   0  0.4451135E-02  0.5007664E+03  0.7818609E-02  0.1013579E+00
       -2   -1    0    0    0  501  0.00000000000E+00  0.00000000000E+00  0.87810213250E+02  0.87810213287E+02  0.25500000920E-02 0.  1.
        2   -1    0    0  501    0  0.00000000000E+00  0.00000000000E+00 -0.71394586704E+03  0.71394586704E+03  0.25500000920E-02 0. -1.
    10030    2    1    2    0    0  0.00000000000E+00  0.00000000000E+00 -0.62613565379E+03  0.80175608033E+03  0.50076636808E+03 0.  0.
        1    1    3    3  502    0 -0.51700139094E+02 -0.22769505555E+03 -0.16831768134E+03  0.28783464799E+03  0.50400001928E-02 0.  1.
       -1    1    3    3    0  502  0.51700139094E+02  0.22769505555E+03 -0.45781797245E+03  0.51392143235E+03  0.50400001928E-02 0. -1.
</event>
<event>
 5   0  0.4631619E-02  0.5003327E+03  0.7818609E-02  0.1013692E+00
        2   -1    0    0  501    0  0.00000000000E+00  0.00000000000E+00  0.25723318578E+03  0.25723318579E+03  0.25500000920E-02 0.  1.
       -2   -1    0    0    0  501  0.00000000000E+00  0.00000000000E+00 -0.24329361956E+03  0.24329361958E+03  0.25500000920E-02 0. -1.
    10030    2    1    2    0    0  0.00000000000E+00  0.00000000000E+00  0.13939566213E+02  0.50052680537E+03  0.50033266072E+03 0.  0.
        5    1    3    3  502    0  0.24298897747E+02 -0.18799165399E+03  0.17021951463E+03  0.25480987336E+03  0.46999998093E+01 0.  1.
       -5    1    3    3    0  502 -0.24298897747E+02  0.18799165399E+03 -0.15627994842E+03  0.24571693201E+03  0.46999998093E+01 0. -1.
</event>
<event>
 5   0  0.4631619E-02  0.4998577E+03  0.7818609E-02  0.1013816E+00
       -2   -1    0    0    0  501  0.00000000000E+00  0.00000000000E+00  0.26322649273E+03  0.26322649274E+03  0.25500000920E-02 0. -1.
        2   -1    0    0  501    0  0.00000000000E+00  0.00000000000E+00 -0.23730300504E+03  0.23730300506E+03  0.25500000920E-02 0.  1.
    10030    2    1    2    0    0  0.00000000000E+00  0.00000000000E+00  0.25923487687E+02  0.50052949780E+03  0.49985773071E+03 0.  0.
        5    1    3    3  502    0  0.51169792862E+02  0.21756850304E+03  0.12486140691E+03  0.25606027054E+03  0.46999998093E+01 0. -1.
       -5    1    3    3    0  502 -0.51169792862E+02 -0.21756850304E+03 -0.98937919220E+02  0.24446922726E+03  0.46999998093E+01 0.  1.
</event>
<event>
 5   0  0.2723308E-02  0.4978832E+03  0.7818609E-02  0.1014333E+00
       -1   -1    0    0    0  501  0.00000000000E+00  0.00000000000E+00  0.19651524132E+03  0.19651524139E+03  0.50400001928E-02 0. -1.
        1   -1    0    0  501    0  0.00000000000E+00  0.00000000000E+00 -0.31535423035E+03  0.31535423039E+03  0.50400001928E-02 0.  1.
    10030    2    1    2    0    0  0.00000000000E+00  0.00000000000E+00 -0.11883898903E+03  0.51186947178E+03  0.49788316986E+03 0.  0.
        4    1    3    3  502    0 -0.23786374969E+03  0.14977831767E+02  0.14480200831E+02  0.23877769573E+03  0.12699999809E+01 0. -1.
       -4    1    3    3    0  502  0.23786374969E+03 -0.14977831767E+02 -0.13331918986E+03  0.27309177605E+03  0.12699999809E+01 0.  1.
</event>
<event>
 5   0  0.2723308E-02  0.4995068E+03  0.7818609E-02  0.1013908E+00
       -1   -1    0    0    0  501  0.00000000000E+00  0.00000000000E+00  0.21207339749E+03  0.21207339755E+03  0.50400001928E-02 0.  1.
        1   -1    0    0  501    0  0.00000000000E+00  0.00000000000E+00 -0.29412817770E+03  0.29412817774E+03  0.50400001928E-02 0. -1.
    10030    2    1    2    0    0  0.00000000000E+00  0.00000000000E+00 -0.82054780213E+02  0.50620157529E+03  0.49950680463E+03 0.  0.
        4    1    3    3  502    0 -0.21130274651E+03  0.79747648390E+02 -0.14907062565E+03  0.27061449044E+03  0.12699999809E+01 0.  1.
       -4    1    3    3    0  502  0.21130274651E+03 -0.79747648390E+02  0.67015845438E+02  0.23558708485E+03  0.12699999809E+01 0. -1.
</event>
<event>
 5   0  0.2719671E-02  0.5029728E+03  0.7818609E-02  0.1013006E+00
       -1   -1    0    0    0  501  0.00000000000E+00  0.00000000000E+00  0.86642952337E+02  0.86642952484E+02  0.50400001928E-02 0. -1.
        1   -1    0    0  501    0  0.00000000000E+00  0.00000000000E+00 -0.72995459038E+03  0.72995459040E+03  0.50400001928E-02 0.  1.
    10030    2    1    2    0    0  0.00000000000E+00  0.00000000000E+00 -0.64331163804E+03  0.81659754288E+03  0.50297284559E+03 0.  0.
        2    1    3    3  502    0  0.18482243707E+03  0.12867406534E+03 -0.50338429775E+03  0.55146359767E+03  0.25500000920E-02 0.  1.
       -2    1    3    3    0  502 -0.18482243707E+03 -0.12867406534E+03 -0.13992734030E+03  0.26513394521E+03  0.25500000920E-02 0. -1.
</event>
<event>
 5   0  0.4451135E-02  0.4993787E+03  0.7818609E-02  0.1013941E+00
       -2   -1    0    0    0  501  0.00000000000E+00  0.00000000000E+00  0.93154187141E+03  0.93154187142E+03  0.25500000920E-02 0. -1.
        2   -1    0    0  501    0  0.00000000000E+00  0.00000000000E+00 -0.66926429821E+02  0.66926429870E+02  0.25500000920E-02 0.  1.
    10030    2    1    2    0    0  0.00000000000E+00  0.00000000000E+00  0.86461544159E+03  0.99846830129E+03  0.49937870082E+03 0.  0.
        1    1    3    3  502    0 -0.15646220876E+03 -0.96403734419E+02  0.94348367245E+02  0.20658101851E+03  0.50400001928E-02 0.  1.
       -1    1    3    3    0  502  0.15646220876E+03  0.96403734419E+02  0.77026707435E+03  0.79188728278E+03  0.50400001928E-02 0. -1.
</event>
<event>
 5   0  0.4631619E-02  0.5011091E+03  0.7818609E-02  0.1013490E+00
        2   -1    0    0  501    0  0.00000000000E+00  0.00000000000E+00  0.53657844397E+03  0.53657844398E+03  0.25500000920E-02 0.  1.
       -2   -1    0    0    0  501  0.00000000000E+00  0.00000000000E+00 -0.11699611484E+03  0.11699611487E+03  0.25500000920E-02 0. -1.
    10030    2    1    2    0    0  0.00000000000E+00  0.00000000000E+00  0.41958232913E+03  0.65357455884E+03  0.50110914285E+03 0.  0.
        5    1    3    3  502    0 -0.18571113599E+03 -0.37004766291E+00 -0.94896703967E+01  0.18601318988E+03  0.46999998093E+01 0.  1.
       -5    1    3    3    0  502  0.18571113599E+03  0.37004766291E+00  0.42907199953E+03  0.46756136896E+03  0.46999998093E+01 0. -1.
</event>
<event>
 5   0  0.4409622E-02  0.4957245E+03  0.7818609E-02  0.1014901E+00
        2   -1    0    0  501    0  0.00000000000E+00  0.00000000000E+00  0.91614450568E+03  0.91614450569E+03  0.25500000920E-02 0. -1.
       -2   -1    0    0    0  501  0.00000000000E+00  0.00000000000E+00 -0.67058947007E+02  0.67058947055E+02  0.25500000920E-02 0.  1.
    10030    2    1    2    0    0  0.00000000000E+00  0.00000000000E+00  0.84908555868E+03  0.98320345274E+03  0.49572446332E+03 0.  0.
        3    1    3    3  502    0 -0.43830988746E+02 -0.14867518256E+03  0.80816002068E+03  0.82289008666E+03  0.10100000352E+00 0. -1.
       -3    1    3    3    0  502  0.43830988746E+02  0.14867518256E+03  0.40925537992E+02  0.16031336609E+03  0.10100000352E+00 0.  1.
</event>
<event>
 5   0  0.2723308E-02  0.5019969E+03  0.7818609E-02  0.1013259E+00
       -1   -1    0    0    0  501  0.00000000000E+00  0.00000000000E+00  0.92264300943E+02  0.92264301081E+02  0.50400001928E-02 0. -1.
        1   -1    0    0  501    0  0.00000000000E+00  0.00000000000E+00 -0.68282335111E+03  0.68282335113E+03  0.50400001928E-02 0.  1.
    10030    2    1    2    0    0  0.00000000000E+00  0.00000000000E+00 -0.59055905016E+03  0.77508765221E+03  0.50199688930E+03 0.  0.
        4    1    3    3  502    0  0.20071914638E+03  0.45595656142E+02 -0.51705567731E+03  0.55652073269E+03  0.12699999809E+01 0.  1.
       -4    1    3    3    0  502 -0.20071914638E+03 -0.45595656142E+02 -0.73503372860E+02  0.21856691951E+03  0.12699999809E+01 0. -1.
</event>
<event>
 5   0  0.4451135E-02  0.5021511E+03  0.7818609E-02  0.1013219E+00
        2   -1    0    0  501    0  0.00000000000E+00  0.00000000000E+00  0.12207675910E+03  0.12207675912E+03  0.25500000920E-02 0. -1.
       -2   -1    0    0    0  501  0.00000000000E+00  0.00000000000E+00 -0.51638762243E+03  0.51638762244E+03  0.25500000920E-02 0.  1.
    10030    2    1    2    0    0  0.00000000000E+00  0.00000000000E+00 -0.39431086334E+03  0.63846438156E+03  0.50215108242E+03 0.  0.
        1    1    3    3  502    0 -0.34436286304E+02 -0.19295185456E+03 -0.39666773334E+03  0.44244950750E+03  0.50400001928E-02 0.  1.
       -1    1    3    3    0  502  0.34436286304E+02  0.19295185456E+03  0.23568700035E+01  0.19601487406E+03  0.50400001928E-02 0. -1.
</event>
<event>
 5   0  0.2723308E-02  0.4998578E+03  0.7818609E-02  0.1013816E+00
        1   -1    0    0  501    0  0.00000000000E+00  0.00000000000E+00  0.31945995507E+03  0.31945995511E+03  0.50400001928E-02 0. -1.
       -1   -1    0    0    0  501  0.00000000000E+00  0.00000000000E+00 -0.19553141159E+03  0.19553141165E+03  0.50400001928E-02 0.  1.
    10030    2    1    2    0    0  0.00000000000E+00  0.00000000000E+00  0.12392854348E+03  0.51499136676E+03  0.49985780373E+03 0.  0.
        4    1    3    3  502    0  0.18145845889E+03 -0.11264176592E+03  0.19569193250E+03  0.28967617278E+03  0.12699999809E+01 0. -1.
       -4    1    3    3    0  502 -0.18145845889E+03  0.11264176592E+03 -0.71763389017E+02  0.22531519398E+03  0.12699999809E+01 0.  1.
</event>
<event>
 5   0  0.4409622E-02  0.4990462E+03  0.7818609E-02  0.1014028E+00
        2   -1    0    0  501    0  0.00000000000E+00  0.00000000000E+00  0.28288509824E+03  0.28288509825E+03  0.25500000920E-02 0. -1.
       -2   -1    0    0    0  501  0.00000000000E+00  0.00000000000E+00 -0.22009560370E+03  0.22009560371E+03  0.25500000920E-02 0.  1.
    10030    2    1    2    0    0  0.00000000000E+00  0.00000000000E+00  0.62789494540E+02  0.50298070196E+03  0.49904615610E+03 0.  0.
        3    1    3    3  502    0 -0.12982234799E+03  0.11346362128E+03 -0.15039894526E+03  0.22879617202E+03  0.10100000352E+00 0. -1.
       -3    1    3    3    0  502  0.12982234799E+03 -0.11346362128E+03  0.21318843980E+03  0.27418452994E+03  0.10100000352E+00 0.  1.
</event>
<event>
 5   0  0.4519539E-02  0.5011262E+03  0.7818609E-02  0.1013485E+00
       -2   -1    0    0    0  501  0.00000000000E+00  0.00000000000E+00  0.39244709944E+03  0.39244709945E+03  0.25500000920E-02 0. -1.
        2   -1    0    0  501    0  0.00000000000E+00  0.00000000000E+00 -0.15997538630E+03  0.15997538632E+03  0.25500000920E-02 0.  1.
    10030    2    1    2    0    0  0.00000000000E+00  0.00000000000E+00  0.23247171314E+03  0.55242248577E+03  0.50112623696E+03 0.  0.
        4    1    3    3  502    0  0.91123177817E+02  0.15949200072E+03 -0.71616228132E+02  0.19715889242E+03  0.12699999809E+01 0.  1.
       -4    1    3    3    0  502 -0.91123177817E+02 -0.15949200072E+03  0.30408794127E+03  0.35526359334E+03  0.12699999809E+01 0. -1.
</event>
<event>
 5   0  0.2643185E-02  0.4962128E+03  0.7818609E-02  0.1014772E+00
        1   -1    0    0  501    0  0.00000000000E+00  0.00000000000E+00  0.39096783233E+02  0.39096783558E+02  0.50400001928E-02 0.  1.
       -1   -1    0    0    0  501  0.00000000000E+00  0.00000000000E+00 -0.15744717847E+04  0.15744717847E+04  0.50400001928E-02 0. -1.
    10030    2    1    2    0    0  0.00000000000E+00  0.00000000000E+00 -0.15353750015E+04  0.16135685683E+04  0.49621278638E+03 0.  0.
        1    1    3    3  502    0 -0.17711583603E+03  0.63880031197E+02 -0.24228696538E+03  0.30684466979E+03  0.50400001928E-02 0.  1.
       -1    1    3    3    0  502  0.17711583603E+03 -0.63880031197E+02 -0.12930880361E+04  0.13067238985E+04  0.50400001928E-02 0. -1.
</event>
<event>
 5   0  0.4451135E-02  0.5024266E+03  0.7818609E-02  0.1013147E+00
        2   -1    0    0  501    0  0.00000000000E+00  0.00000000000E+00  0.18721050074E+04  0.18721050074E+04  0.25500000920E-02 0.  1.
       -2   -1    0    0    0  501  0.00000000000E+00  0.00000000000E+00 -0.33709709190E+02  0.33709709287E+02  0.25500000920E-02 0. -1.
    10030    2    1    2    0    0  0.00000000000E+00  0.00000000000E+00  0.18383952982E+04  0.19058147166E+04  0.50242657360E+03 0.  0.
        1    1    3    3  502    0 -0.22500883028E+02  0.18381221589E+03  0.27530036176E+03  0.33178835070E+03  0.50400001928E-02 0. -1.
       -1    1    3    3    0  502  0.22500883028E+02 -0.18381221589E+03  0.15630949364E+04  0.15740263659E+04  0.50400001928E-02 0.  1.
</event>
<event>
 5   0  0.2779445E-02  0.4987738E+03  0.7818609E-02  0.1014099E+00
        1   -1    0    0  501    0  0.00000000000E+00  0.00000000000E+00  0.33496673558E+03  0.33496673562E+03  0.50400001928E-02 0.  1.
       -1   -1    0    0    0  501  0.00000000000E+00  0.00000000000E+00 -0.18567161630E+03  0.18567161637E+03  0.50400001928E-02 0. -1.
    10030    2    1    2    0    0  0.00000000000E+00  0.00000000000E+00  0.14929511927E+03  0.52063835199E+03  0.49877375725E+03 0.  0.
        3    1    3    3  502    0 -0.13225782582E+03 -0.20309736145E+03  0.13308191679E+02  0.24272986814E+03  0.10100000352E+00 0.  1.
       -3    1    3    3    0  502  0.13225782582E+03  0.20309736145E+03  0.13598692759E+03  0.27790848385E+03  0.10100000352E+00 0. -1.
</event>
<event>
 5   0  0.2715483E-02  0.5001346E+03  0.7818609E-02  0.1013744E+00
        1   -1    0    0  501    0  0.00000000000E+00  0.00000000000E+00  0.99663700322E+02  0.99663700449E+02  0.50400001928E-02 0. -1.
       -1   -1    0    0    0  501  0.00000000000E+00  0.00000000000E+00 -0.62744669019E+03  0.62744669021E+03  0.50400001928E-02 0.  1.
    10030    2    1    2    0    0  0.00000000000E+00  0.00000000000E+00 -0.52778298987E+03  0.72711039066E+03  0.50013461769E+03 0.  0.
        5    1    3    3  502    0  0.87346795625E+01 -0.17590795094E+03 -0.52188647809E+03  0.55082437114E+03  0.46999998093E+01 0.  1.
       -5    1    3    3    0  502 -0.87346795625E+01  0.17590795094E+03 -0.58965117808E+01  0.17628601952E+03  0.46999998093E+01 0. -1.
</event>
<event>
 5   0  0.2723308E-02  0.4976067E+03  0.7818609E-02  0.1014405E+00
       -1   -1    0    0    0  501  0.00000000000E+00  0.00000000000E+00  0.29407746410E+03  0.29407746414E+03  0.50400001928E-02 0. -1.
        1   -1    0    0  501    0  0.00000000000E+00  0.00000000000E+00 -0.21049934815E+03  0.21049934821E+03  0.50400001928E-02 0.  1.
    10030    2    1    2    0    0  0.00000000000E+00  0.00000000000E+00  0.83578115947E+02  0.50457681235E+03  0.49760673036E+03 0.  0.
        4    1    3    3  502    0  0.67583482116E+02  0.77816923334E+02 -0.18783040859E+03  0.21425423193E+03  0.12699999809E+01 0.  1.
       -4    1    3    3    0  502 -0.67583482116E+02 -0.77816923334E+02  0.27140852453E+03  0.29032258042E+03  0.12699999809E+01 0. -1.
</event>
<event>
 5   0  0.2779445E-02  0.4993725E+03  0.7818609E-02  0.1013943E+00
       -1   -1    0    0    0  501  0.00000000000E+00  0.00000000000E+00  0.45961643078E+03  0.45961643080E+03  0.50400001928E-02 0. -1.
        1   -1    0    0  501    0  0.00000000000E+00  0.00000000000E+00 -0.13564183442E+03  0.13564183451E+03  0.50400001928E-02 0.  1.
    10030    2    1    2    0    0  0.00000000000E+00  0.00000000000E+00  0.32397459636E+03  0.59525826532E+03  0.49937246955E+03 0.  0.
        3    1    3    3  502    0  0.27713417813E+02  0.15179774551E+03  0.39597610826E+03  0.42497962019E+03  0.10100000352E+00 0. -1.
       -3    1    3    3    0  502 -0.27713417813E+02 -0.15179774551E+03 -0.72001511900E+02  0.17027864512E+03  0.10100000352E+00 0.  1.
</event>
<event>
 5   0  0.2779445E-02  0.4944402E+03  0.7818609E-02  0.1015240E+00
        1   -1    0    0  501    0  0.00000000000E+00  0.00000000000E+00  0.57707169267E+02  0.57707169487E+02  0.50400001928E-02 0. -1.
       -1   -1    0    0    0  501  0.00000000000E+00  0.00000000000E+00 -0.10591020432E+04  0.10591020433E+04  0.50400001928E-02 0.  1.
    10030    2    1    2    0    0  0.00000000000E+00  0.00000000000E+00 -0.10013948740E+04  0.11168092127E+04  0.49444021281E+03 0.  0.
        3    1    3    3  502    0 -0.85543166945E+02  0.10057260058E+03 -0.28598729099E+02  0.13509396325E+03  0.10100000352E+00 0. -1.
       -3    1    3    3    0  502  0.85543166945E+02 -0.10057260058E+03 -0.97279614487E+03  0.98171524949E+03  0.10100000352E+00 0.  1.
</event>
<event>
 5   0  0.2723308E-02  0.4964516E+03  0.7818609E-02  0.1014709E+00
       -1   -1    0    0    0  501  0.00000000000E+00  0.00000000000E+00  0.80571081545E+02  0.80571081702E+02  0.50400001928E-02 0.  1.
        1   -1    0    0  501    0  0.00000000000E+00  0.00000000000E+00 -0.76474144445E+03  0.76474144447E+03  0.50400001928E-02 0. -1.
    10030    2    1    2    0    0  0.00000000000E+00  0.00000000000E+00 -0.68417036291E+03  0.84531252617E+03  0.49645159021E+03 0.  0.
        4    1    3    3  502    0 -0.57059647976E+02  0.22493867820E+03 -0.49209006486E+03  0.54406567362E+03  0.12699999809E+01 0. -1.
       -4    1    3    3    0  502  0.57059647976E+02 -0.22493867820E+03 -0.19208029805E+03  0.30124685255E+03  0.12699999809E+01 0.  1.
</event>
<event>
 5   0  0.2779445E-02  0.4978278E+03  0.7818609E-02  0.1014347E+00
        1   -1    0    0  501    0  0.00000000000E+00  0.00000000000E+00  0.20896881674E+03  0.20896881680E+03  0.50400001928E-02 0.  1.
       -1   -1    0    0    0  501  0.00000000000E+00  0.00000000000E+00 -0.29649460899E+03  0.29649460903E+03  0.50400001928E-02 0. -1.
    10030    2    1    2    0    0  0.00000000000E+00  0.00000000000E+00 -0.87525792248E+02  0.50546342583E+03  0.49782779206E+03 0.  0.
        3    1    3    3  502    0  0.12932677553E+03 -0.84529367451E+02 -0.24191640493E+03  0.28704387470E+03  0.10100000352E+00 0. -1.
       -3    1    3    3    0  502 -0.12932677553E+03  0.84529367451E+02  0.15439061268E+03  0.21841955113E+03  0.10100000352E+00 0.  1.
</event>
<event>
 5   0  0.2643185E-02  0.5000459E+03  0.7818609E-02  0.1013767E+00
        1   -1    0    0  501    0  0.00000000000E+00  0.00000000000E+00  0.35717584953E+03  0.35717584957E+03  0.50400001928E-02 0. -1.
       -1   -1    0    0    0  501  0.00000000000E+00  0.00000000000E+00 -0.17501598419E+03  0.17501598426E+03  0.50400001928E-02 0.  1.
    10030    2    1    2    0    0  0.00000000000E+00  0.00000000000E+00  0.18215986534E+03  0.53219183383E+03  0.50004592935E+03 0.  0.
        1    1    3    3  502    0  0.22271910079E+03  0.36038115901E+02 -0.23591325620E+02  0.22684597049E+03  0.50400001928E-02 0.  1.
       -1    1    3    3    0  502 -0.22271910079E+03 -0.36038115901E+02  0.20575119096E+03  0.30534586335E+03  0.50400001928E-02 0. -1.
</event>
<event>
 5   0  0.2779445E-02  0.4971782E+03  0.7818609E-02  0.1014518E+00
        1   -1    0    0  501    0  0.00000000000E+00  0.00000000000E+00  0.17781269343E+03  0.17781269350E+03  0.50400001928E-02 0. -1.
       -1   -1    0    0    0  501  0.00000000000E+00  0.00000000000E+00 -0.34753728006E+03  0.34753728009E+03  0.50400001928E-02 0.  1.
    10030    2    1    2    0    0  0.00000000000E+00  0.00000000000E+00 -0.16972458663E+03  0.52534997359E+03  0.49717819687E+03 0.  0.
        3    1    3    3  502    0  0.20316956058E+03  0.49349126371E+02 -0.22695629991E+03  0.30858123548E+03  0.10100000352E+00 0.  1.
       -3    1    3    3    0  502 -0.20316956058E+03 -0.49349126371E+02  0.57231713277E+02  0.21676873812E+03  0.10100000352E+00 0. -1.
</event>
<event>
 5   0  0.4409622E-02  0.4996304E+03  0.7818609E-02  0.1013875E+00
       -2   -1    0    0    0  501  0.00000000000E+00  0.00000000000E+00  0.52438080614E+02  0.52438080676E+02  0.25500000920E-02 0.  1.
        2   -1    0    0  501    0  0.00000000000E+00  0.00000000000E+00 -0.11901205884E+04  0.11901205884E+04  0.25500000920E-02 0. -1.
    10030    2    1    2    0    0  0.00000000000E+00  0.00000000000E+00 -0.11376825078E+04  0.12425586691E+04  0.49963042100E+03 0.  0.
        3    1    3    3  502    0  0.21758331517E+03  0.11468758158E+03 -0.46009874644E+03  0.52171506312E+03  0.10100000352E+00 0.  1.
       -3    1    3    3    0  502 -0.21758331517E+03 -0.11468758158E+03 -0.67758376138E+03  0.72084360599E+03  0.10100000352E+00 0. -1.
</event>
<event>
 5   0  0.4534223E-02  0.4993296E+03  0.7818609E-02  0.1013954E+00
        2   -1    0    0  501    0  0.00000000000E+00  0.00000000000E+00  0.71582340224E+02  0.71582340269E+02  0.25500000920E-02 0. -1.
       -2   -1    0    0    0  501  0.00000000000E+00  0.00000000000E+00 -0.87078074253E+03  0.87078074254E+03  0.25500000920E-02 0.  1.
    10030    2    1    2    0    0  0.00000000000E+00  0.00000000000E+00 -0.79919840231E+03  0.94236308281E+03  0.49932964420E+03 0.  0.
        2    1    3    3  502    0  0.72021039372E+02 -0.13515450914E+02  0.50830144508E+02  0.89181843011E+02  0.25500000920E-02 0. -1.
       -2    1    3    3    0  502 -0.72021039372E+02  0.13515450914E+02 -0.85002854682E+03  0.85318123980E+03  0.25500000920E-02 0.  1.
</event>
<event>
 5   0  0.2715483E-02  0.4989798E+03  0.7818609E-02  0.1014046E+00
        1   -1    0    0  501    0  0.00000000000E+00  0.00000000000E+00  0.24534845458E+03  0.24534845463E+03  0.50400001928E-02 0.  1.
       -1   -1    0    0    0  501  0.00000000000E+00  0.00000000000E+00 -0.25370121712E+03  0.25370121717E+03  0.50400001928E-02 0. -1.
    10030    2    1    2    0    0  0.00000000000E+00  0.00000000000E+00 -0.83527625408E+01  0.49904967181E+03  0.49897976541E+03 0.  0.
        5    1    3    3  502    0  0.52892751784E+02  0.13439543658E+03 -0.20758465474E+03  0.25292934873E+03  0.46999998093E+01 0. -1.
       -5    1    3    3    0  502 -0.52892751784E+02 -0.13439543658E+03  0.19923189220E+03  0.24612032308E+03  0.46999998093E+01 0.  1.
</event>
<event>
 5   0  0.4409622E-02  0.4972568E+03  0.7818609E-02  0.1014497E+00
        2   -1    0    0  501    0  0.00000000000E+00  0.00000000000E+00  0.13653025479E+04  0.13653025479E+04  0.25500000920E-02 0.  1.
       -2   -1    0    0    0  501  0.00000000000E+00  0.00000000000E+00 -0.45276471947E+02  0.45276472019E+02  0.25500000920E-02 0. -1.
    10030    2    1    2    0    0  0.00000000000E+00  0.00000000000E+00  0.13200260759E+04  0.14105790199E+04  0.49725680513E+03 0.  0.
        3    1    3    3  502    0  0.10082043261E+03 -0.74046766541E+02  0.12695345607E+04  0.12756824425E+04  0.10100000352E+00 0.  1.
       -3    1    3    3    0  502 -0.10082043261E+03  0.74046766541E+02  0.50491515254E+02  0.13489657735E+03  0.10100000352E+00 0. -1.
</event>
<event>
 5   0  0.4451135E-02  0.4992510E+03  0.7818609E-02  0.1013975E+00
       -2   -1    0    0    0  501  0.00000000000E+00  0.00000000000E+00  0.55290676170E+02  0.55290676229E+02  0.25500000920E-02 0. -1.
        2   -1    0    0  501    0  0.00000000000E+00  0.00000000000E+00 -0.11270054541E+04  0.11270054541E+04  0.25500000920E-02 0.  1.
    10030    2    1    2    0    0  0.00000000000E+00  0.00000000000E+00 -0.10717147779E+04  0.11822961303E+04  0.49925101359E+03 0.  0.
        1    1    3    3  502    0  0.67242427202E+02 -0.22817679626E+03 -0.71506625874E+03  0.75359534817E+03  0.50400001928E-02 0.  1.
       -1    1    3    3    0  502 -0.67242427202E+02  0.22817679626E+03 -0.35664851921E+03  0.42870078218E+03  0.50400001928E-02 0. -1.
</event>
<event>
 5   0  0.4519539E-02  0.4987081E+03  0.7818609E-02  0.1014117E+00
        2   -1    0    0  501    0  0.00000000000E+00  0.00000000000E+00  0.10082222773E+04  0.10082222773E+04  0.25500000920E-02 0.  1.
       -2   -1    0    0    0  501  0.00000000000E+00  0.00000000000E+00 -0.61670371732E+02  0.61670371785E+02  0.25500000920E-02 0. -1.
    10030    2    1    2    0    0  0.00000000000E+00  0.00000000000E+00  0.94655190552E+03  0.10698926490E+04  0.49870810163E+03 0.  0.
        4    1    3    3  502    0 -0.15550895232E+03  0.74274006905E+02  0.86663208642E+02  0.19290356914E+03  0.12699999809E+01 0. -1.
       -4    1    3    3    0  502  0.15550895232E+03 -0.74274006905E+02  0.85988869688E+03  0.87698907990E+03  0.12699999809E+01 0.  1.
</event>
<event>
 5   0  0.4534223E-02  0.5000853E+03  0.7818609E-02  0.1013757E+00
       -2   -1    0    0    0  501  0.00000000000E+00  0.00000000000E+00  0.66501830908E+02  0.66501830957E+02  0.25500000920E-02 0. -1.
        2   -1    0    0  501    0  0.00000000000E+00  0.00000000000E+00 -0.94014444431E+03  0.94014444431E+03  0.25500000920E-02 0.  1.
    10030    2    1    2    0    0  0.00000000000E+00  0.00000000000E+00 -0.87364261340E+03  0.10066462753E+04  0.50008530029E+03 0.  0.
        2    1    3    3  502    0 -0.73559812510E+02 -0.13812476477E+03 -0.44260972351E+02  0.16263004132E+03  0.25500000920E-02 0. -1.
       -2    1    3    3    0  502  0.73559812510E+02  0.13812476477E+03 -0.82938164105E+03  0.84401623395E+03  0.25500000920E-02 0.  1.
</event>
<event>
 5   0  0.2715483E-02  0.4992407E+03  0.7818609E-02  0.1013977E+00
       -1   -1    0    0    0  501  0.00000000000E+00  0.00000000000E+00  0.98323669214E+02  0.98323669343E+02  0.50400001928E-02 0. -1.
        1   -1    0    0  501    0  0.00000000000E+00  0.00000000000E+00 -0.63372647323E+03  0.63372647325E+03  0.50400001928E-02 0.  1.
    10030    2    1    2    0    0  0.00000000000E+00  0.00000000000E+00 -0.53540280402E+03  0.73205014260E+03  0.49924067215E+03 0.  0.
        5    1    3    3  502    0 -0.10856969623E+03 -0.22094192066E+03 -0.32790142514E+03  0.41005383287E+03  0.46999998093E+01 0.  1.
       -5    1    3    3    0  502  0.10856969623E+03  0.22094192066E+03 -0.20750137888E+03  0.32199630973E+03  0.46999998093E+01 0. -1.
</event>
<event>
 5   0  0.4534223E-02  0.4981839E+03  0.7818609E-02  0.1014254E+00
        2   -1    0    0  501    0  0.00000000000E+00  0.00000000000E+00  0.95377318380E+03  0.95377318381E+03  0.25500000920E-02 0. -1.
       -2   -1    0    0    0  501  0.00000000000E+00  0.00000000000E+00 -0.65054033901E+02  0.65054033951E+02  0.25500000920E-02 0.  1.
    10030    2    1    2    0    0  0.00000000000E+00  0.00000000000E+00  0.88871914990E+03  0.10188272178E+04  0.49818387393E+03 0.  0.
        2    1    3    3  502    0  0.97024453868E+02 -0.20935696411E+03  0.25248427579E+03  0.34204150713E+03  0.25500000920E-02 0.  1.
       -2    1    3    3    0  502 -0.97024453868E+02  0.20935696411E+03  0.63623487411E+03  0.67678571063E+03  0.25500000920E-02 0. -1.
</event>
<event>
 5   0  0.2715483E-02  0.5009511E+03  0.7818609E-02  0.1013531E+00
        1   -1    0    0  501    0  0.00000000000E+00  0.00000000000E+00  0.28759321492E+03  0.28759321496E+03  0.50400001928E-02 0.  1.
       -1   -1    0    0    0  501  0.00000000000E+00  0.00000000000E+00 -0.21814841950E+03  0.21814841956E+03  0.50400001928E-02 0. -1.
    10030    2    1    2    0    0  0.00000000000E+00  0.00000000000E+00  0.69444795411E+02  0.50574163452E+03  0.50095111666E+03 0.  0.
        5    1    3    3  502    0 -0.27799825776E+02 -0.71911064990E+02 -0.20582463899E+03  0.21984063226E+03  0.46999998093E+01 0. -1.
       -5    1    3    3    0  502  0.27799825776E+02  0.71911064990E+02  0.27526943440E+03  0.28590100226E+03  0.46999998093E+01 0.  1.
</event>
<event>
 5   0  0.2719671E-02  0.4997763E+03  0.7818609E-02  0.1013837E+00
        1   -1    0    0  501    0  0.00000000000E+00  0.00000000000E+00  0.10561504438E+04  0.10561504438E+04  0.50400001928E-02 0. -1.
       -1   -1    0    0    0  501  0.00000000000E+00  0.00000000000E+00 -0.59124227637E+02  0.59124227852E+02  0.50400001928E-02 0.  1.
    10030    2    1    2    0    0  0.00000000000E+00  0.00000000000E+00  0.99702621616E+03  0.11152746717E+04  0.49977626748E+03 0.  0.
        2    1    3    3  502    0 -0.25515244527E+02  0.10330589338E+03  0.10030647721E+04  0.10086932499E+04  0.25500000920E-02 0. -1.
       -2    1    3    3    0  502  0.25515244527E+02 -0.10330589338E+03 -0.60385559195E+01  0.10658142181E+03  0.25500000920E-02 0.  1.
</event>
<event>
 5   0  0.2719671E-02  0.5006183E+03  0.7818609E-02  0.1013618E+00
       -1   -1    0    0    0  501  0.00000000000E+00  0.00000000000E+00  0.15819265982E+03  0.15819265990E+03  0.50400001928E-02 0. -1.
        1   -1    0    0  501    0  0.00000000000E+00  0.00000000000E+00 -0.39606554957E+03  0.39606554961E+03  0.50400001928E-02 0.  1.
    10030    2    1    2    0    0  0.00000000000E+00  0.00000000000E+00 -0.23787288975E+03  0.55425820951E+03  0.50061826888E+03 0.  0.
        2    1    3    3  502    0  0.12321963787E+03  0.21121919107E+03 -0.17812522096E+03  0.30253135404E+03  0.25500000920E-02 0. -1.
       -2    1    3    3    0  502 -0.12321963787E+03 -0.21121919107E+03 -0.59747668794E+02  0.25172685547E+03  0.25500000920E-02 0.  1.
</event>
<event>
 5   0  0.2719671E-02  0.5000073E+03  0.7818609E-02  0.1013777E+00
       -1   -1    0    0    0  501  0.00000000000E+00  0.00000000000E+00  0.56750106643E+03  0.56750106645E+03  0.50400001928E-02 0. -1.
        1   -1    0    0  501    0  0.00000000000E+00  0.00000000000E+00 -0.11013516659E+03  0.11013516671E+03  0.50400001928E-02 0.  1.
    10030    2    1    2    0    0  0.00000000000E+00  0.00000000000E+00  0.45736589983E+03  0.67763623316E+03  0.50000729810E+03 0.  0.
        2    1    3    3  502    0  0.15958661610E+03  0.18650761068E+03  0.29295176514E+03  0.38219590995E+03  0.25500000920E-02 0. -1.
       -2    1    3    3    0  502 -0.15958661610E+03 -0.18650761068E+03  0.16441413469E+03  0.29544032320E+03  0.25500000920E-02 0.  1.
</event>
<event>
 5   0  0.4451135E-02  0.4991076E+03  0.7818609E-02  0.1014012E+00
        2   -1    0    0  501    0  0.00000000000E+00  0.00000000000E+00  0.77415773898E+03  0.77415773898E+03  0.25500000920E-02 0. -1.
       -2   -1    0    0    0  501  0.00000000000E+00  0.00000000000E+00 -0.80444969412E+02  0.80444969452E+02  0.25500000920E-02 0.  1.
    10030    2    1    2    0    0  0.00000000000E+00  0.00000000000E+00  0.69371276957E+03  0.85460270843E+03  0.49910758620E+03 0.  0.
        1    1    3    3  502    0  0.15573944100E+01  0.21890377004E+03  0.14170051893E+03  0.26076871573E+03  0.50400001928E-02 0.  1.
       -1    1    3    3    0  502 -0.15573944100E+01 -0.21890377004E+03  0.55201225063E+03  0.59383399270E+03  0.50400001928E-02 0. -1.
</event>
<event>
 5   0  0.4519539E-02  0.4867215E+03  0.7818609E-02  0.1017304E+00
       -2   -1    0    0    0  501  0.00000000000E+00  0.00000000000E+00  0.44212765150E+03  0.44212765150E+03  0.25500000920E-02 0.  1.
        2   -1    0    0  501    0  0.00000000000E+00  0.00000000000E+00 -0.13395330750E+03  0.13395330752E+03  0.25500000920E-02 0. -1.
    10030    2    1    2    0    0  0.00000000000E+00  0.00000000000E+00  0.30817434400E+03  0.57608095902E+03  0.48672152721E+03 0.  0.
        4    1    3    3  502    0  0.19416229918E+03 -0.10319135054E+03  0.30655819458E+02  0.22201091283E+03  0.12699999809E+01 0. -1.
       -4    1    3    3    0  502 -0.19416229918E+03  0.10319135054E+03  0.27751852454E+03  0.35407004620E+03  0.12699999809E+01 0.  1.
</event>
<event>
 5   0  0.1805500E-02  0.5004960E+03  0.7818609E-02  0.1013650E+00
        3   -1    0    0  501    0  0.00000000000E+00  0.00000000000E+00  0.37645413254E+03  0.37645414609E+03  0.10100000352E+00 0.  1.
       -3   -1    0    0    0  501  0.00000000000E+00  0.00000000000E+00 -0.16635239234E+03  0.16635242300E+03  0.10100000352E+00 0. -1.
    10030    2    1    2    0    0  0.00000000000E+00  0.00000000000E+00  0.21010174020E+03  0.54280656910E+03  0.50049598422E+03 0.  0.
        3    1    3    3  502    0 -0.13505840412E+03  0.10631555990E+02  0.33324289368E+03  0.35972856280E+03  0.10100000352E+00 0.  1.
       -3    1    3    3    0  502  0.13505840412E+03 -0.10631555990E+02 -0.12314115348E+03  0.18307800629E+03  0.10100000352E+00 0. -1.
</event>
<event>
 5   0  0.2779445E-02  0.4955609E+03  0.7818609E-02  0.1014944E+00
        1   -1    0    0  501    0  0.00000000000E+00  0.00000000000E+00  0.60844360726E+03  0.60844360728E+03  0.50400001928E-02 0.  1.
       -1   -1    0    0    0  501  0.00000000000E+00  0.00000000000E+00 -0.10090523166E+03  0.10090523179E+03  0.50400001928E-02 0. -1.
    10030    2    1    2    0    0  0.00000000000E+00  0.00000000000E+00  0.50753837560E+03  0.70934883907E+03  0.49556086688E+03 0.  0.
        3    1    3    3  502    0 -0.14021656292E+03  0.89056392138E+02 -0.94048833043E+01  0.16637363833E+03  0.10100000352E+00 0. -1.
       -3    1    3    3    0  502  0.14021656292E+03 -0.89056392138E+02  0.51694325890E+03  0.54297520075E+03  0.10100000352E+00 0.  1.
</event>
<event>
 5   0  0.4409622E-02  0.5028645E+03  0.7818609E-02  0.1013034E+00
        2   -1    0    0  501    0  0.00000000000E+00  0.00000000000E+00  0.71228109255E+03  0.71228109256E+03  0.25500000920E-02 0.  1.
       -2   -1    0    0    0  501  0.00000000000E+00  0.00000000000E+00 -0.88754527152E+02  0.88754527189E+02  0.25500000920E-02 0. -1.
    10030    2    1    2    0    0  0.00000000000E+00  0.00000000000E+00  0.62352656540E+03  0.80103561975E+03  0.50286448109E+03 0.  0.
        3    1    3    3  502    0  0.22601361534E+03  0.74042962792E+02  0.44169965467E+03  0.50166035302E+03  0.10100000352E+00 0. -1.
       -3    1    3    3    0  502 -0.22601361534E+03 -0.74042962792E+02  0.18182691073E+03  0.29937526672E+03  0.10100000352E+00 0.  1.
</event>
<event>
 5   0  0.2779445E-02  0.5002124E+03  0.7818609E-02  0.1013723E+00
       -1   -1    0    0    0  501  0.00000000000E+00  0.00000000000E+00  0.12910595061E+03  0.12910595071E+03  0.50400001928E-02 0. -1.
        1   -1    0    0  501    0  0.00000000000E+00  0.00000000000E+00 -0.48450983185E+03  0.48450983188E+03  0.50400001928E-02 0.  1.
    10030    2    1    2    0    0  0.00000000000E+00  0.00000000000E+00 -0.35540388124E+03  0.61361578259E+03  0.50021236474E+03 0.  0.
        3    1    3    3  502    0  0.14459390931E+03 -0.20318521218E+03 -0.20102438917E+03  0.32031616303E+03  0.10100000352E+00 0. -1.
       -3    1    3    3    0  502 -0.14459390931E+03  0.20318521218E+03 -0.15437949207E+03  0.29329961956E+03  0.10100000352E+00 0.  1.
</event>
<event>
 5   0  0.2719671E-02  0.5005535E+03  0.7818609E-02  0.1013635E+00
       -1   -1    0    0    0  501  0.00000000000E+00  0.00000000000E+00  0.69251344277E+03  0.69251344278E+03  0.50400001928E-02 0. -1.
        1   -1    0    0  501    0  0.00000000000E+00  0.00000000000E+00 -0.90450893495E+02  0.90450893636E+02  0.50400001928E-02 0.  1.
    10030    2    1    2    0    0  0.00000000000E+00  0.00000000000E+00  0.60206254927E+03  0.78296433642E+03  0.50055353247E+03 0.  0.
        2    1    3    3  502    0  0.19442233663E+03 -0.10606983313E+03  0.11869926851E+03  0.25127747776E+03  0.25500000920E-02 0.  1.
       -2    1    3    3    0  502 -0.19442233663E+03  0.10606983313E+03  0.48336328076E+03  0.53168685866E+03  0.25500000920E-02 0. -1.
</event>
<event>
 5   0  0.4534223E-02  0.5004974E+03  0.7818609E-02  0.1013649E+00
        2   -1    0    0  501    0  0.00000000000E+00  0.00000000000E+00  0.44003451324E+03  0.44003451325E+03  0.25500000920E-02 0.  1.
       -2   -1    0    0    0  501  0.00000000000E+00  0.00000000000E+00 -0.14231701723E+03  0.14231701725E+03  0.25500000920E-02 0. -1.
    10030    2    1    2    0    0  0.00000000000E+00  0.00000000000E+00  0.29771749601E+03  0.58235153050E+03  0.50049735028E+03 0.  0.
        2    1    3    3  502    0 -0.14859033709E+03  0.29983355632E+01 -0.85405278917E+02  0.17141219316E+03  0.25500000920E-02 0.  1.
       -2    1    3    3    0  502  0.14859033709E+03 -0.29983355632E+01  0.38312277493E+03  0.41093933733E+03  0.25500000920E-02 0. -1.
</event>
<event>
 5   0  0.2715483E-02  0.4997671E+03  0.7818609E-02  0.1013840E+00
       -1   -1    0    0    0  501  0.00000000000E+00  0.00000000000E+00  0.72697723714E+02  0.72697723889E+02  0.50400001928E-02 0. -1.
        1   -1    0    0  501    0  0.00000000000E+00  0.00000000000E+00 -0.85892365051E+03  0.85892365052E+03  0.50400001928E-02 0.  1.
    10030    2    1    2    0    0  0.00000000000E+00  0.00000000000E+00 -0.78622592680E+03  0.93162137441E+03  0.49976712307E+03 0.  0.
        5    1    3    3  502    0  0.18638896832E+03  0.13651574322E+03 -0.21585268577E+03  0.31621490732E+03  0.46999998093E+01 0. -1.
       -5    1    3    3    0  502 -0.18638896832E+03 -0.13651574322E+03 -0.57037324103E+03  0.61540646709E+03  0.46999998093E+01 0.  1.
</event>
<event>
 5   0  0.2723308E-02  0.4951609E+03  0.7818609E-02  0.1015050E+00
       -1   -1    0    0    0  501  0.00000000000E+00  0.00000000000E+00  0.22258572639E+03  0.22258572645E+03  0.50400001928E-02 0.  1.
        1   -1    0    0  501    0  0.00000000000E+00  0.00000000000E+00 -0.27538184104E+03  0.27538184108E+03  0.50400001928E-02 0. -1.
    10030    2    1    2    0    0  0.00000000000E+00  0.00000000000E+00 -0.52796114649E+02  0.49796756753E+03  0.49516085123E+03 0.  0.
        4    1    3    3  502    0 -0.19520887164E+03  0.10329975807E+03 -0.13891211915E+03  0.26091288456E+03  0.12699999809E+01 0. -1.
       -4    1    3    3    0  502  0.19520887164E+03 -0.10329975807E+03  0.86116004498E+02  0.23705468297E+03  0.12699999809E+01 0.  1.
</event>
<event>
 5   0  0.4519539E-02  0.4956985E+03  0.7818609E-02  0.1014908E+00
       -2   -1    0    0    0  501  0.00000000000E+00  0.00000000000E+00  0.52073559531E+03  0.52073559532E+03  0.25500000920E-02 0.  1.
        2   -1    0    0  501    0  0.00000000000E+00  0.00000000000E+00 -0.11796631974E+03  0.11796631977E+03  0.25500000920E-02 0. -1.
    10030    2    1    2    0    0  0.00000000000E+00  0.00000000000E+00  0.40276927557E+03  0.63870191509E+03  0.49569854447E+03 0.  0.
        4    1    3    3  502    0 -0.13688015436E+03 -0.11583669457E+03 -0.19068688815E+02  0.18033176165E+03  0.12699999809E+01 0. -1.
       -4    1    3    3    0  502  0.13688015436E+03  0.11583669457E+03  0.42183796438E+03  0.45837015344E+03  0.12699999809E+01 0.  1.
</event>
<event>
 5   0  0.2643185E-02  0.4994965E+03  0.7818609E-02  0.1013910E+00
       -1   -1    0    0    0  501  0.00000000000E+00  0.00000000000E+00  0.63013636466E+03  0.63013636468E+03  0.50400001928E-02 0. -1.
        1   -1    0    0  501    0  0.00000000000E+00  0.00000000000E+00 -0.98985221318E+02  0.98985221446E+02  0.50400001928E-02 0.  1.
    10030    2    1    2    0    0  0.00000000000E+00  0.00000000000E+00  0.53115114334E+03  0.72912158613E+03  0.49949649677E+03 0.  0.
        1    1    3    3  502    0 -0.64070913184E+02  0.17206989190E+03  0.51269882789E+03  0.54458536316E+03  0.50400001928E-02 0. -1.
       -1    1    3    3    0  502  0.64070913184E+02 -0.17206989190E+03  0.18452315447E+02  0.18453622297E+03  0.50400001928E-02 0.  1.
</event>
<event>
 5   0  0.4519539E-02  0.5017405E+03  0.7818609E-02  0.1013326E+00
        2   -1    0    0  501    0  0.00000000000E+00  0.00000000000E+00  0.50262322002E+03  0.50262322003E+03  0.25500000920E-02 0. -1.
       -2   -1    0    0    0  501  0.00000000000E+00  0.00000000000E+00 -0.12521484354E+03  0.12521484357E+03  0.25500000920E-02 0.  1.
    10030    2    1    2    0    0  0.00000000000E+00  0.00000000000E+00  0.37740837648E+03  0.62783806359E+03  0.50174052204E+03 0.  0.
        4    1    3    3  502    0  0.38347729078E+02  0.28665953558E+02 -0.11944085481E+03  0.12868572538E+03  0.12699999809E+01 0.  1.
       -4    1    3    3    0  502 -0.38347729078E+02 -0.28665953558E+02  0.49684923129E+03  0.49915233822E+03  0.12699999809E+01 0. -1.
</event>
<event>
 5   0  0.4631619E-02  0.5001306E+03  0.7818609E-02  0.1013745E+00
        2   -1    0    0  501    0  0.00000000000E+00  0.00000000000E+00  0.70065717566E+03  0.70065717567E+03  0.25500000920E-02 0. -1.
       -2   -1    0    0    0  501  0.00000000000E+00  0.00000000000E+00 -0.89248559550E+02  0.89248559587E+02  0.25500000920E-02 0.  1.
    10030    2    1    2    0    0  0.00000000000E+00  0.00000000000E+00  0.61140861611E+03  0.78990573525E+03  0.50013055768E+03 0.  0.
        5    1    3    3  502    0  0.16217717687E+03  0.17572543856E+03  0.19040074223E+03  0.30570475805E+03  0.46999998093E+01 0.  1.
       -5    1    3    3    0  502 -0.16217717687E+03 -0.17572543856E+03  0.42100787389E+03  0.48420097720E+03  0.46999998093E+01 0. -1.
</event>
<event>
 5   0  0.2723308E-02  0.5015592E+03  0.7818609E-02  0.1013373E+00
        1   -1    0    0  501    0  0.00000000000E+00  0.00000000000E+00  0.37884762837E+03  0.37884762840E+03  0.50400001928E-02 0. -1.
       -1   -1    0    0    0  501  0.00000000000E+00  0.00000000000E+00 -0.16600450200E+03  0.16600450207E+03  0.50400001928E-02 0.  1.
    10030    2    1    2    0    0  0.00000000000E+00  0.00000000000E+00  0.21284312637E+03  0.54485213048E+03  0.50155921649E+03 0.  0.
        4    1    3    3  502    0  0.92935360167E+01 -0.33208882732E+02  0.37625614635E+03  0.37783528192E+03  0.12699999809E+01 0. -1.
       -4    1    3    3    0  502 -0.92935360167E+01  0.33208882732E+02 -0.16341301997E+03  0.16701684855E+03  0.12699999809E+01 0.  1.
</event>
<event>
 5   0  0.4631619E-02  0.4966071E+03  0.7818609E-02  0.1014668E+00
       -2   -1    0    0    0  501  0.00000000000E+00  0.00000000000E+00  0.37883187330E+03  0.37883187331E+03  0.25500000920E-02 0.  1.
        2   -1    0    0  501    0  0.00000000000E+00  0.00000000000E+00 -0.16274935521E+03  0.16274935523E+03  0.25500000920E-02 0. -1.
    10030    2    1    2    0    0  0.00000000000E+00  0.00000000000E+00  0.21608251808E+03  0.54158122854E+03  0.49660706045E+03 0.  0.
        5    1    3    3  502    0  0.88308987804E+01 -0.16798644970E+03  0.30715522909E+03  0.35023400294E+03  0.46999998093E+01 0.  1.
       -5    1    3    3    0  502 -0.88308987804E+01  0.16798644970E+03 -0.91072711008E+02  0.19134722560E+03  0.46999998093E+01 0. -1.
</event>
<event>
 5   0  0.1805500E-02  0.5098419E+03  0.7818609E-02  0.1011241E+00
        4   -1    0    0  501    0  0.00000000000E+00  0.00000000000E+00  0.22552111545E+03  0.22552469136E+03  0.12699999809E+01 0. -1.
       -4   -1    0    0    0  501  0.00000000000E+00  0.00000000000E+00 -0.28814624003E+03  0.28814903877E+03  0.12699999809E+01 0.  1.
    10030    2    1    2    0    0  0.00000000000E+00  0.00000000000E+00 -0.62625124582E+02  0.51367373013E+03  0.50984193118E+03 0.  0.
        1    1    3    3  502    0 -0.20155712136E+03 -0.11017445078E+03 -0.14269211258E+03  0.27041583125E+03  0.50400001928E-02 0.  1.
       -1    1    3    3    0  502  0.20155712136E+03  0.11017445078E+03  0.80066987994E+02  0.24325789888E+03  0.50400001928E-02 0. -1.
</event>
<event>
 5   0  0.1805500E-02  0.4973830E+03  0.7818609E-02  0.1014464E+00
        3   -1    0    0  501    0  0.00000000000E+00  0.00000000000E+00  0.12353983625E+03  0.12353987754E+03  0.10100000352E+00 0.  1.
       -3   -1    0    0    0  501  0.00000000000E+00  0.00000000000E+00 -0.50062759140E+03  0.50062760159E+03  0.10100000352E+00 0. -1.
    10030    2    1    2    0    0  0.00000000000E+00  0.00000000000E+00 -0.37708775515E+03  0.62416747912E+03  0.49738301832E+03 0.  0.
        3    1    3    3  502    0  0.24127823737E+03 -0.13510189485E+02 -0.11483775166E+03  0.26755454109E+03  0.10100000352E+00 0. -1.
       -3    1    3    3    0  502 -0.24127823737E+03  0.13510189485E+02 -0.26225000348E+03  0.35661293804E+03  0.10100000352E+00 0.  1.
</event>
<event>
 5   0  0.4534223E-02  0.5027911E+03  0.7818609E-02  0.1013053E+00
        2   -1    0    0  501    0  0.00000000000E+00  0.00000000000E+00  0.66285970137E+03  0.66285970138E+03  0.25500000920E-02 0.  1.
       -2   -1    0    0    0  501  0.00000000000E+00  0.00000000000E+00 -0.95344052753E+02  0.95344052787E+02  0.25500000920E-02 0. -1.
    10030    2    1    2    0    0  0.00000000000E+00  0.00000000000E+00  0.56751564862E+03  0.75820375416E+03  0.50279113099E+03 0.  0.
        2    1    3    3  502    0  0.57871481022E+02  0.24040403472E+03  0.35214347989E+03  0.43028855279E+03  0.25500000920E-02 0.  1.
       -2    1    3    3    0  502 -0.57871481022E+02 -0.24040403472E+03  0.21537216873E+03  0.32791520138E+03  0.25500000920E-02 0. -1.
</event>
<event>
 5   0  0.2779445E-02  0.5002289E+03  0.7818609E-02  0.1013719E+00
        1   -1    0    0  501    0  0.00000000000E+00  0.00000000000E+00  0.52054144343E+03  0.52054144345E+03  0.50400001928E-02 0.  1.
       -1   -1    0    0    0  501  0.00000000000E+00  0.00000000000E+00 -0.12017723512E+03  0.12017723523E+03  0.50400001928E-02 0. -1.
    10030    2    1    2    0    0  0.00000000000E+00  0.00000000000E+00  0.40036420830E+03  0.64071867868E+03  0.50022887354E+03 0.  0.
        3    1    3    3  502    0 -0.19916748453E+03 -0.33775874362E+02  0.11289250750E+02  0.20232635509E+03  0.10100000352E+00 0. -1.
       -3    1    3    3    0  502  0.19916748453E+03  0.33775874362E+02  0.38907495755E+03  0.43839232359E+03  0.10100000352E+00 0.  1.
</event>
</LesHouchesEvents>
