<LesHouchesEvents version="3.0">
<header>
<!--
#*********************************************************************
#                                                                    *
#                        MadGraph5_aMC@NLO                           *
#                                                                    *
#                           Going Beyond                             *
#                                                                    *
#                   http://madgraph.hep.uiuc.edu                     *
#                   http://madgraph.phys.ucl.ac.be                   *
#                   http://amcatnlo.cern.ch                          *
#                                                                    *
#                     The MadGraph5_aMC@NLO team                     *
#                                                                    *
#....................................................................*
#                                                                    *
# This file contains all the information necessary to reproduce      *
# the events generated:                                              *
#                                                                    *
# 1. software version                                                *
# 2. proc_card          : code generation info including model       *
# 3. param_card         : model primary parameters in the LH format  *
# 4. run_card           : running parameters (collider and cuts)     *
# 5. pythia_card        : present only if pythia has been run        *
# 6. pgs_card           : present only if pgs has been run           *
# 7. delphes_cards      : present only if delphes has been run       *
#                                                                    *
#                                                                    *
#*********************************************************************
-->
<MGVersion>
#5.2.2.3
</MGVersion>
<MG5ProcCard>
#************************************************************
#*                     MadGraph5_aMC@NLO                    *
#*                                                          *
#*                *                       *                 *
#*                  *        * *        *                   *
#*                    * * * * 5 * * * *                     *
#*                  *        * *        *                   *
#*                *                       *                 *
#*                                                          *
#*                                                          *
#*         VERSION 2.2.3                 2015-02-10         *
#*                                                          *
#*    The MadGraph5_aMC@NLO Development Team - Find us at   *
#*    https://server06.fynu.ucl.ac.be/projects/madgraph     *
#*                                                          *
#************************************************************
#*                                                          *
#*               Command File for MadGraph5_aMC@NLO         *
#*                                                          *
#*     run as ./bin/mg5_aMC  filename                       *
#*                                                          *
#************************************************************
set group_subprocesses Auto
set ignore_six_quark_processes False
set loop_optimized_output True
set gauge unitary
set complex_mass_scheme False
import model sm
define p = g u c d s u~ c~ d~ s~
define j = g u c d s u~ c~ d~ s~
define l+ = e+ mu+
define l- = e- mu-
define vl = ve vm vt
define vl~ = ve~ vm~ vt~
import model Zprime_UFO
generate p p > zph, zph > j j
add process p p > zph, zph > b b~
output Dijet_signal
</MG5ProcCard>
<MGProcCard>
#*********************************************************************
#                        MadGraph/MadEvent                           *
#                   http://madgraph.hep.uiuc.edu                     *
#                                                                    *
#                          proc_card.dat                             *
#*********************************************************************
#                                                                    *
#            This Files is generated by MADGRAPH 5                   *
#                                                                    *
# WARNING: This Files is generated for MADEVENT (compatibility issue)*
#          This files is NOT a valid MG4 proc_card.dat               *
#          Running this in MG4 will NEVER reproduce the result of MG5*
#                                                                    *
#*********************************************************************
#*********************************************************************
# Process(es) requested : mg2 input                                  *
#*********************************************************************
# Begin PROCESS # This is TAG. Do not modify this line
p p > zph , zph > j j           #Process
# Be carefull the coupling are here in MG5 convention
          
end_coup           # End the couplings input

done               # this tells MG there are no more procs
# End PROCESS  # This is TAG. Do not modify this line
#*********************************************************************
# Model information                                                  *
#*********************************************************************
# Begin MODEL  # This is TAG. Do not modify this line
Zprime_UFO
# End   MODEL  # This is TAG. Do not modify this line
#*********************************************************************
# Start multiparticle definitions                                    *
#*********************************************************************
# Begin MULTIPARTICLES # This is TAG. Do not modify this line

# End  MULTIPARTICLES # This is TAG. Do not modify this line
</MGProcCard>
<MGRunCard>
#*********************************************************************
#                       MadGraph5_aMC@NLO                            *
#                                                                    *
#                     run_card.dat MadEvent                          *
#                                                                    *
#  This file is used to set the parameters of the run.               *
#                                                                    *
#  Some notation/conventions:                                        *
#                                                                    *
#   Lines starting with a '# ' are info or comments                  *
#                                                                    *
#   mind the format:   value    = variable     ! comment             *
#*********************************************************************
#
#*******************                                                 
# Running parameters
#*******************                                                 
#                                                                    
#*********************************************************************
# Tag name for the run (one word)                                    *
#*********************************************************************
  tag_1     = run_tag ! name of the run 
#*********************************************************************
# Run to generate the grid pack                                      *
#*********************************************************************
  .false.     = gridpack  !True = setting up the grid pack
#*********************************************************************
# Number of events and rnd seed                                      *
# Warning: Do not generate more than 1M events in a single run       *
# If you want to run Pythia, avoid more than 50k events in a run.    *
#*********************************************************************
  2000 = nevents ! Number of unweighted events requested 
 1839 = iseed   ! rnd seed (0=assigned automatically=default))
#*********************************************************************
# Collider type and energy                                           *
# lpp: 0=No PDF, 1=proton, -1=antiproton, 2=photon from proton,      *
#                                         3=photon from electron     *
#*********************************************************************
        1     = lpp1    ! beam 1 type 
        1     = lpp2    ! beam 2 type
     4000     = ebeam1  ! beam 1 total energy in GeV
     4000     = ebeam2  ! beam 2 total energy in GeV
#*********************************************************************
# Beam polarization from -100 (left-handed) to 100 (right-handed)    *
#*********************************************************************
        0     = polbeam1 ! beam polarization for beam 1
        0     = polbeam2 ! beam polarization for beam 2
#*********************************************************************
# PDF CHOICE: this automatically fixes also alpha_s and its evol.    *
#*********************************************************************
 'nn23lo1'    = pdlabel     ! PDF set                                     
 230000    = lhaid     ! if pdlabel=lhapdf, this is the lhapdf number
#*********************************************************************
# Renormalization and factorization scales                           *
#*********************************************************************
 F        = fixed_ren_scale  ! if .true. use fixed ren scale
 F        = fixed_fac_scale  ! if .true. use fixed fac scale
 91.1880  = scale            ! fixed ren scale
 91.1880  = dsqrt_q2fact1    ! fixed fact scale for pdf1
 91.1880  = dsqrt_q2fact2    ! fixed fact scale for pdf2
 1        = scalefact        ! scale factor for event-by-event scales
#*********************************************************************
# Matching - Warning! ickkw > 1 is still beta
#*********************************************************************
 0        = ickkw            ! 0 no matching, 1 MLM, 2 CKKW matching
 1        = highestmult      ! for ickkw=2, highest mult group
 1        = ktscheme         ! for ickkw=1, 1 Durham kT, 2 Pythia pTE
 1        = alpsfact         ! scale factor for QCD emission vx
 F        = chcluster        ! cluster only according to channel diag
 T        = pdfwgt           ! for ickkw=1, perform pdf reweighting
 5        = asrwgtflavor     ! highest quark flavor for a_s reweight
 T        = clusinfo         ! include clustering tag in output
 3.0      = lhe_version       ! Change the way clustering information pass to shower.        
#*********************************************************************
#**********************************************************
#
#**********************************************************
# Automatic ptj and mjj cuts if xqcut > 0
# (turn off for VBF and single top processes)
#**********************************************************
   T  = auto_ptj_mjj  ! Automatic setting of ptj and mjj
#**********************************************************
#                                                                    
#**********************************
# BW cutoff (M+/-bwcutoff*Gamma)
#**********************************
  15  = bwcutoff      ! (M+/-bwcutoff*Gamma)
#**********************************************************
# Apply pt/E/eta/dr/mij cuts on decay products or not
# (note that etmiss/ptll/ptheavy/ht/sorted cuts always apply)
#**********************************************************
   T  = cut_decays    ! Cut decay products 
#*************************************************************
# Number of helicities to sum per event (0 = all helicities)
# 0 gives more stable result, but longer run time (needed for
# long decay chains e.g.).
# Use >=2 if most helicities contribute, e.g. pure QCD.
#*************************************************************
   0  = nhel          ! Number of helicities used per event
#*******************                                                 
# Standard Cuts
#*******************                                                 
#                                                                    
#*********************************************************************
# Minimum and maximum pt's (for max, -1 means no cut)                *
#*********************************************************************
 20  = ptj       ! minimum pt for the jets 
  0  = ptb       ! minimum pt for the b 
 10  = pta       ! minimum pt for the photons 
 10  = ptl       ! minimum pt for the charged leptons 
  0  = misset    ! minimum missing Et (sum of neutrino's momenta)
  0  = ptheavy   ! minimum pt for one heavy final state
 1.0 = ptonium   ! minimum pt for the quarkonium states
 -1  = ptjmax    ! maximum pt for the jets
 -1  = ptbmax    ! maximum pt for the b
 -1  = ptamax    ! maximum pt for the photons
 -1  = ptlmax    ! maximum pt for the charged leptons
 -1  = missetmax ! maximum missing Et (sum of neutrino's momenta)
#*********************************************************************
# Minimum and maximum E's (in the center of mass frame)              *
#*********************************************************************
  0  = ej     ! minimum E for the jets 
  0  = eb     ! minimum E for the b 
  0  = ea     ! minimum E for the photons 
  0  = el     ! minimum E for the charged leptons 
 -1   = ejmax ! maximum E for the jets
 -1   = ebmax ! maximum E for the b
 -1   = eamax ! maximum E for the photons
 -1   = elmax ! maximum E for the charged leptons
#*********************************************************************
# Maximum and minimum absolute rapidity (for max, -1 means no cut)   *
#*********************************************************************
   5  = etaj    ! max rap for the jets 
  -1  = etab    ! max rap for the b
 2.5  = etaa    ! max rap for the photons 
 2.5  = etal    ! max rap for the charged leptons 
 0.6  = etaonium ! max rap for the quarkonium states
   0  = etajmin ! min rap for the jets
   0  = etabmin ! min rap for the b
   0  = etaamin ! min rap for the photons
   0  = etalmin ! main rap for the charged leptons
#*********************************************************************
# Minimum and maximum DeltaR distance                                *
#*********************************************************************
 0.4 = drjj    ! min distance between jets 
 0   = drbb    ! min distance between b's 
 0.4 = drll    ! min distance between leptons 
 0.4 = draa    ! min distance between gammas 
 0   = drbj    ! min distance between b and jet 
 0.4 = draj    ! min distance between gamma and jet 
 0.4 = drjl    ! min distance between jet and lepton 
 0   = drab    ! min distance between gamma and b 
 0   = drbl    ! min distance between b and lepton 
 0.4 = dral    ! min distance between gamma and lepton 
 -1  = drjjmax ! max distance between jets
 -1  = drbbmax ! max distance between b's
 -1  = drllmax ! max distance between leptons
 -1  = draamax ! max distance between gammas
 -1  = drbjmax ! max distance between b and jet
 -1  = drajmax ! max distance between gamma and jet
 -1  = drjlmax ! max distance between jet and lepton
 -1  = drabmax ! max distance between gamma and b
 -1  = drblmax ! max distance between b and lepton
 -1  = dralmax ! maxdistance between gamma and lepton
#*********************************************************************
# Minimum and maximum invariant mass for pairs                       *
# WARNING: for four lepton final state mmll cut require to have      *
#          different lepton masses for each flavor!                  *           
#*********************************************************************
 0   = mmjj    ! min invariant mass of a jet pair 
 0   = mmbb    ! min invariant mass of a b pair 
 0   = mmaa    ! min invariant mass of gamma gamma pair
 0   = mmll    ! min invariant mass of l+l- (same flavour) lepton pair
 -1  = mmjjmax ! max invariant mass of a jet pair
 -1  = mmbbmax ! max invariant mass of a b pair
 -1  = mmaamax ! max invariant mass of gamma gamma pair
 -1  = mmllmax ! max invariant mass of l+l- (same flavour) lepton pair
#*********************************************************************
# Minimum and maximum invariant mass for all letpons                 *
#*********************************************************************
 0   = mmnl    ! min invariant mass for all letpons (l+- and vl) 
 -1  = mmnlmax ! max invariant mass for all letpons (l+- and vl) 
#*********************************************************************
# Minimum and maximum pt for 4-momenta sum of leptons                *
#*********************************************************************
 0   = ptllmin  ! Minimum pt for 4-momenta sum of leptons(l and vl)
 -1  = ptllmax  ! Maximum pt for 4-momenta sum of leptons(l and vl)
#*********************************************************************
# Inclusive cuts                                                     *
#*********************************************************************
 0  = xptj ! minimum pt for at least one jet  
 0  = xptb ! minimum pt for at least one b 
 0  = xpta ! minimum pt for at least one photon 
 0  = xptl ! minimum pt for at least one charged lepton 
#*********************************************************************
# Control the pt's of the jets sorted by pt                          *
#*********************************************************************
 0   = ptj1min ! minimum pt for the leading jet in pt
 0   = ptj2min ! minimum pt for the second jet in pt
 0   = ptj3min ! minimum pt for the third jet in pt
 0   = ptj4min ! minimum pt for the fourth jet in pt
 -1  = ptj1max ! maximum pt for the leading jet in pt 
 -1  = ptj2max ! maximum pt for the second jet in pt
 -1  = ptj3max ! maximum pt for the third jet in pt
 -1  = ptj4max ! maximum pt for the fourth jet in pt
 0   = cutuse  ! reject event if fails any (0) / all (1) jet pt cuts
#*********************************************************************
# Control the pt's of leptons sorted by pt                           *
#*********************************************************************
 0   = ptl1min ! minimum pt for the leading lepton in pt
 0   = ptl2min ! minimum pt for the second lepton in pt
 0   = ptl3min ! minimum pt for the third lepton in pt
 0   = ptl4min ! minimum pt for the fourth lepton in pt
 -1  = ptl1max ! maximum pt for the leading lepton in pt 
 -1  = ptl2max ! maximum pt for the second lepton in pt
 -1  = ptl3max ! maximum pt for the third lepton in pt
 -1  = ptl4max ! maximum pt for the fourth lepton in pt
#*********************************************************************
# Control the Ht(k)=Sum of k leading jets                            *
#*********************************************************************
 0   = htjmin ! minimum jet HT=Sum(jet pt)
 -1  = htjmax ! maximum jet HT=Sum(jet pt)
 0   = ihtmin  !inclusive Ht for all partons (including b)
 -1  = ihtmax  !inclusive Ht for all partons (including b)
 0   = ht2min ! minimum Ht for the two leading jets
 0   = ht3min ! minimum Ht for the three leading jets
 0   = ht4min ! minimum Ht for the four leading jets
 -1  = ht2max ! maximum Ht for the two leading jets
 -1  = ht3max ! maximum Ht for the three leading jets
 -1  = ht4max ! maximum Ht for the four leading jets
#***********************************************************************
# Photon-isolation cuts, according to hep-ph/9801442                   *
# When ptgmin=0, all the other parameters are ignored                  *
# When ptgmin>0, pta and draj are not going to be used                 *
#***********************************************************************
   0 = ptgmin ! Min photon transverse momentum
 0.4 = R0gamma ! Radius of isolation code
 1.0 = xn ! n parameter of eq.(3.4) in hep-ph/9801442
 1.0 = epsgamma ! epsilon_gamma parameter of eq.(3.4) in hep-ph/9801442
 .true. = isoEM ! isolate photons from EM energy (photons and leptons)
#*********************************************************************
# WBF cuts                                                           *
#*********************************************************************
 0   = xetamin ! minimum rapidity for two jets in the WBF case  
 0   = deltaeta ! minimum rapidity for two jets in the WBF case 
#*********************************************************************
# KT DURHAM CUT                                                      *
#*********************************************************************
 -1    =  ktdurham        
 0.4  =  dparameter 
#*********************************************************************
# maximal pdg code for quark to be considered as a light jet         *
# (otherwise b cuts are applied)                                     *
#*********************************************************************
 4 = maxjetflavor    ! Maximum jet pdg code
#*********************************************************************
# Jet measure cuts                                                   *
#*********************************************************************
 0   = xqcut   ! minimum kt jet measure between partons
#*********************************************************************
#
#*********************************************************************
# Store info for systematics studies                                 *
# WARNING: If use_syst is T, matched Pythia output is                *
#          meaningful ONLY if plotted taking matchscale              *
#          reweighting into account!                                 *
#*********************************************************************
   F  = use_syst      ! Enable systematics studies
#
#**************************************
# Parameter of the systematics study
#  will be used by SysCalc (if installed)
#**************************************                                  
#
0.5 1 2 = sys_scalefact  # factorization/renormalization scale factor
0.5 1 2 = sys_alpsfact  # \alpha_s emission scale factors
30 50 = sys_matchscale # variation of merging scale
# PDF sets and number of members (0 or none for all members).
CT10nlo.LHgrid = sys_pdf # matching scales
# MSTW2008nlo68cl.LHgrid 1  = sys_pdf
</MGRunCard>
<slha>
######################################################################
## PARAM_CARD AUTOMATICALY GENERATED BY MG5 FOLLOWING UFO MODEL   ####
######################################################################
##                                                                  ##
##  Width set on Auto will be computed following the information    ##
##        present in the decay.py files of the model.               ##
##        See  arXiv:1402.1178 for more details.                    ##
##                                                                  ##
######################################################################

###################################
## INFORMATION FOR CKMBLOCK
###################################
Block ckmblock 
    1 2.277360e-01 # cabi 

###################################
## INFORMATION FOR FRBLOCK
###################################
Block frblock 
    1 1.000000e+00 # gz 

###################################
## INFORMATION FOR MASS
###################################
Block mass 
    1 5.040000e-03 # MD 
    2 2.550000e-03 # MU 
    3 1.010000e-01 # MS 
    4 1.270000e+00 # MC 
    5 4.700000e+00 # MB 
    6 1.720000e+02 # MT 
   11 5.110000e-04 # Me 
   13 1.056600e-01 # MM 
   15 1.777000e+00 # MTA 
   23 9.118760e+01 # MZ 
   25 1.200000e+02 # MH 
  10030 1.000000e+03 # MZph 
  10031 3.000000e+02 # MZpl 
## Dependent parameters, given by model restrictions.
## Those values should be edited following the 
## analytical expression. MG5 ignores those values 
## but they are important for interfacing the output of MG5
## to external program such as Pythia.
  12 0.000000 # ve : 0.0 
  14 0.000000 # vm : 0.0 
  16 0.000000 # vt : 0.0 
  21 0.000000 # g : 0.0 
  22 0.000000 # a : 0.0 
  24 79.824360 # w+ : cmath.sqrt(MZ__exp__2/2. + cmath.sqrt(MZ__exp__4/4. - (aEW*cmath.pi*MZ__exp__2)/(Gf*sqrt__2))) 

###################################
## INFORMATION FOR SMINPUTS
###################################
Block sminputs 
    1 1.279000e+02 # aEWM1 
    2 1.166370e-05 # Gf 
    3 1.184000e-01 # aS 

###################################
## INFORMATION FOR YUKAWA
###################################
Block yukawa 
    1 5.040000e-03 # ymdo 
    2 2.550000e-03 # ymup 
    3 1.010000e-01 # yms 
    4 1.270000e+00 # ymc 
    5 4.700000e+00 # ymb 
    6 1.720000e+02 # ymt 
   11 5.110000e-04 # yme 
   13 1.056600e-01 # ymm 
   15 1.777000e+00 # ymtau 

###################################
## INFORMATION FOR DECAY
###################################
DECAY   6 1.508336e+00 # WT 
DECAY  23 2.495200e+00 # WZ 
DECAY  24 2.085000e+00 # WW 
DECAY  25 5.753088e-03 # WH 
## Dependent parameters, given by model restrictions.
## Those values should be edited following the 
## analytical expression. MG5 ignores those values 
## but they are important for interfacing the output of MG5
## to external program such as Pythia.
DECAY  1 0.000000 # d : 0.0 
DECAY  2 0.000000 # u : 0.0 
DECAY  3 0.000000 # s : 0.0 
DECAY  4 0.000000 # c : 0.0 
DECAY  5 0.000000 # b : 0.0 
DECAY  11 0.000000 # e- : 0.0 
DECAY  12 0.000000 # ve : 0.0 
DECAY  13 0.000000 # mu- : 0.0 
DECAY  14 0.000000 # vm : 0.0 
DECAY  15 0.000000 # ta- : 0.0 
DECAY  16 0.000000 # vt : 0.0 
DECAY  21 0.000000 # g : 0.0 
DECAY  22 0.000000 # a : 0.0 
DECAY  10030 0.308725 # zph : (gz__exp__2*MZph*(5 + cmath.sqrt(1 - (4*MT__exp__2)/MZph__exp__2)))/(144.*cmath.pi) 
DECAY  10031 0.132629 # zpl : (5*gz__exp__2*MZpl)/(144.*cmath.pi) 
#===========================================================
# QUANTUM NUMBERS OF NEW STATE(S) (NON SM PDG CODE)
#===========================================================

Block QNUMBERS 10030  # zph 
        1 0  # 3 times electric charge
        2 3  # number of spin states (2S+1)
        3 1  # colour rep (1: singlet, 3: triplet, 8: octet)
        4 0  # Particle/Antiparticle distinction (0=own anti)
Block QNUMBERS 10031  # zpl 
        1 0  # 3 times electric charge
        2 3  # number of spin states (2S+1)
        3 1  # colour rep (1: singlet, 3: triplet, 8: octet)
        4 0  # Particle/Antiparticle distinction (0=own anti)
</slha>
## END BANNER##
<MGGenerationInfo>
#  Number of Events        :         4044
#  Integrated weight (pb)  :  0.19342E+01
#  Max wgt                 :  0.66069E-03
#  Average wgt             :  0.47829E-03
</MGGenerationInfo>
</header>
<init>
     2212     2212  0.40000000000E+04  0.40000000000E+04 0 0  247000  247000 2   1
  0.19332618958E+01  0.42820221734E-02  0.66069470000E-03   0
</init>
<event>
 5   0  0.6606947E-03  0.9998688E+03  0.7818609E-02  0.9308689E-01
       -2   -1    0    0    0  501  0.00000000000E+00  0.00000000000E+00  0.29728049419E+03  0.29728049420E+03  0.25500000920E-02 0. -1.
        2   -1    0    0  501    0  0.00000000000E+00  0.00000000000E+00 -0.84073603960E+03  0.84073603960E+03  0.25500000920E-02 0.  1.
    10030    2    1    2    0    0  0.00000000000E+00  0.00000000000E+00 -0.54345554540E+03  0.11380165338E+04  0.99986884209E+03 0.  0.
        1    1    3    3  502    0 -0.32581047070E+03 -0.27964486536E+03 -0.56319759734E+03  0.70819859306E+03  0.50400001928E-02 0. -1.
       -1    1    3    3    0  502  0.32581047070E+03  0.27964486536E+03  0.19742051935E+02  0.42981794074E+03  0.50400001928E-02 0.  1.
</event>
<event>
 5   0  0.6606947E-03  0.1018784E+04  0.7818609E-02  0.9288179E-01
       -2   -1    0    0    0  501  0.00000000000E+00  0.00000000000E+00  0.33346777943E+03  0.33346777944E+03  0.25500000920E-02 0.  1.
        2   -1    0    0  501    0  0.00000000000E+00  0.00000000000E+00 -0.77812752112E+03  0.77812752112E+03  0.25500000920E-02 0. -1.
    10030    2    1    2    0    0  0.00000000000E+00  0.00000000000E+00 -0.44465974169E+03  0.11115953006E+04  0.10187844847E+04 0.  0.
        1    1    3    3  502    0  0.28095515837E+03  0.24707132632E+03  0.15485050323E+03  0.40491816417E+03  0.50400001928E-02 0.  1.
       -1    1    3    3    0  502 -0.28095515837E+03 -0.24707132632E+03 -0.59951024492E+03  0.70667713639E+03  0.50400001928E-02 0. -1.
</event>
<event>
 5   0  0.6376961E-03  0.1001345E+04  0.7818609E-02  0.9307070E-01
        2   -1    0    0  501    0  0.00000000000E+00  0.00000000000E+00  0.15430837566E+04  0.15430837566E+04  0.25500000920E-02 0. -1.
       -2   -1    0    0    0  501  0.00000000000E+00  0.00000000000E+00 -0.16244947365E+03  0.16244947367E+03  0.25500000920E-02 0.  1.
    10030    2    1    2    0    0  0.00000000000E+00  0.00000000000E+00  0.13806342829E+04  0.17055332302E+04  0.10013453831E+04 0.  0.
        3    1    3    3  502    0  0.24472602132E+03 -0.42975417835E+03  0.82327536406E+03  0.96039669647E+03  0.10100000352E+00 0.  1.
       -3    1    3    3    0  502 -0.24472602132E+03  0.42975417835E+03  0.55735891885E+03  0.74513653376E+03  0.10100000352E+00 0. -1.
</event>
<event>
 5   0  0.6606947E-03  0.1001088E+04  0.7818609E-02  0.9307352E-01
        2   -1    0    0  501    0  0.00000000000E+00  0.00000000000E+00  0.10651771726E+04  0.10651771726E+04  0.25500000920E-02 0.  1.
       -2   -1    0    0    0  501  0.00000000000E+00  0.00000000000E+00 -0.23521378557E+03  0.23521378558E+03  0.25500000920E-02 0. -1.
    10030    2    1    2    0    0  0.00000000000E+00  0.00000000000E+00  0.82996338708E+03  0.13003909582E+04  0.10010881182E+04 0.  0.
        1    1    3    3  502    0  0.13475064881E+03  0.48193394311E+03  0.40038381069E+03  0.64087850546E+03  0.50400001928E-02 0.  1.
       -1    1    3    3    0  502 -0.13475064881E+03 -0.48193394311E+03  0.42957957639E+03  0.65951245277E+03  0.50400001928E-02 0. -1.
</event>
<event>
 5   0  0.6376961E-03  0.1004519E+04  0.7818609E-02  0.9303602E-01
       -2   -1    0    0    0  501  0.00000000000E+00  0.00000000000E+00  0.14742655080E+03  0.14742655082E+03  0.25500000920E-02 0.  1.
        2   -1    0    0  501    0  0.00000000000E+00  0.00000000000E+00 -0.17111210937E+04  0.17111210937E+04  0.25500000920E-02 0. -1.
    10030    2    1    2    0    0  0.00000000000E+00  0.00000000000E+00 -0.15636945429E+04  0.18585476445E+04  0.10045191504E+04 0.  0.
        3    1    3    3  502    0  0.32928219609E+03 -0.19453483714E+02 -0.14826246694E+04  0.15188749532E+04  0.10100000352E+00 0. -1.
       -3    1    3    3    0  502 -0.32928219609E+03  0.19453483714E+02 -0.81069873492E+02  0.33967269139E+03  0.10100000352E+00 0.  1.
</event>
<event>
 5   0  0.3608845E-03  0.1002778E+04  0.7818609E-02  0.9305503E-01
        1   -1    0    0  501    0  0.00000000000E+00  0.00000000000E+00  0.68797883855E+03  0.68797883857E+03  0.50400001928E-02 0. -1.
       -1   -1    0    0    0  501  0.00000000000E+00  0.00000000000E+00 -0.36540499830E+03  0.36540499834E+03  0.50400001928E-02 0.  1.
    10030    2    1    2    0    0  0.00000000000E+00  0.00000000000E+00  0.32257384024E+03  0.10533838369E+04  0.10027779542E+04 0.  0.
        1    1    3    3  502    0  0.34129791004E+03  0.12104055721E+03  0.52556659172E+03  0.63824393632E+03  0.50400001928E-02 0. -1.
       -1    1    3    3    0  502 -0.34129791004E+03 -0.12104055721E+03 -0.20299275147E+03  0.41513990059E+03  0.50400001928E-02 0.  1.
</event>
<event>
 5   0  0.3466598E-03  0.9802812E+03  0.7818609E-02  0.9330440E-01
       -1   -1    0    0    0  501  0.00000000000E+00  0.00000000000E+00  0.97643208321E+02  0.97643208451E+02  0.50400001928E-02 0. -1.
        1   -1    0    0  501    0  0.00000000000E+00  0.00000000000E+00 -0.24603638003E+04  0.24603638003E+04  0.50400001928E-02 0.  1.
    10030    2    1    2    0    0  0.00000000000E+00  0.00000000000E+00 -0.23627205920E+04  0.25580070088E+04  0.98028121531E+03 0.  0.
        3    1    3    3  502    0  0.37630678602E+03 -0.17833451057E+03 -0.18559343994E+04  0.19020784684E+04  0.10100000352E+00 0.  1.
       -3    1    3    3    0  502 -0.37630678602E+03  0.17833451057E+03 -0.50678619256E+03  0.65592854034E+03  0.10100000352E+00 0. -1.
</event>
<event>
 5   0  0.6606947E-03  0.9983295E+03  0.7818609E-02  0.9310379E-01
       -2   -1    0    0    0  501  0.00000000000E+00  0.00000000000E+00  0.52522253765E+03  0.52522253765E+03  0.25500000920E-02 0.  1.
        2   -1    0    0  501    0  0.00000000000E+00  0.00000000000E+00 -0.47439979972E+03  0.47439979973E+03  0.25500000920E-02 0. -1.
    10030    2    1    2    0    0  0.00000000000E+00  0.00000000000E+00  0.50822737926E+02  0.99962233738E+03  0.99832953813E+03 0.  0.
        1    1    3    3  502    0  0.34316233697E+03 -0.11538782380E+03  0.36949968814E+03  0.51730528603E+03  0.50400001928E-02 0.  1.
       -1    1    3    3    0  502 -0.34316233697E+03  0.11538782380E+03 -0.31867695022E+03  0.48231705135E+03  0.50400001928E-02 0. -1.
</event>
<event>
 5   0  0.3643002E-03  0.9861205E+03  0.7818609E-02  0.9323900E-01
        1   -1    0    0  501    0  0.00000000000E+00  0.00000000000E+00  0.64844460473E+03  0.64844460475E+03  0.50400001928E-02 0.  1.
       -1   -1    0    0    0  501  0.00000000000E+00  0.00000000000E+00 -0.37491006035E+03  0.37491006038E+03  0.50400001928E-02 0. -1.
    10030    2    1    2    0    0  0.00000000000E+00  0.00000000000E+00  0.27353454438E+03  0.10233546651E+04  0.98612049146E+03 0.  0.
        2    1    3    3  502    0 -0.37059071727E+03 -0.15067892622E+03 -0.16232824052E+03  0.43173148624E+03  0.25500000920E-02 0.  1.
       -2    1    3    3    0  502  0.37059071727E+03  0.15067892622E+03  0.43586278491E+03  0.59162317890E+03  0.25500000920E-02 0. -1.
</event>
<event>
 5   0  0.6606947E-03  0.1005475E+04  0.7818609E-02  0.9302560E-01
       -2   -1    0    0    0  501  0.00000000000E+00  0.00000000000E+00  0.33036126944E+03  0.33036126945E+03  0.25500000920E-02 0. -1.
        2   -1    0    0  501    0  0.00000000000E+00  0.00000000000E+00 -0.76505627793E+03  0.76505627793E+03  0.25500000920E-02 0.  1.
    10030    2    1    2    0    0  0.00000000000E+00  0.00000000000E+00 -0.43469500848E+03  0.10954175474E+04  0.10054749389E+04 0.  0.
        1    1    3    3  502    0 -0.26010372736E+02  0.49340080383E+03 -0.11617451292E+03  0.50756025277E+03  0.50400001928E-02 0.  1.
       -1    1    3    3    0  502  0.26010372736E+02 -0.49340080383E+03 -0.31852049556E+03  0.58785729461E+03  0.50400001928E-02 0. -1.
</event>
<event>
 5   0  0.2417750E-03  0.1000831E+04  0.7818609E-02  0.9307634E-01
       -4   -1    0    0    0  501  0.00000000000E+00  0.00000000000E+00  0.72100026156E+03  0.72100138008E+03  0.12699999809E+01 0. -1.
        4   -1    0    0  501    0  0.00000000000E+00  0.00000000000E+00 -0.34731439374E+03  0.34731671569E+03  0.12699999809E+01 0.  1.
    10030    2    1    2    0    0  0.00000000000E+00  0.00000000000E+00  0.37368586782E+03  0.10683180958E+04  0.10008308678E+04 0.  0.
        1    1    3    3  502    0  0.18741635864E+02 -0.25535199260E+02  0.71993084816E+03  0.72062731108E+03  0.50400001928E-02 0. -1.
       -1    1    3    3    0  502 -0.18741635864E+02  0.25535199260E+02 -0.34624498035E+03  0.34769078469E+03  0.50400001928E-02 0.  1.
</event>
<event>
 5   0  0.6022787E-03  0.1054531E+04  0.7818609E-02  0.9250678E-01
       -2   -1    0    0    0  501  0.00000000000E+00  0.00000000000E+00  0.50373656193E+03  0.50373656194E+03  0.25500000920E-02 0. -1.
        2   -1    0    0  501    0  0.00000000000E+00  0.00000000000E+00 -0.55189358138E+03  0.55189358139E+03  0.25500000920E-02 0.  1.
    10030    2    1    2    0    0  0.00000000000E+00  0.00000000000E+00 -0.48157019449E+02  0.10556301433E+04  0.10545311285E+04 0.  0.
        5    1    3    3  502    0 -0.12654364220E+03 -0.29307810214E+03  0.39597627480E+03  0.50865250175E+03  0.46999998093E+01 0. -1.
       -5    1    3    3    0  502  0.12654364220E+03  0.29307810214E+03 -0.44413329424E+03  0.54697764158E+03  0.46999998093E+01 0.  1.
</event>
<event>
 5   0  0.3640180E-03  0.9906091E+03  0.7818609E-02  0.9318905E-01
        1   -1    0    0  501    0  0.00000000000E+00  0.00000000000E+00  0.18701397628E+04  0.18701397628E+04  0.50400001928E-02 0. -1.
       -1   -1    0    0    0  501  0.00000000000E+00  0.00000000000E+00 -0.13118089931E+03  0.13118089941E+03  0.50400001928E-02 0.  1.
    10030    2    1    2    0    0  0.00000000000E+00  0.00000000000E+00  0.17389588635E+04  0.20013206622E+04  0.99060913791E+03 0.  0.
        5    1    3    3  502    0  0.18529216687E+03  0.22564422327E+03  0.16777380809E+04  0.17029608512E+04  0.46999998093E+01 0.  1.
       -5    1    3    3    0  502 -0.18529216687E+03 -0.22564422327E+03  0.61220782558E+02  0.29835981099E+03  0.46999998093E+01 0. -1.
</event>
<event>
 5   0  0.2417750E-03  0.9958454E+03  0.7818609E-02  0.9313113E-01
       -3   -1    0    0    0  501  0.00000000000E+00  0.00000000000E+00  0.94339542784E+03  0.94339543324E+03  0.10100000352E+00 0. -1.
        3   -1    0    0  501    0  0.00000000000E+00  0.00000000000E+00 -0.26280285209E+03  0.26280287150E+03  0.10100000352E+00 0.  1.
    10030    2    1    2    0    0  0.00000000000E+00  0.00000000000E+00  0.68059257575E+03  0.12061983047E+04  0.99584541782E+03 0.  0.
        1    1    3    3  502    0  0.19478794265E+03  0.28171998899E+03  0.77804933619E+03  0.85009956144E+03  0.50400001928E-02 0. -1.
       -1    1    3    3    0  502 -0.19478794265E+03 -0.28171998899E+03 -0.97456760441E+02  0.35609874330E+03  0.50400001928E-02 0.  1.
</event>
<event>
 5   0  0.3608845E-03  0.1004241E+04  0.7818609E-02  0.9303906E-01
        1   -1    0    0  501    0  0.00000000000E+00  0.00000000000E+00  0.14295528395E+04  0.14295528395E+04  0.50400001928E-02 0. -1.
       -1   -1    0    0    0  501  0.00000000000E+00  0.00000000000E+00 -0.17636628397E+03  0.17636628404E+03  0.50400001928E-02 0.  1.
    10030    2    1    2    0    0  0.00000000000E+00  0.00000000000E+00  0.12531865555E+04  0.16059191235E+04  0.10042408518E+04 0.  0.
        1    1    3    3  502    0  0.29400038167E+03  0.40600918782E+03  0.58010161802E+03  0.76667957601E+03  0.50400001928E-02 0.  1.
       -1    1    3    3    0  502 -0.29400038167E+03 -0.40600918782E+03  0.67308493750E+03  0.83923954753E+03  0.50400001928E-02 0. -1.
</event>
<event>
 5   0  0.3466598E-03  0.1001459E+04  0.7818609E-02  0.9306946E-01
        1   -1    0    0  501    0  0.00000000000E+00  0.00000000000E+00  0.33816930879E+03  0.33816930883E+03  0.50400001928E-02 0. -1.
       -1   -1    0    0    0  501  0.00000000000E+00  0.00000000000E+00 -0.74143306488E+03  0.74143306489E+03  0.50400001928E-02 0.  1.
    10030    2    1    2    0    0  0.00000000000E+00  0.00000000000E+00 -0.40326375608E+03  0.10796023737E+04  0.10014587502E+04 0.  0.
        3    1    3    3  502    0 -0.22465378966E+02  0.17299558616E+03 -0.70761470492E+03  0.72880089662E+03  0.10100000352E+00 0.  1.
       -3    1    3    3    0  502  0.22465378966E+02 -0.17299558616E+03  0.30435094884E+03  0.35080147711E+03  0.10100000352E+00 0. -1.
</event>
<event>
 5   0  0.3466598E-03  0.1005116E+04  0.7818609E-02  0.9302951E-01
        1   -1    0    0  501    0  0.00000000000E+00  0.00000000000E+00  0.61627668229E+03  0.61627668231E+03  0.50400001928E-02 0. -1.
       -1   -1    0    0    0  501  0.00000000000E+00  0.00000000000E+00 -0.40982359948E+03  0.40982359951E+03  0.50400001928E-02 0.  1.
    10030    2    1    2    0    0  0.00000000000E+00  0.00000000000E+00  0.20645308280E+03  0.10261002818E+04  0.10051163679E+04 0.  0.
        3    1    3    3  502    0  0.18546411742E+03 -0.20608488748E+03  0.53113944759E+03  0.59914692913E+03  0.10100000352E+00 0. -1.
       -3    1    3    3    0  502 -0.18546411742E+03  0.20608488748E+03 -0.32468636478E+03  0.42695335269E+03  0.10100000352E+00 0.  1.
</event>
<event>
 5   0  0.6606947E-03  0.9912569E+03  0.7818609E-02  0.9318186E-01
        2   -1    0    0  501    0  0.00000000000E+00  0.00000000000E+00  0.14860391008E+04  0.14860391008E+04  0.25500000920E-02 0. -1.
       -2   -1    0    0    0  501  0.00000000000E+00  0.00000000000E+00 -0.16530355878E+03  0.16530355880E+03  0.25500000920E-02 0.  1.
    10030    2    1    2    0    0  0.00000000000E+00  0.00000000000E+00  0.13207355420E+04  0.16513426596E+04  0.99125688271E+03 0.  0.
        1    1    3    3  502    0 -0.18222098792E+03 -0.38922718285E+03  0.24910351632E+03  0.49674425027E+03  0.50400001928E-02 0.  1.
       -1    1    3    3    0  502  0.18222098792E+03  0.38922718285E+03  0.10716320257E+04  0.11545984094E+04  0.50400001928E-02 0. -1.
</event>
<event>
 5   0  0.3569359E-03  0.9985188E+03  0.7818609E-02  0.9310171E-01
        1   -1    0    0  501    0  0.00000000000E+00  0.00000000000E+00  0.27130520484E+03  0.27130520489E+03  0.50400001928E-02 0.  1.
       -1   -1    0    0    0  501  0.00000000000E+00  0.00000000000E+00 -0.91874375807E+03  0.91874375808E+03  0.50400001928E-02 0. -1.
    10030    2    1    2    0    0  0.00000000000E+00  0.00000000000E+00 -0.64743855322E+03  0.11900489630E+04  0.99851883010E+03 0.  0.
        4    1    3    3  502    0 -0.34835719157E+03 -0.24989334792E+03 -0.18794278473E+02  0.42913197977E+03  0.12699999809E+01 0.  1.
       -4    1    3    3    0  502  0.34835719157E+03  0.24989334792E+03 -0.62864427475E+03  0.76091698320E+03  0.12699999809E+01 0. -1.
</event>
<event>
 5   0  0.3608845E-03  0.1001025E+04  0.7818609E-02  0.9307421E-01
        1   -1    0    0  501    0  0.00000000000E+00  0.00000000000E+00  0.79926978433E+03  0.79926978435E+03  0.50400001928E-02 0. -1.
       -1   -1    0    0    0  501  0.00000000000E+00  0.00000000000E+00 -0.31342730222E+03  0.31342730226E+03  0.50400001928E-02 0.  1.
    10030    2    1    2    0    0  0.00000000000E+00  0.00000000000E+00  0.48584248211E+03  0.11126970866E+04  0.10010254188E+04 0.  0.
        1    1    3    3  502    0 -0.76916046014E+02 -0.31926288982E+03  0.66277233210E+03  0.73967022056E+03  0.50400001928E-02 0. -1.
       -1    1    3    3    0  502  0.76916046014E+02  0.31926288982E+03 -0.17692984999E+03  0.37302686605E+03  0.50400001928E-02 0.  1.
</event>
<event>
 5   0  0.6199539E-03  0.1024828E+04  0.7818609E-02  0.9281725E-01
       -2   -1    0    0    0  501  0.00000000000E+00  0.00000000000E+00  0.27731067731E+03  0.27731067732E+03  0.25500000920E-02 0.  1.
        2   -1    0    0  501    0  0.00000000000E+00  0.00000000000E+00 -0.94683774453E+03  0.94683774453E+03  0.25500000920E-02 0. -1.
    10030    2    1    2    0    0  0.00000000000E+00  0.00000000000E+00 -0.66952706722E+03  0.12241484219E+04  0.10248282124E+04 0.  0.
        2    1    3    3  502    0 -0.35592389436E+03 -0.14245654898E+03 -0.74087746500E+03  0.83419128806E+03  0.25500000920E-02 0. -1.
       -2    1    3    3    0  502  0.35592389436E+03  0.14245654898E+03  0.71350397782E+02  0.38995713379E+03  0.25500000920E-02 0.  1.
</event>
<event>
 5   0  0.3466598E-03  0.9977816E+03  0.7818609E-02  0.9310981E-01
        1   -1    0    0  501    0  0.00000000000E+00  0.00000000000E+00  0.19282991021E+03  0.19282991027E+03  0.50400001928E-02 0.  1.
       -1   -1    0    0    0  501  0.00000000000E+00  0.00000000000E+00 -0.12907334324E+04  0.12907334324E+04  0.50400001928E-02 0. -1.
    10030    2    1    2    0    0  0.00000000000E+00  0.00000000000E+00 -0.10979035222E+04  0.14835633427E+04  0.99778156312E+03 0.  0.
        3    1    3    3  502    0  0.42675832412E+03 -0.21856326301E+03 -0.34400504811E+03  0.59011189657E+03  0.10100000352E+00 0.  1.
       -3    1    3    3    0  502 -0.42675832412E+03  0.21856326301E+03 -0.75389847406E+03  0.89345144610E+03  0.10100000352E+00 0. -1.
</event>
<event>
 5   0  0.2417750E-03  0.1088637E+04  0.7818609E-02  0.9216338E-01
       -3   -1    0    0    0  501  0.00000000000E+00  0.00000000000E+00  0.64351532026E+03  0.64351532819E+03  0.10100000352E+00 0. -1.
        3   -1    0    0  501    0  0.00000000000E+00  0.00000000000E+00 -0.46041271254E+03  0.46041272361E+03  0.10100000352E+00 0.  1.
    10030    2    1    2    0    0  0.00000000000E+00  0.00000000000E+00  0.18310260772E+03  0.11039280518E+04  0.10886370279E+04 0.  0.
        3    1    3    3  502    0 -0.40288507784E+03  0.29893857574E+03 -0.12260690175E+03  0.51644275633E+03  0.10100000352E+00 0.  1.
       -3    1    3    3    0  502  0.40288507784E+03 -0.29893857574E+03  0.30570950948E+03  0.58748529547E+03  0.10100000352E+00 0. -1.
</event>
<event>
 5   0  0.6376961E-03  0.9969995E+03  0.7818609E-02  0.9311842E-01
        2   -1    0    0  501    0  0.00000000000E+00  0.00000000000E+00  0.77613605858E+03  0.77613605858E+03  0.25500000920E-02 0. -1.
       -2   -1    0    0    0  501  0.00000000000E+00  0.00000000000E+00 -0.32017839330E+03  0.32017839331E+03  0.25500000920E-02 0.  1.
    10030    2    1    2    0    0  0.00000000000E+00  0.00000000000E+00  0.45595766527E+03  0.10963144519E+04  0.99699949093E+03 0.  0.
        3    1    3    3  502    0  0.37512195098E+03 -0.32082429065E+03  0.15134211744E+03  0.51628398221E+03  0.10100000352E+00 0. -1.
       -3    1    3    3    0  502 -0.37512195098E+03  0.32082429065E+03  0.30461554783E+03  0.58003046968E+03  0.10100000352E+00 0.  1.
</event>
<event>
 5   0  0.3608845E-03  0.9888357E+03  0.7818609E-02  0.9320875E-01
       -1   -1    0    0    0  501  0.00000000000E+00  0.00000000000E+00  0.24228605169E+03  0.24228605175E+03  0.50400001928E-02 0.  1.
        1   -1    0    0  501    0  0.00000000000E+00  0.00000000000E+00 -0.10089273421E+04  0.10089273421E+04  0.50400001928E-02 0. -1.
    10030    2    1    2    0    0  0.00000000000E+00  0.00000000000E+00 -0.76664129041E+03  0.12512133939E+04  0.98883572388E+03 0.  0.
        1    1    3    3  502    0 -0.28529519495E+03  0.14795210818E+03 -0.85873474397E+03  0.91690159510E+03  0.50400001928E-02 0. -1.
       -1    1    3    3    0  502  0.28529519495E+03 -0.14795210818E+03  0.92093453561E+02  0.33431179876E+03  0.50400001928E-02 0.  1.
</event>
<event>
 5   0  0.6199539E-03  0.9918346E+03  0.7818609E-02  0.9317546E-01
        2   -1    0    0  501    0  0.00000000000E+00  0.00000000000E+00  0.98433077904E+03  0.98433077904E+03  0.25500000920E-02 0.  1.
       -2   -1    0    0    0  501  0.00000000000E+00  0.00000000000E+00 -0.24984892933E+03  0.24984892934E+03  0.25500000920E-02 0. -1.
    10030    2    1    2    0    0  0.00000000000E+00  0.00000000000E+00  0.73448184971E+03  0.12341797084E+04  0.99183464602E+03 0.  0.
        2    1    3    3  502    0  0.76753673135E+02 -0.37771880783E+03 -0.21047783241E+02  0.38601247818E+03  0.25500000920E-02 0. -1.
       -2    1    3    3    0  502 -0.76753673135E+02  0.37771880783E+03  0.75552963295E+03  0.84816723021E+03  0.25500000920E-02 0.  1.
</event>
<event>
 5   0  0.3643002E-03  0.9989366E+03  0.7818609E-02  0.9309712E-01
        1   -1    0    0  501    0  0.00000000000E+00  0.00000000000E+00  0.99362211424E+03  0.99362211425E+03  0.50400001928E-02 0. -1.
       -1   -1    0    0    0  501  0.00000000000E+00  0.00000000000E+00 -0.25106987986E+03  0.25106987991E+03  0.50400001928E-02 0.  1.
    10030    2    1    2    0    0  0.00000000000E+00  0.00000000000E+00  0.74255223438E+03  0.12446919942E+04  0.99893660436E+03 0.  0.
        2    1    3    3  502    0  0.10264679708E+03  0.17750665841E+03 -0.19620714805E+03  0.28379961889E+03  0.25500000920E-02 0.  1.
       -2    1    3    3    0  502 -0.10264679708E+03 -0.17750665841E+03  0.93875938244E+03  0.96089237527E+03  0.25500000920E-02 0. -1.
</event>
<event>
 5   0  0.6376961E-03  0.1008114E+04  0.7818609E-02  0.9299690E-01
       -2   -1    0    0    0  501  0.00000000000E+00  0.00000000000E+00  0.24744640241E+03  0.24744640243E+03  0.25500000920E-02 0. -1.
        2   -1    0    0  501    0  0.00000000000E+00  0.00000000000E+00 -0.10267815857E+04  0.10267815857E+04  0.25500000920E-02 0.  1.
    10030    2    1    2    0    0  0.00000000000E+00  0.00000000000E+00 -0.77933518326E+03  0.12742279881E+04  0.10081139012E+04 0.  0.
        3    1    3    3  502    0  0.65507385418E+02 -0.25782511592E+03  0.15149617345E+03  0.30613086861E+03  0.10100000352E+00 0. -1.
       -3    1    3    3    0  502 -0.65507385418E+02  0.25782511592E+03 -0.93083135671E+03  0.96809711950E+03  0.10100000352E+00 0.  1.
</event>
<event>
 5   0  0.6022787E-03  0.9987474E+03  0.7818609E-02  0.9309920E-01
       -2   -1    0    0    0  501  0.00000000000E+00  0.00000000000E+00  0.25459155147E+03  0.25459155148E+03  0.25500000920E-02 0. -1.
        2   -1    0    0  501    0  0.00000000000E+00  0.00000000000E+00 -0.97950648744E+03  0.97950648744E+03  0.25500000920E-02 0.  1.
    10030    2    1    2    0    0  0.00000000000E+00  0.00000000000E+00 -0.72491493597E+03  0.12340980389E+04  0.99874736810E+03 0.  0.
        5    1    3    3  502    0  0.44144671405E+03  0.14103281521E+03 -0.59225613784E+03  0.75203382844E+03  0.46999998093E+01 0.  1.
       -5    1    3    3    0  502 -0.44144671405E+03 -0.14103281521E+03 -0.13265879812E+03  0.48206421048E+03  0.46999998093E+01 0. -1.
</event>
<event>
 5   0  0.3643002E-03  0.1002772E+04  0.7818609E-02  0.9305510E-01
       -1   -1    0    0    0  501  0.00000000000E+00  0.00000000000E+00  0.55162920074E+03  0.55162920076E+03  0.50400001928E-02 0.  1.
        1   -1    0    0  501    0  0.00000000000E+00  0.00000000000E+00 -0.45571864717E+03  0.45571864720E+03  0.50400001928E-02 0. -1.
    10030    2    1    2    0    0  0.00000000000E+00  0.00000000000E+00  0.95910553569E+02  0.10073478480E+04  0.10027715854E+04 0.  0.
        2    1    3    3  502    0  0.39409622614E+03 -0.98913924266E+02  0.34305071287E+03  0.53177024313E+03  0.25500000920E-02 0.  1.
       -2    1    3    3    0  502 -0.39409622614E+03  0.98913924266E+02 -0.24714015930E+03  0.47557760483E+03  0.25500000920E-02 0. -1.
</event>
<event>
 5   0  0.6376961E-03  0.9943021E+03  0.7818609E-02  0.9314816E-01
        2   -1    0    0  501    0  0.00000000000E+00  0.00000000000E+00  0.11320014947E+04  0.11320014947E+04  0.25500000920E-02 0.  1.
       -2   -1    0    0    0  501  0.00000000000E+00  0.00000000000E+00 -0.21833818107E+03  0.21833818108E+03  0.25500000920E-02 0. -1.
    10030    2    1    2    0    0  0.00000000000E+00  0.00000000000E+00  0.91366331365E+03  0.13503396758E+04  0.99430206141E+03 0.  0.
        3    1    3    3  502    0 -0.16429085824E+03 -0.40989695501E+03  0.14668954181E+03  0.46532228799E+03  0.10100000352E+00 0.  1.
       -3    1    3    3    0  502  0.16429085824E+03  0.40989695501E+03  0.76697377184E+03  0.88501738780E+03  0.10100000352E+00 0. -1.
</event>
<event>
 5   0  0.6606947E-03  0.1004418E+04  0.7818609E-02  0.9303712E-01
        2   -1    0    0  501    0  0.00000000000E+00  0.00000000000E+00  0.12684614083E+04  0.12684614083E+04  0.25500000920E-02 0. -1.
       -2   -1    0    0    0  501  0.00000000000E+00  0.00000000000E+00 -0.19883457193E+03  0.19883457194E+03  0.25500000920E-02 0.  1.
    10030    2    1    2    0    0  0.00000000000E+00  0.00000000000E+00  0.10696268364E+04  0.14672959803E+04  0.10044182020E+04 0.  0.
        1    1    3    3  502    0  0.11173505045E+03 -0.45053456772E+03  0.81485285602E+03  0.93779064572E+03  0.50400001928E-02 0. -1.
       -1    1    3    3    0  502 -0.11173505045E+03  0.45053456772E+03  0.25477398038E+03  0.52950533455E+03  0.50400001928E-02 0.  1.
</event>
<event>
 5   0  0.3466598E-03  0.1003196E+04  0.7818609E-02  0.9305047E-01
        1   -1    0    0  501    0  0.00000000000E+00  0.00000000000E+00  0.13806954162E+04  0.13806954162E+04  0.50400001928E-02 0. -1.
       -1   -1    0    0    0  501  0.00000000000E+00  0.00000000000E+00 -0.18222738487E+03  0.18222738494E+03  0.50400001928E-02 0.  1.
    10030    2    1    2    0    0  0.00000000000E+00  0.00000000000E+00  0.11984680313E+04  0.15629228011E+04  0.10031959232E+04 0.  0.
        3    1    3    3  502    0 -0.42164839087E+03 -0.21216056555E+03  0.86363057943E+03  0.98420387067E+03  0.10100000352E+00 0. -1.
       -3    1    3    3    0  502  0.42164839087E+03  0.21216056555E+03  0.33483745188E+03  0.57871893047E+03  0.10100000352E+00 0.  1.
</event>
<event>
 5   0  0.6376961E-03  0.1002421E+04  0.7818609E-02  0.9305894E-01
        2   -1    0    0  501    0  0.00000000000E+00  0.00000000000E+00  0.11301017761E+04  0.11301017761E+04  0.25500000920E-02 0. -1.
       -2   -1    0    0    0  501  0.00000000000E+00  0.00000000000E+00 -0.22229139654E+03  0.22229139655E+03  0.25500000920E-02 0.  1.
    10030    2    1    2    0    0  0.00000000000E+00  0.00000000000E+00  0.90781037957E+03  0.13523931727E+04  0.10024208738E+04 0.  0.
        3    1    3    3  502    0  0.32129601718E+03  0.37189587503E+03  0.32120827285E+03  0.58712216554E+03  0.10100000352E+00 0.  1.
       -3    1    3    3    0  502 -0.32129601718E+03 -0.37189587503E+03  0.58660210671E+03  0.76527100711E+03  0.10100000352E+00 0. -1.
</event>
<event>
 5   0  0.3569359E-03  0.1004958E+04  0.7818609E-02  0.9303124E-01
       -1   -1    0    0    0  501  0.00000000000E+00  0.00000000000E+00  0.38029737006E+03  0.38029737009E+03  0.50400001928E-02 0. -1.
        1   -1    0    0  501    0  0.00000000000E+00  0.00000000000E+00 -0.66391509208E+03  0.66391509210E+03  0.50400001928E-02 0.  1.
    10030    2    1    2    0    0  0.00000000000E+00  0.00000000000E+00 -0.28361772202E+03  0.10442124622E+04  0.10049580359E+04 0.  0.
        4    1    3    3  502    0  0.26706969225E+03  0.15981734615E+03  0.26808150811E+03  0.41077623171E+03  0.12699999809E+01 0. -1.
       -4    1    3    3    0  502 -0.26706969225E+03 -0.15981734615E+03 -0.55169923013E+03  0.63343623047E+03  0.12699999809E+01 0.  1.
</event>
<event>
 5   0  0.3608845E-03  0.9950413E+03  0.7818609E-02  0.9314000E-01
        1   -1    0    0  501    0  0.00000000000E+00  0.00000000000E+00  0.92490701279E+03  0.92490701280E+03  0.50400001928E-02 0. -1.
       -1   -1    0    0    0  501  0.00000000000E+00  0.00000000000E+00 -0.26762341759E+03  0.26762341763E+03  0.50400001928E-02 0.  1.
    10030    2    1    2    0    0  0.00000000000E+00  0.00000000000E+00  0.65728359520E+03  0.11925304304E+04  0.99504125693E+03 0.  0.
        1    1    3    3  502    0 -0.24719653032E+03 -0.75564905768E+02  0.83811364571E+03  0.87706936028E+03  0.50400001928E-02 0. -1.
       -1    1    3    3    0  502  0.24719653032E+03  0.75564905768E+02 -0.18083005051E+03  0.31546107015E+03  0.50400001928E-02 0.  1.
</event>
<event>
 5   0  0.3466598E-03  0.1038669E+04  0.7818609E-02  0.9267121E-01
        1   -1    0    0  501    0  0.00000000000E+00  0.00000000000E+00  0.42719424483E+03  0.42719424486E+03  0.50400001928E-02 0.  1.
       -1   -1    0    0    0  501  0.00000000000E+00  0.00000000000E+00 -0.63134806673E+03  0.63134806675E+03  0.50400001928E-02 0. -1.
    10030    2    1    2    0    0  0.00000000000E+00  0.00000000000E+00 -0.20415382189E+03  0.10585423116E+04  0.10386688801E+04 0.  0.
        3    1    3    3  502    0 -0.32543542929E+03 -0.25277414428E+03  0.22004872409E+03  0.46714498588E+03  0.10100000352E+00 0.  1.
       -3    1    3    3    0  502  0.32543542929E+03  0.25277414428E+03 -0.42420254599E+03  0.59139732573E+03  0.10100000352E+00 0. -1.
</event>
<event>
 5   0  0.6360455E-03  0.1014659E+04  0.7818609E-02  0.9292612E-01
        2   -1    0    0  501    0  0.00000000000E+00  0.00000000000E+00  0.23862937802E+04  0.23862937802E+04  0.25500000920E-02 0.  1.
       -2   -1    0    0    0  501  0.00000000000E+00  0.00000000000E+00 -0.10785891338E+03  0.10785891341E+03  0.25500000920E-02 0. -1.
    10030    2    1    2    0    0  0.00000000000E+00  0.00000000000E+00  0.22784348668E+04  0.24941526936E+04  0.10146586700E+04 0.  0.
        4    1    3    3  502    0  0.67065358726E+02 -0.12697679917E+02 -0.96516511890E+02  0.11822031714E+03  0.12699999809E+01 0. -1.
       -4    1    3    3    0  502 -0.67065358726E+02  0.12697679917E+02  0.23749513787E+04  0.23759323765E+04  0.12699999809E+01 0.  1.
</event>
<event>
 5   0  0.6360455E-03  0.9642919E+03  0.7818609E-02  0.9348600E-01
       -2   -1    0    0    0  501  0.00000000000E+00  0.00000000000E+00  0.28737865740E+03  0.28737865742E+03  0.25500000920E-02 0.  1.
        2   -1    0    0  501    0  0.00000000000E+00  0.00000000000E+00 -0.80891434360E+03  0.80891434360E+03  0.25500000920E-02 0. -1.
    10030    2    1    2    0    0  0.00000000000E+00  0.00000000000E+00 -0.52153568619E+03  0.10962930010E+04  0.96429190192E+03 0.  0.
        4    1    3    3  502    0 -0.40105671017E+03 -0.15187040482E+03 -0.51127589309E+03  0.66731983066E+03  0.12699999809E+01 0. -1.
       -4    1    3    3    0  502  0.40105671017E+03  0.15187040482E+03 -0.10259793103E+02  0.42897317036E+03  0.12699999809E+01 0.  1.
</event>
<event>
 5   0  0.2417750E-03  0.1000983E+04  0.7818609E-02  0.9307467E-01
        4   -1    0    0  501    0  0.00000000000E+00  0.00000000000E+00  0.12376777219E+04  0.12376783735E+04  0.12699999809E+01 0. -1.
       -4   -1    0    0    0  501  0.00000000000E+00  0.00000000000E+00 -0.20238597034E+03  0.20238995502E+03  0.12699999809E+01 0.  1.
    10030    2    1    2    0    0  0.00000000000E+00  0.00000000000E+00  0.10352917515E+04  0.14400683285E+04  0.10009834064E+04 0.  0.
        5    1    3    3  502    0 -0.16107287631E+03  0.43483118586E+03  0.24678434320E+03  0.52530679962E+03  0.46999998093E+01 0.  1.
       -5    1    3    3    0  502  0.16107287631E+03 -0.43483118586E+03  0.78850740833E+03  0.91476152885E+03  0.46999998093E+01 0. -1.
</event>
<event>
 5   0  0.3466598E-03  0.9905493E+03  0.7818609E-02  0.9318971E-01
       -1   -1    0    0    0  501  0.00000000000E+00  0.00000000000E+00  0.80862215193E+03  0.80862215195E+03  0.50400001928E-02 0.  1.
        1   -1    0    0  501    0  0.00000000000E+00  0.00000000000E+00 -0.30335179367E+03  0.30335179371E+03  0.50400001928E-02 0. -1.
    10030    2    1    2    0    0  0.00000000000E+00  0.00000000000E+00  0.50527035826E+03  0.11119739457E+04  0.99054930260E+03 0.  0.
        3    1    3    3  502    0  0.47810900903E+03 -0.70183735245E+01  0.10774153368E+03  0.49014868189E+03  0.10100000352E+00 0. -1.
       -3    1    3    3    0  502 -0.47810900903E+03  0.70183735245E+01  0.39752882458E+03  0.62182526376E+03  0.10100000352E+00 0.  1.
</event>
<event>
 5   0  0.3640180E-03  0.9981203E+03  0.7818609E-02  0.9310609E-01
       -1   -1    0    0    0  501  0.00000000000E+00  0.00000000000E+00  0.16121284746E+03  0.16121284754E+03  0.50400001928E-02 0. -1.
        1   -1    0    0  501    0  0.00000000000E+00  0.00000000000E+00 -0.15449205580E+04  0.15449205581E+04  0.50400001928E-02 0.  1.
    10030    2    1    2    0    0  0.00000000000E+00  0.00000000000E+00 -0.13837077106E+04  0.17061334056E+04  0.99812031808E+03 0.  0.
        5    1    3    3  502    0 -0.24464535608E+03  0.18566947725E+03 -0.19503675730E+02  0.30777749820E+03  0.46999998093E+01 0. -1.
       -5    1    3    3    0  502  0.24464535608E+03 -0.18566947725E+03 -0.13642040348E+04  0.13983559074E+04  0.46999998093E+01 0.  1.
</event>
<event>
 5   0  0.6199539E-03  0.1014685E+04  0.7818609E-02  0.9292584E-01
        2   -1    0    0  501    0  0.00000000000E+00  0.00000000000E+00  0.92574011804E+03  0.92574011804E+03  0.25500000920E-02 0. -1.
       -2   -1    0    0    0  501  0.00000000000E+00  0.00000000000E+00 -0.27804369290E+03  0.27804369291E+03  0.25500000920E-02 0.  1.
    10030    2    1    2    0    0  0.00000000000E+00  0.00000000000E+00  0.64769642514E+03  0.12037838110E+04  0.10146845837E+04 0.  0.
        2    1    3    3  502    0 -0.38404418565E+03  0.30886022528E+03  0.18093398317E+03  0.52499683957E+03  0.25500000920E-02 0.  1.
       -2    1    3    3    0  502  0.38404418565E+03 -0.30886022528E+03  0.46676244197E+03  0.67878697139E+03  0.25500000920E-02 0. -1.
</event>
<event>
 5   0  0.6376961E-03  0.9994867E+03  0.7818609E-02  0.9309108E-01
        2   -1    0    0  501    0  0.00000000000E+00  0.00000000000E+00  0.11028780123E+04  0.11028780123E+04  0.25500000920E-02 0.  1.
       -2   -1    0    0    0  501  0.00000000000E+00  0.00000000000E+00 -0.22644697927E+03  0.22644697928E+03  0.25500000920E-02 0. -1.
    10030    2    1    2    0    0  0.00000000000E+00  0.00000000000E+00  0.87643103304E+03  0.13293249916E+04  0.99948665704E+03 0.  0.
        3    1    3    3  502    0  0.34691099407E+01 -0.62347121860E+02  0.10976689592E+04  0.10994436559E+04  0.10100000352E+00 0.  1.
       -3    1    3    3    0  502 -0.34691099407E+01  0.62347121860E+02 -0.22123792615E+03  0.22988133569E+03  0.10100000352E+00 0. -1.
</event>
<event>
 5   0  0.6606947E-03  0.9986422E+03  0.7818609E-02  0.9310035E-01
        2   -1    0    0  501    0  0.00000000000E+00  0.00000000000E+00  0.52425187169E+03  0.52425187170E+03  0.25500000920E-02 0. -1.
       -2   -1    0    0    0  501  0.00000000000E+00  0.00000000000E+00 -0.47557586556E+03  0.47557586557E+03  0.25500000920E-02 0.  1.
    10030    2    1    2    0    0  0.00000000000E+00  0.00000000000E+00  0.48676006133E+02  0.99982773727E+03  0.99864215345E+03 0.  0.
        1    1    3    3  502    0  0.41238075068E+03  0.22988914038E+03 -0.13838075172E+03  0.49199200489E+03  0.50400001928E-02 0.  1.
       -1    1    3    3    0  502 -0.41238075068E+03 -0.22988914038E+03  0.18705675785E+03  0.50783573238E+03  0.50400001928E-02 0. -1.
</event>
<event>
 5   0  0.6199539E-03  0.1008396E+04  0.7818609E-02  0.9299384E-01
        2   -1    0    0  501    0  0.00000000000E+00  0.00000000000E+00  0.28375147927E+04  0.28375147927E+04  0.25500000920E-02 0. -1.
       -2   -1    0    0    0  501  0.00000000000E+00  0.00000000000E+00 -0.89590862950E+02  0.89590862986E+02  0.25500000920E-02 0.  1.
    10030    2    1    2    0    0  0.00000000000E+00  0.00000000000E+00  0.27479239297E+04  0.29271056557E+04  0.10083955553E+04 0.  0.
        2    1    3    3  502    0  0.41357006581E+03 -0.21436832763E+03  0.81394144130E+03  0.93781376034E+03  0.25500000920E-02 0.  1.
       -2    1    3    3    0  502 -0.41357006581E+03  0.21436832763E+03  0.19339824884E+04  0.19892918953E+04  0.25500000920E-02 0. -1.
</event>
<event>
 5   0  0.6376961E-03  0.1021526E+04  0.7818609E-02  0.9285245E-01
       -2   -1    0    0    0  501  0.00000000000E+00  0.00000000000E+00  0.50886702957E+03  0.50886702958E+03  0.25500000920E-02 0. -1.
        2   -1    0    0  501    0  0.00000000000E+00  0.00000000000E+00 -0.51266627163E+03  0.51266627163E+03  0.25500000920E-02 0.  1.
    10030    2    1    2    0    0  0.00000000000E+00  0.00000000000E+00 -0.37992420516E+01  0.10215333012E+04  0.10215262362E+04 0.  0.
        3    1    3    3  502    0  0.30709044083E+03  0.40813233873E+03 -0.34788824510E+00  0.51076087947E+03  0.10100000352E+00 0. -1.
       -3    1    3    3    0  502 -0.30709044083E+03 -0.40813233873E+03 -0.34513538065E+01  0.51077242174E+03  0.10100000352E+00 0.  1.
</event>
<event>
 5   0  0.3466598E-03  0.9839967E+03  0.7818609E-02  0.9326273E-01
       -1   -1    0    0    0  501  0.00000000000E+00  0.00000000000E+00  0.45794551861E+03  0.45794551864E+03  0.50400001928E-02 0. -1.
        1   -1    0    0  501    0  0.00000000000E+00  0.00000000000E+00 -0.52858331251E+03  0.52858331253E+03  0.50400001928E-02 0.  1.
    10030    2    1    2    0    0  0.00000000000E+00  0.00000000000E+00 -0.70637793898E+02  0.98652883117E+03  0.98399666504E+03 0.  0.
        3    1    3    3  502    0  0.18400494355E+03 -0.27848772469E+03  0.32706542044E+03  0.46731684273E+03  0.10100000352E+00 0. -1.
       -3    1    3    3    0  502 -0.18400494355E+03  0.27848772469E+03 -0.39770321434E+03  0.51921198845E+03  0.10100000352E+00 0.  1.
</event>
<event>
 5   0  0.6022787E-03  0.1003305E+04  0.7818609E-02  0.9304928E-01
        2   -1    0    0  501    0  0.00000000000E+00  0.00000000000E+00  0.10714144703E+04  0.10714144703E+04  0.25500000920E-02 0. -1.
       -2   -1    0    0    0  501  0.00000000000E+00  0.00000000000E+00 -0.23488123088E+03  0.23488123089E+03  0.25500000920E-02 0.  1.
    10030    2    1    2    0    0  0.00000000000E+00  0.00000000000E+00  0.83653323944E+03  0.13062957012E+04  0.10033048382E+04 0.  0.
        5    1    3    3  502    0  0.14383287113E+03  0.12800081790E+03 -0.18482589504E+03  0.26693595801E+03  0.46999998093E+01 0.  1.
       -5    1    3    3    0  502 -0.14383287113E+03 -0.12800081790E+03  0.10213591345E+04  0.10393597432E+04  0.46999998093E+01 0. -1.
</event>
<event>
 5   0  0.3640180E-03  0.9952780E+03  0.7818609E-02  0.9313739E-01
       -1   -1    0    0    0  501  0.00000000000E+00  0.00000000000E+00  0.41990963811E+03  0.41990963814E+03  0.50400001928E-02 0.  1.
        1   -1    0    0  501    0  0.00000000000E+00  0.00000000000E+00 -0.58975678439E+03  0.58975678441E+03  0.50400001928E-02 0. -1.
    10030    2    1    2    0    0  0.00000000000E+00  0.00000000000E+00 -0.16984714628E+03  0.10096664225E+04  0.99527796706E+03 0.  0.
        5    1    3    3  502    0  0.18942178344E+03  0.43045997335E+03 -0.24989702913E+03  0.53258521935E+03  0.46999998093E+01 0.  1.
       -5    1    3    3    0  502 -0.18942178344E+03 -0.43045997335E+03  0.80049882846E+02  0.47708120320E+03  0.46999998093E+01 0. -1.
</event>
<event>
 5   0  0.3466598E-03  0.9906128E+03  0.7818609E-02  0.9318901E-01
        1   -1    0    0  501    0  0.00000000000E+00  0.00000000000E+00  0.58778082530E+03  0.58778082533E+03  0.50400001928E-02 0.  1.
       -1   -1    0    0    0  501  0.00000000000E+00  0.00000000000E+00 -0.41738080688E+03  0.41738080691E+03  0.50400001928E-02 0. -1.
    10030    2    1    2    0    0  0.00000000000E+00  0.00000000000E+00  0.17040001843E+03  0.10051616322E+04  0.99061281066E+03 0.  0.
        3    1    3    3  502    0  0.37093312992E+03 -0.47257132846E+02  0.41478393088E+03  0.55845352805E+03  0.10100000352E+00 0.  1.
       -3    1    3    3    0  502 -0.37093312992E+03  0.47257132846E+02 -0.24438391245E+03  0.44670810418E+03  0.10100000352E+00 0. -1.
</event>
<event>
 5   0  0.6376961E-03  0.9910578E+03  0.7818609E-02  0.9318407E-01
       -2   -1    0    0    0  501  0.00000000000E+00  0.00000000000E+00  0.27180625708E+03  0.27180625709E+03  0.25500000920E-02 0. -1.
        2   -1    0    0  501    0  0.00000000000E+00  0.00000000000E+00 -0.90339675012E+03  0.90339675012E+03  0.25500000920E-02 0.  1.
    10030    2    1    2    0    0  0.00000000000E+00  0.00000000000E+00 -0.63159049304E+03  0.11752030072E+04  0.99105779713E+03 0.  0.
        3    1    3    3  502    0  0.43220771673E+03  0.65539017631E+02 -0.59249761522E+03  0.73630992624E+03  0.10100000352E+00 0.  1.
       -3    1    3    3    0  502 -0.43220771673E+03 -0.65539017631E+02 -0.39092877816E+02  0.43889308097E+03  0.10100000352E+00 0. -1.
</event>
<event>
 5   0  0.3608845E-03  0.1015297E+04  0.7818609E-02  0.9291924E-01
       -1   -1    0    0    0  501  0.00000000000E+00  0.00000000000E+00  0.77493372290E+03  0.77493372292E+03  0.50400001928E-02 0.  1.
        1   -1    0    0  501    0  0.00000000000E+00  0.00000000000E+00 -0.33255389775E+03  0.33255389778E+03  0.50400001928E-02 0. -1.
    10030    2    1    2    0    0  0.00000000000E+00  0.00000000000E+00  0.44237982516E+03  0.11074876207E+04  0.10152974541E+04 0.  0.
        1    1    3    3  502    0  0.21596850762E+03  0.43758234747E+03  0.68530264743E+02  0.49276475555E+03  0.50400001928E-02 0.  1.
       -1    1    3    3    0  502 -0.21596850762E+03 -0.43758234747E+03  0.37384956042E+03  0.61472286516E+03  0.50400001928E-02 0. -1.
</event>
<event>
 5   0  0.3466598E-03  0.1039858E+04  0.7818609E-02  0.9265878E-01
       -1   -1    0    0    0  501  0.00000000000E+00  0.00000000000E+00  0.27275870771E+03  0.27275870776E+03  0.50400001928E-02 0. -1.
        1   -1    0    0  501    0  0.00000000000E+00  0.00000000000E+00 -0.99108121130E+03  0.99108121131E+03  0.50400001928E-02 0.  1.
    10030    2    1    2    0    0  0.00000000000E+00  0.00000000000E+00 -0.71832250359E+03  0.12638399191E+04  0.10398577412E+04 0.  0.
        3    1    3    3  502    0  0.16630330754E+03 -0.13880868137E+03  0.21530042999E+03  0.30541598759E+03  0.10100000352E+00 0. -1.
       -3    1    3    3    0  502 -0.16630330754E+03  0.13880868137E+03 -0.93362293358E+03  0.95842393148E+03  0.10100000352E+00 0.  1.
</event>
<event>
 5   0  0.3643002E-03  0.9805316E+03  0.7818609E-02  0.9330159E-01
        1   -1    0    0  501    0  0.00000000000E+00  0.00000000000E+00  0.12346261769E+04  0.12346261770E+04  0.50400001928E-02 0. -1.
       -1   -1    0    0    0  501  0.00000000000E+00  0.00000000000E+00 -0.19468287571E+03  0.19468287577E+03  0.50400001928E-02 0.  1.
    10030    2    1    2    0    0  0.00000000000E+00  0.00000000000E+00  0.10399433012E+04  0.14293090527E+04  0.98053164070E+03 0.  0.
        2    1    3    3  502    0 -0.32794470873E+02  0.43867273612E+03  0.83549062681E+03  0.94422128456E+03  0.25500000920E-02 0. -1.
       -2    1    3    3    0  502  0.32794470873E+02 -0.43867273612E+03  0.20445267443E+03  0.48508776816E+03  0.25500000920E-02 0.  1.
</event>
<event>
 5   0  0.3640180E-03  0.9963227E+03  0.7818609E-02  0.9312587E-01
       -1   -1    0    0    0  501  0.00000000000E+00  0.00000000000E+00  0.99065300530E+03  0.99065300531E+03  0.50400001928E-02 0.  1.
        1   -1    0    0  501    0  0.00000000000E+00  0.00000000000E+00 -0.25050623408E+03  0.25050623413E+03  0.50400001928E-02 0. -1.
    10030    2    1    2    0    0  0.00000000000E+00  0.00000000000E+00  0.74014677122E+03  0.12411592394E+04  0.99632274625E+03 0.  0.
        5    1    3    3  502    0  0.17452298445E+03  0.44372448117E+03  0.54970624760E+03  0.72770099350E+03  0.46999998093E+01 0. -1.
       -5    1    3    3    0  502 -0.17452298445E+03 -0.44372448117E+03  0.19044052362E+03  0.51345824594E+03  0.46999998093E+01 0.  1.
</event>
<event>
 5   0  0.6360455E-03  0.1005400E+04  0.7818609E-02  0.9302642E-01
       -2   -1    0    0    0  501  0.00000000000E+00  0.00000000000E+00  0.25475246166E+03  0.25475246167E+03  0.25500000920E-02 0. -1.
        2   -1    0    0  501    0  0.00000000000E+00  0.00000000000E+00 -0.99197105567E+03  0.99197105567E+03  0.25500000920E-02 0.  1.
    10030    2    1    2    0    0  0.00000000000E+00  0.00000000000E+00 -0.73721859401E+03  0.12467235173E+04  0.10053995591E+04 0.  0.
        4    1    3    3  502    0  0.37448933607E+03  0.17187110990E+03 -0.72569323096E+03  0.83451436153E+03  0.12699999809E+01 0.  1.
       -4    1    3    3    0  502 -0.37448933607E+03 -0.17187110990E+03 -0.11525363050E+02  0.41220915582E+03  0.12699999809E+01 0. -1.
</event>
<event>
 5   0  0.6606947E-03  0.9959672E+03  0.7818609E-02  0.9312979E-01
        2   -1    0    0  501    0  0.00000000000E+00  0.00000000000E+00  0.10620281548E+04  0.10620281548E+04  0.25500000920E-02 0. -1.
       -2   -1    0    0    0  501  0.00000000000E+00  0.00000000000E+00 -0.23350386459E+03  0.23350386460E+03  0.25500000920E-02 0.  1.
    10030    2    1    2    0    0  0.00000000000E+00  0.00000000000E+00  0.82852429021E+03  0.12955320194E+04  0.99596722528E+03 0.  0.
        1    1    3    3  502    0  0.20330413710E+03  0.41321960871E+03  0.16778394107E+03  0.49013719313E+03  0.50400001928E-02 0.  1.
       -1    1    3    3    0  502 -0.20330413710E+03 -0.41321960871E+03  0.66074034914E+03  0.80539482627E+03  0.50400001928E-02 0. -1.
</event>
<event>
 5   0  0.3569359E-03  0.9947413E+03  0.7818609E-02  0.9314331E-01
        1   -1    0    0  501    0  0.00000000000E+00  0.00000000000E+00  0.82356167060E+03  0.82356167061E+03  0.50400001928E-02 0. -1.
       -1   -1    0    0    0  501  0.00000000000E+00  0.00000000000E+00 -0.30037524890E+03  0.30037524894E+03  0.50400001928E-02 0.  1.
    10030    2    1    2    0    0  0.00000000000E+00  0.00000000000E+00  0.52318642169E+03  0.11239369196E+04  0.99474125645E+03 0.  0.
        4    1    3    3  502    0  0.13664456953E+03  0.25336037047E+03  0.71987388085E+03  0.77529557778E+03  0.12699999809E+01 0. -1.
       -4    1    3    3    0  502 -0.13664456953E+03 -0.25336037047E+03 -0.19668745915E+03  0.34864134177E+03  0.12699999809E+01 0.  1.
</event>
<event>
 5   0  0.6199539E-03  0.9961382E+03  0.7818609E-02  0.9312791E-01
       -2   -1    0    0    0  501  0.00000000000E+00  0.00000000000E+00  0.80120615262E+03  0.80120615262E+03  0.25500000920E-02 0.  1.
        2   -1    0    0  501    0  0.00000000000E+00  0.00000000000E+00 -0.30962422298E+03  0.30962422299E+03  0.25500000920E-02 0. -1.
    10030    2    1    2    0    0  0.00000000000E+00  0.00000000000E+00  0.49158192964E+03  0.11108303756E+04  0.99613820820E+03 0.  0.
        2    1    3    3  502    0 -0.41988668385E+03 -0.23899269788E+03  0.11081566343E+03  0.49568381876E+03  0.25500000920E-02 0.  1.
       -2    1    3    3    0  502  0.41988668385E+03  0.23899269788E+03  0.38076626620E+03  0.61514655685E+03  0.25500000920E-02 0. -1.
</event>
<event>
 5   0  0.3640180E-03  0.1022243E+04  0.7818609E-02  0.9284480E-01
       -1   -1    0    0    0  501  0.00000000000E+00  0.00000000000E+00  0.43375803388E+03  0.43375803391E+03  0.50400001928E-02 0. -1.
        1   -1    0    0  501    0  0.00000000000E+00  0.00000000000E+00 -0.60228281419E+03  0.60228281421E+03  0.50400001928E-02 0.  1.
    10030    2    1    2    0    0  0.00000000000E+00  0.00000000000E+00 -0.16852478031E+03  0.10360408481E+04  0.10222426509E+04 0.  0.
        5    1    3    3  502    0  0.37789420543E+03  0.33807349037E+03 -0.14935708489E+03  0.52860887638E+03  0.46999998093E+01 0.  1.
       -5    1    3    3    0  502 -0.37789420543E+03 -0.33807349037E+03 -0.19167695417E+02  0.50743197173E+03  0.46999998093E+01 0. -1.
</event>
<event>
 5   0  0.6199539E-03  0.1043510E+04  0.7818609E-02  0.9262070E-01
        2   -1    0    0  501    0  0.00000000000E+00  0.00000000000E+00  0.11561899179E+04  0.11561899179E+04  0.25500000920E-02 0. -1.
       -2   -1    0    0    0  501  0.00000000000E+00  0.00000000000E+00 -0.23545309440E+03  0.23545309442E+03  0.25500000920E-02 0.  1.
    10030    2    1    2    0    0  0.00000000000E+00  0.00000000000E+00  0.92073682346E+03  0.13916430123E+04  0.10435104099E+04 0.  0.
        2    1    3    3  502    0 -0.45740020322E+03  0.19595362060E+03  0.66960488285E+03  0.83425623550E+03  0.25500000920E-02 0. -1.
       -2    1    3    3    0  502  0.45740020322E+03 -0.19595362060E+03  0.25113194062E+03  0.55738677679E+03  0.25500000920E-02 0.  1.
</event>
<event>
 5   0  0.3569359E-03  0.1007395E+04  0.7818609E-02  0.9300471E-01
       -1   -1    0    0    0  501  0.00000000000E+00  0.00000000000E+00  0.38720695466E+03  0.38720695469E+03  0.50400001928E-02 0.  1.
        1   -1    0    0  501    0  0.00000000000E+00  0.00000000000E+00 -0.65523359638E+03  0.65523359640E+03  0.50400001928E-02 0. -1.
    10030    2    1    2    0    0  0.00000000000E+00  0.00000000000E+00 -0.26802664172E+03  0.10424405511E+04  0.10073946704E+04 0.  0.
        4    1    3    3  502    0 -0.11104735302E+03  0.29581948547E+02 -0.64148487623E+03  0.65169860029E+03  0.12699999809E+01 0. -1.
       -4    1    3    3    0  502  0.11104735302E+03 -0.29581948547E+02  0.37345823451E+03  0.39074195080E+03  0.12699999809E+01 0.  1.
</event>
<event>
 5   0  0.3643002E-03  0.9930233E+03  0.7818609E-02  0.9316230E-01
        1   -1    0    0  501    0  0.00000000000E+00  0.00000000000E+00  0.33961773140E+03  0.33961773143E+03  0.50400001928E-02 0. -1.
       -1   -1    0    0    0  501  0.00000000000E+00  0.00000000000E+00 -0.72588611313E+03  0.72588611315E+03  0.50400001928E-02 0.  1.
    10030    2    1    2    0    0  0.00000000000E+00  0.00000000000E+00 -0.38626838174E+03  0.10655038446E+04  0.99302325254E+03 0.  0.
        2    1    3    3  502    0 -0.49261002665E+03  0.61753822268E+02 -0.18588677460E+03  0.53012457583E+03  0.25500000920E-02 0. -1.
       -2    1    3    3    0  502  0.49261002665E+03 -0.61753822268E+02 -0.20038160714E+03  0.53537926875E+03  0.25500000920E-02 0.  1.
</event>
<event>
 5   0  0.3643002E-03  0.9989943E+03  0.7818609E-02  0.9309648E-01
       -1   -1    0    0    0  501  0.00000000000E+00  0.00000000000E+00  0.33817953415E+03  0.33817953419E+03  0.50400001928E-02 0. -1.
        1   -1    0    0  501    0  0.00000000000E+00  0.00000000000E+00 -0.73776617997E+03  0.73776617998E+03  0.50400001928E-02 0.  1.
    10030    2    1    2    0    0  0.00000000000E+00  0.00000000000E+00 -0.39958664581E+03  0.10759457142E+04  0.99899434049E+03 0.  0.
        2    1    3    3  502    0 -0.14371662549E+03 -0.34572250787E+03 -0.55589577399E+03  0.67022282297E+03  0.25500000920E-02 0.  1.
       -2    1    3    3    0  502  0.14371662549E+03  0.34572250787E+03  0.15630912818E+03  0.40572289120E+03  0.25500000920E-02 0. -1.
</event>
<event>
 5   0  0.6199539E-03  0.9839982E+03  0.7818609E-02  0.9326271E-01
       -2   -1    0    0    0  501  0.00000000000E+00  0.00000000000E+00  0.21417618527E+03  0.21417618528E+03  0.25500000920E-02 0.  1.
        2   -1    0    0  501    0  0.00000000000E+00  0.00000000000E+00 -0.11302056342E+04  0.11302056342E+04  0.25500000920E-02 0. -1.
    10030    2    1    2    0    0  0.00000000000E+00  0.00000000000E+00 -0.91602944892E+03  0.13443818195E+04  0.98399823437E+03 0.  0.
        2    1    3    3  502    0 -0.38579046021E+03 -0.79612250722E+02 -0.55283721524E+02  0.39777968717E+03  0.25500000920E-02 0.  1.
       -2    1    3    3    0  502  0.38579046021E+03  0.79612250722E+02 -0.86074572740E+03  0.94660213231E+03  0.25500000920E-02 0. -1.
</event>
<event>
 5   0  0.3640180E-03  0.9898470E+03  0.7818609E-02  0.9319751E-01
        1   -1    0    0  501    0  0.00000000000E+00  0.00000000000E+00  0.23617003336E+03  0.23617003342E+03  0.50400001928E-02 0. -1.
       -1   -1    0    0    0  501  0.00000000000E+00  0.00000000000E+00 -0.10371733574E+04  0.10371733574E+04  0.50400001928E-02 0.  1.
    10030    2    1    2    0    0  0.00000000000E+00  0.00000000000E+00 -0.80100332403E+03  0.12733433908E+04  0.98984699113E+03 0.  0.
        5    1    3    3  502    0 -0.41953137479E+03  0.33851507140E+01 -0.73818986960E+03  0.84909622968E+03  0.46999998093E+01 0.  1.
       -5    1    3    3    0  502  0.41953137479E+03 -0.33851507140E+01 -0.62813454431E+02  0.42424716114E+03  0.46999998093E+01 0. -1.
</event>
<event>
 5   0  0.6022787E-03  0.1110379E+04  0.7818609E-02  0.9195135E-01
        2   -1    0    0  501    0  0.00000000000E+00  0.00000000000E+00  0.21378807702E+03  0.21378807704E+03  0.25500000920E-02 0. -1.
       -2   -1    0    0    0  501  0.00000000000E+00  0.00000000000E+00 -0.14417795819E+04  0.14417795819E+04  0.25500000920E-02 0.  1.
    10030    2    1    2    0    0  0.00000000000E+00  0.00000000000E+00 -0.12279915048E+04  0.16555676589E+04  0.11103788260E+04 0.  0.
        5    1    3    3  502    0  0.55323586795E+03  0.27451866862E+02 -0.66957729864E+03  0.86901057498E+03  0.46999998093E+01 0. -1.
       -5    1    3    3    0  502 -0.55323586795E+03 -0.27451866862E+02 -0.55841420619E+03  0.78655708392E+03  0.46999998093E+01 0.  1.
</event>
<event>
 5   0  0.6022787E-03  0.1004424E+04  0.7818609E-02  0.9303706E-01
        2   -1    0    0  501    0  0.00000000000E+00  0.00000000000E+00  0.13891118304E+04  0.13891118304E+04  0.25500000920E-02 0. -1.
       -2   -1    0    0    0  501  0.00000000000E+00  0.00000000000E+00 -0.18156696394E+03  0.18156696396E+03  0.25500000920E-02 0.  1.
    10030    2    1    2    0    0  0.00000000000E+00  0.00000000000E+00  0.12075448664E+04  0.15706787943E+04  0.10044238500E+04 0.  0.
        5    1    3    3  502    0 -0.66229498494E+02 -0.43697227153E+03  0.23087654287E+03  0.49865537258E+03  0.46999998093E+01 0. -1.
       -5    1    3    3    0  502  0.66229498494E+02  0.43697227153E+03  0.97666832356E+03  0.10720234218E+04  0.46999998093E+01 0.  1.
</event>
<event>
 5   0  0.6360455E-03  0.1009487E+04  0.7818609E-02  0.9298200E-01
        2   -1    0    0  501    0  0.00000000000E+00  0.00000000000E+00  0.68961319458E+03  0.68961319459E+03  0.25500000920E-02 0.  1.
       -2   -1    0    0    0  501  0.00000000000E+00  0.00000000000E+00 -0.36943316302E+03  0.36943316303E+03  0.25500000920E-02 0. -1.
    10030    2    1    2    0    0  0.00000000000E+00  0.00000000000E+00  0.32018003156E+03  0.10590463576E+04  0.10094869662E+04 0.  0.
        4    1    3    3  502    0 -0.11970722926E+03  0.32653870542E+03 -0.22366468701E+03  0.41350314629E+03  0.12699999809E+01 0. -1.
       -4    1    3    3    0  502  0.11970722926E+03 -0.32653870542E+03  0.54384471857E+03  0.64554321133E+03  0.12699999809E+01 0.  1.
</event>
<event>
 5   0  0.3569359E-03  0.9982668E+03  0.7818609E-02  0.9310448E-01
        1   -1    0    0  501    0  0.00000000000E+00  0.00000000000E+00  0.46762991968E+03  0.46762991970E+03  0.50400001928E-02 0. -1.
       -1   -1    0    0    0  501  0.00000000000E+00  0.00000000000E+00 -0.53275923218E+03  0.53275923220E+03  0.50400001928E-02 0.  1.
    10030    2    1    2    0    0  0.00000000000E+00  0.00000000000E+00 -0.65129312500E+02  0.10003891519E+04  0.99826681198E+03 0.  0.
        4    1    3    3  502    0 -0.22950232986E+03 -0.41025331907E+02 -0.47483972169E+03  0.52898844171E+03  0.12699999809E+01 0.  1.
       -4    1    3    3    0  502  0.22950232986E+03  0.41025331907E+02  0.40971040919E+03  0.47140071019E+03  0.12699999809E+01 0. -1.
</event>
<event>
 5   0  0.3643002E-03  0.9975035E+03  0.7818609E-02  0.9311287E-01
        1   -1    0    0  501    0  0.00000000000E+00  0.00000000000E+00  0.33140755060E+03  0.33140755064E+03  0.50400001928E-02 0. -1.
       -1   -1    0    0    0  501  0.00000000000E+00  0.00000000000E+00 -0.75059635172E+03  0.75059635173E+03  0.50400001928E-02 0.  1.
    10030    2    1    2    0    0  0.00000000000E+00  0.00000000000E+00 -0.41918880111E+03  0.10820039024E+04  0.99750348058E+03 0.  0.
        2    1    3    3  502    0  0.87801855190E+01 -0.49067020478E+03 -0.30612130916E+03  0.57839830346E+03  0.25500000920E-02 0.  1.
       -2    1    3    3    0  502 -0.87801855190E+01  0.49067020478E+03 -0.11306749196E+03  0.50360559892E+03  0.25500000920E-02 0. -1.
</event>
<event>
 5   0  0.2417750E-03  0.9959537E+03  0.7818609E-02  0.9312994E-01
       -3   -1    0    0    0  501  0.00000000000E+00  0.00000000000E+00  0.18105875469E+04  0.18105875498E+04  0.10100000352E+00 0. -1.
        3   -1    0    0  501    0  0.00000000000E+00  0.00000000000E+00 -0.13696157145E+03  0.13696160869E+03  0.10100000352E+00 0.  1.
    10030    2    1    2    0    0  0.00000000000E+00  0.00000000000E+00  0.16736259755E+04  0.19475491584E+04  0.99595372319E+03 0.  0.
        5    1    3    3  502    0 -0.16405252191E+03  0.13120998271E+02 -0.82198733012E+02  0.18402204283E+03  0.46999998093E+01 0.  1.
       -5    1    3    3    0  502  0.16405252191E+03 -0.13120998271E+02  0.17558247085E+04  0.17635271156E+04  0.46999998093E+01 0. -1.
</event>
<event>
 5   0  0.6199539E-03  0.1000360E+04  0.7818609E-02  0.9308150E-01
       -2   -1    0    0    0  501  0.00000000000E+00  0.00000000000E+00  0.77415122048E+03  0.77415122049E+03  0.25500000920E-02 0. -1.
        2   -1    0    0  501    0  0.00000000000E+00  0.00000000000E+00 -0.32316684685E+03  0.32316684686E+03  0.25500000920E-02 0.  1.
    10030    2    1    2    0    0  0.00000000000E+00  0.00000000000E+00  0.45098437364E+03  0.10973180673E+04  0.10003599530E+04 0.  0.
        2    1    3    3  502    0  0.15100211880E+03 -0.26413503215E+03 -0.20998917146E+03  0.36968149430E+03  0.25500000920E-02 0.  1.
       -2    1    3    3    0  502 -0.15100211880E+03  0.26413503215E+03  0.66097354510E+03  0.72763657304E+03  0.25500000920E-02 0. -1.
</event>
<event>
 5   0  0.3643002E-03  0.9688172E+03  0.7818609E-02  0.9343423E-01
        1   -1    0    0  501    0  0.00000000000E+00  0.00000000000E+00  0.66327257591E+03  0.66327257593E+03  0.50400001928E-02 0. -1.
       -1   -1    0    0    0  501  0.00000000000E+00  0.00000000000E+00 -0.35377870054E+03  0.35377870058E+03  0.50400001928E-02 0.  1.
    10030    2    1    2    0    0  0.00000000000E+00  0.00000000000E+00  0.30949387537E+03  0.10170512765E+04  0.96881723774E+03 0.  0.
        2    1    3    3  502    0  0.26846652802E+03 -0.38764198751E+03  0.27122652544E+03  0.54397096913E+03  0.25500000920E-02 0.  1.
       -2    1    3    3    0  502 -0.26846652802E+03  0.38764198751E+03  0.38267349935E+02  0.47308030738E+03  0.25500000920E-02 0. -1.
</event>
<event>
 5   0  0.6376961E-03  0.9913430E+03  0.7818609E-02  0.9318091E-01
        2   -1    0    0  501    0  0.00000000000E+00  0.00000000000E+00  0.18877933920E+04  0.18877933920E+04  0.25500000920E-02 0. -1.
       -2   -1    0    0    0  501  0.00000000000E+00  0.00000000000E+00 -0.13014679361E+03  0.13014679363E+03  0.25500000920E-02 0.  1.
    10030    2    1    2    0    0  0.00000000000E+00  0.00000000000E+00  0.17576465984E+04  0.20179401856E+04  0.99134304250E+03 0.  0.
        3    1    3    3  502    0 -0.21695085081E+03 -0.16506756375E+03  0.17214949969E+04  0.17429457843E+04  0.10100000352E+00 0. -1.
       -3    1    3    3    0  502  0.21695085081E+03  0.16506756375E+03  0.36151601420E+02  0.27499440131E+03  0.10100000352E+00 0.  1.
</event>
<event>
 5   0  0.6022787E-03  0.1005573E+04  0.7818609E-02  0.9302454E-01
       -2   -1    0    0    0  501  0.00000000000E+00  0.00000000000E+00  0.18157715938E+03  0.18157715940E+03  0.25500000920E-02 0.  1.
        2   -1    0    0  501    0  0.00000000000E+00  0.00000000000E+00 -0.13922138397E+04  0.13922138397E+04  0.25500000920E-02 0. -1.
    10030    2    1    2    0    0  0.00000000000E+00  0.00000000000E+00 -0.12106366803E+04  0.15737909991E+04  0.10055729397E+04 0.  0.
        5    1    3    3  502    0 -0.49070076867E+03 -0.69577269376E+02 -0.73760049750E+03  0.88865337714E+03  0.46999998093E+01 0. -1.
       -5    1    3    3    0  502  0.49070076867E+03  0.69577269376E+02 -0.47303618284E+03  0.68513762199E+03  0.46999998093E+01 0.  1.
</event>
<event>
 5   0  0.3640180E-03  0.9850058E+03  0.7818609E-02  0.9325145E-01
        1   -1    0    0  501    0  0.00000000000E+00  0.00000000000E+00  0.68934372180E+03  0.68934372182E+03  0.50400001928E-02 0.  1.
       -1   -1    0    0    0  501  0.00000000000E+00  0.00000000000E+00 -0.35186962714E+03  0.35186962718E+03  0.50400001928E-02 0. -1.
    10030    2    1    2    0    0  0.00000000000E+00  0.00000000000E+00  0.33747409466E+03  0.10412133490E+04  0.98500582413E+03 0.  0.
        5    1    3    3  502    0 -0.28114177251E+03  0.40233603261E+03  0.12616417871E+03  0.50680811889E+03  0.46999998093E+01 0.  1.
       -5    1    3    3    0  502  0.28114177251E+03 -0.40233603261E+03  0.21130991595E+03  0.53440523011E+03  0.46999998093E+01 0. -1.
</event>
<event>
 5   0  0.3466598E-03  0.9916692E+03  0.7818609E-02  0.9317729E-01
       -1   -1    0    0    0  501  0.00000000000E+00  0.00000000000E+00  0.21991217443E+03  0.21991217448E+03  0.50400001928E-02 0.  1.
        1   -1    0    0  501    0  0.00000000000E+00  0.00000000000E+00 -0.11179551251E+04  0.11179551251E+04  0.50400001928E-02 0. -1.
    10030    2    1    2    0    0  0.00000000000E+00  0.00000000000E+00 -0.89804295067E+03  0.13378672996E+04  0.99166918379E+03 0.  0.
        3    1    3    3  502    0 -0.19278058544E+03 -0.11648536941E+02  0.16708147120E+03  0.25537476530E+03  0.10100000352E+00 0.  1.
       -3    1    3    3    0  502  0.19278058544E+03  0.11648536941E+02 -0.10651244219E+04  0.10824925343E+04  0.10100000352E+00 0. -1.
</event>
<event>
 5   0  0.6376961E-03  0.9950884E+03  0.7818609E-02  0.9313948E-01
        2   -1    0    0  501    0  0.00000000000E+00  0.00000000000E+00  0.10708968072E+04  0.10708968072E+04  0.25500000920E-02 0. -1.
       -2   -1    0    0    0  501  0.00000000000E+00  0.00000000000E+00 -0.23116163297E+03  0.23116163299E+03  0.25500000920E-02 0.  1.
    10030    2    1    2    0    0  0.00000000000E+00  0.00000000000E+00  0.83973517424E+03  0.13020584402E+04  0.99508844775E+03 0.  0.
        3    1    3    3  502    0  0.42944847224E+03  0.30113779096E+02  0.93486659417E+02  0.44053671321E+03  0.10100000352E+00 0.  1.
       -3    1    3    3    0  502 -0.42944847224E+03 -0.30113779096E+02  0.74624851482E+03  0.86152172699E+03  0.10100000352E+00 0. -1.
</event>
<event>
 5   0  0.6606947E-03  0.9909126E+03  0.7818609E-02  0.9318568E-01
        2   -1    0    0  501    0  0.00000000000E+00  0.00000000000E+00  0.19056419329E+04  0.19056419329E+04  0.25500000920E-02 0. -1.
       -2   -1    0    0    0  501  0.00000000000E+00  0.00000000000E+00 -0.12881589179E+03  0.12881589182E+03  0.25500000920E-02 0.  1.
    10030    2    1    2    0    0  0.00000000000E+00  0.00000000000E+00  0.17768260411E+04  0.20344578247E+04  0.99091264005E+03 0.  0.
        1    1    3    3  502    0  0.25076530764E+03  0.42309146217E+03  0.10113831420E+04  0.11246268203E+04  0.50400001928E-02 0. -1.
       -1    1    3    3    0  502 -0.25076530764E+03 -0.42309146217E+03  0.76544289909E+03  0.90983100446E+03  0.50400001928E-02 0.  1.
</event>
<event>
 5   0  0.6606947E-03  0.9900592E+03  0.7818609E-02  0.9319515E-01
       -2   -1    0    0    0  501  0.00000000000E+00  0.00000000000E+00  0.14432162991E+04  0.14432162991E+04  0.25500000920E-02 0.  1.
        2   -1    0    0  501    0  0.00000000000E+00  0.00000000000E+00 -0.16979735886E+03  0.16979735888E+03  0.25500000920E-02 0. -1.
    10030    2    1    2    0    0  0.00000000000E+00  0.00000000000E+00  0.12734189402E+04  0.16130136579E+04  0.99005922218E+03 0.  0.
        1    1    3    3  502    0  0.41132917319E+03 -0.27534772916E+03  0.62562903172E+03  0.79775920304E+03  0.50400001928E-02 0.  1.
       -1    1    3    3    0  502 -0.41132917319E+03  0.27534772916E+03  0.64778990847E+03  0.81525445489E+03  0.50400001928E-02 0. -1.
</event>
<event>
 5   0  0.6199539E-03  0.9843430E+03  0.7818609E-02  0.9325886E-01
        2   -1    0    0  501    0  0.00000000000E+00  0.00000000000E+00  0.41502401220E+03  0.41502401221E+03  0.25500000920E-02 0.  1.
       -2   -1    0    0    0  501  0.00000000000E+00  0.00000000000E+00 -0.58365967102E+03  0.58365967103E+03  0.25500000920E-02 0. -1.
    10030    2    1    2    0    0  0.00000000000E+00  0.00000000000E+00 -0.16863565882E+03  0.99868368324E+03  0.98434298582E+03 0.  0.
        2    1    3    3  502    0  0.29096991306E+03  0.35296737001E+03  0.99941171782E+02  0.46822824821E+03  0.25500000920E-02 0.  1.
       -2    1    3    3    0  502 -0.29096991306E+03 -0.35296737001E+03 -0.26857683060E+03  0.53045543502E+03  0.25500000920E-02 0. -1.
</event>
<event>
 5   0  0.3608845E-03  0.1004908E+04  0.7818609E-02  0.9303178E-01
        1   -1    0    0  501    0  0.00000000000E+00  0.00000000000E+00  0.27383723818E+03  0.27383723823E+03  0.50400001928E-02 0.  1.
       -1   -1    0    0    0  501  0.00000000000E+00  0.00000000000E+00 -0.92193536923E+03  0.92193536925E+03  0.50400001928E-02 0. -1.
    10030    2    1    2    0    0  0.00000000000E+00  0.00000000000E+00 -0.64809813105E+03  0.11957726075E+04  0.10049084243E+04 0.  0.
        1    1    3    3  502    0 -0.36217934905E+03  0.28942522636E+03 -0.55453796482E+03  0.72280923969E+03  0.50400001928E-02 0. -1.
       -1    1    3    3    0  502  0.36217934905E+03 -0.28942522636E+03 -0.93560166231E+02  0.47296336778E+03  0.50400001928E-02 0.  1.
</event>
<event>
 5   0  0.6606947E-03  0.9500572E+03  0.7818609E-02  0.9365084E-01
        2   -1    0    0  501    0  0.00000000000E+00  0.00000000000E+00  0.94013714238E+03  0.94013714238E+03  0.25500000920E-02 0.  1.
       -2   -1    0    0    0  501  0.00000000000E+00  0.00000000000E+00 -0.24002049182E+03  0.24002049184E+03  0.25500000920E-02 0. -1.
    10030    2    1    2    0    0  0.00000000000E+00  0.00000000000E+00  0.70011665055E+03  0.11801576342E+04  0.95005721787E+03 0.  0.
        1    1    3    3  502    0  0.20756865074E+03  0.27546432940E+03 -0.55679670530E+02  0.34937883061E+03  0.50400001928E-02 0. -1.
       -1    1    3    3    0  502 -0.20756865074E+03 -0.27546432940E+03  0.75579632108E+03  0.83077880361E+03  0.50400001928E-02 0.  1.
</event>
<event>
 5   0  0.6360455E-03  0.9925781E+03  0.7818609E-02  0.9316723E-01
        2   -1    0    0  501    0  0.00000000000E+00  0.00000000000E+00  0.33746309696E+03  0.33746309697E+03  0.25500000920E-02 0. -1.
       -2   -1    0    0    0  501  0.00000000000E+00  0.00000000000E+00 -0.72986588579E+03  0.72986588579E+03  0.25500000920E-02 0.  1.
    10030    2    1    2    0    0  0.00000000000E+00  0.00000000000E+00 -0.39240278883E+03  0.10673289828E+04  0.99257806180E+03 0.  0.
        4    1    3    3  502    0  0.27389521166E+03  0.73586039007E+02 -0.63414131788E+03  0.69467281223E+03  0.12699999809E+01 0.  1.
       -4    1    3    3    0  502 -0.27389521166E+03 -0.73586039007E+02  0.24173852906E+03  0.37265617053E+03  0.12699999809E+01 0. -1.
</event>
<event>
 5   0  0.6376961E-03  0.1012014E+04  0.7818609E-02  0.9295465E-01
       -2   -1    0    0    0  501  0.00000000000E+00  0.00000000000E+00  0.27529595265E+03  0.27529595266E+03  0.25500000920E-02 0. -1.
        2   -1    0    0  501    0  0.00000000000E+00  0.00000000000E+00 -0.93006464680E+03  0.93006464680E+03  0.25500000920E-02 0.  1.
    10030    2    1    2    0    0  0.00000000000E+00  0.00000000000E+00 -0.65476869415E+03  0.12053605995E+04  0.10120138991E+04 0.  0.
        3    1    3    3  502    0  0.29090035775E+03  0.13895071085E+02  0.16546768463E+03  0.33495620011E+03  0.10100000352E+00 0. -1.
       -3    1    3    3    0  502 -0.29090035775E+03 -0.13895071085E+02 -0.82023637878E+03  0.87040439935E+03  0.10100000352E+00 0.  1.
</event>
<event>
 5   0  0.3466598E-03  0.1006129E+04  0.7818609E-02  0.9301848E-01
       -1   -1    0    0    0  501  0.00000000000E+00  0.00000000000E+00  0.46231130060E+03  0.46231130062E+03  0.50400001928E-02 0.  1.
        1   -1    0    0  501    0  0.00000000000E+00  0.00000000000E+00 -0.54741024306E+03  0.54741024309E+03  0.50400001928E-02 0. -1.
    10030    2    1    2    0    0  0.00000000000E+00  0.00000000000E+00 -0.85098942465E+02  0.10097215437E+04  0.10061291000E+04 0.  0.
        3    1    3    3  502    0 -0.48856325870E+03  0.11022864416E+03  0.48369107565E+01  0.50086706585E+03  0.10100000352E+00 0.  1.
       -3    1    3    3    0  502  0.48856325870E+03 -0.11022864416E+03 -0.89935853222E+02  0.50885447786E+03  0.10100000352E+00 0. -1.
</event>
<event>
 5   0  0.3643002E-03  0.9846452E+03  0.7818609E-02  0.9325548E-01
        1   -1    0    0  501    0  0.00000000000E+00  0.00000000000E+00  0.41988735442E+03  0.41988735445E+03  0.50400001928E-02 0. -1.
       -1   -1    0    0    0  501  0.00000000000E+00  0.00000000000E+00 -0.57725378052E+03  0.57725378055E+03  0.50400001928E-02 0.  1.
    10030    2    1    2    0    0  0.00000000000E+00  0.00000000000E+00 -0.15736642611E+03  0.99714113499E+03  0.98464524121E+03 0.  0.
        2    1    3    3  502    0  0.21599849473E+03  0.17448008106E+03  0.33302622907E+03  0.43359556925E+03  0.25500000920E-02 0. -1.
       -2    1    3    3    0  502 -0.21599849473E+03 -0.17448008106E+03 -0.49039265518E+03  0.56354556575E+03  0.25500000920E-02 0.  1.
</event>
<event>
 5   0  0.6606947E-03  0.9693820E+03  0.7818609E-02  0.9342779E-01
        2   -1    0    0  501    0  0.00000000000E+00  0.00000000000E+00  0.53914486605E+03  0.53914486606E+03  0.25500000920E-02 0.  1.
       -2   -1    0    0    0  501  0.00000000000E+00  0.00000000000E+00 -0.43573696991E+03  0.43573696992E+03  0.25500000920E-02 0. -1.
    10030    2    1    2    0    0  0.00000000000E+00  0.00000000000E+00  0.10340789614E+03  0.97488183597E+03  0.96938196864E+03 0.  0.
        1    1    3    3  502    0  0.34844827790E+03 -0.29341726931E+03  0.21821948505E+03  0.50510359332E+03  0.50400001928E-02 0.  1.
       -1    1    3    3    0  502 -0.34844827790E+03  0.29341726931E+03 -0.11481158891E+03  0.46977824266E+03  0.50400001928E-02 0. -1.
</event>
<event>
 5   0  0.6360455E-03  0.9833957E+03  0.7818609E-02  0.9326946E-01
        2   -1    0    0  501    0  0.00000000000E+00  0.00000000000E+00  0.12026496187E+04  0.12026496187E+04  0.25500000920E-02 0.  1.
       -2   -1    0    0    0  501  0.00000000000E+00  0.00000000000E+00 -0.20102844176E+03  0.20102844177E+03  0.25500000920E-02 0. -1.
    10030    2    1    2    0    0  0.00000000000E+00  0.00000000000E+00  0.10016211769E+04  0.14036780605E+04  0.98339570639E+03 0.  0.
        4    1    3    3  502    0  0.34580823785E+03  0.64099864591E+02  0.99128298341E+03  0.10518249361E+04  0.12699999809E+01 0.  1.
       -4    1    3    3    0  502 -0.34580823785E+03 -0.64099864591E+02  0.10338193515E+02  0.35185312440E+03  0.12699999809E+01 0. -1.
</event>
<event>
 5   0  0.6376961E-03  0.9863932E+03  0.7818609E-02  0.9323596E-01
        2   -1    0    0  501    0  0.00000000000E+00  0.00000000000E+00  0.76111829546E+03  0.76111829546E+03  0.25500000920E-02 0. -1.
       -2   -1    0    0    0  501  0.00000000000E+00  0.00000000000E+00 -0.31958618035E+03  0.31958618036E+03  0.25500000920E-02 0.  1.
    10030    2    1    2    0    0  0.00000000000E+00  0.00000000000E+00  0.44153211511E+03  0.10807044758E+04  0.98639320526E+03 0.  0.
        3    1    3    3  502    0  0.30366076855E+03  0.53525542236E+02  0.64249570742E+03  0.71265390638E+03  0.10100000352E+00 0. -1.
       -3    1    3    3    0  502 -0.30366076855E+03 -0.53525542236E+02 -0.20096359231E+03  0.36805056944E+03  0.10100000352E+00 0.  1.
</event>
<event>
 5   0  0.3608845E-03  0.1008006E+04  0.7818609E-02  0.9299807E-01
        1   -1    0    0  501    0  0.00000000000E+00  0.00000000000E+00  0.64357767489E+03  0.64357767491E+03  0.50400001928E-02 0.  1.
       -1   -1    0    0    0  501  0.00000000000E+00  0.00000000000E+00 -0.39469866777E+03  0.39469866780E+03  0.50400001928E-02 0. -1.
    10030    2    1    2    0    0  0.00000000000E+00  0.00000000000E+00  0.24887900712E+03  0.10382763427E+04  0.10080064502E+04 0.  0.
        1    1    3    3  502    0  0.85147359939E+02  0.62532942372E+02 -0.38316629906E+03  0.39746302287E+03  0.50400001928E-02 0. -1.
       -1    1    3    3    0  502 -0.85147359939E+02 -0.62532942372E+02  0.63204530618E+03  0.64081331984E+03  0.50400001928E-02 0.  1.
</event>
<event>
 5   0  0.6199539E-03  0.9999100E+03  0.7818609E-02  0.9308644E-01
        2   -1    0    0  501    0  0.00000000000E+00  0.00000000000E+00  0.47764698159E+03  0.47764698160E+03  0.25500000920E-02 0. -1.
       -2   -1    0    0    0  501  0.00000000000E+00  0.00000000000E+00 -0.52330486070E+03  0.52330486070E+03  0.25500000920E-02 0.  1.
    10030    2    1    2    0    0  0.00000000000E+00  0.00000000000E+00 -0.45657879106E+02  0.10009518423E+04  0.99990997029E+03 0.  0.
        2    1    3    3  502    0  0.22276441425E+03 -0.44582901084E+03  0.16803928859E+02  0.49866808921E+03  0.25500000920E-02 0.  1.
       -2    1    3    3    0  502 -0.22276441425E+03  0.44582901084E+03 -0.62461807966E+02  0.50228375310E+03  0.25500000920E-02 0. -1.
</event>
<event>
 5   0  0.3608845E-03  0.9922925E+03  0.7818609E-02  0.9317039E-01
       -1   -1    0    0    0  501  0.00000000000E+00  0.00000000000E+00  0.37764325161E+03  0.37764325164E+03  0.50400001928E-02 0. -1.
        1   -1    0    0  501    0  0.00000000000E+00  0.00000000000E+00 -0.65183498800E+03  0.65183498802E+03  0.50400001928E-02 0.  1.
    10030    2    1    2    0    0  0.00000000000E+00  0.00000000000E+00 -0.27419173639E+03  0.10294782397E+04  0.99229246577E+03 0.  0.
        1    1    3    3  502    0 -0.45649812001E+03  0.18662563588E+03 -0.19336318528E+03  0.52972538450E+03  0.50400001928E-02 0. -1.
       -1    1    3    3    0  502  0.45649812001E+03 -0.18662563588E+03 -0.80828551108E+02  0.49975285516E+03  0.50400001928E-02 0.  1.
</event>
<event>
 5   0  0.3643002E-03  0.9798935E+03  0.7818609E-02  0.9330876E-01
        1   -1    0    0  501    0  0.00000000000E+00  0.00000000000E+00  0.11836757590E+04  0.11836757591E+04  0.50400001928E-02 0.  1.
       -1   -1    0    0    0  501  0.00000000000E+00  0.00000000000E+00 -0.20279863435E+03  0.20279863441E+03  0.50400001928E-02 0. -1.
    10030    2    1    2    0    0  0.00000000000E+00  0.00000000000E+00  0.98087712470E+03  0.13864743935E+04  0.97989351973E+03 0.  0.
        2    1    3    3  502    0  0.22170326362E+03 -0.39558944308E+03  0.75288488084E+03  0.87890783839E+03  0.25500000920E-02 0.  1.
       -2    1    3    3    0  502 -0.22170326362E+03  0.39558944308E+03  0.22799224386E+03  0.50756655509E+03  0.25500000920E-02 0. -1.
</event>
<event>
 5   0  0.6022787E-03  0.9923294E+03  0.7818609E-02  0.9316998E-01
       -2   -1    0    0    0  501  0.00000000000E+00  0.00000000000E+00  0.25555787065E+03  0.25555787067E+03  0.25500000920E-02 0. -1.
        2   -1    0    0  501    0  0.00000000000E+00  0.00000000000E+00 -0.96330201691E+03  0.96330201691E+03  0.25500000920E-02 0.  1.
    10030    2    1    2    0    0  0.00000000000E+00  0.00000000000E+00 -0.70774414625E+03  0.12188598876E+04  0.99232940548E+03 0.  0.
        5    1    3    3  502    0  0.46640470710E+02  0.15539301984E+03 -0.92977109494E+03  0.94383192524E+03  0.46999998093E+01 0.  1.
       -5    1    3    3    0  502 -0.46640470710E+02 -0.15539301984E+03  0.22202694869E+03  0.27502796233E+03  0.46999998093E+01 0. -1.
</event>
<event>
 5   0  0.3608845E-03  0.1000897E+04  0.7818609E-02  0.9307562E-01
        1   -1    0    0  501    0  0.00000000000E+00  0.00000000000E+00  0.10579322796E+04  0.10579322796E+04  0.50400001928E-02 0. -1.
       -1   -1    0    0    0  501  0.00000000000E+00  0.00000000000E+00 -0.23673394993E+03  0.23673394998E+03  0.50400001928E-02 0.  1.
    10030    2    1    2    0    0  0.00000000000E+00  0.00000000000E+00  0.82119832965E+03  0.12946662296E+04  0.10008965728E+04 0.  0.
        1    1    3    3  502    0 -0.38610390893E+03 -0.82114760916E+02  0.12692037772E+02  0.39494322415E+03  0.50400001928E-02 0.  1.
       -1    1    3    3    0  502  0.38610390893E+03  0.82114760916E+02  0.80850629187E+03  0.89972300542E+03  0.50400001928E-02 0. -1.
</event>
<event>
 5   0  0.6360455E-03  0.1004874E+04  0.7818609E-02  0.9303216E-01
        2   -1    0    0  501    0  0.00000000000E+00  0.00000000000E+00  0.87964799385E+03  0.87964799385E+03  0.25500000920E-02 0.  1.
       -2   -1    0    0    0  501  0.00000000000E+00  0.00000000000E+00 -0.28698159066E+03  0.28698159067E+03  0.25500000920E-02 0. -1.
    10030    2    1    2    0    0  0.00000000000E+00  0.00000000000E+00  0.59266640319E+03  0.11666295845E+04  0.10048736846E+04 0.  0.
        4    1    3    3  502    0 -0.33228704923E+03 -0.37590711922E+03  0.32749230299E+03  0.59914411186E+03  0.12699999809E+01 0. -1.
       -4    1    3    3    0  502  0.33228704923E+03  0.37590711922E+03  0.26517410020E+03  0.56748547266E+03  0.12699999809E+01 0.  1.
</event>
<event>
 5   0  0.3640180E-03  0.1011091E+04  0.7818609E-02  0.9296464E-01
       -1   -1    0    0    0  501  0.00000000000E+00  0.00000000000E+00  0.17501756456E+03  0.17501756463E+03  0.50400001928E-02 0.  1.
        1   -1    0    0  501    0  0.00000000000E+00  0.00000000000E+00 -0.14602885680E+04  0.14602885680E+04  0.50400001928E-02 0. -1.
    10030    2    1    2    0    0  0.00000000000E+00  0.00000000000E+00 -0.12852710034E+04  0.16353061326E+04  0.10110907947E+04 0.  0.
        5    1    3    3  502    0 -0.22631316775E+03  0.19152034007E+03 -0.13048808800E+04  0.13381456914E+04  0.46999998093E+01 0. -1.
       -5    1    3    3    0  502  0.22631316775E+03 -0.19152034007E+03  0.19609876547E+02  0.29716044120E+03  0.46999998093E+01 0.  1.
</event>
<event>
 5   0  0.6376961E-03  0.9930691E+03  0.7818609E-02  0.9316179E-01
        2   -1    0    0  501    0  0.00000000000E+00  0.00000000000E+00  0.73034795907E+03  0.73034795907E+03  0.25500000920E-02 0. -1.
       -2   -1    0    0    0  501  0.00000000000E+00  0.00000000000E+00 -0.33757413855E+03  0.33757413856E+03  0.25500000920E-02 0.  1.
    10030    2    1    2    0    0  0.00000000000E+00  0.00000000000E+00  0.39277382052E+03  0.10679220976E+04  0.99306914791E+03 0.  0.
        3    1    3    3  502    0 -0.40078252192E+03  0.22121695116E+03 -0.10418155703E+02  0.45789968064E+03  0.10100000352E+00 0.  1.
       -3    1    3    3    0  502  0.40078252192E+03 -0.22121695116E+03  0.40319197622E+03  0.61002241700E+03  0.10100000352E+00 0. -1.
</event>
<event>
 5   0  0.6022787E-03  0.9908791E+03  0.7818609E-02  0.9318605E-01
        2   -1    0    0  501    0  0.00000000000E+00  0.00000000000E+00  0.44520304847E+03  0.44520304848E+03  0.25500000920E-02 0.  1.
       -2   -1    0    0    0  501  0.00000000000E+00  0.00000000000E+00 -0.55134474835E+03  0.55134474836E+03  0.25500000920E-02 0. -1.
    10030    2    1    2    0    0  0.00000000000E+00  0.00000000000E+00 -0.10614169988E+03  0.99654779683E+03  0.99087913033E+03 0.  0.
        5    1    3    3  502    0  0.63959306880E+02 -0.33347874040E+02 -0.54601299744E+03  0.55077686681E+03  0.46999998093E+01 0. -1.
       -5    1    3    3    0  502 -0.63959306880E+02  0.33347874040E+02  0.43987129756E+03  0.44577093002E+03  0.46999998093E+01 0.  1.
</event>
<event>
 5   0  0.3466598E-03  0.9682823E+03  0.7818609E-02  0.9344033E-01
        1   -1    0    0  501    0  0.00000000000E+00  0.00000000000E+00  0.19702514280E+04  0.19702514280E+04  0.50400001928E-02 0.  1.
       -1   -1    0    0    0  501  0.00000000000E+00  0.00000000000E+00 -0.11896586047E+03  0.11896586058E+03  0.50400001928E-02 0. -1.
    10030    2    1    2    0    0  0.00000000000E+00  0.00000000000E+00  0.18512855675E+04  0.20892172885E+04  0.96828230715E+03 0.  0.
        3    1    3    3  502    0  0.29226471139E+03  0.89778919666E+02  0.17355928977E+04  0.17623171203E+04  0.10100000352E+00 0.  1.
       -3    1    3    3    0  502 -0.29226471139E+03 -0.89778919666E+02  0.11569266984E+03  0.32690016824E+03  0.10100000352E+00 0. -1.
</event>
<event>
 5   0  0.6199539E-03  0.9878793E+03  0.7818609E-02  0.9321939E-01
       -2   -1    0    0    0  501  0.00000000000E+00  0.00000000000E+00  0.42620136994E+03  0.42620136995E+03  0.25500000920E-02 0. -1.
        2   -1    0    0  501    0  0.00000000000E+00  0.00000000000E+00 -0.57244390032E+03  0.57244390033E+03  0.25500000920E-02 0.  1.
    10030    2    1    2    0    0  0.00000000000E+00  0.00000000000E+00 -0.14624253038E+03  0.99864527027E+03  0.98787929331E+03 0.  0.
        2    1    3    3  502    0 -0.72708370620E+02  0.48800979561E+03 -0.49710586598E+02  0.49589435387E+03  0.25500000920E-02 0. -1.
       -2    1    3    3    0  502  0.72708370620E+02 -0.48800979561E+03 -0.96531943785E+02  0.50275091641E+03  0.25500000920E-02 0.  1.
</event>
<event>
 5   0  0.6360455E-03  0.9993966E+03  0.7818609E-02  0.9309207E-01
        2   -1    0    0  501    0  0.00000000000E+00  0.00000000000E+00  0.98257923943E+03  0.98257923943E+03  0.25500000920E-02 0.  1.
       -2   -1    0    0    0  501  0.00000000000E+00  0.00000000000E+00 -0.25412543172E+03  0.25412543173E+03  0.25500000920E-02 0. -1.
    10030    2    1    2    0    0  0.00000000000E+00  0.00000000000E+00  0.72845380771E+03  0.12367046712E+04  0.99939656479E+03 0.  0.
        4    1    3    3  502    0  0.38915724625E+03  0.21063326429E+03  0.76970143979E+02  0.44915003094E+03  0.12699999809E+01 0. -1.
       -4    1    3    3    0  502 -0.38915724625E+03 -0.21063326429E+03  0.65148366373E+03  0.78755464022E+03  0.12699999809E+01 0.  1.
</event>
<event>
 5   0  0.6360455E-03  0.9985926E+03  0.7818609E-02  0.9310090E-01
       -2   -1    0    0    0  501  0.00000000000E+00  0.00000000000E+00  0.19075972722E+03  0.19075972723E+03  0.25500000920E-02 0.  1.
        2   -1    0    0  501    0  0.00000000000E+00  0.00000000000E+00 -0.13068628717E+04  0.13068628717E+04  0.25500000920E-02 0. -1.
    10030    2    1    2    0    0  0.00000000000E+00  0.00000000000E+00 -0.11161031445E+04  0.14976225989E+04  0.99859261950E+03 0.  0.
        4    1    3    3  502    0 -0.44346790108E+03 -0.20516027187E+03 -0.71202587871E+03  0.86356064135E+03  0.12699999809E+01 0. -1.
       -4    1    3    3    0  502  0.44346790108E+03  0.20516027187E+03 -0.40407726578E+03  0.63406195759E+03  0.12699999809E+01 0.  1.
</event>
<event>
 5   0  0.3569359E-03  0.1006428E+04  0.7818609E-02  0.9301523E-01
       -1   -1    0    0    0  501  0.00000000000E+00  0.00000000000E+00  0.97574052516E+03  0.97574052517E+03  0.50400001928E-02 0.  1.
        1   -1    0    0  501    0  0.00000000000E+00  0.00000000000E+00 -0.25952016120E+03  0.25952016125E+03  0.50400001928E-02 0. -1.
    10030    2    1    2    0    0  0.00000000000E+00  0.00000000000E+00  0.71622036395E+03  0.12352606864E+04  0.10064280171E+04 0.  0.
        4    1    3    3  502    0 -0.40600924234E+03 -0.28349310741E+03  0.46796420840E+03  0.68132515003E+03  0.12699999809E+01 0.  1.
       -4    1    3    3    0  502  0.40600924234E+03  0.28349310741E+03  0.24825615555E+03  0.55393553640E+03  0.12699999809E+01 0. -1.
</event>
<event>
 5   0  0.3466598E-03  0.1004925E+04  0.7818609E-02  0.9303159E-01
       -1   -1    0    0    0  501  0.00000000000E+00  0.00000000000E+00  0.22252138581E+03  0.22252138586E+03  0.50400001928E-02 0. -1.
        1   -1    0    0  501    0  0.00000000000E+00  0.00000000000E+00 -0.11345815301E+04  0.11345815301E+04  0.50400001928E-02 0.  1.
    10030    2    1    2    0    0  0.00000000000E+00  0.00000000000E+00 -0.91206014428E+03  0.13571029160E+04  0.10049251802E+04 0.  0.
        3    1    3    3  502    0  0.43250353127E+03  0.21037270757E+03 -0.65243916346E+03  0.81055095637E+03  0.10100000352E+00 0.  1.
       -3    1    3    3    0  502 -0.43250353127E+03 -0.21037270757E+03 -0.25962098082E+03  0.54655195959E+03  0.10100000352E+00 0. -1.
</event>
<event>
 5   0  0.3608845E-03  0.9963649E+03  0.7818609E-02  0.9312541E-01
       -1   -1    0    0    0  501  0.00000000000E+00  0.00000000000E+00  0.19039962719E+03  0.19039962726E+03  0.50400001928E-02 0. -1.
        1   -1    0    0  501    0  0.00000000000E+00  0.00000000000E+00 -0.13034992712E+04  0.13034992712E+04  0.50400001928E-02 0.  1.
    10030    2    1    2    0    0  0.00000000000E+00  0.00000000000E+00 -0.11130996440E+04  0.14938988985E+04  0.99636494387E+03 0.  0.
        1    1    3    3  502    0 -0.29004893172E+03 -0.40487646403E+03 -0.57380480952E+03  0.75980608933E+03  0.50400001928E-02 0. -1.
       -1    1    3    3    0  502  0.29004893172E+03  0.40487646403E+03 -0.53929483452E+03  0.73409280917E+03  0.50400001928E-02 0.  1.
</event>
<event>
 5   0  0.3569359E-03  0.1005410E+04  0.7818609E-02  0.9302631E-01
        1   -1    0    0  501    0  0.00000000000E+00  0.00000000000E+00  0.15595790095E+04  0.15595790095E+04  0.50400001928E-02 0.  1.
       -1   -1    0    0    0  501  0.00000000000E+00  0.00000000000E+00 -0.16203880258E+03  0.16203880266E+03  0.50400001928E-02 0. -1.
    10030    2    1    2    0    0  0.00000000000E+00  0.00000000000E+00  0.13975402069E+04  0.17216178122E+04  0.10054099966E+04 0.  0.
        4    1    3    3  502    0  0.30770765303E+03  0.53928670207E+02  0.13731819777E+04  0.14082693840E+04  0.12699999809E+01 0.  1.
       -4    1    3    3    0  502 -0.30770765303E+03 -0.53928670207E+02  0.24358229251E+02  0.31334842817E+03  0.12699999809E+01 0. -1.
</event>
<event>
 5   0  0.3608845E-03  0.9886371E+03  0.7818609E-02  0.9321096E-01
        1   -1    0    0  501    0  0.00000000000E+00  0.00000000000E+00  0.35422673620E+03  0.35422673624E+03  0.50400001928E-02 0.  1.
       -1   -1    0    0    0  501  0.00000000000E+00  0.00000000000E+00 -0.68981471598E+03  0.68981471600E+03  0.50400001928E-02 0. -1.
    10030    2    1    2    0    0  0.00000000000E+00  0.00000000000E+00 -0.33558797978E+03  0.10440414522E+04  0.98863707285E+03 0.  0.
        1    1    3    3  502    0  0.35704630155E+03 -0.11483081718E+03 -0.50783701258E+03  0.63132132025E+03  0.50400001928E-02 0. -1.
       -1    1    3    3    0  502 -0.35704630155E+03  0.11483081718E+03  0.17224903281E+03  0.41272013199E+03  0.50400001928E-02 0.  1.
</event>
<event>
 5   0  0.6199539E-03  0.9999755E+03  0.7818609E-02  0.9308572E-01
        2   -1    0    0  501    0  0.00000000000E+00  0.00000000000E+00  0.10282330753E+04  0.10282330753E+04  0.25500000920E-02 0. -1.
       -2   -1    0    0    0  501  0.00000000000E+00  0.00000000000E+00 -0.24312362734E+03  0.24312362736E+03  0.25500000920E-02 0.  1.
    10030    2    1    2    0    0  0.00000000000E+00  0.00000000000E+00  0.78510944795E+03  0.12713567027E+04  0.99997550976E+03 0.  0.
        2    1    3    3  502    0 -0.39985228614E+03 -0.13348841291E+03  0.50726910881E+02  0.42458712487E+03  0.25500000920E-02 0.  1.
       -2    1    3    3    0  502  0.39985228614E+03  0.13348841291E+03  0.73438253707E+03  0.84676957779E+03  0.25500000920E-02 0. -1.
</event>
<event>
 5   0  0.3569359E-03  0.9804074E+03  0.7818609E-02  0.9330298E-01
        1   -1    0    0  501    0  0.00000000000E+00  0.00000000000E+00  0.24602679208E+03  0.24602679214E+03  0.50400001928E-02 0.  1.
       -1   -1    0    0    0  501  0.00000000000E+00  0.00000000000E+00 -0.97672163529E+03  0.97672163530E+03  0.50400001928E-02 0. -1.
    10030    2    1    2    0    0  0.00000000000E+00  0.00000000000E+00 -0.73069484320E+03  0.12227484274E+04  0.98040744740E+03 0.  0.
        4    1    3    3  502    0 -0.34974904417E+03 -0.30630462990E+03 -0.55916782254E+03  0.72719817578E+03  0.12699999809E+01 0. -1.
       -4    1    3    3    0  502  0.34974904417E+03  0.30630462990E+03 -0.17152702066E+03  0.49555025165E+03  0.12699999809E+01 0.  1.
</event>
<event>
 5   0  0.6199539E-03  0.9594598E+03  0.7818609E-02  0.9354161E-01
        2   -1    0    0  501    0  0.00000000000E+00  0.00000000000E+00  0.57074653146E+03  0.57074653146E+03  0.25500000920E-02 0. -1.
       -2   -1    0    0    0  501  0.00000000000E+00  0.00000000000E+00 -0.40322763767E+03  0.40322763767E+03  0.25500000920E-02 0.  1.
    10030    2    1    2    0    0  0.00000000000E+00  0.00000000000E+00  0.16751889379E+03  0.97397416914E+03  0.95945979716E+03 0.  0.
        2    1    3    3  502    0  0.30173164346E+03 -0.27966546023E+03  0.33424313822E+03  0.53006908018E+03  0.25500000920E-02 0. -1.
       -2    1    3    3    0  502 -0.30173164346E+03  0.27966546023E+03 -0.16672424444E+03  0.44390508895E+03  0.25500000920E-02 0.  1.
</event>
<event>
 5   0  0.3608845E-03  0.1005239E+04  0.7818609E-02  0.9302818E-01
       -1   -1    0    0    0  501  0.00000000000E+00  0.00000000000E+00  0.71633028113E+03  0.71633028115E+03  0.50400001928E-02 0. -1.
        1   -1    0    0  501    0  0.00000000000E+00  0.00000000000E+00 -0.35266724939E+03  0.35266724943E+03  0.50400001928E-02 0.  1.
    10030    2    1    2    0    0  0.00000000000E+00  0.00000000000E+00  0.36366303174E+03  0.10689975306E+04  0.10052387377E+04 0.  0.
        1    1    3    3  502    0 -0.49996167531E+03  0.90226774448E+01  0.12778324186E+03  0.51611204444E+03  0.50400001928E-02 0. -1.
       -1    1    3    3    0  502  0.49996167531E+03 -0.90226774448E+01  0.23587978988E+03  0.55288548614E+03  0.50400001928E-02 0.  1.
</event>
<event>
 5   0  0.3466598E-03  0.9080969E+03  0.7818609E-02  0.9415516E-01
       -1   -1    0    0    0  501  0.00000000000E+00  0.00000000000E+00  0.20971264051E+03  0.20971264057E+03  0.50400001928E-02 0.  1.
        1   -1    0    0  501    0  0.00000000000E+00  0.00000000000E+00 -0.98305942035E+03  0.98305942037E+03  0.50400001928E-02 0. -1.
    10030    2    1    2    0    0  0.00000000000E+00  0.00000000000E+00 -0.77334677984E+03  0.11927720609E+04  0.90809688220E+03 0.  0.
        3    1    3    3  502    0 -0.24646772974E+03  0.36873668703E+03 -0.25900901772E+03  0.51361344183E+03  0.10100000352E+00 0.  1.
       -3    1    3    3    0  502  0.24646772974E+03 -0.36873668703E+03 -0.51433776212E+03  0.67915861911E+03  0.10100000352E+00 0. -1.
</event>
<event>
 5   0  0.6199539E-03  0.1025148E+04  0.7818609E-02  0.9281385E-01
       -2   -1    0    0    0  501  0.00000000000E+00  0.00000000000E+00  0.95181449308E+03  0.95181449308E+03  0.25500000920E-02 0.  1.
        2   -1    0    0  501    0  0.00000000000E+00  0.00000000000E+00 -0.27603284136E+03  0.27603284137E+03  0.25500000920E-02 0. -1.
    10030    2    1    2    0    0  0.00000000000E+00  0.00000000000E+00  0.67578165172E+03  0.12278473345E+04  0.10251479093E+04 0.  0.
        2    1    3    3  502    0  0.16268079120E+03 -0.11864705787E+03 -0.22668202905E+03  0.30319450269E+03  0.25500000920E-02 0. -1.
       -2    1    3    3    0  502 -0.16268079120E+03  0.11864705787E+03  0.90246368077E+03  0.92465283176E+03  0.25500000920E-02 0.  1.
</event>
<event>
 5   0  0.6376961E-03  0.9691588E+03  0.7818609E-02  0.9343033E-01
       -2   -1    0    0    0  501  0.00000000000E+00  0.00000000000E+00  0.26661502459E+03  0.26661502460E+03  0.25500000920E-02 0.  1.
        2   -1    0    0  501    0  0.00000000000E+00  0.00000000000E+00 -0.88073500943E+03  0.88073500943E+03  0.25500000920E-02 0. -1.
    10030    2    1    2    0    0  0.00000000000E+00  0.00000000000E+00 -0.61411998484E+03  0.11473500340E+04  0.96915878205E+03 0.  0.
        3    1    3    3  502    0  0.53578335198E+02  0.11311427360E+03 -0.86126879371E+03  0.87031570255E+03  0.10100000352E+00 0. -1.
       -3    1    3    3    0  502 -0.53578335198E+02 -0.11311427360E+03  0.24714880887E+03  0.27703433148E+03  0.10100000352E+00 0.  1.
</event>
<event>
 5   0  0.6022787E-03  0.9967694E+03  0.7818609E-02  0.9312095E-01
        2   -1    0    0  501    0  0.00000000000E+00  0.00000000000E+00  0.12772014690E+04  0.12772014690E+04  0.25500000920E-02 0.  1.
       -2   -1    0    0    0  501  0.00000000000E+00  0.00000000000E+00 -0.19447776503E+03  0.19447776505E+03  0.25500000920E-02 0. -1.
    10030    2    1    2    0    0  0.00000000000E+00  0.00000000000E+00  0.10827237040E+04  0.14716792341E+04  0.99676935588E+03 0.  0.
        5    1    3    3  502    0  0.47932837557E+03 -0.93153579539E+02  0.39422041016E+03  0.62758672930E+03  0.46999998093E+01 0. -1.
       -5    1    3    3    0  502 -0.47932837557E+03  0.93153579539E+02  0.68850329381E+03  0.84409250476E+03  0.46999998093E+01 0.  1.
</event>
<event>
 5   0  0.3569359E-03  0.1007850E+04  0.7818609E-02  0.9299977E-01
       -1   -1    0    0    0  501  0.00000000000E+00  0.00000000000E+00  0.28922757297E+03  0.28922757301E+03  0.50400001928E-02 0. -1.
        1   -1    0    0  501    0  0.00000000000E+00  0.00000000000E+00 -0.87799457056E+03  0.87799457057E+03  0.50400001928E-02 0.  1.
    10030    2    1    2    0    0  0.00000000000E+00  0.00000000000E+00 -0.58876699759E+03  0.11672221436E+04  0.10078496689E+04 0.  0.
        4    1    3    3  502    0  0.29469707589E+01  0.49597969544E+03 -0.19122473518E+03  0.53157601072E+03  0.12699999809E+01 0. -1.
       -4    1    3    3    0  502 -0.29469707589E+01 -0.49597969544E+03 -0.39754226241E+03  0.63564613287E+03  0.12699999809E+01 0.  1.
</event>
<event>
 5   0  0.3608845E-03  0.1008890E+04  0.7818609E-02  0.9298847E-01
       -1   -1    0    0    0  501  0.00000000000E+00  0.00000000000E+00  0.55594038043E+03  0.55594038045E+03  0.50400001928E-02 0.  1.
        1   -1    0    0  501    0  0.00000000000E+00  0.00000000000E+00 -0.45771986974E+03  0.45771986977E+03  0.50400001928E-02 0. -1.
    10030    2    1    2    0    0  0.00000000000E+00  0.00000000000E+00  0.98220510692E+02  0.10136602502E+04  0.10088903975E+04 0.  0.
        1    1    3    3  502    0 -0.49767597594E+03  0.17984096827E+02  0.12986533595E+03  0.51465504007E+03  0.50400001928E-02 0.  1.
       -1    1    3    3    0  502  0.49767597594E+03 -0.17984096827E+02 -0.31644825260E+02  0.49900521015E+03  0.50400001928E-02 0. -1.
</event>
<event>
 5   0  0.3466598E-03  0.1002579E+04  0.7818609E-02  0.9305721E-01
       -1   -1    0    0    0  501  0.00000000000E+00  0.00000000000E+00  0.53534342694E+03  0.53534342696E+03  0.50400001928E-02 0. -1.
        1   -1    0    0  501    0  0.00000000000E+00  0.00000000000E+00 -0.46940151497E+03  0.46940151500E+03  0.50400001928E-02 0.  1.
    10030    2    1    2    0    0  0.00000000000E+00  0.00000000000E+00  0.65941911963E+02  0.10047449420E+04  0.10025787065E+04 0.  0.
        3    1    3    3  502    0 -0.21147065210E+03  0.13349743651E+03  0.46836288659E+03  0.53094746067E+03  0.10100000352E+00 0. -1.
       -3    1    3    3    0  502  0.21147065210E+03 -0.13349743651E+03 -0.40242097463E+03  0.47379748129E+03  0.10100000352E+00 0.  1.
</event>
<event>
 5   0  0.6376961E-03  0.9920811E+03  0.7818609E-02  0.9317273E-01
        2   -1    0    0  501    0  0.00000000000E+00  0.00000000000E+00  0.14497964928E+03  0.14497964931E+03  0.25500000920E-02 0. -1.
       -2   -1    0    0    0  501  0.00000000000E+00  0.00000000000E+00 -0.16971776563E+04  0.16971776563E+04  0.25500000920E-02 0.  1.
    10030    2    1    2    0    0  0.00000000000E+00  0.00000000000E+00 -0.15521980070E+04  0.18421573056E+04  0.99208108823E+03 0.  0.
        3    1    3    3  502    0 -0.67745299379E+02 -0.21892661589E+03 -0.15929871218E+04  0.16093869234E+04  0.10100000352E+00 0.  1.
       -3    1    3    3    0  502  0.67745299379E+02  0.21892661589E+03  0.40789114822E+02  0.23277038219E+03  0.10100000352E+00 0. -1.
</event>
<event>
 5   0  0.6199539E-03  0.1014961E+04  0.7818609E-02  0.9292287E-01
        2   -1    0    0  501    0  0.00000000000E+00  0.00000000000E+00  0.57665621153E+03  0.57665621154E+03  0.25500000920E-02 0. -1.
       -2   -1    0    0    0  501  0.00000000000E+00  0.00000000000E+00 -0.44660288780E+03  0.44660288780E+03  0.25500000920E-02 0.  1.
    10030    2    1    2    0    0  0.00000000000E+00  0.00000000000E+00  0.13005332374E+03  0.10232590993E+04  0.10149607467E+04 0.  0.
        2    1    3    3  502    0  0.36454010986E+03 -0.35252159611E+03  0.84559325535E+02  0.51411209572E+03  0.25500000920E-02 0. -1.
       -2    1    3    3    0  502 -0.36454010986E+03  0.35252159611E+03  0.45493998202E+02  0.50914700363E+03  0.25500000920E-02 0.  1.
</event>
<event>
 5   0  0.2417750E-03  0.1008794E+04  0.7818609E-02  0.9298951E-01
        4   -1    0    0  501    0  0.00000000000E+00  0.00000000000E+00  0.12650448197E+04  0.12650454572E+04  0.12699999809E+01 0.  1.
       -4   -1    0    0    0  501  0.00000000000E+00  0.00000000000E+00 -0.20111000356E+03  0.20111401352E+03  0.12699999809E+01 0. -1.
    10030    2    1    2    0    0  0.00000000000E+00  0.00000000000E+00  0.10639348161E+04  0.14661594707E+04  0.10087944788E+04 0.  0.
        5    1    3    3  502    0  0.30661705434E+03  0.31308599478E+03  0.16903704488E+03  0.46971530812E+03  0.46999998093E+01 0. -1.
       -5    1    3    3    0  502 -0.30661705434E+03 -0.31308599478E+03  0.89489777126E+03  0.99644416259E+03  0.46999998093E+01 0.  1.
</event>
<event>
 5   0  0.3643002E-03  0.1010391E+04  0.7818609E-02  0.9297221E-01
        1   -1    0    0  501    0  0.00000000000E+00  0.00000000000E+00  0.54351186629E+03  0.54351186631E+03  0.50400001928E-02 0.  1.
       -1   -1    0    0    0  501  0.00000000000E+00  0.00000000000E+00 -0.46958021539E+03  0.46958021542E+03  0.50400001928E-02 0. -1.
    10030    2    1    2    0    0  0.00000000000E+00  0.00000000000E+00  0.73931650898E+02  0.10130920817E+04  0.10103908536E+04 0.  0.
        2    1    3    3  502    0  0.13916393907E+03  0.39385755113E+02 -0.44837844083E+03  0.47112744120E+03  0.25500000920E-02 0. -1.
       -2    1    3    3    0  502 -0.13916393907E+03 -0.39385755113E+02  0.52231009173E+03  0.54196464052E+03  0.25500000920E-02 0.  1.
</event>
<event>
 5   0  0.6606947E-03  0.9939481E+03  0.7818609E-02  0.9315207E-01
        2   -1    0    0  501    0  0.00000000000E+00  0.00000000000E+00  0.15313167201E+04  0.15313167201E+04  0.25500000920E-02 0. -1.
       -2   -1    0    0    0  501  0.00000000000E+00  0.00000000000E+00 -0.16128813120E+03  0.16128813122E+03  0.25500000920E-02 0.  1.
    10030    2    1    2    0    0  0.00000000000E+00  0.00000000000E+00  0.13700285889E+04  0.16926048513E+04  0.99394811150E+03 0.  0.
        1    1    3    3  502    0  0.13848245113E+03  0.20691589491E+03  0.14174473126E+04  0.14391485194E+04  0.50400001928E-02 0. -1.
       -1    1    3    3    0  502 -0.13848245113E+03 -0.20691589491E+03 -0.47418723669E+02  0.25345633197E+03  0.50400001928E-02 0.  1.
</event>
<event>
 5   0  0.3466598E-03  0.9940640E+03  0.7818609E-02  0.9315079E-01
        1   -1    0    0  501    0  0.00000000000E+00  0.00000000000E+00  0.13514294843E+04  0.13514294844E+04  0.50400001928E-02 0. -1.
       -1   -1    0    0    0  501  0.00000000000E+00  0.00000000000E+00 -0.18279963175E+03  0.18279963182E+03  0.50400001928E-02 0.  1.
    10030    2    1    2    0    0  0.00000000000E+00  0.00000000000E+00  0.11686298526E+04  0.15342291162E+04  0.99406400625E+03 0.  0.
        3    1    3    3  502    0  0.32668484349E+03  0.33184355275E+02  0.11601808816E+04  0.12057544844E+04  0.10100000352E+00 0. -1.
       -3    1    3    3    0  502 -0.32668484349E+03 -0.33184355275E+02  0.84489709820E+01  0.32847463176E+03  0.10100000352E+00 0.  1.
</event>
<event>
 5   0  0.6606947E-03  0.8850757E+03  0.7818609E-02  0.9444432E-01
       -2   -1    0    0    0  501  0.00000000000E+00  0.00000000000E+00  0.15632780100E+03  0.15632780102E+03  0.25500000920E-02 0.  1.
        2   -1    0    0  501    0  0.00000000000E+00  0.00000000000E+00 -0.12527506430E+04  0.12527506430E+04  0.25500000920E-02 0. -1.
    10030    2    1    2    0    0  0.00000000000E+00  0.00000000000E+00 -0.10964228420E+04  0.14090784440E+04  0.88507571030E+03 0.  0.
        1    1    3    3  502    0  0.17095338100E+03  0.24471566394E+03 -0.28100654412E+02  0.29983405654E+03  0.50400001928E-02 0.  1.
       -1    1    3    3    0  502 -0.17095338100E+03 -0.24471566394E+03 -0.10683221876E+04  0.11092443875E+04  0.50400001928E-02 0. -1.
</event>
<event>
 5   0  0.3643002E-03  0.1008677E+04  0.7818609E-02  0.9299079E-01
       -1   -1    0    0    0  501  0.00000000000E+00  0.00000000000E+00  0.17936046053E+03  0.17936046060E+03  0.50400001928E-02 0.  1.
        1   -1    0    0  501    0  0.00000000000E+00  0.00000000000E+00 -0.14181351281E+04  0.14181351281E+04  0.50400001928E-02 0. -1.
    10030    2    1    2    0    0  0.00000000000E+00  0.00000000000E+00 -0.12387746676E+04  0.15974955887E+04  0.10086770935E+04 0.  0.
        2    1    3    3  502    0  0.18115250172E+03  0.29991996080E+03 -0.44877372555E+02  0.35324522691E+03  0.25500000920E-02 0.  1.
       -2    1    3    3    0  502 -0.18115250172E+03 -0.29991996080E+03 -0.11938972950E+04  0.12442503618E+04  0.25500000920E-02 0. -1.
</event>
<event>
 5   0  0.3569359E-03  0.1011971E+04  0.7818609E-02  0.9295512E-01
       -1   -1    0    0    0  501  0.00000000000E+00  0.00000000000E+00  0.43560789273E+03  0.43560789276E+03  0.50400001928E-02 0. -1.
        1   -1    0    0  501    0  0.00000000000E+00  0.00000000000E+00 -0.58773370194E+03  0.58773370196E+03  0.50400001928E-02 0.  1.
    10030    2    1    2    0    0  0.00000000000E+00  0.00000000000E+00 -0.15212580921E+03  0.10233415947E+04  0.10119712237E+04 0.  0.
        4    1    3    3  502    0  0.17594514108E+03 -0.10400921279E+03 -0.54412991374E+03  0.58125173973E+03  0.12699999809E+01 0.  1.
       -4    1    3    3    0  502 -0.17594514108E+03  0.10400921279E+03  0.39200410453E+03  0.44208985499E+03  0.12699999809E+01 0. -1.
</event>
<event>
 5   0  0.6360455E-03  0.1003379E+04  0.7818609E-02  0.9304846E-01
       -2   -1    0    0    0  501  0.00000000000E+00  0.00000000000E+00  0.39144615837E+03  0.39144615838E+03  0.25500000920E-02 0.  1.
        2   -1    0    0  501    0  0.00000000000E+00  0.00000000000E+00 -0.64298138685E+03  0.64298138685E+03  0.25500000920E-02 0. -1.
    10030    2    1    2    0    0  0.00000000000E+00  0.00000000000E+00 -0.25153522847E+03  0.10344275452E+04  0.10033794772E+04 0.  0.
        4    1    3    3  502    0  0.46506517130E+03 -0.67530380038E+01  0.68092980409E+02  0.47007391329E+03  0.12699999809E+01 0.  1.
       -4    1    3    3    0  502 -0.46506517130E+03  0.67530380038E+01 -0.31962820888E+03  0.56435363194E+03  0.12699999809E+01 0. -1.
</event>
<event>
 5   0  0.6199539E-03  0.9991434E+03  0.7818609E-02  0.9309485E-01
       -2   -1    0    0    0  501  0.00000000000E+00  0.00000000000E+00  0.23375756726E+03  0.23375756727E+03  0.25500000920E-02 0.  1.
        2   -1    0    0  501    0  0.00000000000E+00  0.00000000000E+00 -0.10676525952E+04  0.10676525952E+04  0.25500000920E-02 0. -1.
    10030    2    1    2    0    0  0.00000000000E+00  0.00000000000E+00 -0.83389502789E+03  0.13014101624E+04  0.99914337976E+03 0.  0.
        2    1    3    3  502    0  0.12067979955E+03 -0.17338845681E+03 -0.10066116670E+04  0.10285398481E+04  0.25500000920E-02 0. -1.
       -2    1    3    3    0  502 -0.12067979955E+03  0.17338845681E+03  0.17271663915E+03  0.27287031429E+03  0.25500000920E-02 0.  1.
</event>
<event>
 5   0  0.3640180E-03  0.1004983E+04  0.7818609E-02  0.9303097E-01
       -1   -1    0    0    0  501  0.00000000000E+00  0.00000000000E+00  0.22894219109E+03  0.22894219114E+03  0.50400001928E-02 0. -1.
        1   -1    0    0  501    0  0.00000000000E+00  0.00000000000E+00 -0.11028880466E+04  0.11028880466E+04  0.50400001928E-02 0.  1.
    10030    2    1    2    0    0  0.00000000000E+00  0.00000000000E+00 -0.87394585549E+03  0.13318302377E+04  0.10049827978E+04 0.  0.
        5    1    3    3  502    0 -0.37470274426E+03  0.34039070947E+02  0.43787876445E+01  0.37630050317E+03  0.46999998093E+01 0. -1.
       -5    1    3    3    0  502  0.37470274426E+03 -0.34039070947E+02 -0.87832464314E+03  0.95552973457E+03  0.46999998093E+01 0.  1.
</event>
<event>
 5   0  0.6022787E-03  0.9957100E+03  0.7818609E-02  0.9313263E-01
       -2   -1    0    0    0  501  0.00000000000E+00  0.00000000000E+00  0.18853676986E+03  0.18853676988E+03  0.25500000920E-02 0.  1.
        2   -1    0    0  501    0  0.00000000000E+00  0.00000000000E+00 -0.13146485312E+04  0.13146485312E+04  0.25500000920E-02 0. -1.
    10030    2    1    2    0    0  0.00000000000E+00  0.00000000000E+00 -0.11261117614E+04  0.15031853011E+04  0.99570997303E+03 0.  0.
        5    1    3    3  502    0 -0.40307329513E+03  0.23360840624E+03 -0.29812624150E+03  0.55312052447E+03  0.46999998093E+01 0.  1.
       -5    1    3    3    0  502  0.40307329513E+03 -0.23360840624E+03 -0.82798551986E+03  0.95006477664E+03  0.46999998093E+01 0. -1.
</event>
<event>
 5   0  0.6199539E-03  0.9991109E+03  0.7818609E-02  0.9309521E-01
        2   -1    0    0  501    0  0.00000000000E+00  0.00000000000E+00  0.12815951178E+04  0.12815951178E+04  0.25500000920E-02 0. -1.
       -2   -1    0    0    0  501  0.00000000000E+00  0.00000000000E+00 -0.19472267227E+03  0.19472267229E+03  0.25500000920E-02 0.  1.
    10030    2    1    2    0    0  0.00000000000E+00  0.00000000000E+00  0.10868724455E+04  0.14763177901E+04  0.99911085696E+03 0.  0.
        2    1    3    3  502    0  0.10470963040E+03 -0.24863267371E+03  0.11646978438E+04  0.11955347675E+04  0.25500000920E-02 0. -1.
       -2    1    3    3    0  502 -0.10470963040E+03  0.24863267371E+03 -0.77825398228E+02  0.28078302255E+03  0.25500000920E-02 0.  1.
</event>
<event>
 5   0  0.2417750E-03  0.1000145E+04  0.7818609E-02  0.9308386E-01
        4   -1    0    0  501    0  0.00000000000E+00  0.00000000000E+00  0.18682895204E+03  0.18683326850E+03  0.12699999809E+01 0. -1.
       -4   -1    0    0    0  501  0.00000000000E+00  0.00000000000E+00 -0.13384904364E+04  0.13384910389E+04  0.12699999809E+01 0.  1.
    10030    2    1    2    0    0  0.00000000000E+00  0.00000000000E+00 -0.11516614843E+04  0.15253243074E+04  0.10001450236E+04 0.  0.
        4    1    3    3  502    0  0.46107148542E+02 -0.30470239879E+03 -0.11764609743E+04  0.12161543726E+04  0.12699999809E+01 0.  1.
       -4    1    3    3    0  502 -0.46107148542E+02  0.30470239879E+03  0.24799489980E+02  0.30916993479E+03  0.12699999809E+01 0. -1.
</event>
<event>
 5   0  0.3466598E-03  0.1000182E+04  0.7818609E-02  0.9308345E-01
       -1   -1    0    0    0  501  0.00000000000E+00  0.00000000000E+00  0.44617199884E+03  0.44617199887E+03  0.50400001928E-02 0. -1.
        1   -1    0    0  501    0  0.00000000000E+00  0.00000000000E+00 -0.56052651859E+03  0.56052651862E+03  0.50400001928E-02 0.  1.
    10030    2    1    2    0    0  0.00000000000E+00  0.00000000000E+00 -0.11435451975E+03  0.10066985175E+04  0.10001824578E+04 0.  0.
        3    1    3    3  502    0  0.73954738416E+02 -0.35709269468E+03  0.28726079263E+03  0.46422329661E+03  0.10100000352E+00 0. -1.
       -3    1    3    3    0  502 -0.73954738416E+02  0.35709269468E+03 -0.40161531238E+03  0.54247522088E+03  0.10100000352E+00 0.  1.
</event>
<event>
 5   0  0.6606947E-03  0.9933703E+03  0.7818609E-02  0.9315846E-01
        2   -1    0    0  501    0  0.00000000000E+00  0.00000000000E+00  0.16272973356E+04  0.16272973356E+04  0.25500000920E-02 0.  1.
       -2   -1    0    0    0  501  0.00000000000E+00  0.00000000000E+00 -0.15159867259E+03  0.15159867261E+03  0.25500000920E-02 0. -1.
    10030    2    1    2    0    0  0.00000000000E+00  0.00000000000E+00  0.14756986630E+04  0.17788960082E+04  0.99337025526E+03 0.  0.
        1    1    3    3  502    0  0.24669457707E+03  0.35702949657E+03  0.30520977915E+03  0.53054809876E+03  0.50400001928E-02 0. -1.
       -1    1    3    3    0  502 -0.24669457707E+03 -0.35702949657E+03  0.11704888839E+04  0.12483479095E+04  0.50400001928E-02 0.  1.
</event>
<event>
 5   0  0.3466598E-03  0.9954757E+03  0.7818609E-02  0.9313521E-01
        1   -1    0    0  501    0  0.00000000000E+00  0.00000000000E+00  0.83031536087E+03  0.83031536089E+03  0.50400001928E-02 0.  1.
       -1   -1    0    0    0  501  0.00000000000E+00  0.00000000000E+00 -0.29837211174E+03  0.29837211178E+03  0.50400001928E-02 0. -1.
    10030    2    1    2    0    0  0.00000000000E+00  0.00000000000E+00  0.53194324913E+03  0.11286874727E+04  0.99547566051E+03 0.  0.
        3    1    3    3  502    0  0.11795228545E+02  0.39948733785E+03  0.60234231087E+03  0.72287310795E+03  0.10100000352E+00 0.  1.
       -3    1    3    3    0  502 -0.11795228545E+02 -0.39948733785E+03 -0.70399061741E+02  0.40581436472E+03  0.10100000352E+00 0. -1.
</event>
<event>
 5   0  0.6199539E-03  0.9912754E+03  0.7818609E-02  0.9318166E-01
       -2   -1    0    0    0  501  0.00000000000E+00  0.00000000000E+00  0.20862964234E+03  0.20862964236E+03  0.25500000920E-02 0.  1.
        2   -1    0    0  501    0  0.00000000000E+00  0.00000000000E+00 -0.11774775047E+04  0.11774775047E+04  0.25500000920E-02 0. -1.
    10030    2    1    2    0    0  0.00000000000E+00  0.00000000000E+00 -0.96884786232E+03  0.13861071470E+04  0.99127536169E+03 0.  0.
        2    1    3    3  502    0 -0.77821651436E+02 -0.35139986422E+03 -0.96091356300E+03  0.10261057205E+04  0.25500000920E-02 0. -1.
       -2    1    3    3    0  502  0.77821651436E+02  0.35139986422E+03 -0.79342993138E+01  0.36000142655E+03  0.25500000920E-02 0.  1.
</event>
<event>
 5   0  0.6376961E-03  0.1000301E+04  0.7818609E-02  0.9308215E-01
       -2   -1    0    0    0  501  0.00000000000E+00  0.00000000000E+00  0.18130247908E+03  0.18130247910E+03  0.25500000920E-02 0.  1.
        2   -1    0    0  501    0  0.00000000000E+00  0.00000000000E+00 -0.13797402294E+04  0.13797402294E+04  0.25500000920E-02 0. -1.
    10030    2    1    2    0    0  0.00000000000E+00  0.00000000000E+00 -0.11984377503E+04  0.15610427085E+04  0.10003006030E+04 0.  0.
        3    1    3    3  502    0 -0.49361889561E+03 -0.77445448214E+02 -0.63386579984E+03  0.80712035903E+03  0.10100000352E+00 0.  1.
       -3    1    3    3    0  502  0.49361889561E+03  0.77445448214E+02 -0.56457195044E+03  0.75392234944E+03  0.10100000352E+00 0. -1.
</event>
<event>
 5   0  0.6606947E-03  0.9939871E+03  0.7818609E-02  0.9315164E-01
        2   -1    0    0  501    0  0.00000000000E+00  0.00000000000E+00  0.43684508762E+03  0.43684508763E+03  0.25500000920E-02 0. -1.
       -2   -1    0    0    0  501  0.00000000000E+00  0.00000000000E+00 -0.56542377939E+03  0.56542377940E+03  0.25500000920E-02 0.  1.
    10030    2    1    2    0    0  0.00000000000E+00  0.00000000000E+00 -0.12857869177E+03  0.10022688670E+04  0.99398712357E+03 0.  0.
        1    1    3    3  502    0  0.19458610373E+03  0.61659907364E+02 -0.52120599923E+03  0.55975118543E+03  0.50400001928E-02 0.  1.
       -1    1    3    3    0  502 -0.19458610373E+03 -0.61659907364E+02  0.39262730745E+03  0.44251768159E+03  0.50400001928E-02 0. -1.
</event>
<event>
 5   0  0.6022787E-03  0.9970955E+03  0.7818609E-02  0.9311736E-01
       -2   -1    0    0    0  501  0.00000000000E+00  0.00000000000E+00  0.41352754248E+03  0.41352754249E+03  0.25500000920E-02 0. -1.
        2   -1    0    0  501    0  0.00000000000E+00  0.00000000000E+00 -0.60104786292E+03  0.60104786292E+03  0.25500000920E-02 0.  1.
    10030    2    1    2    0    0  0.00000000000E+00  0.00000000000E+00 -0.18752032044E+03  0.10145754054E+04  0.99709547321E+03 0.  0.
        5    1    3    3  502    0 -0.28219840108E+03 -0.60220710207E+02 -0.50741527915E+03  0.58374208948E+03  0.46999998093E+01 0.  1.
       -5    1    3    3    0  502  0.28219840108E+03  0.60220710207E+02  0.31989495872E+03  0.43083331594E+03  0.46999998093E+01 0. -1.
</event>
<event>
 5   0  0.3569359E-03  0.9798635E+03  0.7818609E-02  0.9330910E-01
        1   -1    0    0  501    0  0.00000000000E+00  0.00000000000E+00  0.40746550161E+03  0.40746550165E+03  0.50400001928E-02 0. -1.
       -1   -1    0    0    0  501  0.00000000000E+00  0.00000000000E+00 -0.58908820780E+03  0.58908820782E+03  0.50400001928E-02 0.  1.
    10030    2    1    2    0    0  0.00000000000E+00  0.00000000000E+00 -0.18162270618E+03  0.99655370947E+03  0.97986350501E+03 0.  0.
        4    1    3    3  502    0 -0.15149971889E+02  0.42052773960E+02 -0.58700844634E+03  0.58870916964E+03  0.12699999809E+01 0.  1.
       -4    1    3    3    0  502  0.15149971889E+02 -0.42052773960E+02  0.40538574015E+03  0.40784453983E+03  0.12699999809E+01 0. -1.
</event>
<event>
 5   0  0.3640180E-03  0.1011845E+04  0.7818609E-02  0.9295648E-01
        1   -1    0    0  501    0  0.00000000000E+00  0.00000000000E+00  0.95952509245E+03  0.95952509247E+03  0.50400001928E-02 0.  1.
       -1   -1    0    0    0  501  0.00000000000E+00  0.00000000000E+00 -0.26675455232E+03  0.26675455237E+03  0.50400001928E-02 0. -1.
    10030    2    1    2    0    0  0.00000000000E+00  0.00000000000E+00  0.69277054013E+03  0.12262796448E+04  0.10118452184E+04 0.  0.
        5    1    3    3  502    0  0.15347305078E+03  0.38657833175E+03 -0.26379672844E+01  0.41596373972E+03  0.46999998093E+01 0. -1.
       -5    1    3    3    0  502 -0.15347305078E+03 -0.38657833175E+03  0.69540850742E+03  0.81031590511E+03  0.46999998093E+01 0.  1.
</event>
<event>
 5   0  0.2417750E-03  0.9988567E+03  0.7818609E-02  0.9309800E-01
        3   -1    0    0  501    0  0.00000000000E+00  0.00000000000E+00  0.94443770684E+03  0.94443771224E+03  0.10100000352E+00 0. -1.
       -3   -1    0    0    0  501  0.00000000000E+00  0.00000000000E+00 -0.26410279947E+03  0.26410281878E+03  0.10100000352E+00 0.  1.
    10030    2    1    2    0    0  0.00000000000E+00  0.00000000000E+00  0.68033490737E+03  0.12085405310E+04  0.99885666086E+03 0.  0.
        3    1    3    3  502    0  0.40508094705E+03 -0.28299328420E+03  0.42785876432E+03  0.65363514668E+03  0.10100000352E+00 0. -1.
       -3    1    3    3    0  502 -0.40508094705E+03  0.28299328420E+03  0.25247614305E+03  0.55490538434E+03  0.10100000352E+00 0.  1.
</event>
<event>
 5   0  0.6360455E-03  0.1000132E+04  0.7818609E-02  0.9308401E-01
        2   -1    0    0  501    0  0.00000000000E+00  0.00000000000E+00  0.86073664926E+03  0.86073664927E+03  0.25500000920E-02 0. -1.
       -2   -1    0    0    0  501  0.00000000000E+00  0.00000000000E+00 -0.29052529589E+03  0.29052529591E+03  0.25500000920E-02 0.  1.
    10030    2    1    2    0    0  0.00000000000E+00  0.00000000000E+00  0.57021135337E+03  0.11512619452E+04  0.10001315308E+04 0.  0.
        4    1    3    3  502    0 -0.92784509682E+02 -0.37563269241E+02  0.84908428507E+03  0.85496532122E+03  0.12699999809E+01 0. -1.
       -4    1    3    3    0  502  0.92784509682E+02  0.37563269241E+02 -0.27887293170E+03  0.29629662396E+03  0.12699999809E+01 0.  1.
</event>
<event>
 5   0  0.3569359E-03  0.9940687E+03  0.7818609E-02  0.9315074E-01
       -1   -1    0    0    0  501  0.00000000000E+00  0.00000000000E+00  0.13106259881E+03  0.13106259891E+03  0.50400001928E-02 0.  1.
        1   -1    0    0  501    0  0.00000000000E+00  0.00000000000E+00 -0.18849248796E+04  0.18849248796E+04  0.50400001928E-02 0. -1.
    10030    2    1    2    0    0  0.00000000000E+00  0.00000000000E+00 -0.17538622808E+04  0.20159874785E+04  0.99406871672E+03 0.  0.
        4    1    3    3  502    0 -0.36373259774E+03  0.94462191391E+02 -0.21722699653E+03  0.43406645711E+03  0.12699999809E+01 0.  1.
       -4    1    3    3    0  502  0.36373259774E+03 -0.94462191391E+02 -0.15366352843E+04  0.15819210214E+04  0.12699999809E+01 0. -1.
</event>
<event>
 5   0  0.2417750E-03  0.1001856E+04  0.7818609E-02  0.9306511E-01
       -3   -1    0    0    0  501  0.00000000000E+00  0.00000000000E+00  0.72290861612E+03  0.72290862318E+03  0.10100000352E+00 0. -1.
        3   -1    0    0  501    0  0.00000000000E+00  0.00000000000E+00 -0.34711012610E+03  0.34711014079E+03  0.10100000352E+00 0.  1.
    10030    2    1    2    0    0  0.00000000000E+00  0.00000000000E+00  0.37579849003E+03  0.10700187640E+04  0.10018561025E+04 0.  0.
        3    1    3    3  502    0  0.45179447921E+03 -0.13151331653E+03  0.37138683330E+03  0.59945157771E+03  0.10100000352E+00 0. -1.
       -3    1    3    3    0  502 -0.45179447921E+03  0.13151331653E+03  0.44116567272E+01  0.47056718626E+03  0.10100000352E+00 0.  1.
</event>
<event>
 5   0  0.3608845E-03  0.9877378E+03  0.7818609E-02  0.9322097E-01
       -1   -1    0    0    0  501  0.00000000000E+00  0.00000000000E+00  0.32500105308E+03  0.32500105312E+03  0.50400001928E-02 0. -1.
        1   -1    0    0  501    0  0.00000000000E+00  0.00000000000E+00 -0.75047904894E+03  0.75047904895E+03  0.50400001928E-02 0.  1.
    10030    2    1    2    0    0  0.00000000000E+00  0.00000000000E+00 -0.42547799585E+03  0.10754801021E+04  0.98773778150E+03 0.  0.
        1    1    3    3  502    0 -0.35565196542E+03 -0.26035741667E+03  0.29833953887E+02  0.44177411621E+03  0.50400001928E-02 0. -1.
       -1    1    3    3    0  502  0.35565196542E+03  0.26035741667E+03 -0.45531194974E+03  0.63370598587E+03  0.50400001928E-02 0.  1.
</event>
<event>
 5   0  0.6606947E-03  0.1043110E+04  0.7818609E-02  0.9262487E-01
        2   -1    0    0  501    0  0.00000000000E+00  0.00000000000E+00  0.42436545727E+03  0.42436545727E+03  0.25500000920E-02 0.  1.
       -2   -1    0    0    0  501  0.00000000000E+00  0.00000000000E+00 -0.64100313636E+03  0.64100313637E+03  0.25500000920E-02 0. -1.
    10030    2    1    2    0    0  0.00000000000E+00  0.00000000000E+00 -0.21663767910E+03  0.10653685936E+04  0.10431099445E+04 0.  0.
        1    1    3    3  502    0  0.21622560020E+03 -0.47446161117E+03 -0.95716231508E+02  0.53012161591E+03  0.50400001928E-02 0.  1.
       -1    1    3    3    0  502 -0.21622560020E+03  0.47446161117E+03 -0.12092144759E+03  0.53524697773E+03  0.50400001928E-02 0. -1.
</event>
<event>
 5   0  0.3640180E-03  0.1002824E+04  0.7818609E-02  0.9305453E-01
        1   -1    0    0  501    0  0.00000000000E+00  0.00000000000E+00  0.55333272829E+03  0.55333272831E+03  0.50400001928E-02 0. -1.
       -1   -1    0    0    0  501  0.00000000000E+00  0.00000000000E+00 -0.45436312538E+03  0.45436312541E+03  0.50400001928E-02 0.  1.
    10030    2    1    2    0    0  0.00000000000E+00  0.00000000000E+00  0.98969602905E+02  0.10076958537E+04  0.10028239882E+04 0.  0.
        5    1    3    3  502    0  0.47636697379E+03  0.14699812696E+03  0.10320435989E+03  0.50912392690E+03  0.46999998093E+01 0.  1.
       -5    1    3    3    0  502 -0.47636697379E+03 -0.14699812696E+03 -0.42347569850E+01  0.49857192682E+03  0.46999998093E+01 0. -1.
</event>
<event>
 5   0  0.6360455E-03  0.9962644E+03  0.7818609E-02  0.9312651E-01
        2   -1    0    0  501    0  0.00000000000E+00  0.00000000000E+00  0.45006678521E+03  0.45006678522E+03  0.25500000920E-02 0. -1.
       -2   -1    0    0    0  501  0.00000000000E+00  0.00000000000E+00 -0.55133080547E+03  0.55133080548E+03  0.25500000920E-02 0.  1.
    10030    2    1    2    0    0  0.00000000000E+00  0.00000000000E+00 -0.10126402026E+03  0.10013975907E+04  0.99626438903E+03 0.  0.
        4    1    3    3  502    0  0.28688552335E+03 -0.40575477192E+03 -0.85361909029E+02  0.50421077622E+03  0.12699999809E+01 0. -1.
       -4    1    3    3    0  502 -0.28688552335E+03  0.40575477192E+03 -0.15902111230E+02  0.49718681447E+03  0.12699999809E+01 0.  1.
</event>
<event>
 5   0  0.6606947E-03  0.9801634E+03  0.7818609E-02  0.9330573E-01
       -2   -1    0    0    0  501  0.00000000000E+00  0.00000000000E+00  0.12789277171E+03  0.12789277173E+03  0.25500000920E-02 0.  1.
        2   -1    0    0  501    0  0.00000000000E+00  0.00000000000E+00 -0.18779799128E+04  0.18779799128E+04  0.25500000920E-02 0. -1.
    10030    2    1    2    0    0  0.00000000000E+00  0.00000000000E+00 -0.17500871411E+04  0.20058726845E+04  0.98016336656E+03 0.  0.
        1    1    3    3  502    0 -0.33418865832E+03  0.35807779141E+03 -0.84090420681E+03  0.97315037333E+03  0.50400001928E-02 0. -1.
       -1    1    3    3    0  502  0.33418865832E+03 -0.35807779141E+03 -0.90918293426E+03  0.10327223112E+04  0.50400001928E-02 0.  1.
</event>
<event>
 5   0  0.6376961E-03  0.1017227E+04  0.7818609E-02  0.9289849E-01
        2   -1    0    0  501    0  0.00000000000E+00  0.00000000000E+00  0.23685981911E+04  0.23685981911E+04  0.25500000920E-02 0. -1.
       -2   -1    0    0    0  501  0.00000000000E+00  0.00000000000E+00 -0.10921561625E+03  0.10921561628E+03  0.25500000920E-02 0.  1.
    10030    2    1    2    0    0  0.00000000000E+00  0.00000000000E+00  0.22593825748E+04  0.24778138073E+04  0.10172274301E+04 0.  0.
        3    1    3    3  502    0  0.42672053469E+03  0.15528144851E+03  0.16877358236E+04  0.17477571237E+04  0.10100000352E+00 0. -1.
       -3    1    3    3    0  502 -0.42672053469E+03 -0.15528144851E+03  0.57164675123E+03  0.73005668367E+03  0.10100000352E+00 0.  1.
</event>
<event>
 5   0  0.6199539E-03  0.9959470E+03  0.7818609E-02  0.9313001E-01
       -2   -1    0    0    0  501  0.00000000000E+00  0.00000000000E+00  0.24712997949E+03  0.24712997950E+03  0.25500000920E-02 0.  1.
        2   -1    0    0  501    0  0.00000000000E+00  0.00000000000E+00 -0.10034298030E+04  0.10034298030E+04  0.25500000920E-02 0. -1.
    10030    2    1    2    0    0  0.00000000000E+00  0.00000000000E+00 -0.75629982353E+03  0.12505597825E+04  0.99594695972E+03 0.  0.
        2    1    3    3  502    0 -0.38955480615E+03  0.29440962294E+03 -0.25545807618E+03  0.55107966917E+03  0.25500000920E-02 0.  1.
       -2    1    3    3    0  502  0.38955480615E+03 -0.29440962294E+03 -0.50084174735E+03  0.69948011335E+03  0.25500000920E-02 0. -1.
</event>
<event>
 5   0  0.6606947E-03  0.9888501E+03  0.7818609E-02  0.9320859E-01
        2   -1    0    0  501    0  0.00000000000E+00  0.00000000000E+00  0.27707229493E+03  0.27707229494E+03  0.25500000920E-02 0. -1.
       -2   -1    0    0    0  501  0.00000000000E+00  0.00000000000E+00 -0.88228277499E+03  0.88228277499E+03  0.25500000920E-02 0.  1.
    10030    2    1    2    0    0  0.00000000000E+00  0.00000000000E+00 -0.60521048006E+03  0.11593550699E+04  0.98885006598E+03 0.  0.
        1    1    3    3  502    0  0.31581775219E+03  0.25599657009E+03  0.27305577310E+02  0.40745636708E+03  0.50400001928E-02 0. -1.
       -1    1    3    3    0  502 -0.31581775219E+03 -0.25599657009E+03 -0.63251605737E+03  0.75189870285E+03  0.50400001928E-02 0.  1.
</event>
<event>
 5   0  0.6022787E-03  0.1014547E+04  0.7818609E-02  0.9292732E-01
        2   -1    0    0  501    0  0.00000000000E+00  0.00000000000E+00  0.11845141950E+04  0.11845141951E+04  0.25500000920E-02 0.  1.
       -2   -1    0    0    0  501  0.00000000000E+00  0.00000000000E+00 -0.21724220646E+03  0.21724220647E+03  0.25500000920E-02 0. -1.
    10030    2    1    2    0    0  0.00000000000E+00  0.00000000000E+00  0.96727198859E+03  0.14017564015E+04  0.10145471449E+04 0.  0.
        5    1    3    3  502    0  0.56300163488E+01 -0.80490123751E+02 -0.20828883032E+03  0.22342041970E+03  0.46999998093E+01 0. -1.
       -5    1    3    3    0  502 -0.56300163488E+01  0.80490123751E+02  0.11755608189E+04  0.11783359818E+04  0.46999998093E+01 0.  1.
</event>
<event>
 5   0  0.6199539E-03  0.1001354E+04  0.7818609E-02  0.9307060E-01
       -2   -1    0    0    0  501  0.00000000000E+00  0.00000000000E+00  0.64995704715E+03  0.64995704716E+03  0.25500000920E-02 0. -1.
        2   -1    0    0  501    0  0.00000000000E+00  0.00000000000E+00 -0.38568349137E+03  0.38568349138E+03  0.25500000920E-02 0.  1.
    10030    2    1    2    0    0  0.00000000000E+00  0.00000000000E+00  0.26427355579E+03  0.10356405385E+04  0.10013544891E+04 0.  0.
        2    1    3    3  502    0  0.32151150833E+03 -0.56599501610E+02  0.52474558627E+03  0.61800573127E+03  0.25500000920E-02 0. -1.
       -2    1    3    3    0  502 -0.32151150833E+03  0.56599501610E+02 -0.26047203048E+03  0.41763480727E+03  0.25500000920E-02 0.  1.
</event>
<event>
 5   0  0.3466598E-03  0.9974590E+03  0.7818609E-02  0.9311336E-01
        1   -1    0    0  501    0  0.00000000000E+00  0.00000000000E+00  0.31075287811E+03  0.31075287815E+03  0.50400001928E-02 0.  1.
       -1   -1    0    0    0  501  0.00000000000E+00  0.00000000000E+00 -0.80041457444E+03  0.80041457446E+03  0.50400001928E-02 0. -1.
    10030    2    1    2    0    0  0.00000000000E+00  0.00000000000E+00 -0.48966169634E+03  0.11111674526E+04  0.99745903719E+03 0.  0.
        3    1    3    3  502    0  0.21695147518E+03 -0.28359699822E+03  0.14305157781E+03  0.38465434366E+03  0.10100000352E+00 0.  1.
       -3    1    3    3    0  502 -0.21695147518E+03  0.28359699822E+03 -0.63271327415E+03  0.72651310895E+03  0.10100000352E+00 0. -1.
</event>
<event>
 5   0  0.3608845E-03  0.9732548E+03  0.7818609E-02  0.9338375E-01
       -1   -1    0    0    0  501  0.00000000000E+00  0.00000000000E+00  0.22985332611E+03  0.22985332616E+03  0.50400001928E-02 0.  1.
        1   -1    0    0  501    0  0.00000000000E+00  0.00000000000E+00 -0.10302492241E+04  0.10302492241E+04  0.50400001928E-02 0. -1.
    10030    2    1    2    0    0  0.00000000000E+00  0.00000000000E+00 -0.80039589800E+03  0.12601025503E+04  0.97325476813E+03 0.  0.
        1    1    3    3  502    0 -0.44550077640E+03  0.19562038153E+03 -0.38952639692E+03  0.62327288515E+03  0.50400001928E-02 0.  1.
       -1    1    3    3    0  502  0.44550077640E+03 -0.19562038153E+03 -0.41086950109E+03  0.63682966513E+03  0.50400001928E-02 0. -1.
</event>
<event>
 5   0  0.6199539E-03  0.1010218E+04  0.7818609E-02  0.9297409E-01
       -2   -1    0    0    0  501  0.00000000000E+00  0.00000000000E+00  0.22322814988E+03  0.22322814990E+03  0.25500000920E-02 0.  1.
        2   -1    0    0  501    0  0.00000000000E+00  0.00000000000E+00 -0.11429336078E+04  0.11429336078E+04  0.25500000920E-02 0. -1.
    10030    2    1    2    0    0  0.00000000000E+00  0.00000000000E+00 -0.91970545793E+03  0.13661617577E+04  0.10102177087E+04 0.  0.
        2    1    3    3  502    0  0.52096898630E+02  0.42642811948E+03 -0.10057710798E+03  0.44121512053E+03  0.25500000920E-02 0.  1.
       -2    1    3    3    0  502 -0.52096898630E+02 -0.42642811948E+03 -0.81912834996E+03  0.92494663719E+03  0.25500000920E-02 0. -1.
</event>
<event>
 5   0  0.6022787E-03  0.9925674E+03  0.7818609E-02  0.9316735E-01
        2   -1    0    0  501    0  0.00000000000E+00  0.00000000000E+00  0.89462282734E+03  0.89462282734E+03  0.25500000920E-02 0. -1.
       -2   -1    0    0    0  501  0.00000000000E+00  0.00000000000E+00 -0.27530876990E+03  0.27530876991E+03  0.25500000920E-02 0.  1.
    10030    2    1    2    0    0  0.00000000000E+00  0.00000000000E+00  0.61931405744E+03  0.11699315972E+04  0.99256739847E+03 0.  0.
        5    1    3    3  502    0 -0.15107887450E+03  0.14465984136E+03 -0.22078612118E+03  0.30417083576E+03  0.46999998093E+01 0.  1.
       -5    1    3    3    0  502  0.15107887450E+03 -0.14465984136E+03  0.84010017862E+03  0.86576076149E+03  0.46999998093E+01 0. -1.
</event>
<event>
 5   0  0.6022787E-03  0.9987006E+03  0.7818609E-02  0.9309971E-01
       -2   -1    0    0    0  501  0.00000000000E+00  0.00000000000E+00  0.28856907413E+03  0.28856907414E+03  0.25500000920E-02 0.  1.
        2   -1    0    0  501    0  0.00000000000E+00  0.00000000000E+00 -0.86409363620E+03  0.86409363620E+03  0.25500000920E-02 0. -1.
    10030    2    1    2    0    0  0.00000000000E+00  0.00000000000E+00 -0.57552456207E+03  0.11526627103E+04  0.99870055685E+03 0.  0.
        5    1    3    3  502    0 -0.18609681075E+03 -0.25522433398E+03  0.15858254856E+03  0.35347135433E+03  0.46999998093E+01 0.  1.
       -5    1    3    3    0  502  0.18609681075E+03  0.25522433398E+03 -0.73410711063E+03  0.79919135600E+03  0.46999998093E+01 0. -1.
</event>
<event>
 5   0  0.3569359E-03  0.9529193E+03  0.7818609E-02  0.9361745E-01
        1   -1    0    0  501    0  0.00000000000E+00  0.00000000000E+00  0.53578727336E+03  0.53578727339E+03  0.50400001928E-02 0. -1.
       -1   -1    0    0    0  501  0.00000000000E+00  0.00000000000E+00 -0.42370133749E+03  0.42370133752E+03  0.50400001928E-02 0.  1.
    10030    2    1    2    0    0  0.00000000000E+00  0.00000000000E+00  0.11208593588E+03  0.95948861090E+03  0.95291927120E+03 0.  0.
        4    1    3    3  502    0  0.23981544088E+03  0.36357864475E+03 -0.13844998702E+03  0.45702394730E+03  0.12699999809E+01 0.  1.
       -4    1    3    3    0  502 -0.23981544088E+03 -0.36357864475E+03  0.25053592290E+03  0.50246466360E+03  0.12699999809E+01 0. -1.
</event>
<event>
 5   0  0.3640180E-03  0.1019334E+04  0.7818609E-02  0.9287590E-01
       -1   -1    0    0    0  501  0.00000000000E+00  0.00000000000E+00  0.19185557185E+04  0.19185557185E+04  0.50400001928E-02 0.  1.
        1   -1    0    0  501    0  0.00000000000E+00  0.00000000000E+00 -0.13539381293E+03  0.13539381302E+03  0.50400001928E-02 0. -1.
    10030    2    1    2    0    0  0.00000000000E+00  0.00000000000E+00  0.17831619056E+04  0.20539495316E+04  0.10193342419E+04 0.  0.
        5    1    3    3  502    0 -0.37909911736E+03 -0.23383985586E+03  0.13906372263E+04  0.14602366946E+04  0.46999998093E+01 0.  1.
       -5    1    3    3    0  502  0.37909911736E+03  0.23383985586E+03  0.39252467932E+03  0.59371283702E+03  0.46999998093E+01 0. -1.
</event>
<event>
 5   0  0.6606947E-03  0.1009555E+04  0.7818609E-02  0.9298126E-01
        2   -1    0    0  501    0  0.00000000000E+00  0.00000000000E+00  0.10583618234E+04  0.10583618234E+04  0.25500000920E-02 0. -1.
       -2   -1    0    0    0  501  0.00000000000E+00  0.00000000000E+00 -0.24074983198E+03  0.24074983200E+03  0.25500000920E-02 0.  1.
    10030    2    1    2    0    0  0.00000000000E+00  0.00000000000E+00  0.81761199137E+03  0.12991116554E+04  0.10095552113E+04 0.  0.
        1    1    3    3  502    0 -0.10534719267E+02  0.34981190152E+03 -0.59285692911E+02  0.35495653278E+03  0.50400001928E-02 0.  1.
       -1    1    3    3    0  502  0.10534719267E+02 -0.34981190152E+03  0.87689768428E+03  0.94415512257E+03  0.50400001928E-02 0. -1.
</event>
<event>
 5   0  0.6360455E-03  0.9777533E+03  0.7818609E-02  0.9333287E-01
        2   -1    0    0  501    0  0.00000000000E+00  0.00000000000E+00  0.36718521892E+03  0.36718521893E+03  0.25500000920E-02 0.  1.
       -2   -1    0    0    0  501  0.00000000000E+00  0.00000000000E+00 -0.65089862802E+03  0.65089862803E+03  0.25500000920E-02 0. -1.
    10030    2    1    2    0    0  0.00000000000E+00  0.00000000000E+00 -0.28371340911E+03  0.10180838470E+04  0.97775325155E+03 0.  0.
        4    1    3    3  502    0 -0.20041703531E+03  0.13926089814E+03  0.29921751818E+03  0.38612604403E+03  0.12699999809E+01 0.  1.
       -4    1    3    3    0  502  0.20041703531E+03 -0.13926089814E+03 -0.58293092728E+03  0.63195780293E+03  0.12699999809E+01 0. -1.
</event>
<event>
 5   0  0.6199539E-03  0.9994857E+03  0.7818609E-02  0.9309109E-01
       -2   -1    0    0    0  501  0.00000000000E+00  0.00000000000E+00  0.22704305221E+03  0.22704305223E+03  0.25500000920E-02 0.  1.
        2   -1    0    0  501    0  0.00000000000E+00  0.00000000000E+00 -0.10999804063E+04  0.10999804063E+04  0.25500000920E-02 0. -1.
    10030    2    1    2    0    0  0.00000000000E+00  0.00000000000E+00 -0.87293735405E+03  0.13270234585E+04  0.99948568539E+03 0.  0.
        2    1    3    3  502    0  0.74874722049E+02  0.42117375372E+03 -0.93443849148E+02  0.43786448563E+03  0.25500000920E-02 0.  1.
       -2    1    3    3    0  502 -0.74874722049E+02 -0.42117375372E+03 -0.77949350490E+03  0.88915897286E+03  0.25500000920E-02 0. -1.
</event>
<event>
 5   0  0.6199539E-03  0.9866587E+03  0.7818609E-02  0.9323299E-01
       -2   -1    0    0    0  501  0.00000000000E+00  0.00000000000E+00  0.17836921602E+03  0.17836921604E+03  0.25500000920E-02 0.  1.
        2   -1    0    0  501    0  0.00000000000E+00  0.00000000000E+00 -0.13644387488E+04  0.13644387488E+04  0.25500000920E-02 0. -1.
    10030    2    1    2    0    0  0.00000000000E+00  0.00000000000E+00 -0.11860695328E+04  0.15428079648E+04  0.98665874536E+03 0.  0.
        2    1    3    3  502    0 -0.15178692635E+03  0.36771400210E+03 -0.13682635252E+03  0.42068314573E+03  0.25500000920E-02 0.  1.
       -2    1    3    3    0  502  0.15178692635E+03 -0.36771400210E+03 -0.10492431802E+04  0.11221248191E+04  0.25500000920E-02 0. -1.
</event>
<event>
 5   0  0.2417750E-03  0.9956529E+03  0.7818609E-02  0.9313326E-01
        4   -1    0    0  501    0  0.00000000000E+00  0.00000000000E+00  0.11772539815E+04  0.11772546665E+04  0.12699999809E+01 0. -1.
       -4   -1    0    0    0  501  0.00000000000E+00  0.00000000000E+00 -0.21051365228E+03  0.21051748311E+03  0.12699999809E+01 0.  1.
    10030    2    1    2    0    0  0.00000000000E+00  0.00000000000E+00  0.96674032920E+03  0.13877721496E+04  0.99565288889E+03 0.  0.
        5    1    3    3  502    0 -0.18152398445E+03  0.40362189517E+03  0.80105207337E+03  0.91518747011E+03  0.46999998093E+01 0. -1.
       -5    1    3    3    0  502  0.18152398445E+03 -0.40362189517E+03  0.16568825583E+03  0.47258467951E+03  0.46999998093E+01 0.  1.
</event>
<event>
 5   0  0.3466598E-03  0.1002556E+04  0.7818609E-02  0.9305746E-01
        1   -1    0    0  501    0  0.00000000000E+00  0.00000000000E+00  0.87771390432E+03  0.87771390434E+03  0.50400001928E-02 0.  1.
       -1   -1    0    0    0  501  0.00000000000E+00  0.00000000000E+00 -0.28628879743E+03  0.28628879747E+03  0.50400001928E-02 0. -1.
    10030    2    1    2    0    0  0.00000000000E+00  0.00000000000E+00  0.59142510690E+03  0.11640027018E+04  0.10025560497E+04 0.  0.
        3    1    3    3  502    0  0.35570425473E+03 -0.65536705185E+02  0.69867547067E+03  0.78674519387E+03  0.10100000352E+00 0.  1.
       -3    1    3    3    0  502 -0.35570425473E+03  0.65536705185E+02 -0.10725036378E+03  0.37725750793E+03  0.10100000352E+00 0. -1.
</event>
<event>
 5   0  0.6022787E-03  0.1001954E+04  0.7818609E-02  0.9306404E-01
        2   -1    0    0  501    0  0.00000000000E+00  0.00000000000E+00  0.93748132836E+03  0.93748132836E+03  0.25500000920E-02 0. -1.
       -2   -1    0    0    0  501  0.00000000000E+00  0.00000000000E+00 -0.26771526880E+03  0.26771526881E+03  0.25500000920E-02 0.  1.
    10030    2    1    2    0    0  0.00000000000E+00  0.00000000000E+00  0.66976605956E+03  0.12051965972E+04  0.10019542222E+04 0.  0.
        5    1    3    3  502    0 -0.99293602481E+02  0.44821753259E+03  0.93719762739E+02  0.46857620505E+03  0.46999998093E+01 0.  1.
       -5    1    3    3    0  502  0.99293602481E+02 -0.44821753259E+03  0.57604629682E+03  0.73662039213E+03  0.46999998093E+01 0. -1.
</event>
<event>
 5   0  0.6606947E-03  0.1016876E+04  0.7818609E-02  0.9290227E-01
       -2   -1    0    0    0  501  0.00000000000E+00  0.00000000000E+00  0.30444830421E+03  0.30444830422E+03  0.25500000920E-02 0. -1.
        2   -1    0    0  501    0  0.00000000000E+00  0.00000000000E+00 -0.84910711522E+03  0.84910711523E+03  0.25500000920E-02 0.  1.
    10030    2    1    2    0    0  0.00000000000E+00  0.00000000000E+00 -0.54465881101E+03  0.11535554194E+04  0.10168760423E+04 0.  0.
        1    1    3    3  502    0 -0.28825379964E+02 -0.27206087363E+03 -0.75848933125E+03  0.80632132995E+03  0.50400001928E-02 0.  1.
       -1    1    3    3    0  502  0.28825379964E+02  0.27206087363E+03  0.21383052024E+03  0.34723408949E+03  0.50400001928E-02 0. -1.
</event>
<event>
 5   0  0.3569359E-03  0.9902828E+03  0.7818609E-02  0.9319267E-01
        1   -1    0    0  501    0  0.00000000000E+00  0.00000000000E+00  0.83326693311E+03  0.83326693313E+03  0.50400001928E-02 0.  1.
       -1   -1    0    0    0  501  0.00000000000E+00  0.00000000000E+00 -0.29422144135E+03  0.29422144139E+03  0.50400001928E-02 0. -1.
    10030    2    1    2    0    0  0.00000000000E+00  0.00000000000E+00  0.53904549176E+03  0.11274883745E+04  0.99028278410E+03 0.  0.
        4    1    3    3  502    0 -0.18453048437E+03  0.17418693185E+03  0.75360256941E+03  0.79517987425E+03  0.12699999809E+01 0. -1.
       -4    1    3    3    0  502  0.18453048437E+03 -0.17418693185E+03 -0.21455707764E+03  0.33230850027E+03  0.12699999809E+01 0.  1.
</event>
<event>
 5   0  0.3466598E-03  0.9996996E+03  0.7818609E-02  0.9308874E-01
       -1   -1    0    0    0  501  0.00000000000E+00  0.00000000000E+00  0.22860690374E+04  0.22860690374E+04  0.50400001928E-02 0. -1.
        1   -1    0    0  501    0  0.00000000000E+00  0.00000000000E+00 -0.10929233454E+03  0.10929233465E+03  0.50400001928E-02 0.  1.
    10030    2    1    2    0    0  0.00000000000E+00  0.00000000000E+00  0.21767767029E+04  0.23953613721E+04  0.99969959920E+03 0.  0.
        3    1    3    3  502    0 -0.31626874469E+03 -0.28937451417E+03  0.47242171591E+03  0.63792304879E+03  0.10100000352E+00 0.  1.
       -3    1    3    3    0  502  0.31626874469E+03  0.28937451417E+03  0.17043549870E+04  0.17574383233E+04  0.10100000352E+00 0. -1.
</event>
<event>
 5   0  0.6022787E-03  0.1001395E+04  0.7818609E-02  0.9307017E-01
        2   -1    0    0  501    0  0.00000000000E+00  0.00000000000E+00  0.26800445056E+03  0.26800445057E+03  0.25500000920E-02 0. -1.
       -2   -1    0    0    0  501  0.00000000000E+00  0.00000000000E+00 -0.93542404682E+03  0.93542404682E+03  0.25500000920E-02 0.  1.
    10030    2    1    2    0    0  0.00000000000E+00  0.00000000000E+00 -0.66741959626E+03  0.12034284974E+04  0.10013946429E+04 0.  0.
        5    1    3    3  502    0 -0.43026230127E+03  0.12858602264E+03 -0.59977167641E+03  0.74927175774E+03  0.46999998093E+01 0.  1.
       -5    1    3    3    0  502  0.43026230127E+03 -0.12858602264E+03 -0.67647919841E+02  0.45415673965E+03  0.46999998093E+01 0. -1.
</event>
<event>
 5   0  0.2417750E-03  0.9981742E+03  0.7818609E-02  0.9310550E-01
        4   -1    0    0  501    0  0.00000000000E+00  0.00000000000E+00  0.24224814943E+03  0.24225147843E+03  0.12699999809E+01 0. -1.
       -4   -1    0    0    0  501  0.00000000000E+00  0.00000000000E+00 -0.10282238557E+04  0.10282246400E+04  0.12699999809E+01 0.  1.
    10030    2    1    2    0    0  0.00000000000E+00  0.00000000000E+00 -0.78597570631E+03  0.12704761185E+04  0.99817421161E+03 0.  0.
        4    1    3    3  502    0  0.19931839767E+01 -0.12157808391E+03 -0.10090823727E+04  0.10163828270E+04  0.12699999809E+01 0.  1.
       -4    1    3    3    0  502 -0.19931839767E+01  0.12157808391E+03  0.22310666640E+03  0.25409329145E+03  0.12699999809E+01 0. -1.
</event>
<event>
 5   0  0.6199539E-03  0.9597725E+03  0.7818609E-02  0.9353800E-01
        2   -1    0    0  501    0  0.00000000000E+00  0.00000000000E+00  0.12089103687E+04  0.12089103687E+04  0.25500000920E-02 0.  1.
       -2   -1    0    0    0  501  0.00000000000E+00  0.00000000000E+00 -0.19049452771E+03  0.19049452772E+03  0.25500000920E-02 0. -1.
    10030    2    1    2    0    0  0.00000000000E+00  0.00000000000E+00  0.10184158410E+04  0.13994048964E+04  0.95977249333E+03 0.  0.
        2    1    3    3  502    0  0.14561219775E+03 -0.35482512560E+03  0.92974364401E+03  0.10057469987E+04  0.25500000920E-02 0.  1.
       -2    1    3    3    0  502 -0.14561219775E+03  0.35482512560E+03  0.88672196990E+02  0.39365789769E+03  0.25500000920E-02 0. -1.
</event>
<event>
 5   0  0.6360455E-03  0.1002122E+04  0.7818609E-02  0.9306220E-01
       -2   -1    0    0    0  501  0.00000000000E+00  0.00000000000E+00  0.22669281476E+03  0.22669281478E+03  0.25500000920E-02 0. -1.
        2   -1    0    0  501    0  0.00000000000E+00  0.00000000000E+00 -0.11074997745E+04  0.11074997745E+04  0.25500000920E-02 0.  1.
    10030    2    1    2    0    0  0.00000000000E+00  0.00000000000E+00 -0.88080695976E+03  0.13341925893E+04  0.10021222306E+04 0.  0.
        4    1    3    3  502    0 -0.24727339524E+02 -0.41430560547E+03 -0.81413616450E+03  0.91382705327E+03  0.12699999809E+01 0.  1.
       -4    1    3    3    0  502  0.24727339524E+02  0.41430560547E+03 -0.66670795255E+02  0.42036553603E+03  0.12699999809E+01 0. -1.
</event>
<event>
 5   0  0.3608845E-03  0.9963275E+03  0.7818609E-02  0.9312582E-01
        1   -1    0    0  501    0  0.00000000000E+00  0.00000000000E+00  0.91674418594E+03  0.91674418595E+03  0.50400001928E-02 0. -1.
       -1   -1    0    0    0  501  0.00000000000E+00  0.00000000000E+00 -0.27070487734E+03  0.27070487739E+03  0.50400001928E-02 0.  1.
    10030    2    1    2    0    0  0.00000000000E+00  0.00000000000E+00  0.64603930860E+03  0.11874490633E+04  0.99632750126E+03 0.  0.
        1    1    3    3  502    0 -0.33066310837E+03  0.22610807959E+03 -0.29938310382E+02  0.40169547838E+03  0.50400001928E-02 0.  1.
       -1    1    3    3    0  502  0.33066310837E+03 -0.22610807959E+03  0.67597761898E+03  0.78575358496E+03  0.50400001928E-02 0. -1.
</event>
<event>
 5   0  0.3608845E-03  0.9996368E+03  0.7818609E-02  0.9308943E-01
       -1   -1    0    0    0  501  0.00000000000E+00  0.00000000000E+00  0.40227964459E+03  0.40227964462E+03  0.50400001928E-02 0. -1.
        1   -1    0    0  501    0  0.00000000000E+00  0.00000000000E+00 -0.62100688070E+03  0.62100688072E+03  0.50400001928E-02 0.  1.
    10030    2    1    2    0    0  0.00000000000E+00  0.00000000000E+00 -0.21872723612E+03  0.10232865253E+04  0.99963678860E+03 0.  0.
        1    1    3    3  502    0 -0.16279297821E+03  0.15252355125E+02 -0.59285581456E+03  0.61498959745E+03  0.50400001928E-02 0.  1.
       -1    1    3    3    0  502  0.16279297821E+03 -0.15252355125E+02  0.37412857844E+03  0.40829692789E+03  0.50400001928E-02 0. -1.
</event>
<event>
 5   0  0.3466598E-03  0.1009808E+04  0.7818609E-02  0.9297852E-01
        1   -1    0    0  501    0  0.00000000000E+00  0.00000000000E+00  0.10011321260E+04  0.10011321260E+04  0.50400001928E-02 0.  1.
       -1   -1    0    0    0  501  0.00000000000E+00  0.00000000000E+00 -0.25463994054E+03  0.25463994059E+03  0.50400001928E-02 0. -1.
    10030    2    1    2    0    0  0.00000000000E+00  0.00000000000E+00  0.74649218547E+03  0.12557720666E+04  0.10098083483E+04 0.  0.
        3    1    3    3  502    0  0.27937236031E+03  0.26583721970E+03 -0.32033096757E+02  0.38696830951E+03  0.10100000352E+00 0. -1.
       -3    1    3    3    0  502 -0.27937236031E+03 -0.26583721970E+03  0.77852528223E+03  0.86880375710E+03  0.10100000352E+00 0.  1.
</event>
<event>
 5   0  0.6606947E-03  0.1020901E+04  0.7818609E-02  0.9285914E-01
        2   -1    0    0  501    0  0.00000000000E+00  0.00000000000E+00  0.50774462873E+03  0.50774462874E+03  0.25500000920E-02 0. -1.
       -2   -1    0    0    0  501  0.00000000000E+00  0.00000000000E+00 -0.51317056663E+03  0.51317056663E+03  0.25500000920E-02 0.  1.
    10030    2    1    2    0    0  0.00000000000E+00  0.00000000000E+00 -0.54259378936E+01  0.10209151954E+04  0.10209007764E+04 0.  0.
        1    1    3    3  502    0 -0.85042247968E+02 -0.35780232756E+03 -0.35670230330E+03  0.51233897251E+03  0.50400001928E-02 0.  1.
       -1    1    3    3    0  502  0.85042247968E+02  0.35780232756E+03  0.35127636540E+03  0.50857622286E+03  0.50400001928E-02 0. -1.
</event>
<event>
 5   0  0.2417750E-03  0.9766128E+03  0.7818609E-02  0.9334574E-01
       -3   -1    0    0    0  501  0.00000000000E+00  0.00000000000E+00  0.11298821987E+04  0.11298822032E+04  0.10100000352E+00 0.  1.
        3   -1    0    0  501    0  0.00000000000E+00  0.00000000000E+00 -0.21103360022E+03  0.21103362439E+03  0.10100000352E+00 0. -1.
    10030    2    1    2    0    0  0.00000000000E+00  0.00000000000E+00  0.91884859848E+03  0.13409158276E+04  0.97661277372E+03 0.  0.
        4    1    3    3  502    0  0.30474113210E+03 -0.37561380004E+03  0.55141332702E+03  0.73349243656E+03  0.12699999809E+01 0.  1.
       -4    1    3    3    0  502 -0.30474113210E+03  0.37561380004E+03  0.36743527146E+03  0.60742339105E+03  0.12699999809E+01 0. -1.
</event>
<event>
 5   0  0.6360455E-03  0.9922428E+03  0.7818609E-02  0.9317094E-01
       -2   -1    0    0    0  501  0.00000000000E+00  0.00000000000E+00  0.25759541356E+03  0.25759541357E+03  0.25500000920E-02 0.  1.
        2   -1    0    0  501    0  0.00000000000E+00  0.00000000000E+00 -0.95551555463E+03  0.95551555463E+03  0.25500000920E-02 0. -1.
    10030    2    1    2    0    0  0.00000000000E+00  0.00000000000E+00 -0.69792014107E+03  0.12131109682E+04  0.99224276156E+03 0.  0.
        4    1    3    3  502    0  0.31804298527E+01  0.15404242510E+03  0.22760152695E+03  0.27485132678E+03  0.12699999809E+01 0.  1.
       -4    1    3    3    0  502 -0.31804298527E+01 -0.15404242510E+03 -0.92552166802E+03  0.93825964143E+03  0.12699999809E+01 0. -1.
</event>
<event>
 5   0  0.3569359E-03  0.1000779E+04  0.7818609E-02  0.9307691E-01
       -1   -1    0    0    0  501  0.00000000000E+00  0.00000000000E+00  0.41818535167E+03  0.41818535170E+03  0.50400001928E-02 0.  1.
        1   -1    0    0  501    0  0.00000000000E+00  0.00000000000E+00 -0.59875221115E+03  0.59875221117E+03  0.50400001928E-02 0. -1.
    10030    2    1    2    0    0  0.00000000000E+00  0.00000000000E+00 -0.18056685948E+03  0.10169375629E+04  0.10007785050E+04 0.  0.
        4    1    3    3  502    0  0.45351117833E+03 -0.20369904746E+03 -0.14796350893E+03  0.51871042373E+03  0.12699999809E+01 0. -1.
       -4    1    3    3    0  502 -0.45351117833E+03  0.20369904746E+03 -0.32603350554E+02  0.49822713914E+03  0.12699999809E+01 0.  1.
</event>
<event>
 5   0  0.3640180E-03  0.1001670E+04  0.7818609E-02  0.9306715E-01
        1   -1    0    0  501    0  0.00000000000E+00  0.00000000000E+00  0.12726527373E+04  0.12726527373E+04  0.50400001928E-02 0.  1.
       -1   -1    0    0    0  501  0.00000000000E+00  0.00000000000E+00 -0.19709683626E+03  0.19709683632E+03  0.50400001928E-02 0. -1.
    10030    2    1    2    0    0  0.00000000000E+00  0.00000000000E+00  0.10755559011E+04  0.14697495737E+04  0.10016702616E+04 0.  0.
        5    1    3    3  502    0  0.19728719659E+03 -0.45841920527E+03  0.47651348048E+03  0.69004173263E+03  0.46999998093E+01 0.  1.
       -5    1    3    3    0  502 -0.19728719659E+03  0.45841920527E+03  0.59904242059E+03  0.77970784103E+03  0.46999998093E+01 0. -1.
</event>
<event>
 5   0  0.6606947E-03  0.1006485E+04  0.7818609E-02  0.9301460E-01
        2   -1    0    0  501    0  0.00000000000E+00  0.00000000000E+00  0.10631125190E+04  0.10631125190E+04  0.25500000920E-02 0.  1.
       -2   -1    0    0    0  501  0.00000000000E+00  0.00000000000E+00 -0.23821857861E+03  0.23821857863E+03  0.25500000920E-02 0. -1.
    10030    2    1    2    0    0  0.00000000000E+00  0.00000000000E+00  0.82489394043E+03  0.13013310977E+04  0.10064852770E+04 0.  0.
        1    1    3    3  502    0  0.46657929773E+03 -0.63921074565E+01  0.16878220684E+03  0.49621017068E+03  0.50400001928E-02 0. -1.
       -1    1    3    3    0  502 -0.46657929773E+03  0.63921074565E+01  0.65611173359E+03  0.80512092700E+03  0.50400001928E-02 0.  1.
</event>
<event>
 5   0  0.3466598E-03  0.9927664E+03  0.7818609E-02  0.9316514E-01
        1   -1    0    0  501    0  0.00000000000E+00  0.00000000000E+00  0.58643331850E+03  0.58643331852E+03  0.50400001928E-02 0. -1.
       -1   -1    0    0    0  501  0.00000000000E+00  0.00000000000E+00 -0.42016081890E+03  0.42016081893E+03  0.50400001928E-02 0.  1.
    10030    2    1    2    0    0  0.00000000000E+00  0.00000000000E+00  0.16627249960E+03  0.10065941374E+04  0.99276644455E+03 0.  0.
        3    1    3    3  502    0  0.76310339735E+02  0.14113574763E+03 -0.39314440247E+03  0.42462347863E+03  0.10100000352E+00 0.  1.
       -3    1    3    3    0  502 -0.76310339735E+02 -0.14113574763E+03  0.55941690207E+03  0.58197065882E+03  0.10100000352E+00 0. -1.
</event>
<event>
 5   0  0.6199539E-03  0.9982870E+03  0.7818609E-02  0.9310426E-01
       -2   -1    0    0    0  501  0.00000000000E+00  0.00000000000E+00  0.11352809032E+03  0.11352809035E+03  0.25500000920E-02 0. -1.
        2   -1    0    0  501    0  0.00000000000E+00  0.00000000000E+00 -0.21945604081E+04  0.21945604081E+04  0.25500000920E-02 0.  1.
    10030    2    1    2    0    0  0.00000000000E+00  0.00000000000E+00 -0.20810323177E+04  0.23080884984E+04  0.99828703737E+03 0.  0.
        2    1    3    3  502    0 -0.18260423552E+03 -0.45236221786E+03 -0.12848546610E+04  0.13743461656E+04  0.25500000920E-02 0.  1.
       -2    1    3    3    0  502  0.18260423552E+03  0.45236221786E+03 -0.79617765673E+03  0.93374233280E+03  0.25500000920E-02 0. -1.
</event>
<event>
 5   0  0.6199539E-03  0.1000213E+04  0.7818609E-02  0.9308312E-01
        2   -1    0    0  501    0  0.00000000000E+00  0.00000000000E+00  0.54536676036E+03  0.54536676036E+03  0.25500000920E-02 0.  1.
       -2   -1    0    0    0  501  0.00000000000E+00  0.00000000000E+00 -0.45860200306E+03  0.45860200307E+03  0.25500000920E-02 0. -1.
    10030    2    1    2    0    0  0.00000000000E+00  0.00000000000E+00  0.86764757296E+02  0.10039687634E+04  0.10002125548E+04 0.  0.
        2    1    3    3  502    0 -0.73420474645E+02 -0.20377666361E+02  0.53950616943E+03  0.54486027772E+03  0.25500000920E-02 0.  1.
       -2    1    3    3    0  502  0.73420474645E+02  0.20377666361E+02 -0.45274141213E+03  0.45910848571E+03  0.25500000920E-02 0. -1.
</event>
<event>
 5   0  0.6360455E-03  0.9887427E+03  0.7818609E-02  0.9320978E-01
        2   -1    0    0  501    0  0.00000000000E+00  0.00000000000E+00  0.38549596769E+03  0.38549596770E+03  0.25500000920E-02 0.  1.
       -2   -1    0    0    0  501  0.00000000000E+00  0.00000000000E+00 -0.63399638441E+03  0.63399638442E+03  0.25500000920E-02 0. -1.
    10030    2    1    2    0    0  0.00000000000E+00  0.00000000000E+00 -0.24850041672E+03  0.10194923521E+04  0.98874273646E+03 0.  0.
        4    1    3    3  502    0 -0.43892126020E+03  0.43813910088E+02  0.10591819107E+03  0.45364281927E+03  0.12699999809E+01 0.  1.
       -4    1    3    3    0  502  0.43892126020E+03 -0.43813910088E+02 -0.35441860779E+03  0.56584953284E+03  0.12699999809E+01 0. -1.
</event>
<event>
 5   0  0.6022787E-03  0.9970166E+03  0.7818609E-02  0.9311823E-01
        2   -1    0    0  501    0  0.00000000000E+00  0.00000000000E+00  0.15809495421E+04  0.15809495422E+04  0.25500000920E-02 0.  1.
       -2   -1    0    0    0  501  0.00000000000E+00  0.00000000000E+00 -0.15719068343E+03  0.15719068345E+03  0.25500000920E-02 0. -1.
    10030    2    1    2    0    0  0.00000000000E+00  0.00000000000E+00  0.14237588587E+04  0.17381402256E+04  0.99701662778E+03 0.  0.
        5    1    3    3  502    0  0.24600357950E+03 -0.41161847779E+03  0.47449730630E+03  0.67462383301E+03  0.46999998093E+01 0. -1.
       -5    1    3    3    0  502 -0.24600357950E+03  0.41161847779E+03  0.94926155242E+03  0.10635163926E+04  0.46999998093E+01 0.  1.
</event>
<event>
 5   0  0.6606947E-03  0.9929591E+03  0.7818609E-02  0.9316301E-01
       -2   -1    0    0    0  501  0.00000000000E+00  0.00000000000E+00  0.22350883864E+03  0.22350883866E+03  0.25500000920E-02 0. -1.
        2   -1    0    0  501    0  0.00000000000E+00  0.00000000000E+00 -0.11028286526E+04  0.11028286526E+04  0.25500000920E-02 0.  1.
    10030    2    1    2    0    0  0.00000000000E+00  0.00000000000E+00 -0.87931981398E+03  0.13263374913E+04  0.99295911574E+03 0.  0.
        1    1    3    3  502    0  0.42859425051E+02 -0.62096505921E+02 -0.10951257406E+04  0.10977218655E+04  0.50400001928E-02 0.  1.
       -1    1    3    3    0  502 -0.42859425051E+02  0.62096505921E+02  0.21580592659E+03  0.22861562576E+03  0.50400001928E-02 0. -1.
</event>
<event>
 5   0  0.6022787E-03  0.1016144E+04  0.7818609E-02  0.9291013E-01
        2   -1    0    0  501    0  0.00000000000E+00  0.00000000000E+00  0.51086764983E+03  0.51086764983E+03  0.25500000920E-02 0. -1.
       -2   -1    0    0    0  501  0.00000000000E+00  0.00000000000E+00 -0.50529192579E+03  0.50529192580E+03  0.25500000920E-02 0.  1.
    10030    2    1    2    0    0  0.00000000000E+00  0.00000000000E+00  0.55757240364E+01  0.10161595756E+04  0.10161442784E+04 0.  0.
        5    1    3    3  502    0  0.22188904685E+03 -0.40771457422E+03  0.20930800529E+03  0.50921297531E+03  0.46999998093E+01 0. -1.
       -5    1    3    3    0  502 -0.22188904685E+03  0.40771457422E+03 -0.20373228126E+03  0.50694660032E+03  0.46999998093E+01 0.  1.
</event>
<event>
 5   0  0.3569359E-03  0.1010121E+04  0.7818609E-02  0.9297514E-01
       -1   -1    0    0    0  501  0.00000000000E+00  0.00000000000E+00  0.19869663364E+03  0.19869663370E+03  0.50400001928E-02 0.  1.
        1   -1    0    0  501    0  0.00000000000E+00  0.00000000000E+00 -0.12837965498E+04  0.12837965499E+04  0.50400001928E-02 0. -1.
    10030    2    1    2    0    0  0.00000000000E+00  0.00000000000E+00 -0.10850999162E+04  0.14824931836E+04  0.10101208894E+04 0.  0.
        4    1    3    3  502    0  0.38089348326E+03  0.30114341157E+03 -0.33856793722E+03  0.59194346093E+03  0.12699999809E+01 0.  1.
       -4    1    3    3    0  502 -0.38089348326E+03 -0.30114341157E+03 -0.74653197899E+03  0.89054972263E+03  0.12699999809E+01 0. -1.
</event>
<event>
 5   0  0.3640180E-03  0.9951569E+03  0.7818609E-02  0.9313873E-01
        1   -1    0    0  501    0  0.00000000000E+00  0.00000000000E+00  0.71071727529E+03  0.71071727531E+03  0.50400001928E-02 0.  1.
       -1   -1    0    0    0  501  0.00000000000E+00  0.00000000000E+00 -0.34835834529E+03  0.34835834533E+03  0.50400001928E-02 0. -1.
    10030    2    1    2    0    0  0.00000000000E+00  0.00000000000E+00  0.36235893000E+03  0.10590756206E+04  0.99515686004E+03 0.  0.
        5    1    3    3  502    0  0.11469850705E+03 -0.12168917582E+03  0.67989146549E+03  0.70017033490E+03  0.46999998093E+01 0.  1.
       -5    1    3    3    0  502 -0.11469850705E+03  0.12168917582E+03 -0.31753253550E+03  0.35890528573E+03  0.46999998093E+01 0. -1.
</event>
<event>
 5   0  0.6360455E-03  0.1008016E+04  0.7818609E-02  0.9299797E-01
        2   -1    0    0  501    0  0.00000000000E+00  0.00000000000E+00  0.16039196678E+04  0.16039196678E+04  0.25500000920E-02 0. -1.
       -2   -1    0    0    0  501  0.00000000000E+00  0.00000000000E+00 -0.15837700959E+03  0.15837700961E+03  0.25500000920E-02 0.  1.
    10030    2    1    2    0    0  0.00000000000E+00  0.00000000000E+00  0.14455426582E+04  0.17622966774E+04  0.10080158741E+04 0.  0.
        4    1    3    3  502    0  0.75156887945E+02  0.15563867549E+03 -0.10494484509E+03  0.20220531280E+03  0.12699999809E+01 0.  1.
       -4    1    3    3    0  502 -0.75156887945E+02 -0.15563867549E+03  0.15504875033E+04  0.15600913646E+04  0.12699999809E+01 0. -1.
</event>
<event>
 5   0  0.6199539E-03  0.1018166E+04  0.7818609E-02  0.9288842E-01
       -2   -1    0    0    0  501  0.00000000000E+00  0.00000000000E+00  0.47517809729E+03  0.47517809730E+03  0.25500000920E-02 0.  1.
        2   -1    0    0  501    0  0.00000000000E+00  0.00000000000E+00 -0.54540730816E+03  0.54540730816E+03  0.25500000920E-02 0. -1.
    10030    2    1    2    0    0  0.00000000000E+00  0.00000000000E+00 -0.70229210865E+02  0.10205854055E+04  0.10181662083E+04 0.  0.
        2    1    3    3  502    0 -0.27155197754E+03 -0.17909957026E+03  0.35741318003E+03  0.48328181617E+03  0.25500000920E-02 0.  1.
       -2    1    3    3    0  502  0.27155197754E+03  0.17909957026E+03 -0.42764239089E+03  0.53730358929E+03  0.25500000920E-02 0. -1.
</event>
<event>
 5   0  0.3640180E-03  0.1015614E+04  0.7818609E-02  0.9291583E-01
        1   -1    0    0  501    0  0.00000000000E+00  0.00000000000E+00  0.21616260198E+04  0.21616260198E+04  0.50400001928E-02 0.  1.
       -1   -1    0    0    0  501  0.00000000000E+00  0.00000000000E+00 -0.11929361771E+03  0.11929361782E+03  0.50400001928E-02 0. -1.
    10030    2    1    2    0    0  0.00000000000E+00  0.00000000000E+00  0.20423324021E+04  0.22809196376E+04  0.10156144705E+04 0.  0.
        5    1    3    3  502    0  0.17665335351E+03 -0.25646311394E+03  0.19219358086E+04  0.19470077243E+04  0.46999998093E+01 0.  1.
       -5    1    3    3    0  502 -0.17665335351E+03  0.25646311394E+03  0.12039659345E+03  0.33391191328E+03  0.46999998093E+01 0. -1.
</event>
<event>
 5   0  0.3643002E-03  0.1001502E+04  0.7818609E-02  0.9306899E-01
       -1   -1    0    0    0  501  0.00000000000E+00  0.00000000000E+00  0.20337798684E+03  0.20337798690E+03  0.50400001928E-02 0. -1.
        1   -1    0    0  501    0  0.00000000000E+00  0.00000000000E+00 -0.12329327227E+04  0.12329327228E+04  0.50400001928E-02 0.  1.
    10030    2    1    2    0    0  0.00000000000E+00  0.00000000000E+00 -0.10295547359E+04  0.14363107097E+04  0.10015016228E+04 0.  0.
        2    1    3    3  502    0  0.14138933237E+03  0.34261825759E+03 -0.31883300595E+02  0.37201446021E+03  0.25500000920E-02 0. -1.
       -2    1    3    3    0  502 -0.14138933237E+03 -0.34261825759E+03 -0.99767143531E+03  0.10642962494E+04  0.25500000920E-02 0.  1.
</event>
<event>
 5   0  0.6022787E-03  0.1001412E+04  0.7818609E-02  0.9306998E-01
        2   -1    0    0  501    0  0.00000000000E+00  0.00000000000E+00  0.12402258898E+04  0.12402258898E+04  0.25500000920E-02 0.  1.
       -2   -1    0    0    0  501  0.00000000000E+00  0.00000000000E+00 -0.20214579741E+03  0.20214579743E+03  0.25500000920E-02 0. -1.
    10030    2    1    2    0    0  0.00000000000E+00  0.00000000000E+00  0.10380800924E+04  0.14423716873E+04  0.10014119062E+04 0.  0.
        5    1    3    3  502    0  0.17209545385E+03 -0.86967240965E+02 -0.14648999717E+03  0.24220147709E+03  0.46999998093E+01 0. -1.
       -5    1    3    3    0  502 -0.17209545385E+03  0.86967240965E+02  0.11845700896E+04  0.12001702102E+04  0.46999998093E+01 0.  1.
</event>
<event>
 5   0  0.3643002E-03  0.9860968E+03  0.7818609E-02  0.9323926E-01
        1   -1    0    0  501    0  0.00000000000E+00  0.00000000000E+00  0.36828340295E+03  0.36828340298E+03  0.50400001928E-02 0. -1.
       -1   -1    0    0    0  501  0.00000000000E+00  0.00000000000E+00 -0.66008054157E+03  0.66008054159E+03  0.50400001928E-02 0.  1.
    10030    2    1    2    0    0  0.00000000000E+00  0.00000000000E+00 -0.29179713862E+03  0.10283639446E+04  0.98609676624E+03 0.  0.
        2    1    3    3  502    0 -0.87151744583E+02  0.42284996031E+02  0.35826212519E+03  0.37112692953E+03  0.25500000920E-02 0. -1.
       -2    1    3    3    0  502  0.87151744583E+02 -0.42284996031E+02 -0.65005926381E+03  0.65723701504E+03  0.25500000920E-02 0.  1.
</event>
<event>
 5   0  0.3466598E-03  0.1032125E+04  0.7818609E-02  0.9273996E-01
       -1   -1    0    0    0  501  0.00000000000E+00  0.00000000000E+00  0.39241550392E+03  0.39241550395E+03  0.50400001928E-02 0.  1.
        1   -1    0    0  501    0  0.00000000000E+00  0.00000000000E+00 -0.67866924490E+03  0.67866924492E+03  0.50400001928E-02 0. -1.
    10030    2    1    2    0    0  0.00000000000E+00  0.00000000000E+00 -0.28625374098E+03  0.10710847489E+04  0.10321246703E+04 0.  0.
        3    1    3    3  502    0 -0.16461251319E+03 -0.39651288502E+02  0.36276923322E+03  0.40033864533E+03  0.10100000352E+00 0.  1.
       -3    1    3    3    0  502  0.16461251319E+03  0.39651288502E+02 -0.64902297420E+03  0.67074610354E+03  0.10100000352E+00 0. -1.
</event>
<event>
 5   0  0.3608845E-03  0.1007700E+04  0.7818609E-02  0.9300140E-01
       -1   -1    0    0    0  501  0.00000000000E+00  0.00000000000E+00  0.54707974401E+03  0.54707974404E+03  0.50400001928E-02 0.  1.
        1   -1    0    0  501    0  0.00000000000E+00  0.00000000000E+00 -0.46403599282E+03  0.46403599284E+03  0.50400001928E-02 0. -1.
    10030    2    1    2    0    0  0.00000000000E+00  0.00000000000E+00  0.83043751196E+02  0.10111157369E+04  0.10076997414E+04 0.  0.
        1    1    3    3  502    0 -0.43178219276E+03  0.13380026157E+03  0.26482137690E+03  0.52389763663E+03  0.50400001928E-02 0.  1.
       -1    1    3    3    0  502  0.43178219276E+03 -0.13380026157E+03 -0.18177762570E+03  0.48721810025E+03  0.50400001928E-02 0. -1.
</event>
<event>
 5   0  0.6606947E-03  0.1003141E+04  0.7818609E-02  0.9305107E-01
       -2   -1    0    0    0  501  0.00000000000E+00  0.00000000000E+00  0.14738002701E+03  0.14738002703E+03  0.25500000920E-02 0. -1.
        2   -1    0    0  501    0  0.00000000000E+00  0.00000000000E+00 -0.17069675470E+04  0.17069675470E+04  0.25500000920E-02 0.  1.
    10030    2    1    2    0    0  0.00000000000E+00  0.00000000000E+00 -0.15595875200E+04  0.18543475740E+04  0.10031409137E+04 0.  0.
        1    1    3    3  502    0  0.26789036884E+03 -0.15895386439E+03 -0.15064876973E+04  0.15383552135E+04  0.50400001928E-02 0.  1.
       -1    1    3    3    0  502 -0.26789036884E+03  0.15895386439E+03 -0.53099822688E+02  0.31599236054E+03  0.50400001928E-02 0. -1.
</event>
<event>
 5   0  0.2417750E-03  0.1002932E+04  0.7818609E-02  0.9305335E-01
       -3   -1    0    0    0  501  0.00000000000E+00  0.00000000000E+00  0.18501842544E+04  0.18501842571E+04  0.10100000352E+00 0. -1.
        3   -1    0    0  501    0  0.00000000000E+00  0.00000000000E+00 -0.13591514433E+03  0.13591518185E+03  0.10100000352E+00 0.  1.
    10030    2    1    2    0    0  0.00000000000E+00  0.00000000000E+00  0.17142691100E+04  0.19860994390E+04  0.10029319019E+04 0.  0.
        1    1    3    3  502    0 -0.21509743846E+03  0.21651008586E+03  0.69175396341E+02  0.31293571352E+03  0.50400001928E-02 0.  1.
       -1    1    3    3    0  502  0.21509743846E+03 -0.21651008586E+03  0.16450937137E+04  0.16731637255E+04  0.50400001928E-02 0. -1.
</event>
<event>
 5   0  0.6376961E-03  0.9909013E+03  0.7818609E-02  0.9318581E-01
        2   -1    0    0  501    0  0.00000000000E+00  0.00000000000E+00  0.79571822722E+03  0.79571822722E+03  0.25500000920E-02 0. -1.
       -2   -1    0    0    0  501  0.00000000000E+00  0.00000000000E+00 -0.30849031445E+03  0.30849031446E+03  0.25500000920E-02 0.  1.
    10030    2    1    2    0    0  0.00000000000E+00  0.00000000000E+00  0.48722791276E+03  0.11042085417E+04  0.99090133946E+03 0.  0.
        3    1    3    3  502    0 -0.41991313760E+03  0.99527184522E+02  0.51483493074E+03  0.67177951718E+03  0.10100000352E+00 0. -1.
       -3    1    3    3    0  502  0.41991313760E+03 -0.99527184522E+02 -0.27607017981E+02  0.43242902450E+03  0.10100000352E+00 0.  1.
</event>
<event>
 5   0  0.6022787E-03  0.9973159E+03  0.7818609E-02  0.9311494E-01
       -2   -1    0    0    0  501  0.00000000000E+00  0.00000000000E+00  0.30871489028E+03  0.30871489029E+03  0.25500000920E-02 0.  1.
        2   -1    0    0  501    0  0.00000000000E+00  0.00000000000E+00 -0.80546727936E+03  0.80546727936E+03  0.25500000920E-02 0. -1.
    10030    2    1    2    0    0  0.00000000000E+00  0.00000000000E+00 -0.49675238908E+03  0.11141821697E+04  0.99731588332E+03 0.  0.
        5    1    3    3  502    0 -0.17517056534E+03  0.10817477577E+03 -0.75574253402E+03  0.78329775743E+03  0.46999998093E+01 0. -1.
       -5    1    3    3    0  502  0.17517056534E+03 -0.10817477577E+03  0.25899014494E+03  0.33088441222E+03  0.46999998093E+01 0.  1.
</event>
<event>
 5   0  0.6360455E-03  0.9990492E+03  0.7818609E-02  0.9309588E-01
       -2   -1    0    0    0  501  0.00000000000E+00  0.00000000000E+00  0.42104885821E+03  0.42104885822E+03  0.25500000920E-02 0.  1.
        2   -1    0    0  501    0  0.00000000000E+00  0.00000000000E+00 -0.59262674006E+03  0.59262674007E+03  0.25500000920E-02 0. -1.
    10030    2    1    2    0    0  0.00000000000E+00  0.00000000000E+00 -0.17157788185E+03  0.10136755983E+04  0.99904917247E+03 0.  0.
        4    1    3    3  502    0  0.30081803523E+03  0.17655706327E+03  0.27702027476E+03  0.44542758383E+03  0.12699999809E+01 0.  1.
       -4    1    3    3    0  502 -0.30081803523E+03 -0.17655706327E+03 -0.44859815662E+03  0.56824801445E+03  0.12699999809E+01 0. -1.
</event>
<event>
 5   0  0.6606947E-03  0.1002586E+04  0.7818609E-02  0.9305713E-01
        2   -1    0    0  501    0  0.00000000000E+00  0.00000000000E+00  0.75528909036E+03  0.75528909037E+03  0.25500000920E-02 0.  1.
       -2   -1    0    0    0  501  0.00000000000E+00  0.00000000000E+00 -0.33271303197E+03  0.33271303198E+03  0.25500000920E-02 0. -1.
    10030    2    1    2    0    0  0.00000000000E+00  0.00000000000E+00  0.42257605839E+03  0.10880021224E+04  0.10025857036E+04 0.  0.
        1    1    3    3  502    0 -0.36058258309E+03 -0.18086608596E+03  0.53423587466E+03  0.66943282716E+03  0.50400001928E-02 0.  1.
       -1    1    3    3    0  502  0.36058258309E+03  0.18086608596E+03 -0.11165981627E+03  0.41856929519E+03  0.50400001928E-02 0. -1.
</event>
<event>
 5   0  0.3643002E-03  0.1014830E+04  0.7818609E-02  0.9292428E-01
       -1   -1    0    0    0  501  0.00000000000E+00  0.00000000000E+00  0.55823499021E+03  0.55823499023E+03  0.50400001928E-02 0. -1.
        1   -1    0    0  501    0  0.00000000000E+00  0.00000000000E+00 -0.46122123512E+03  0.46122123515E+03  0.50400001928E-02 0.  1.
    10030    2    1    2    0    0  0.00000000000E+00  0.00000000000E+00  0.97013755090E+02  0.10194562254E+04  0.10148297033E+04 0.  0.
        2    1    3    3  502    0  0.16424358897E+02 -0.12485510633E+03  0.54228746292E+03  0.55671738754E+03  0.25500000920E-02 0. -1.
       -2    1    3    3    0  502 -0.16424358897E+02  0.12485510633E+03 -0.44527370783E+03  0.46273883783E+03  0.25500000920E-02 0.  1.
</event>
<event>
 5   0  0.3466598E-03  0.1004086E+04  0.7818609E-02  0.9304075E-01
        1   -1    0    0  501    0  0.00000000000E+00  0.00000000000E+00  0.11004540328E+04  0.11004540328E+04  0.50400001928E-02 0. -1.
       -1   -1    0    0    0  501  0.00000000000E+00  0.00000000000E+00 -0.22903911035E+03  0.22903911041E+03  0.50400001928E-02 0.  1.
    10030    2    1    2    0    0  0.00000000000E+00  0.00000000000E+00  0.87141492248E+03  0.13294931433E+04  0.10040856790E+04 0.  0.
        3    1    3    3  502    0  0.43336199427E+03  0.25058843135E+03  0.48612396752E+03  0.69779201916E+03  0.10100000352E+00 0.  1.
       -3    1    3    3    0  502 -0.43336199427E+03 -0.25058843135E+03  0.38529095496E+03  0.63170112410E+03  0.10100000352E+00 0. -1.
</event>
<event>
 5   0  0.2417750E-03  0.9842955E+03  0.7818609E-02  0.9325939E-01
       -3   -1    0    0    0  501  0.00000000000E+00  0.00000000000E+00  0.16050674638E+03  0.16050677815E+03  0.10100000352E+00 0. -1.
        3   -1    0    0  501    0  0.00000000000E+00  0.00000000000E+00 -0.15090293582E+04  0.15090293616E+04  0.10100000352E+00 0.  1.
    10030    2    1    2    0    0  0.00000000000E+00  0.00000000000E+00 -0.13485226119E+04  0.16695361398E+04  0.98429552844E+03 0.  0.
        5    1    3    3  502    0 -0.84094714111E+02 -0.77464036683E+02  0.13762800130E+03  0.17898646502E+03  0.46999998093E+01 0. -1.
       -5    1    3    3    0  502  0.84094714111E+02  0.77464036683E+02 -0.14861506132E+04  0.14905496748E+04  0.46999998093E+01 0.  1.
</event>
<event>
 5   0  0.6022787E-03  0.1007222E+04  0.7818609E-02  0.9300659E-01
       -2   -1    0    0    0  501  0.00000000000E+00  0.00000000000E+00  0.60449300008E+03  0.60449300008E+03  0.25500000920E-02 0. -1.
        2   -1    0    0  501    0  0.00000000000E+00  0.00000000000E+00 -0.41956466544E+03  0.41956466545E+03  0.25500000920E-02 0.  1.
    10030    2    1    2    0    0  0.00000000000E+00  0.00000000000E+00  0.18492833464E+03  0.10240576655E+04  0.10072217300E+04 0.  0.
        5    1    3    3  502    0 -0.37817467539E+03  0.29018052729E+03  0.25760134931E+03  0.54184995035E+03  0.46999998093E+01 0.  1.
       -5    1    3    3    0  502  0.37817467539E+03 -0.29018052729E+03 -0.72673014673E+02  0.48220771519E+03  0.46999998093E+01 0. -1.
</event>
<event>
 5   0  0.6376961E-03  0.8968357E+03  0.7818609E-02  0.9429546E-01
       -2   -1    0    0    0  501  0.00000000000E+00  0.00000000000E+00  0.16565462224E+03  0.16565462225E+03  0.25500000920E-02 0. -1.
        2   -1    0    0  501    0  0.00000000000E+00  0.00000000000E+00 -0.12138421033E+04  0.12138421033E+04  0.25500000920E-02 0.  1.
    10030    2    1    2    0    0  0.00000000000E+00  0.00000000000E+00 -0.10481874811E+04  0.13794967256E+04  0.89683567077E+03 0.  0.
        3    1    3    3  502    0 -0.36828670045E+03  0.12294665043E+03 -0.86916659085E+03  0.95194618830E+03  0.10100000352E+00 0.  1.
       -3    1    3    3    0  502  0.36828670045E+03 -0.12294665043E+03 -0.17902089023E+03  0.42755053727E+03  0.10100000352E+00 0. -1.
</event>
<event>
 5   0  0.3643002E-03  0.9838796E+03  0.7818609E-02  0.9326404E-01
       -1   -1    0    0    0  501  0.00000000000E+00  0.00000000000E+00  0.34871599313E+03  0.34871599317E+03  0.50400001928E-02 0.  1.
        1   -1    0    0  501    0  0.00000000000E+00  0.00000000000E+00 -0.69398818635E+03  0.69398818636E+03  0.50400001928E-02 0. -1.
    10030    2    1    2    0    0  0.00000000000E+00  0.00000000000E+00 -0.34527219322E+03  0.10427041795E+04  0.98387962607E+03 0.  0.
        2    1    3    3  502    0  0.36084866705E+03 -0.19562000471E+03  0.11473237845E+03  0.42619533717E+03  0.25500000920E-02 0.  1.
       -2    1    3    3    0  502 -0.36084866705E+03  0.19562000471E+03 -0.46000457167E+03  0.61650884236E+03  0.25500000920E-02 0. -1.
</event>
<event>
 5   0  0.3608845E-03  0.9989619E+03  0.7818609E-02  0.9309684E-01
       -1   -1    0    0    0  501  0.00000000000E+00  0.00000000000E+00  0.67962952024E+03  0.67962952026E+03  0.50400001928E-02 0.  1.
        1   -1    0    0  501    0  0.00000000000E+00  0.00000000000E+00 -0.36708415775E+03  0.36708415778E+03  0.50400001928E-02 0. -1.
    10030    2    1    2    0    0  0.00000000000E+00  0.00000000000E+00  0.31254536250E+03  0.10467136780E+04  0.99896192129E+03 0.  0.
        1    1    3    3  502    0 -0.26075324133E+03 -0.23571965811E+03 -0.21554952583E+03  0.41233191508E+03  0.50400001928E-02 0. -1.
       -1    1    3    3    0  502  0.26075324133E+03  0.23571965811E+03  0.52809488833E+03  0.63438176296E+03  0.50400001928E-02 0.  1.
</event>
<event>
 5   0  0.6022787E-03  0.9888079E+03  0.7818609E-02  0.9320906E-01
       -2   -1    0    0    0  501  0.00000000000E+00  0.00000000000E+00  0.19426576284E+03  0.19426576286E+03  0.25500000920E-02 0. -1.
        2   -1    0    0  501    0  0.00000000000E+00  0.00000000000E+00 -0.12582519371E+04  0.12582519371E+04  0.25500000920E-02 0.  1.
    10030    2    1    2    0    0  0.00000000000E+00  0.00000000000E+00 -0.10639861743E+04  0.14525177000E+04  0.98880791345E+03 0.  0.
        5    1    3    3  502    0 -0.48871703072E+02 -0.39873554873E+03 -0.95528435902E+03  0.10363246488E+04  0.46999998093E+01 0.  1.
       -5    1    3    3    0  502  0.48871703072E+02  0.39873554873E+03 -0.10870181524E+03  0.41619305114E+03  0.46999998093E+01 0. -1.
</event>
<event>
 5   0  0.3569359E-03  0.9991278E+03  0.7818609E-02  0.9309502E-01
       -1   -1    0    0    0  501  0.00000000000E+00  0.00000000000E+00  0.48507719673E+03  0.48507719675E+03  0.50400001928E-02 0.  1.
        1   -1    0    0  501    0  0.00000000000E+00  0.00000000000E+00 -0.51448321542E+03  0.51448321544E+03  0.50400001928E-02 0. -1.
    10030    2    1    2    0    0  0.00000000000E+00  0.00000000000E+00 -0.29406018690E+02  0.99956041220E+03  0.99912777146E+03 0.  0.
        4    1    3    3  502    0  0.45138019659E+03  0.17825308299E+02  0.19869814647E+03  0.49350216797E+03  0.12699999809E+01 0. -1.
       -4    1    3    3    0  502 -0.45138019659E+03 -0.17825308299E+02 -0.22810416516E+03  0.50605824422E+03  0.12699999809E+01 0.  1.
</event>
<event>
 5   0  0.3608845E-03  0.1010149E+04  0.7818609E-02  0.9297484E-01
       -1   -1    0    0    0  501  0.00000000000E+00  0.00000000000E+00  0.24829851556E+03  0.24829851561E+03  0.50400001928E-02 0. -1.
        1   -1    0    0  501    0  0.00000000000E+00  0.00000000000E+00 -0.10273924802E+04  0.10273924802E+04  0.50400001928E-02 0.  1.
    10030    2    1    2    0    0  0.00000000000E+00  0.00000000000E+00 -0.77909396465E+03  0.12756909958E+04  0.10101485589E+04 0.  0.
        1    1    3    3  502    0  0.67845386275E+02 -0.46878600029E+03 -0.16814118797E+03  0.50262786396E+03  0.50400001928E-02 0. -1.
       -1    1    3    3    0  502 -0.67845386275E+02  0.46878600029E+03 -0.61095277668E+03  0.77306313188E+03  0.50400001928E-02 0.  1.
</event>
<event>
 5   0  0.6360455E-03  0.1006885E+04  0.7818609E-02  0.9301026E-01
       -2   -1    0    0    0  501  0.00000000000E+00  0.00000000000E+00  0.30196299007E+03  0.30196299009E+03  0.25500000920E-02 0. -1.
        2   -1    0    0  501    0  0.00000000000E+00  0.00000000000E+00 -0.83935523391E+03  0.83935523391E+03  0.25500000920E-02 0.  1.
    10030    2    1    2    0    0  0.00000000000E+00  0.00000000000E+00 -0.53739224384E+03  0.11413182240E+04  0.10068847326E+04 0.  0.
        4    1    3    3  502    0  0.15024808132E+03  0.18231384906E+03 -0.77261911478E+03  0.80793238265E+03  0.12699999809E+01 0.  1.
       -4    1    3    3    0  502 -0.15024808132E+03 -0.18231384906E+03  0.23522687095E+03  0.33338584135E+03  0.12699999809E+01 0. -1.
</event>
<event>
 5   0  0.3608845E-03  0.1122349E+04  0.7818609E-02  0.9183678E-01
        1   -1    0    0  501    0  0.00000000000E+00  0.00000000000E+00  0.48832786048E+03  0.48832786050E+03  0.50400001928E-02 0.  1.
       -1   -1    0    0    0  501  0.00000000000E+00  0.00000000000E+00 -0.64488864897E+03  0.64488864899E+03  0.50400001928E-02 0. -1.
    10030    2    1    2    0    0  0.00000000000E+00  0.00000000000E+00 -0.15656078849E+03  0.11332165095E+04  0.11223494896E+04 0.  0.
        1    1    3    3  502    0  0.24986222259E+03  0.23515735390E+03 -0.52663733842E+03  0.62855150753E+03  0.50400001928E-02 0. -1.
       -1    1    3    3    0  502 -0.24986222259E+03 -0.23515735390E+03  0.37007654993E+03  0.50466500196E+03  0.50400001928E-02 0.  1.
</event>
<event>
 5   0  0.3608845E-03  0.9781872E+03  0.7818609E-02  0.9332798E-01
       -1   -1    0    0    0  501  0.00000000000E+00  0.00000000000E+00  0.30040970826E+03  0.30040970830E+03  0.50400001928E-02 0.  1.
        1   -1    0    0  501    0  0.00000000000E+00  0.00000000000E+00 -0.79628759930E+03  0.79628759931E+03  0.50400001928E-02 0. -1.
    10030    2    1    2    0    0  0.00000000000E+00  0.00000000000E+00 -0.49587789104E+03  0.10966973076E+04  0.97818715065E+03 0.  0.
        1    1    3    3  502    0 -0.12799092965E+03  0.46666953426E+03 -0.32761492592E+03  0.58437459903E+03  0.50400001928E-02 0.  1.
       -1    1    3    3    0  502  0.12799092965E+03 -0.46666953426E+03 -0.16826296511E+03  0.51232270858E+03  0.50400001928E-02 0. -1.
</event>
<event>
 5   0  0.3608845E-03  0.1006103E+04  0.7818609E-02  0.9301876E-01
       -1   -1    0    0    0  501  0.00000000000E+00  0.00000000000E+00  0.24536906687E+03  0.24536906692E+03  0.50400001928E-02 0. -1.
        1   -1    0    0  501    0  0.00000000000E+00  0.00000000000E+00 -0.10313484334E+04  0.10313484334E+04  0.50400001928E-02 0.  1.
    10030    2    1    2    0    0  0.00000000000E+00  0.00000000000E+00 -0.78597936649E+03  0.12767175003E+04  0.10061033799E+04 0.  0.
        1    1    3    3  502    0 -0.33708799808E+02  0.48235637697E+02 -0.10269656450E+04  0.10286502788E+04  0.50400001928E-02 0.  1.
       -1    1    3    3    0  502  0.33708799808E+02 -0.48235637697E+02  0.24098627853E+03  0.24806722152E+03  0.50400001928E-02 0. -1.
</event>
<event>
 5   0  0.3640180E-03  0.9999765E+03  0.7818609E-02  0.9308571E-01
        1   -1    0    0  501    0  0.00000000000E+00  0.00000000000E+00  0.52682618650E+03  0.52682618652E+03  0.50400001928E-02 0. -1.
       -1   -1    0    0    0  501  0.00000000000E+00  0.00000000000E+00 -0.47451749365E+03  0.47451749367E+03  0.50400001928E-02 0.  1.
    10030    2    1    2    0    0  0.00000000000E+00  0.00000000000E+00  0.52308692850E+02  0.10013436802E+04  0.99997648298E+03 0.  0.
        5    1    3    3  502    0 -0.20850307299E+03  0.36681187560E+03  0.29474050412E+03  0.51470237837E+03  0.46999998093E+01 0. -1.
       -5    1    3    3    0  502  0.20850307299E+03 -0.36681187560E+03 -0.24243181127E+03  0.48664130183E+03  0.46999998093E+01 0.  1.
</event>
<event>
 5   0  0.3640180E-03  0.1014272E+04  0.7818609E-02  0.9293028E-01
        1   -1    0    0  501    0  0.00000000000E+00  0.00000000000E+00  0.35958458430E+03  0.35958458434E+03  0.50400001928E-02 0.  1.
       -1   -1    0    0    0  501  0.00000000000E+00  0.00000000000E+00 -0.71523400087E+03  0.71523400088E+03  0.50400001928E-02 0. -1.
    10030    2    1    2    0    0  0.00000000000E+00  0.00000000000E+00 -0.35564941657E+03  0.10748185852E+04  0.10142723912E+04 0.  0.
        5    1    3    3  502    0  0.29708877451E+03 -0.41086989540E+03 -0.18783419337E+03  0.54072135623E+03  0.46999998093E+01 0. -1.
       -5    1    3    3    0  502 -0.29708877451E+03  0.41086989540E+03 -0.16781522320E+03  0.53409722899E+03  0.46999998093E+01 0.  1.
</event>
<event>
 5   0  0.3643002E-03  0.9802045E+03  0.7818609E-02  0.9330527E-01
        1   -1    0    0  501    0  0.00000000000E+00  0.00000000000E+00  0.15764603679E+04  0.15764603679E+04  0.50400001928E-02 0.  1.
       -1   -1    0    0    0  501  0.00000000000E+00  0.00000000000E+00 -0.15236680571E+03  0.15236680579E+03  0.50400001928E-02 0. -1.
    10030    2    1    2    0    0  0.00000000000E+00  0.00000000000E+00  0.14240935622E+04  0.17288271737E+04  0.98020453104E+03 0.  0.
        2    1    3    3  502    0  0.23625198840E+03 -0.11295711139E+03  0.14427252551E+04  0.14662982210E+04  0.25500000920E-02 0.  1.
       -2    1    3    3    0  502 -0.23625198840E+03  0.11295711139E+03 -0.18631692929E+02  0.26252895274E+03  0.25500000920E-02 0. -1.
</event>
<event>
 5   0  0.3643002E-03  0.1017585E+04  0.7818609E-02  0.9289465E-01
        1   -1    0    0  501    0  0.00000000000E+00  0.00000000000E+00  0.11286560723E+04  0.11286560723E+04  0.50400001928E-02 0.  1.
       -1   -1    0    0    0  501  0.00000000000E+00  0.00000000000E+00 -0.22936127766E+03  0.22936127771E+03  0.50400001928E-02 0. -1.
    10030    2    1    2    0    0  0.00000000000E+00  0.00000000000E+00  0.89929479462E+03  0.13580173500E+04  0.10175853749E+04 0.  0.
        2    1    3    3  502    0 -0.32590111311E+03 -0.21147433442E+03  0.11197701910E+02  0.38866221604E+03  0.25500000920E-02 0. -1.
       -2    1    3    3    0  502  0.32590111311E+03  0.21147433442E+03  0.88809709271E+03  0.96935513395E+03  0.25500000920E-02 0.  1.
</event>
<event>
 5   0  0.3643002E-03  0.1004650E+04  0.7818609E-02  0.9303460E-01
        1   -1    0    0  501    0  0.00000000000E+00  0.00000000000E+00  0.25336951037E+04  0.25336951037E+04  0.50400001928E-02 0.  1.
       -1   -1    0    0    0  501  0.00000000000E+00  0.00000000000E+00 -0.99589791194E+02  0.99589791322E+02  0.50400001928E-02 0. -1.
    10030    2    1    2    0    0  0.00000000000E+00  0.00000000000E+00  0.24341053125E+04  0.26332848950E+04  0.10046495240E+04 0.  0.
        2    1    3    3  502    0  0.29349779883E+03  0.16791270939E+03  0.24337724668E+03  0.41661507426E+03  0.25500000920E-02 0. -1.
       -2    1    3    3    0  502 -0.29349779883E+03 -0.16791270939E+03  0.21907280658E+04  0.22166698207E+04  0.25500000920E-02 0.  1.
</event>
<event>
 5   0  0.6022787E-03  0.9934699E+03  0.7818609E-02  0.9315736E-01
        2   -1    0    0  501    0  0.00000000000E+00  0.00000000000E+00  0.15460593269E+04  0.15460593269E+04  0.25500000920E-02 0.  1.
       -2   -1    0    0    0  501  0.00000000000E+00  0.00000000000E+00 -0.15959646439E+03  0.15959646441E+03  0.25500000920E-02 0. -1.
    10030    2    1    2    0    0  0.00000000000E+00  0.00000000000E+00  0.13864628625E+04  0.17056557913E+04  0.99346988345E+03 0.  0.
        5    1    3    3  502    0  0.28301162507E+03  0.33685672854E+03  0.29739961762E+03  0.53107123632E+03  0.46999998093E+01 0.  1.
       -5    1    3    3    0  502 -0.28301162507E+03 -0.33685672854E+03  0.10890632448E+04  0.11745845550E+04  0.46999998093E+01 0. -1.
</event>
<event>
 5   0  0.3608845E-03  0.1010586E+04  0.7818609E-02  0.9297010E-01
        1   -1    0    0  501    0  0.00000000000E+00  0.00000000000E+00  0.89313467484E+03  0.89313467485E+03  0.50400001928E-02 0. -1.
       -1   -1    0    0    0  501  0.00000000000E+00  0.00000000000E+00 -0.28587043997E+03  0.28587044001E+03  0.50400001928E-02 0.  1.
    10030    2    1    2    0    0  0.00000000000E+00  0.00000000000E+00  0.60726423487E+03  0.11790051149E+04  0.10105855777E+04 0.  0.
        1    1    3    3  502    0 -0.28978688020E+03 -0.38447198426E+03  0.48257461711E+03  0.68166957077E+03  0.50400001928E-02 0.  1.
       -1    1    3    3    0  502  0.28978688020E+03  0.38447198426E+03  0.12468961776E+03  0.49733554409E+03  0.50400001928E-02 0. -1.
</event>
<event>
 5   0  0.2417750E-03  0.1021325E+04  0.7818609E-02  0.9285461E-01
       -3   -1    0    0    0  501  0.00000000000E+00  0.00000000000E+00  0.75848270780E+03  0.75848271452E+03  0.10100000352E+00 0.  1.
        3   -1    0    0  501    0  0.00000000000E+00  0.00000000000E+00 -0.34381261393E+03  0.34381262876E+03  0.10100000352E+00 0. -1.
    10030    2    1    2    0    0  0.00000000000E+00  0.00000000000E+00  0.41467009387E+03  0.11022953433E+04  0.10213245014E+04 0.  0.
        2    1    3    3  502    0 -0.37549148824E+02 -0.92144622349E+02  0.74791909998E+03  0.75450881381E+03  0.25500000920E-02 0.  1.
       -2    1    3    3    0  502  0.37549148824E+02  0.92144622349E+02 -0.33324900611E+03  0.34778652947E+03  0.25500000920E-02 0. -1.
</event>
<event>
 5   0  0.6022787E-03  0.9754540E+03  0.7818609E-02  0.9335884E-01
       -2   -1    0    0    0  501  0.00000000000E+00  0.00000000000E+00  0.28483788143E+03  0.28483788144E+03  0.25500000920E-02 0.  1.
        2   -1    0    0  501    0  0.00000000000E+00  0.00000000000E+00 -0.83513341619E+03  0.83513341620E+03  0.25500000920E-02 0. -1.
    10030    2    1    2    0    0  0.00000000000E+00  0.00000000000E+00 -0.55029553477E+03  0.11199712976E+04  0.97545401324E+03 0.  0.
        5    1    3    3  502    0 -0.27211806035E+03 -0.17220798418E+03  0.14538341721E+03  0.35335853829E+03  0.46999998093E+01 0.  1.
       -5    1    3    3    0  502  0.27211806035E+03  0.17220798418E+03 -0.69567895197E+03  0.76661275935E+03  0.46999998093E+01 0. -1.
</event>
<event>
 5   0  0.3569359E-03  0.9997955E+03  0.7818609E-02  0.9308769E-01
       -1   -1    0    0    0  501  0.00000000000E+00  0.00000000000E+00  0.35165346016E+03  0.35165346020E+03  0.50400001928E-02 0. -1.
        1   -1    0    0  501    0  0.00000000000E+00  0.00000000000E+00 -0.71063644866E+03  0.71063644868E+03  0.50400001928E-02 0.  1.
    10030    2    1    2    0    0  0.00000000000E+00  0.00000000000E+00 -0.35898298850E+03  0.10622899089E+04  0.99979551133E+03 0.  0.
        4    1    3    3  502    0  0.14297557471E+03  0.38501599681E+03 -0.48229079299E+03  0.63347087909E+03  0.12699999809E+01 0.  1.
       -4    1    3    3    0  502 -0.14297557471E+03 -0.38501599681E+03  0.12330780449E+03  0.42881902979E+03  0.12699999809E+01 0. -1.
</event>
<event>
 5   0  0.6360455E-03  0.9985522E+03  0.7818609E-02  0.9310134E-01
        2   -1    0    0  501    0  0.00000000000E+00  0.00000000000E+00  0.28705694464E+03  0.28705694466E+03  0.25500000920E-02 0.  1.
       -2   -1    0    0    0  501  0.00000000000E+00  0.00000000000E+00 -0.86838734797E+03  0.86838734797E+03  0.25500000920E-02 0. -1.
    10030    2    1    2    0    0  0.00000000000E+00  0.00000000000E+00 -0.58133040333E+03  0.11554442926E+04  0.99855218969E+03 0.  0.
        4    1    3    3  502    0  0.76459443774E+02  0.48379177425E+03 -0.40269970794E+03  0.63408926426E+03  0.12699999809E+01 0. -1.
       -4    1    3    3    0  502 -0.76459443774E+02 -0.48379177425E+03 -0.17863069539E+03  0.52135502837E+03  0.12699999809E+01 0.  1.
</event>
<event>
 5   0  0.6606947E-03  0.1004684E+04  0.7818609E-02  0.9303422E-01
       -2   -1    0    0    0  501  0.00000000000E+00  0.00000000000E+00  0.31845181242E+03  0.31845181243E+03  0.25500000920E-02 0. -1.
        2   -1    0    0  501    0  0.00000000000E+00  0.00000000000E+00 -0.79241974793E+03  0.79241974794E+03  0.25500000920E-02 0.  1.
    10030    2    1    2    0    0  0.00000000000E+00  0.00000000000E+00 -0.47396793551E+03  0.11108715604E+04  0.10046840398E+04 0.  0.
        1    1    3    3  502    0  0.32011723497E+03  0.24878205487E+03  0.90980051848E+02  0.41550562549E+03  0.50400001928E-02 0. -1.
       -1    1    3    3    0  502 -0.32011723497E+03 -0.24878205487E+03 -0.56494798736E+03  0.69536593488E+03  0.50400001928E-02 0.  1.
</event>
<event>
 5   0  0.3466598E-03  0.1008926E+04  0.7818609E-02  0.9298809E-01
       -1   -1    0    0    0  501  0.00000000000E+00  0.00000000000E+00  0.17122691621E+03  0.17122691629E+03  0.50400001928E-02 0. -1.
        1   -1    0    0  501    0  0.00000000000E+00  0.00000000000E+00 -0.14862317469E+04  0.14862317469E+04  0.50400001928E-02 0.  1.
    10030    2    1    2    0    0  0.00000000000E+00  0.00000000000E+00 -0.13150048307E+04  0.16574586632E+04  0.10089259217E+04 0.  0.
        3    1    3    3  502    0  0.49511500795E+02  0.21401606395E+03 -0.14035351381E+04  0.14206213987E+04  0.10100000352E+00 0.  1.
       -3    1    3    3    0  502 -0.49511500795E+02 -0.21401606395E+03  0.88530307396E+02  0.23683726452E+03  0.10100000352E+00 0. -1.
</event>
<event>
 5   0  0.6376961E-03  0.9596020E+03  0.7818609E-02  0.9353997E-01
       -2   -1    0    0    0  501  0.00000000000E+00  0.00000000000E+00  0.21225753227E+03  0.21225753228E+03  0.25500000920E-02 0.  1.
        2   -1    0    0  501    0  0.00000000000E+00  0.00000000000E+00 -0.10845739192E+04  0.10845739192E+04  0.25500000920E-02 0. -1.
    10030    2    1    2    0    0  0.00000000000E+00  0.00000000000E+00 -0.87231638697E+03  0.12968314515E+04  0.95960196680E+03 0.  0.
        3    1    3    3  502    0 -0.12622303537E+03 -0.45399432947E+03 -0.55828009921E+03  0.73056128095E+03  0.10100000352E+00 0. -1.
       -3    1    3    3    0  502  0.12622303537E+03  0.45399432947E+03 -0.31403628775E+03  0.56627017057E+03  0.10100000352E+00 0.  1.
</event>
<event>
 5   0  0.3569359E-03  0.9720840E+03  0.7818609E-02  0.9339704E-01
       -1   -1    0    0    0  501  0.00000000000E+00  0.00000000000E+00  0.29232388408E+03  0.29232388413E+03  0.50400001928E-02 0.  1.
        1   -1    0    0  501    0  0.00000000000E+00  0.00000000000E+00 -0.80813391508E+03  0.80813391509E+03  0.50400001928E-02 0. -1.
    10030    2    1    2    0    0  0.00000000000E+00  0.00000000000E+00 -0.51581003099E+03  0.11004577992E+04  0.97208403947E+03 0.  0.
        4    1    3    3  502    0 -0.41172379848E+03  0.93593155619E+02  0.14634998036E+02  0.42248308970E+03  0.12699999809E+01 0.  1.
       -4    1    3    3    0  502  0.41172379848E+03 -0.93593155619E+02 -0.53044502903E+03  0.67797470951E+03  0.12699999809E+01 0. -1.
</event>
<event>
 5   0  0.6199539E-03  0.9970826E+03  0.7818609E-02  0.9311750E-01
       -2   -1    0    0    0  501  0.00000000000E+00  0.00000000000E+00  0.36579380338E+03  0.36579380339E+03  0.25500000920E-02 0.  1.
        2   -1    0    0  501    0  0.00000000000E+00  0.00000000000E+00 -0.67946318943E+03  0.67946318943E+03  0.25500000920E-02 0. -1.
    10030    2    1    2    0    0  0.00000000000E+00  0.00000000000E+00 -0.31366938605E+03  0.10452569928E+04  0.99708259301E+03 0.  0.
        2    1    3    3  502    0  0.39775049113E+02 -0.49650103999E+03 -0.13464388291E+03  0.51596929410E+03  0.25500000920E-02 0.  1.
       -2    1    3    3    0  502 -0.39775049113E+02  0.49650103999E+03 -0.17902550314E+03  0.52928769872E+03  0.25500000920E-02 0. -1.
</event>
<event>
 5   0  0.3569359E-03  0.1000676E+04  0.7818609E-02  0.9307804E-01
       -1   -1    0    0    0  501  0.00000000000E+00  0.00000000000E+00  0.16233952492E+03  0.16233952500E+03  0.50400001928E-02 0.  1.
        1   -1    0    0  501    0  0.00000000000E+00  0.00000000000E+00 -0.15420638492E+04  0.15420638492E+04  0.50400001928E-02 0. -1.
    10030    2    1    2    0    0  0.00000000000E+00  0.00000000000E+00 -0.13797243243E+04  0.17044033742E+04  0.10006755973E+04 0.  0.
        4    1    3    3  502    0 -0.36124548511E+02 -0.35813523488E+03 -0.97947013132E+02  0.37304297306E+03  0.12699999809E+01 0.  1.
       -4    1    3    3    0  502  0.36124548511E+02  0.35813523488E+03 -0.12817773111E+04  0.13313604011E+04  0.12699999809E+01 0. -1.
</event>
<event>
 5   0  0.3569359E-03  0.9954641E+03  0.7818609E-02  0.9313534E-01
       -1   -1    0    0    0  501  0.00000000000E+00  0.00000000000E+00  0.51285136083E+03  0.51285136086E+03  0.50400001928E-02 0. -1.
        1   -1    0    0  501    0  0.00000000000E+00  0.00000000000E+00 -0.48305844824E+03  0.48305844827E+03  0.50400001928E-02 0.  1.
    10030    2    1    2    0    0  0.00000000000E+00  0.00000000000E+00  0.29792912591E+02  0.99590980912E+03  0.99546407784E+03 0.  0.
        4    1    3    3  502    0 -0.27825267192E+03  0.32436869314E+03 -0.24035690655E+03  0.49031893084E+03  0.12699999809E+01 0.  1.
       -4    1    3    3    0  502  0.27825267192E+03 -0.32436869314E+03  0.27014981914E+03  0.50559087828E+03  0.12699999809E+01 0. -1.
</event>
<event>
 5   0  0.3643002E-03  0.9947915E+03  0.7818609E-02  0.9314276E-01
        1   -1    0    0  501    0  0.00000000000E+00  0.00000000000E+00  0.95187696047E+03  0.95187696048E+03  0.50400001928E-02 0.  1.
       -1   -1    0    0    0  501  0.00000000000E+00  0.00000000000E+00 -0.25991020563E+03  0.25991020568E+03  0.50400001928E-02 0. -1.
    10030    2    1    2    0    0  0.00000000000E+00  0.00000000000E+00  0.69196675484E+03  0.12117871662E+04  0.99479150894E+03 0.  0.
        2    1    3    3  502    0 -0.11951680769E+03  0.41410561838E+03  0.43565614917E+02  0.43320398579E+03  0.25500000920E-02 0. -1.
       -2    1    3    3    0  502  0.11951680769E+03 -0.41410561838E+03  0.64840113992E+03  0.77858318037E+03  0.25500000920E-02 0.  1.
</event>
<event>
 5   0  0.6199539E-03  0.9926084E+03  0.7818609E-02  0.9316689E-01
       -2   -1    0    0    0  501  0.00000000000E+00  0.00000000000E+00  0.42184082950E+03  0.42184082950E+03  0.25500000920E-02 0.  1.
        2   -1    0    0  501    0  0.00000000000E+00  0.00000000000E+00 -0.58391179266E+03  0.58391179267E+03  0.25500000920E-02 0. -1.
    10030    2    1    2    0    0  0.00000000000E+00  0.00000000000E+00 -0.16207096317E+03  0.10057526222E+04  0.99260835172E+03 0.  0.
        2    1    3    3  502    0  0.47362486225E+03 -0.89614968502E+02  0.38709346672E+02  0.48358015493E+03  0.25500000920E-02 0.  1.
       -2    1    3    3    0  502 -0.47362486225E+03  0.89614968502E+02 -0.20078030984E+03  0.52217246724E+03  0.25500000920E-02 0. -1.
</event>
<event>
 5   0  0.6606947E-03  0.9847100E+03  0.7818609E-02  0.9325475E-01
        2   -1    0    0  501    0  0.00000000000E+00  0.00000000000E+00  0.45575654792E+03  0.45575654793E+03  0.25500000920E-02 0.  1.
       -2   -1    0    0    0  501  0.00000000000E+00  0.00000000000E+00 -0.53189241223E+03  0.53189241223E+03  0.25500000920E-02 0. -1.
    10030    2    1    2    0    0  0.00000000000E+00  0.00000000000E+00 -0.76135864304E+02  0.98764896016E+03  0.98471000740E+03 0.  0.
        1    1    3    3  502    0  0.40742614703E+03 -0.17821229799E+03 -0.25002247671E+03  0.51016362799E+03  0.50400001928E-02 0. -1.
       -1    1    3    3    0  502 -0.40742614703E+03  0.17821229799E+03  0.17388661241E+03  0.47748533217E+03  0.50400001928E-02 0.  1.
</event>
<event>
 5   0  0.2417750E-03  0.9736638E+03  0.7818609E-02  0.9337911E-01
        4   -1    0    0  501    0  0.00000000000E+00  0.00000000000E+00  0.14805824172E+04  0.14805829619E+04  0.12699999809E+01 0. -1.
       -4   -1    0    0    0  501  0.00000000000E+00  0.00000000000E+00 -0.16007262370E+03  0.16007766164E+03  0.12699999809E+01 0.  1.
    10030    2    1    2    0    0  0.00000000000E+00  0.00000000000E+00  0.13205097935E+04  0.16406606235E+04  0.97366378533E+03 0.  0.
        4    1    3    3  502    0  0.19568895729E+03 -0.27718082905E+03  0.12485246148E+04  0.12938078322E+04  0.12699999809E+01 0. -1.
       -4    1    3    3    0  502 -0.19568895729E+03  0.27718082905E+03  0.71985178697E+02  0.34685279132E+03  0.12699999809E+01 0.  1.
</event>
<event>
 5   0  0.6606947E-03  0.1008976E+04  0.7818609E-02  0.9298754E-01
        2   -1    0    0  501    0  0.00000000000E+00  0.00000000000E+00  0.16523614281E+04  0.16523614281E+04  0.25500000920E-02 0.  1.
       -2   -1    0    0    0  501  0.00000000000E+00  0.00000000000E+00 -0.15402705323E+03  0.15402705325E+03  0.25500000920E-02 0. -1.
    10030    2    1    2    0    0  0.00000000000E+00  0.00000000000E+00  0.14983343748E+04  0.18063884813E+04  0.10089764351E+04 0.  0.
        1    1    3    3  502    0 -0.26612761257E+03 -0.22329369004E+03  0.14041015203E+04  0.14464387500E+04  0.50400001928E-02 0.  1.
       -1    1    3    3    0  502  0.26612761257E+03  0.22329369004E+03  0.94232854550E+02  0.35994973133E+03  0.50400001928E-02 0. -1.
</event>
<event>
 5   0  0.3608845E-03  0.9851954E+03  0.7818609E-02  0.9324933E-01
       -1   -1    0    0    0  501  0.00000000000E+00  0.00000000000E+00  0.26580317815E+03  0.26580317819E+03  0.50400001928E-02 0. -1.
        1   -1    0    0  501    0  0.00000000000E+00  0.00000000000E+00 -0.91290286914E+03  0.91290286915E+03  0.50400001928E-02 0.  1.
    10030    2    1    2    0    0  0.00000000000E+00  0.00000000000E+00 -0.64709969099E+03  0.11787060473E+04  0.98519537959E+03 0.  0.
        1    1    3    3  502    0  0.15501322706E+03 -0.38433135389E+03 -0.64214960474E+03  0.76426160773E+03  0.50400001928E-02 0.  1.
       -1    1    3    3    0  502 -0.15501322706E+03  0.38433135389E+03 -0.49500862485E+01  0.41444443962E+03  0.50400001928E-02 0. -1.
</event>
<event>
 5   0  0.6022787E-03  0.1016178E+04  0.7818609E-02  0.9290977E-01
       -2   -1    0    0    0  501  0.00000000000E+00  0.00000000000E+00  0.11084751360E+04  0.11084751360E+04  0.25500000920E-02 0.  1.
        2   -1    0    0  501    0  0.00000000000E+00  0.00000000000E+00 -0.23289139574E+03  0.23289139576E+03  0.25500000920E-02 0. -1.
    10030    2    1    2    0    0  0.00000000000E+00  0.00000000000E+00  0.87558374022E+03  0.13413665317E+04  0.10161777828E+04 0.  0.
        5    1    3    3  502    0 -0.94659286259E+02  0.10535272842E+03  0.10818610639E+04  0.10911026667E+04  0.46999998093E+01 0.  1.
       -5    1    3    3    0  502  0.94659286259E+02 -0.10535272842E+03 -0.20627732365E+03  0.25026386498E+03  0.46999998093E+01 0. -1.
</event>
<event>
 5   0  0.2417750E-03  0.9866158E+03  0.7818609E-02  0.9323347E-01
        3   -1    0    0  501    0  0.00000000000E+00  0.00000000000E+00  0.78566949659E+03  0.78566950308E+03  0.10100000352E+00 0.  1.
       -3   -1    0    0    0  501  0.00000000000E+00  0.00000000000E+00 -0.30973923806E+03  0.30973925452E+03  0.10100000352E+00 0. -1.
    10030    2    1    2    0    0  0.00000000000E+00  0.00000000000E+00  0.47593025853E+03  0.10954087576E+04  0.98661579921E+03 0.  0.
        4    1    3    3  502    0 -0.80065867400E+02 -0.36914246373E+03 -0.11431455759E+03  0.39464684546E+03  0.12699999809E+01 0. -1.
       -4    1    3    3    0  502  0.80065867400E+02  0.36914246373E+03  0.59024481613E+03  0.70076191215E+03  0.12699999809E+01 0.  1.
</event>
<event>
 5   0  0.6360455E-03  0.9881570E+03  0.7818609E-02  0.9321630E-01
       -2   -1    0    0    0  501  0.00000000000E+00  0.00000000000E+00  0.22796195042E+03  0.22796195043E+03  0.25500000920E-02 0.  1.
        2   -1    0    0  501    0  0.00000000000E+00  0.00000000000E+00 -0.10708521633E+04  0.10708521633E+04  0.25500000920E-02 0. -1.
    10030    2    1    2    0    0  0.00000000000E+00  0.00000000000E+00 -0.84289021287E+03  0.12988141137E+04  0.98815696681E+03 0.  0.
        4    1    3    3  502    0  0.23185953182E+02  0.65253432284E+02 -0.10644395721E+04  0.10666905898E+04  0.12699999809E+01 0. -1.
       -4    1    3    3    0  502 -0.23185953182E+02 -0.65253432284E+02  0.22154935926E+03  0.23212352388E+03  0.12699999809E+01 0.  1.
</event>
<event>
 5   0  0.6360455E-03  0.8921685E+03  0.7818609E-02  0.9435424E-01
       -2   -1    0    0    0  501  0.00000000000E+00  0.00000000000E+00  0.29704004625E+03  0.29704004626E+03  0.25500000920E-02 0.  1.
        2   -1    0    0  501    0  0.00000000000E+00  0.00000000000E+00 -0.66991357217E+03  0.66991357218E+03  0.25500000920E-02 0. -1.
    10030    2    1    2    0    0  0.00000000000E+00  0.00000000000E+00 -0.37287352592E+03  0.96695361844E+03  0.89216850084E+03 0.  0.
        4    1    3    3  502    0 -0.35777428694E+03 -0.26467333674E+03 -0.15329353906E+03  0.47069622645E+03  0.12699999809E+01 0. -1.
       -4    1    3    3    0  502  0.35777428694E+03  0.26467333674E+03 -0.21957998686E+03  0.49625739199E+03  0.12699999809E+01 0.  1.
</event>
<event>
 5   0  0.3643002E-03  0.1057913E+04  0.7818609E-02  0.9247212E-01
        1   -1    0    0  501    0  0.00000000000E+00  0.00000000000E+00  0.16327351656E+04  0.16327351656E+04  0.50400001928E-02 0. -1.
       -1   -1    0    0    0  501  0.00000000000E+00  0.00000000000E+00 -0.17136578738E+03  0.17136578746E+03  0.50400001928E-02 0.  1.
    10030    2    1    2    0    0  0.00000000000E+00  0.00000000000E+00  0.14613693782E+04  0.18041009531E+04  0.10579129403E+04 0.  0.
        2    1    3    3  502    0 -0.28916691324E+01  0.37112692260E+03  0.13734222122E+04  0.14226848306E+04  0.25500000920E-02 0. -1.
       -2    1    3    3    0  502  0.28916691324E+01 -0.37112692260E+03  0.87947166043E+02  0.38141612243E+03  0.25500000920E-02 0.  1.
</event>
<event>
 5   0  0.3608845E-03  0.9943856E+03  0.7818609E-02  0.9314724E-01
        1   -1    0    0  501    0  0.00000000000E+00  0.00000000000E+00  0.87852166954E+03  0.87852166955E+03  0.50400001928E-02 0. -1.
       -1   -1    0    0    0  501  0.00000000000E+00  0.00000000000E+00 -0.28138256752E+03  0.28138256756E+03  0.50400001928E-02 0.  1.
    10030    2    1    2    0    0  0.00000000000E+00  0.00000000000E+00  0.59713910202E+03  0.11599042371E+04  0.99438560534E+03 0.  0.
        1    1    3    3  502    0 -0.26523860805E+03  0.86165164955E+02 -0.18155697971E+03  0.33277453593E+03  0.50400001928E-02 0.  1.
       -1    1    3    3    0  502  0.26523860805E+03 -0.86165164955E+02  0.77869608173E+03  0.82712970119E+03  0.50400001928E-02 0. -1.
</event>
<event>
 5   0  0.3640180E-03  0.8157923E+03  0.7818609E-02  0.9537436E-01
       -1   -1    0    0    0  501  0.00000000000E+00  0.00000000000E+00  0.10239539288E+03  0.10239539300E+03  0.50400001928E-02 0.  1.
        1   -1    0    0  501    0  0.00000000000E+00  0.00000000000E+00 -0.16248707994E+04  0.16248707994E+04  0.50400001928E-02 0. -1.
    10030    2    1    2    0    0  0.00000000000E+00  0.00000000000E+00 -0.15224754065E+04  0.17272661924E+04  0.81579233630E+03 0.  0.
        5    1    3    3  502    0  0.91766133772E+02 -0.12030597627E+02  0.79811424976E+02  0.12230172583E+03  0.46999998093E+01 0.  1.
       -5    1    3    3    0  502 -0.91766133772E+02  0.12030597627E+02 -0.16022868315E+04  0.16049644666E+04  0.46999998093E+01 0. -1.
</event>
<event>
 5   0  0.6360455E-03  0.9918061E+03  0.7818609E-02  0.9317578E-01
       -2   -1    0    0    0  501  0.00000000000E+00  0.00000000000E+00  0.29946443205E+03  0.29946443206E+03  0.25500000920E-02 0. -1.
        2   -1    0    0  501    0  0.00000000000E+00  0.00000000000E+00 -0.82119886802E+03  0.82119886802E+03  0.25500000920E-02 0.  1.
    10030    2    1    2    0    0  0.00000000000E+00  0.00000000000E+00 -0.52173443597E+03  0.11206633001E+04  0.99180613553E+03 0.  0.
        4    1    3    3  502    0 -0.76005378186E+02  0.33747543663E+03 -0.66235013018E+03  0.74724547217E+03  0.12699999809E+01 0.  1.
       -4    1    3    3    0  502  0.76005378186E+02 -0.33747543663E+03  0.14061569420E+03  0.37341782791E+03  0.12699999809E+01 0. -1.
</event>
<event>
 5   0  0.6022787E-03  0.9992331E+03  0.7818609E-02  0.9309386E-01
        2   -1    0    0  501    0  0.00000000000E+00  0.00000000000E+00  0.16721112231E+04  0.16721112231E+04  0.25500000920E-02 0. -1.
       -2   -1    0    0    0  501  0.00000000000E+00  0.00000000000E+00 -0.14928234471E+03  0.14928234473E+03  0.25500000920E-02 0.  1.
    10030    2    1    2    0    0  0.00000000000E+00  0.00000000000E+00  0.15228288784E+04  0.18213935678E+04  0.99923307396E+03 0.  0.
        5    1    3    3  502    0 -0.40812109444E+03 -0.32884933767E+02  0.23960443926E+03  0.47442241084E+03  0.46999998093E+01 0.  1.
       -5    1    3    3    0  502  0.40812109444E+03  0.32884933767E+02  0.12832244391E+04  0.13469711570E+04  0.46999998093E+01 0. -1.
</event>
<event>
 5   0  0.6606947E-03  0.9859696E+03  0.7818609E-02  0.9324068E-01
       -2   -1    0    0    0  501  0.00000000000E+00  0.00000000000E+00  0.10267690893E+04  0.10267690893E+04  0.25500000920E-02 0. -1.
        2   -1    0    0  501    0  0.00000000000E+00  0.00000000000E+00 -0.23669784568E+03  0.23669784570E+03  0.25500000920E-02 0.  1.
    10030    2    1    2    0    0  0.00000000000E+00  0.00000000000E+00  0.79007124366E+03  0.12634669350E+04  0.98596963740E+03 0.  0.
        1    1    3    3  502    0  0.10525427247E+03 -0.84766317689E+02 -0.21249719960E+03  0.25183099561E+03  0.50400001928E-02 0.  1.
       -1    1    3    3    0  502 -0.10525427247E+03  0.84766317689E+02  0.10025684433E+04  0.10116359394E+04  0.50400001928E-02 0. -1.
</event>
<event>
 5   0  0.6606947E-03  0.1039208E+04  0.7818609E-02  0.9266558E-01
       -2   -1    0    0    0  501  0.00000000000E+00  0.00000000000E+00  0.75125842437E+03  0.75125842437E+03  0.25500000920E-02 0. -1.
        2   -1    0    0  501    0  0.00000000000E+00  0.00000000000E+00 -0.35938108713E+03  0.35938108713E+03  0.25500000920E-02 0.  1.
    10030    2    1    2    0    0  0.00000000000E+00  0.00000000000E+00  0.39187733724E+03  0.11106395115E+04  0.10392075236E+04 0.  0.
        1    1    3    3  502    0  0.16960052267E+02 -0.16369526073E+03  0.72266912136E+03  0.74117099292E+03  0.50400001928E-02 0. -1.
       -1    1    3    3    0  502 -0.16960052267E+02  0.16369526073E+03 -0.33079178412E+03  0.36946851858E+03  0.50400001928E-02 0.  1.
</event>
<event>
 5   0  0.3640180E-03  0.9422260E+03  0.7818609E-02  0.9374284E-01
        1   -1    0    0  501    0  0.00000000000E+00  0.00000000000E+00  0.63453130844E+03  0.63453130846E+03  0.50400001928E-02 0.  1.
       -1   -1    0    0    0  501  0.00000000000E+00  0.00000000000E+00 -0.34978173004E+03  0.34978173007E+03  0.50400001928E-02 0. -1.
    10030    2    1    2    0    0  0.00000000000E+00  0.00000000000E+00  0.28474957841E+03  0.98431303854E+03  0.94222600019E+03 0.  0.
        5    1    3    3  502    0 -0.94265373100E+02 -0.46123490721E+03  0.16052222312E+03  0.49740634727E+03  0.46999998093E+01 0.  1.
       -5    1    3    3    0  502  0.94265373100E+02  0.46123490721E+03  0.12422735529E+03  0.48690669126E+03  0.46999998093E+01 0. -1.
</event>
<event>
 5   0  0.3640180E-03  0.9699881E+03  0.7818609E-02  0.9342088E-01
        1   -1    0    0  501    0  0.00000000000E+00  0.00000000000E+00  0.11705005082E+04  0.11705005083E+04  0.50400001928E-02 0. -1.
       -1   -1    0    0    0  501  0.00000000000E+00  0.00000000000E+00 -0.20095609135E+03  0.20095609141E+03  0.50400001928E-02 0.  1.
    10030    2    1    2    0    0  0.00000000000E+00  0.00000000000E+00  0.96954441690E+03  0.13714565997E+04  0.96998805583E+03 0.  0.
        5    1    3    3  502    0 -0.24349139758E+03 -0.23588188764E+02  0.10768405692E+04  0.11042880805E+04  0.46999998093E+01 0. -1.
       -5    1    3    3    0  502  0.24349139758E+03  0.23588188764E+02 -0.10729615227E+03  0.26716851917E+03  0.46999998093E+01 0.  1.
</event>
<event>
 5   0  0.6360455E-03  0.1013214E+04  0.7818609E-02  0.9294169E-01
       -2   -1    0    0    0  501  0.00000000000E+00  0.00000000000E+00  0.30966137935E+03  0.30966137936E+03  0.25500000920E-02 0.  1.
        2   -1    0    0  501    0  0.00000000000E+00  0.00000000000E+00 -0.82881128765E+03  0.82881128765E+03  0.25500000920E-02 0. -1.
    10030    2    1    2    0    0  0.00000000000E+00  0.00000000000E+00 -0.51914990830E+03  0.11384726670E+04  0.10132143832E+04 0.  0.
        4    1    3    3  502    0 -0.56221925250E+01  0.45700396631E+03 -0.14004479084E+02  0.45725482240E+03  0.12699999809E+01 0.  1.
       -4    1    3    3    0  502  0.56221925250E+01 -0.45700396631E+03 -0.50514542921E+03  0.68121784462E+03  0.12699999809E+01 0. -1.
</event>
<event>
 5   0  0.3569359E-03  0.9910786E+03  0.7818609E-02  0.9318384E-01
        1   -1    0    0  501    0  0.00000000000E+00  0.00000000000E+00  0.15801271643E+04  0.15801271643E+04  0.50400001928E-02 0. -1.
       -1   -1    0    0    0  501  0.00000000000E+00  0.00000000000E+00 -0.15540471591E+03  0.15540471599E+03  0.50400001928E-02 0.  1.
    10030    2    1    2    0    0  0.00000000000E+00  0.00000000000E+00  0.14247224484E+04  0.17355318803E+04  0.99107863087E+03 0.  0.
        4    1    3    3  502    0  0.40644250758E+03 -0.27299219219E+03  0.57856853038E+03  0.75793364235E+03  0.12699999809E+01 0.  1.
       -4    1    3    3    0  502 -0.40644250758E+03  0.27299219219E+03  0.84615391802E+03  0.97759823795E+03  0.12699999809E+01 0. -1.
</event>
<event>
 5   0  0.6360455E-03  0.1005394E+04  0.7818609E-02  0.9302649E-01
       -2   -1    0    0    0  501  0.00000000000E+00  0.00000000000E+00  0.27187247015E+03  0.27187247016E+03  0.25500000920E-02 0. -1.
        2   -1    0    0  501    0  0.00000000000E+00  0.00000000000E+00 -0.92949533371E+03  0.92949533372E+03  0.25500000920E-02 0.  1.
    10030    2    1    2    0    0  0.00000000000E+00  0.00000000000E+00 -0.65762286356E+03  0.12013678039E+04  0.10053938380E+04 0.  0.
        4    1    3    3  502    0 -0.47675270792E+03  0.71388697278E+02 -0.49911657116E+03  0.69390810279E+03  0.12699999809E+01 0. -1.
       -4    1    3    3    0  502  0.47675270792E+03 -0.71388697278E+02 -0.15850629240E+03  0.50745970109E+03  0.12699999809E+01 0.  1.
</event>
<event>
 5   0  0.3466598E-03  0.9881500E+03  0.7818609E-02  0.9321638E-01
       -1   -1    0    0    0  501  0.00000000000E+00  0.00000000000E+00  0.62359422892E+03  0.62359422894E+03  0.50400001928E-02 0.  1.
        1   -1    0    0  501    0  0.00000000000E+00  0.00000000000E+00 -0.39145661344E+03  0.39145661347E+03  0.50400001928E-02 0. -1.
    10030    2    1    2    0    0  0.00000000000E+00  0.00000000000E+00  0.23213761549E+03  0.10150508424E+04  0.98814995833E+03 0.  0.
        3    1    3    3  502    0  0.42982462339E+03  0.39298701389E+02 -0.13092767168E+03  0.45103842433E+03  0.10100000352E+00 0. -1.
       -3    1    3    3    0  502 -0.42982462339E+03 -0.39298701389E+02  0.36306528717E+03  0.56401241808E+03  0.10100000352E+00 0.  1.
</event>
<event>
 5   0  0.3569359E-03  0.1005992E+04  0.7818609E-02  0.9301997E-01
       -1   -1    0    0    0  501  0.00000000000E+00  0.00000000000E+00  0.12424842734E+04  0.12424842734E+04  0.50400001928E-02 0.  1.
        1   -1    0    0  501    0  0.00000000000E+00  0.00000000000E+00 -0.20362826064E+03  0.20362826070E+03  0.50400001928E-02 0. -1.
    10030    2    1    2    0    0  0.00000000000E+00  0.00000000000E+00  0.10388560127E+04  0.14461125341E+04  0.10059918718E+04 0.  0.
        4    1    3    3  502    0  0.27740955507E+03 -0.31311336942E+02  0.11208919008E+04  0.11551349389E+04  0.12699999809E+01 0.  1.
       -4    1    3    3    0  502 -0.27740955507E+03  0.31311336942E+02 -0.82035888004E+02  0.29097759516E+03  0.12699999809E+01 0. -1.
</event>
<event>
 5   0  0.3643002E-03  0.1019549E+04  0.7818609E-02  0.9287360E-01
        1   -1    0    0  501    0  0.00000000000E+00  0.00000000000E+00  0.72181205973E+03  0.72181205975E+03  0.50400001928E-02 0.  1.
       -1   -1    0    0    0  501  0.00000000000E+00  0.00000000000E+00 -0.36002470807E+03  0.36002470811E+03  0.50400001928E-02 0. -1.
    10030    2    1    2    0    0  0.00000000000E+00  0.00000000000E+00  0.36178735166E+03  0.10818367679E+04  0.10195492653E+04 0.  0.
        2    1    3    3  502    0 -0.17466900983E+03 -0.17966048639E+03 -0.29016838614E+03  0.38338602699E+03  0.25500000920E-02 0. -1.
       -2    1    3    3    0  502  0.17466900983E+03  0.17966048639E+03  0.65195573780E+03  0.69845074087E+03  0.25500000920E-02 0.  1.
</event>
<event>
 5   0  0.6606947E-03  0.9890711E+03  0.7818609E-02  0.9320613E-01
        2   -1    0    0  501    0  0.00000000000E+00  0.00000000000E+00  0.10912213638E+04  0.10912213638E+04  0.25500000920E-02 0.  1.
       -2   -1    0    0    0  501  0.00000000000E+00  0.00000000000E+00 -0.22412082668E+03  0.22412082670E+03  0.25500000920E-02 0. -1.
    10030    2    1    2    0    0  0.00000000000E+00  0.00000000000E+00  0.86710053713E+03  0.13153421905E+04  0.98907114842E+03 0.  0.
        1    1    3    3  502    0  0.12054437530E+03  0.24921067259E+03  0.97852135110E+03  0.10169272050E+04  0.50400001928E-02 0.  1.
       -1    1    3    3    0  502 -0.12054437530E+03 -0.24921067259E+03 -0.11142081397E+03  0.29841498548E+03  0.50400001928E-02 0. -1.
</event>
<event>
 5   0  0.3608845E-03  0.1000124E+04  0.7818609E-02  0.9308409E-01
        1   -1    0    0  501    0  0.00000000000E+00  0.00000000000E+00  0.31591538511E+03  0.31591538515E+03  0.50400001928E-02 0. -1.
       -1   -1    0    0    0  501  0.00000000000E+00  0.00000000000E+00 -0.79154690722E+03  0.79154690724E+03  0.50400001928E-02 0.  1.
    10030    2    1    2    0    0  0.00000000000E+00  0.00000000000E+00 -0.47563152211E+03  0.11074622924E+04  0.10001236845E+04 0.  0.
        1    1    3    3  502    0  0.43524292595E+03  0.62235288626E+02  0.25979279286E+02  0.44043678175E+03  0.50400001928E-02 0. -1.
       -1    1    3    3    0  502 -0.43524292595E+03 -0.62235288626E+02 -0.50161080140E+03  0.66702551064E+03  0.50400001928E-02 0.  1.
</event>
<event>
 5   0  0.6376961E-03  0.1019064E+04  0.7818609E-02  0.9287880E-01
       -2   -1    0    0    0  501  0.00000000000E+00  0.00000000000E+00  0.53212767491E+03  0.53212767492E+03  0.25500000920E-02 0. -1.
        2   -1    0    0  501    0  0.00000000000E+00  0.00000000000E+00 -0.48789566251E+03  0.48789566251E+03  0.25500000920E-02 0.  1.
    10030    2    1    2    0    0  0.00000000000E+00  0.00000000000E+00  0.44232012404E+02  0.10200233374E+04  0.10190638537E+04 0.  0.
        3    1    3    3  502    0 -0.36353956631E+03 -0.15631607742E+03 -0.29916446365E+03  0.49607975049E+03  0.10100000352E+00 0.  1.
       -3    1    3    3    0  502  0.36353956631E+03  0.15631607742E+03  0.34339647605E+03  0.52394358694E+03  0.10100000352E+00 0. -1.
</event>
<event>
 5   0  0.6199539E-03  0.1002004E+04  0.7818609E-02  0.9306350E-01
        2   -1    0    0  501    0  0.00000000000E+00  0.00000000000E+00  0.55294273214E+03  0.55294273214E+03  0.25500000920E-02 0. -1.
       -2   -1    0    0    0  501  0.00000000000E+00  0.00000000000E+00 -0.45394022152E+03  0.45394022153E+03  0.25500000920E-02 0.  1.
    10030    2    1    2    0    0  0.00000000000E+00  0.00000000000E+00  0.99002510616E+02  0.10068829537E+04  0.10020038849E+04 0.  0.
        2    1    3    3  502    0  0.30126533802E+03  0.55305282378E+01 -0.35271211368E+03  0.46389355005E+03  0.25500000920E-02 0.  1.
       -2    1    3    3    0  502 -0.30126533802E+03 -0.55305282378E+01  0.45171462430E+03  0.54298940362E+03  0.25500000920E-02 0. -1.
</event>
<event>
 5   0  0.6360455E-03  0.9924261E+03  0.7818609E-02  0.9316891E-01
       -2   -1    0    0    0  501  0.00000000000E+00  0.00000000000E+00  0.41306507201E+03  0.41306507202E+03  0.25500000920E-02 0.  1.
        2   -1    0    0  501    0  0.00000000000E+00  0.00000000000E+00 -0.59609828406E+03  0.59609828407E+03  0.25500000920E-02 0. -1.
    10030    2    1    2    0    0  0.00000000000E+00  0.00000000000E+00 -0.18303321205E+03  0.10091633561E+04  0.99242607914E+03 0.  0.
        4    1    3    3  502    0 -0.27350805855E+03 -0.38835924440E+03 -0.23745075423E+03  0.53104993587E+03  0.12699999809E+01 0. -1.
       -4    1    3    3    0  502  0.27350805855E+03  0.38835924440E+03  0.54417542173E+02  0.47811342022E+03  0.12699999809E+01 0.  1.
</event>
<event>
 5   0  0.3643002E-03  0.1008940E+04  0.7818609E-02  0.9298793E-01
       -1   -1    0    0    0  501  0.00000000000E+00  0.00000000000E+00  0.46880227844E+03  0.46880227847E+03  0.50400001928E-02 0.  1.
        1   -1    0    0  501    0  0.00000000000E+00  0.00000000000E+00 -0.54285162311E+03  0.54285162313E+03  0.50400001928E-02 0. -1.
    10030    2    1    2    0    0  0.00000000000E+00  0.00000000000E+00 -0.74049344669E+02  0.10116539016E+04  0.10089401921E+04 0.  0.
        2    1    3    3  502    0 -0.34631857878E+03 -0.24833537098E+03  0.23367008634E+03  0.48601309010E+03  0.25500000920E-02 0.  1.
       -2    1    3    3    0  502  0.34631857878E+03  0.24833537098E+03 -0.30771943101E+03  0.52564081150E+03  0.25500000920E-02 0. -1.
</event>
<event>
 5   0  0.3608845E-03  0.1008397E+04  0.7818609E-02  0.9299383E-01
       -1   -1    0    0    0  501  0.00000000000E+00  0.00000000000E+00  0.47795217329E+03  0.47795217332E+03  0.50400001928E-02 0.  1.
        1   -1    0    0  501    0  0.00000000000E+00  0.00000000000E+00 -0.53188620952E+03  0.53188620954E+03  0.50400001928E-02 0. -1.
    10030    2    1    2    0    0  0.00000000000E+00  0.00000000000E+00 -0.53934036230E+02  0.10098383829E+04  0.10083970841E+04 0.  0.
        1    1    3    3  502    0  0.11141178476E+03  0.25431970413E+03  0.39449681491E+03  0.48240940568E+03  0.50400001928E-02 0.  1.
       -1    1    3    3    0  502 -0.11141178476E+03 -0.25431970413E+03 -0.44843085114E+03  0.52742897718E+03  0.50400001928E-02 0. -1.
</event>
<event>
 5   0  0.6360455E-03  0.1003316E+04  0.7818609E-02  0.9304915E-01
        2   -1    0    0  501    0  0.00000000000E+00  0.00000000000E+00  0.11890657156E+04  0.11890657156E+04  0.25500000920E-02 0.  1.
       -2   -1    0    0    0  501  0.00000000000E+00  0.00000000000E+00 -0.21164578860E+03  0.21164578861E+03  0.25500000920E-02 0. -1.
    10030    2    1    2    0    0  0.00000000000E+00  0.00000000000E+00  0.97741992696E+03  0.14007115042E+04  0.10033160042E+04 0.  0.
        4    1    3    3  502    0 -0.21670524265E+03 -0.18704798224E+03 -0.86419991859E+02  0.29902865706E+03  0.12699999809E+01 0. -1.
       -4    1    3    3    0  502  0.21670524265E+03  0.18704798224E+03  0.10638399188E+04  0.11016828471E+04  0.12699999809E+01 0.  1.
</event>
<event>
 5   0  0.6022787E-03  0.9918330E+03  0.7818609E-02  0.9317548E-01
       -2   -1    0    0    0  501  0.00000000000E+00  0.00000000000E+00  0.14298949135E+03  0.14298949137E+03  0.25500000920E-02 0. -1.
        2   -1    0    0  501    0  0.00000000000E+00  0.00000000000E+00 -0.17199387553E+04  0.17199387553E+04  0.25500000920E-02 0.  1.
    10030    2    1    2    0    0  0.00000000000E+00  0.00000000000E+00 -0.15769492639E+04  0.18629282466E+04  0.99183298551E+03 0.  0.
        5    1    3    3  502    0 -0.21436601322E+03 -0.51005592300E+02  0.45943128120E+02  0.22513822218E+03  0.46999998093E+01 0. -1.
       -5    1    3    3    0  502  0.21436601322E+03  0.51005592300E+02 -0.16228923920E+04  0.16377900245E+04  0.46999998093E+01 0.  1.
</event>
<event>
 5   0  0.3643002E-03  0.1007796E+04  0.7818609E-02  0.9300036E-01
       -1   -1    0    0    0  501  0.00000000000E+00  0.00000000000E+00  0.64139774699E+03  0.64139774701E+03  0.50400001928E-02 0.  1.
        1   -1    0    0  501    0  0.00000000000E+00  0.00000000000E+00 -0.39587456607E+03  0.39587456610E+03  0.50400001928E-02 0. -1.
    10030    2    1    2    0    0  0.00000000000E+00  0.00000000000E+00  0.24552318092E+03  0.10372723131E+04  0.10077957229E+04 0.  0.
        2    1    3    3  502    0  0.25509623297E+03 -0.35118983917E+01 -0.32449000646E+03  0.41277134809E+03  0.25500000920E-02 0. -1.
       -2    1    3    3    0  502 -0.25509623297E+03  0.35118983917E+01  0.57001318738E+03  0.62450096501E+03  0.25500000920E-02 0.  1.
</event>
<event>
 5   0  0.2417750E-03  0.1007024E+04  0.7818609E-02  0.9300875E-01
       -3   -1    0    0    0  501  0.00000000000E+00  0.00000000000E+00  0.28324697301E+03  0.28324699101E+03  0.10100000352E+00 0.  1.
        3   -1    0    0  501    0  0.00000000000E+00  0.00000000000E+00 -0.89506433319E+03  0.89506433889E+03  0.10100000352E+00 0. -1.
    10030    2    1    2    0    0  0.00000000000E+00  0.00000000000E+00 -0.61181736018E+03  0.11783113299E+04  0.10070238865E+04 0.  0.
        1    1    3    3  502    0  0.18666945097E+03  0.22707776901E+03 -0.78423835231E+03  0.83751990446E+03  0.50400001928E-02 0. -1.
       -1    1    3    3    0  502 -0.18666945097E+03 -0.22707776901E+03  0.17242099213E+03  0.34079142544E+03  0.50400001928E-02 0.  1.
</event>
<event>
 5   0  0.3466598E-03  0.9372887E+03  0.7818609E-02  0.9380133E-01
        1   -1    0    0  501    0  0.00000000000E+00  0.00000000000E+00  0.78127131757E+03  0.78127131759E+03  0.50400001928E-02 0.  1.
       -1   -1    0    0    0  501  0.00000000000E+00  0.00000000000E+00 -0.28111555002E+03  0.28111555006E+03  0.50400001928E-02 0. -1.
    10030    2    1    2    0    0  0.00000000000E+00  0.00000000000E+00  0.50015576755E+03  0.10623868677E+04  0.93728867738E+03 0.  0.
        3    1    3    3  502    0  0.14755036931E+03 -0.38976013646E+03  0.49303019399E+03  0.64557172943E+03  0.10100000352E+00 0.  1.
       -3    1    3    3    0  502 -0.14755036931E+03  0.38976013646E+03  0.71255735683E+01  0.41681513822E+03  0.10100000352E+00 0. -1.
</event>
<event>
 5   0  0.6199539E-03  0.1002500E+04  0.7818609E-02  0.9305807E-01
       -2   -1    0    0    0  501  0.00000000000E+00  0.00000000000E+00  0.45246659264E+03  0.45246659265E+03  0.25500000920E-02 0.  1.
        2   -1    0    0  501    0  0.00000000000E+00  0.00000000000E+00 -0.55529286018E+03  0.55529286019E+03  0.25500000920E-02 0. -1.
    10030    2    1    2    0    0  0.00000000000E+00  0.00000000000E+00 -0.10282626754E+03  0.10077594528E+04  0.10024998122E+04 0.  0.
        2    1    3    3  502    0 -0.47248791184E+03 -0.15330244879E+03  0.16058311533E+02  0.49699530884E+03  0.25500000920E-02 0.  1.
       -2    1    3    3    0  502  0.47248791184E+03  0.15330244879E+03 -0.11888457908E+03  0.51076414399E+03  0.25500000920E-02 0. -1.
</event>
<event>
 5   0  0.6360455E-03  0.9857279E+03  0.7818609E-02  0.9324338E-01
        2   -1    0    0  501    0  0.00000000000E+00  0.00000000000E+00  0.18014647882E+04  0.18014647882E+04  0.25500000920E-02 0. -1.
       -2   -1    0    0    0  501  0.00000000000E+00  0.00000000000E+00 -0.13484296271E+03  0.13484296273E+03  0.25500000920E-02 0.  1.
    10030    2    1    2    0    0  0.00000000000E+00  0.00000000000E+00  0.16666218255E+04  0.19363077510E+04  0.98572785145E+03 0.  0.
        4    1    3    3  502    0  0.36907493640E+03  0.13958769004E+03  0.14134150844E+04  0.14674620423E+04  0.12699999809E+01 0. -1.
       -4    1    3    3    0  502 -0.36907493640E+03 -0.13958769004E+03  0.25320674116E+03  0.46884570869E+03  0.12699999809E+01 0.  1.
</event>
<event>
 5   0  0.3608845E-03  0.8744825E+03  0.7818609E-02  0.9458054E-01
        1   -1    0    0  501    0  0.00000000000E+00  0.00000000000E+00  0.67320184449E+03  0.67320184451E+03  0.50400001928E-02 0. -1.
       -1   -1    0    0    0  501  0.00000000000E+00  0.00000000000E+00 -0.28398604186E+03  0.28398604191E+03  0.50400001928E-02 0.  1.
    10030    2    1    2    0    0  0.00000000000E+00  0.00000000000E+00  0.38921580263E+03  0.95718788642E+03  0.87448253778E+03 0.  0.
        1    1    3    3  502    0  0.42782162341E+03  0.64609501615E+02  0.12560445139E+03  0.45053546741E+03  0.50400001928E-02 0.  1.
       -1    1    3    3    0  502 -0.42782162341E+03 -0.64609501615E+02  0.26361135123E+03  0.50665241901E+03  0.50400001928E-02 0. -1.
</event>
<event>
 5   0  0.3608845E-03  0.9963253E+03  0.7818609E-02  0.9312584E-01
       -1   -1    0    0    0  501  0.00000000000E+00  0.00000000000E+00  0.73103407241E+03  0.73103407243E+03  0.50400001928E-02 0.  1.
        1   -1    0    0  501    0  0.00000000000E+00  0.00000000000E+00 -0.33947261612E+03  0.33947261616E+03  0.50400001928E-02 0. -1.
    10030    2    1    2    0    0  0.00000000000E+00  0.00000000000E+00  0.39156145629E+03  0.10705066886E+04  0.99632534659E+03 0.  0.
        1    1    3    3  502    0 -0.45592059277E+03 -0.19412325876E+03  0.14079820612E+03  0.51514227294E+03  0.50400001928E-02 0. -1.
       -1    1    3    3    0  502  0.45592059277E+03  0.19412325876E+03  0.25076325017E+03  0.55536441564E+03  0.50400001928E-02 0.  1.
</event>
<event>
 5   0  0.6376961E-03  0.1005837E+04  0.7818609E-02  0.9302166E-01
       -2   -1    0    0    0  501  0.00000000000E+00  0.00000000000E+00  0.12393416034E+03  0.12393416036E+03  0.25500000920E-02 0.  1.
        2   -1    0    0  501    0  0.00000000000E+00  0.00000000000E+00 -0.20408163388E+04  0.20408163388E+04  0.25500000920E-02 0. -1.
    10030    2    1    2    0    0  0.00000000000E+00  0.00000000000E+00 -0.19168821785E+04  0.21647504992E+04  0.10058366853E+04 0.  0.
        3    1    3    3  502    0 -0.13863891564E+03  0.20232512706E+03 -0.19033736741E+04  0.19191111378E+04  0.10100000352E+00 0. -1.
       -3    1    3    3    0  502  0.13863891564E+03 -0.20232512706E+03 -0.13508504432E+02  0.24563936138E+03  0.10100000352E+00 0.  1.
</event>
<event>
 5   0  0.3569359E-03  0.9997469E+03  0.7818609E-02  0.9308822E-01
       -1   -1    0    0    0  501  0.00000000000E+00  0.00000000000E+00  0.46598033295E+03  0.46598033297E+03  0.50400001928E-02 0. -1.
        1   -1    0    0  501    0  0.00000000000E+00  0.00000000000E+00 -0.53623182422E+03  0.53623182424E+03  0.50400001928E-02 0.  1.
    10030    2    1    2    0    0  0.00000000000E+00  0.00000000000E+00 -0.70251491271E+02  0.10022121572E+04  0.99974693600E+03 0.  0.
        4    1    3    3  502    0 -0.40970029334E+02  0.34985455666E+03 -0.39067639526E+03  0.52602890875E+03  0.12699999809E+01 0.  1.
       -4    1    3    3    0  502  0.40970029334E+02 -0.34985455666E+03  0.32042490399E+03  0.47618324847E+03  0.12699999809E+01 0. -1.
</event>
<event>
 5   0  0.3608845E-03  0.1002536E+04  0.7818609E-02  0.9305768E-01
       -1   -1    0    0    0  501  0.00000000000E+00  0.00000000000E+00  0.50966639569E+03  0.50966639572E+03  0.50400001928E-02 0.  1.
        1   -1    0    0  501    0  0.00000000000E+00  0.00000000000E+00 -0.49300781668E+03  0.49300781671E+03  0.50400001928E-02 0. -1.
    10030    2    1    2    0    0  0.00000000000E+00  0.00000000000E+00  0.16658579009E+02  0.10026742124E+04  0.10025358188E+04 0.  0.
        1    1    3    3  502    0 -0.13697762336E+03  0.11081447900E+03 -0.46101877419E+03  0.49353928743E+03  0.50400001928E-02 0. -1.
       -1    1    3    3    0  502  0.13697762336E+03 -0.11081447900E+03  0.47767735320E+03  0.50913492499E+03  0.50400001928E-02 0.  1.
</event>
<event>
 5   0  0.2417750E-03  0.1100047E+04  0.7818609E-02  0.9205146E-01
       -3   -1    0    0    0  501  0.00000000000E+00  0.00000000000E+00  0.10583383305E+04  0.10583383353E+04  0.10100000352E+00 0. -1.
        3   -1    0    0  501    0  0.00000000000E+00  0.00000000000E+00 -0.28584993330E+03  0.28584995115E+03  0.10100000352E+00 0.  1.
    10030    2    1    2    0    0  0.00000000000E+00  0.00000000000E+00  0.77248839717E+03  0.13441882864E+04  0.11000471925E+04 0.  0.
        3    1    3    3  502    0  0.53942960871E+03  0.66820810716E+02  0.48903678900E+03  0.73116777466E+03  0.10100000352E+00 0.  1.
       -3    1    3    3    0  502 -0.53942960871E+03 -0.66820810716E+02  0.28345160817E+03  0.61302051179E+03  0.10100000352E+00 0. -1.
</event>
<event>
 5   0  0.3608845E-03  0.9840408E+03  0.7818609E-02  0.9326224E-01
       -1   -1    0    0    0  501  0.00000000000E+00  0.00000000000E+00  0.17076116845E+03  0.17076116852E+03  0.50400001928E-02 0. -1.
        1   -1    0    0  501    0  0.00000000000E+00  0.00000000000E+00 -0.14176764099E+04  0.14176764099E+04  0.50400001928E-02 0.  1.
    10030    2    1    2    0    0  0.00000000000E+00  0.00000000000E+00 -0.12469152415E+04  0.15884375785E+04  0.98404081279E+03 0.  0.
        1    1    3    3  502    0 -0.22936224640E+03  0.23662144584E+02  0.78147461835E+02  0.24346244675E+03  0.50400001928E-02 0. -1.
       -1    1    3    3    0  502  0.22936224640E+03 -0.23662144584E+02 -0.13250627033E+04  0.13449751317E+04  0.50400001928E-02 0.  1.
</event>
<event>
 5   0  0.3466598E-03  0.9991048E+03  0.7818609E-02  0.9309527E-01
       -1   -1    0    0    0  501  0.00000000000E+00  0.00000000000E+00  0.34606798505E+03  0.34606798508E+03  0.50400001928E-02 0.  1.
        1   -1    0    0  501    0  0.00000000000E+00  0.00000000000E+00 -0.72110860781E+03  0.72110860783E+03  0.50400001928E-02 0. -1.
    10030    2    1    2    0    0  0.00000000000E+00  0.00000000000E+00 -0.37504062276E+03  0.10671765929E+04  0.99910480518E+03 0.  0.
        3    1    3    3  502    0  0.17954143216E+03 -0.26363227784E+03  0.22314234819E+03  0.38926805872E+03  0.10100000352E+00 0.  1.
       -3    1    3    3    0  502 -0.17954143216E+03  0.26363227784E+03 -0.59818297095E+03  0.67790853419E+03  0.10100000352E+00 0. -1.
</event>
<event>
 5   0  0.2417750E-03  0.9953825E+03  0.7818609E-02  0.9313624E-01
        4   -1    0    0  501    0  0.00000000000E+00  0.00000000000E+00  0.32308404005E+03  0.32308653614E+03  0.12699999809E+01 0.  1.
       -4   -1    0    0    0  501  0.00000000000E+00  0.00000000000E+00 -0.76665696874E+03  0.76665802064E+03  0.12699999809E+01 0. -1.
    10030    2    1    2    0    0  0.00000000000E+00  0.00000000000E+00 -0.44357292869E+03  0.10897445568E+04  0.99538246719E+03 0.  0.
        2    1    3    3  502    0  0.35521101184E+03  0.26908142148E+03  0.20846693368E+02  0.44611014217E+03  0.25500000920E-02 0.  1.
       -2    1    3    3    0  502 -0.35521101184E+03 -0.26908142148E+03 -0.46441962205E+03  0.64363441461E+03  0.25500000920E-02 0. -1.
</event>
<event>
 5   0  0.3569359E-03  0.1010238E+04  0.7818609E-02  0.9297387E-01
       -1   -1    0    0    0  501  0.00000000000E+00  0.00000000000E+00  0.53933576797E+03  0.53933576800E+03  0.50400001928E-02 0.  1.
        1   -1    0    0  501    0  0.00000000000E+00  0.00000000000E+00 -0.47307316390E+03  0.47307316393E+03  0.50400001928E-02 0. -1.
    10030    2    1    2    0    0  0.00000000000E+00  0.00000000000E+00  0.66262604072E+02  0.10124089319E+04  0.10102381465E+04 0.  0.
        4    1    3    3  502    0  0.36437719671E+03  0.47183003517E+02  0.38049794080E+03  0.52893976326E+03  0.12699999809E+01 0.  1.
       -4    1    3    3    0  502 -0.36437719671E+03 -0.47183003517E+02 -0.31423533673E+03  0.48346916867E+03  0.12699999809E+01 0. -1.
</event>
<event>
 5   0  0.3608845E-03  0.9979619E+03  0.7818609E-02  0.9310783E-01
       -1   -1    0    0    0  501  0.00000000000E+00  0.00000000000E+00  0.41465874670E+03  0.41465874673E+03  0.50400001928E-02 0.  1.
        1   -1    0    0  501    0  0.00000000000E+00  0.00000000000E+00 -0.60045035528E+03  0.60045035531E+03  0.50400001928E-02 0. -1.
    10030    2    1    2    0    0  0.00000000000E+00  0.00000000000E+00 -0.18579160859E+03  0.10151091020E+04  0.99796190669E+03 0.  0.
        1    1    3    3  502    0 -0.11643537777E+03 -0.32456309548E+03 -0.45976396087E+03  0.57470105262E+03  0.50400001928E-02 0. -1.
       -1    1    3    3    0  502  0.11643537777E+03  0.32456309548E+03  0.27397235229E+03  0.44040804941E+03  0.50400001928E-02 0.  1.
</event>
<event>
 5   0  0.3608845E-03  0.9803326E+03  0.7818609E-02  0.9330383E-01
        1   -1    0    0  501    0  0.00000000000E+00  0.00000000000E+00  0.10779438546E+04  0.10779438546E+04  0.50400001928E-02 0. -1.
       -1   -1    0    0    0  501  0.00000000000E+00  0.00000000000E+00 -0.22289010983E+03  0.22289010989E+03  0.50400001928E-02 0.  1.
    10030    2    1    2    0    0  0.00000000000E+00  0.00000000000E+00  0.85505374477E+03  0.13008339645E+04  0.98033264597E+03 0.  0.
        1    1    3    3  502    0 -0.13569183203E+03 -0.37623095847E+02 -0.19547439194E+03  0.24091078961E+03  0.50400001928E-02 0.  1.
       -1    1    3    3    0  502  0.13569183203E+03  0.37623095847E+02  0.10505281367E+04  0.10599231749E+04  0.50400001928E-02 0. -1.
</event>
<event>
 5   0  0.6022787E-03  0.1005777E+04  0.7818609E-02  0.9302231E-01
       -2   -1    0    0    0  501  0.00000000000E+00  0.00000000000E+00  0.13671535756E+03  0.13671535758E+03  0.25500000920E-02 0.  1.
        2   -1    0    0  501    0  0.00000000000E+00  0.00000000000E+00 -0.18498066865E+04  0.18498066865E+04  0.25500000920E-02 0. -1.
    10030    2    1    2    0    0  0.00000000000E+00  0.00000000000E+00 -0.17130913290E+04  0.19865220441E+04  0.10057772767E+04 0.  0.
        5    1    3    3  502    0 -0.37814664960E+03 -0.28509829334E+03 -0.52253007006E+03  0.70522031280E+03  0.46999998093E+01 0.  1.
       -5    1    3    3    0  502  0.37814664960E+03  0.28509829334E+03 -0.11905612589E+04  0.12813017313E+04  0.46999998093E+01 0. -1.
</event>
<event>
 5   0  0.6360455E-03  0.9907661E+03  0.7818609E-02  0.9318731E-01
       -2   -1    0    0    0  501  0.00000000000E+00  0.00000000000E+00  0.13089695447E+03  0.13089695450E+03  0.25500000920E-02 0.  1.
        2   -1    0    0  501    0  0.00000000000E+00  0.00000000000E+00 -0.18747905833E+04  0.18747905833E+04  0.25500000920E-02 0. -1.
    10030    2    1    2    0    0  0.00000000000E+00  0.00000000000E+00 -0.17438936288E+04  0.20056875378E+04  0.99076612307E+03 0.  0.
        4    1    3    3  502    0 -0.50994514842E+02  0.19037868242E+03 -0.17920010594E+04  0.18028072257E+04  0.12699999809E+01 0. -1.
       -4    1    3    3    0  502  0.50994514842E+02 -0.19037868242E+03  0.48107430571E+02  0.20288031210E+03  0.12699999809E+01 0.  1.
</event>
<event>
 5   0  0.3640180E-03  0.1001827E+04  0.7818609E-02  0.9306544E-01
        1   -1    0    0  501    0  0.00000000000E+00  0.00000000000E+00  0.10215221540E+04  0.10215221541E+04  0.50400001928E-02 0. -1.
       -1   -1    0    0    0  501  0.00000000000E+00  0.00000000000E+00 -0.24562772683E+03  0.24562772688E+03  0.50400001928E-02 0.  1.
    10030    2    1    2    0    0  0.00000000000E+00  0.00000000000E+00  0.77589442721E+03  0.12671498809E+04  0.10018266609E+04 0.  0.
        5    1    3    3  502    0 -0.19934422544E+03 -0.73400984839E+02 -0.18580248879E+03  0.28225959617E+03  0.46999998093E+01 0.  1.
       -5    1    3    3    0  502  0.19934422544E+03  0.73400984839E+02  0.96169691600E+03  0.98489028477E+03  0.46999998093E+01 0. -1.
</event>
<event>
 5   0  0.6360455E-03  0.9988198E+03  0.7818609E-02  0.9309840E-01
        2   -1    0    0  501    0  0.00000000000E+00  0.00000000000E+00  0.80762329206E+03  0.80762329206E+03  0.25500000920E-02 0.  1.
       -2   -1    0    0    0  501  0.00000000000E+00  0.00000000000E+00 -0.30882002306E+03  0.30882002307E+03  0.25500000920E-02 0. -1.
    10030    2    1    2    0    0  0.00000000000E+00  0.00000000000E+00  0.49880326900E+03  0.11164433151E+04  0.99881979093E+03 0.  0.
        4    1    3    3  502    0 -0.22682003672E+03 -0.38989979079E+03  0.48897716437E+03  0.66525893913E+03  0.12699999809E+01 0.  1.
       -4    1    3    3    0  502  0.22682003672E+03  0.38989979079E+03  0.98261046222E+01  0.45118437600E+03  0.12699999809E+01 0. -1.
</event>
<event>
 5   0  0.3466598E-03  0.9720201E+03  0.7818609E-02  0.9339776E-01
        1   -1    0    0  501    0  0.00000000000E+00  0.00000000000E+00  0.20890993813E+03  0.20890993819E+03  0.50400001928E-02 0. -1.
       -1   -1    0    0    0  501  0.00000000000E+00  0.00000000000E+00 -0.11306584629E+04  0.11306584629E+04  0.50400001928E-02 0.  1.
    10030    2    1    2    0    0  0.00000000000E+00  0.00000000000E+00 -0.92174852480E+03  0.13395684011E+04  0.97202014296E+03 0.  0.
        3    1    3    3  502    0 -0.14831130587E+03  0.10355079248E+03 -0.10825411246E+04  0.10975492275E+04  0.10100000352E+00 0.  1.
       -3    1    3    3    0  502  0.14831130587E+03 -0.10355079248E+03  0.16079259979E+03  0.24201917366E+03  0.10100000352E+00 0. -1.
</event>
<event>
 5   0  0.6199539E-03  0.1001551E+04  0.7818609E-02  0.9306846E-01
       -2   -1    0    0    0  501  0.00000000000E+00  0.00000000000E+00  0.21437737435E+03  0.21437737437E+03  0.25500000920E-02 0. -1.
        2   -1    0    0  501    0  0.00000000000E+00  0.00000000000E+00 -0.11697875963E+04  0.11697875963E+04  0.25500000920E-02 0.  1.
    10030    2    1    2    0    0  0.00000000000E+00  0.00000000000E+00 -0.95541022191E+03  0.13841649706E+04  0.10015507844E+04 0.  0.
        2    1    3    3  502    0  0.39222949185E+03  0.27795543992E+03 -0.28386310948E+03  0.55828439508E+03  0.25500000920E-02 0. -1.
       -2    1    3    3    0  502 -0.39222949185E+03 -0.27795543992E+03 -0.67154711243E+03  0.82588057555E+03  0.25500000920E-02 0.  1.
</event>
<event>
 5   0  0.6606947E-03  0.1007504E+04  0.7818609E-02  0.9300353E-01
        2   -1    0    0  501    0  0.00000000000E+00  0.00000000000E+00  0.18435298235E+04  0.18435298235E+04  0.25500000920E-02 0.  1.
       -2   -1    0    0    0  501  0.00000000000E+00  0.00000000000E+00 -0.13765215718E+03  0.13765215720E+03  0.25500000920E-02 0. -1.
    10030    2    1    2    0    0  0.00000000000E+00  0.00000000000E+00  0.17058776663E+04  0.19811819807E+04  0.10075035624E+04 0.  0.
        1    1    3    3  502    0  0.48166534074E+03 -0.51226138605E+02  0.11249905433E+04  0.12248384956E+04  0.50400001928E-02 0.  1.
       -1    1    3    3    0  502 -0.48166534074E+03  0.51226138605E+02  0.58088712299E+03  0.75634348508E+03  0.50400001928E-02 0. -1.
</event>
<event>
 5   0  0.3569359E-03  0.1003055E+04  0.7818609E-02  0.9305200E-01
       -1   -1    0    0    0  501  0.00000000000E+00  0.00000000000E+00  0.60493764287E+03  0.60493764289E+03  0.50400001928E-02 0. -1.
        1   -1    0    0  501    0  0.00000000000E+00  0.00000000000E+00 -0.41579462275E+03  0.41579462278E+03  0.50400001928E-02 0.  1.
    10030    2    1    2    0    0  0.00000000000E+00  0.00000000000E+00  0.18914302012E+03  0.10207322657E+04  0.10030549716E+04 0.  0.
        4    1    3    3  502    0  0.41444999369E+03 -0.21866506285E+03 -0.87309998974E+02  0.47666325199E+03  0.12699999809E+01 0.  1.
       -4    1    3    3    0  502 -0.41444999369E+03  0.21866506285E+03  0.27645301910E+03  0.54406901368E+03  0.12699999809E+01 0. -1.
</event>
<event>
 5   0  0.6606947E-03  0.9994193E+03  0.7818609E-02  0.9309182E-01
       -2   -1    0    0    0  501  0.00000000000E+00  0.00000000000E+00  0.18752038448E+03  0.18752038450E+03  0.25500000920E-02 0.  1.
        2   -1    0    0  501    0  0.00000000000E+00  0.00000000000E+00 -0.13316405505E+04  0.13316405505E+04  0.25500000920E-02 0. -1.
    10030    2    1    2    0    0  0.00000000000E+00  0.00000000000E+00 -0.11441201660E+04  0.15191609350E+04  0.99941932747E+03 0.  0.
        1    1    3    3  502    0 -0.37508619200E+03  0.24749048533E+03 -0.90428109580E+03  0.10097848741E+04  0.50400001928E-02 0. -1.
       -1    1    3    3    0  502  0.37508619200E+03 -0.24749048533E+03 -0.23983907019E+03  0.50937606085E+03  0.50400001928E-02 0.  1.
</event>
<event>
 5   0  0.3643002E-03  0.9938281E+03  0.7818609E-02  0.9315340E-01
        1   -1    0    0  501    0  0.00000000000E+00  0.00000000000E+00  0.22188996501E+04  0.22188996501E+04  0.50400001928E-02 0.  1.
       -1   -1    0    0    0  501  0.00000000000E+00  0.00000000000E+00 -0.11128199157E+03  0.11128199168E+03  0.50400001928E-02 0. -1.
    10030    2    1    2    0    0  0.00000000000E+00  0.00000000000E+00  0.21076176586E+04  0.23301816418E+04  0.99382809842E+03 0.  0.
        2    1    3    3  502    0  0.46653718892E+03  0.42179435749E+02  0.66508042544E+03  0.81349125734E+03  0.25500000920E-02 0. -1.
       -2    1    3    3    0  502 -0.46653718892E+03 -0.42179435749E+02  0.14425372331E+04  0.15166903845E+04  0.25500000920E-02 0.  1.
</event>
<event>
 5   0  0.6360455E-03  0.9991999E+03  0.7818609E-02  0.9309423E-01
        2   -1    0    0  501    0  0.00000000000E+00  0.00000000000E+00  0.10389756554E+04  0.10389756554E+04  0.25500000920E-02 0.  1.
       -2   -1    0    0    0  501  0.00000000000E+00  0.00000000000E+00 -0.24023670917E+03  0.24023670918E+03  0.25500000920E-02 0. -1.
    10030    2    1    2    0    0  0.00000000000E+00  0.00000000000E+00  0.79873894625E+03  0.12792123646E+04  0.99919986464E+03 0.  0.
        4    1    3    3  502    0  0.28714209476E+03  0.20830421787E+03  0.84974585400E+03  0.92082075295E+03  0.12699999809E+01 0.  1.
       -4    1    3    3    0  502 -0.28714209476E+03 -0.20830421787E+03 -0.51006907750E+02  0.35839161165E+03  0.12699999809E+01 0. -1.
</event>
<event>
 5   0  0.6376961E-03  0.1002150E+04  0.7818609E-02  0.9306190E-01
        2   -1    0    0  501    0  0.00000000000E+00  0.00000000000E+00  0.57644178576E+03  0.57644178577E+03  0.25500000920E-02 0. -1.
       -2   -1    0    0    0  501  0.00000000000E+00  0.00000000000E+00 -0.43556231490E+03  0.43556231491E+03  0.25500000920E-02 0.  1.
    10030    2    1    2    0    0  0.00000000000E+00  0.00000000000E+00  0.14087947086E+03  0.10120041007E+04  0.10021503253E+04 0.  0.
        3    1    3    3  502    0  0.23749221143E+03  0.41339480201E+03  0.22615872888E+03  0.52767944215E+03  0.10100000352E+00 0.  1.
       -3    1    3    3    0  502 -0.23749221143E+03 -0.41339480201E+03 -0.85279258015E+02  0.48432465853E+03  0.10100000352E+00 0. -1.
</event>
<event>
 5   0  0.3643002E-03  0.1011812E+04  0.7818609E-02  0.9295683E-01
        1   -1    0    0  501    0  0.00000000000E+00  0.00000000000E+00  0.76301349945E+03  0.76301349947E+03  0.50400001928E-02 0.  1.
       -1   -1    0    0    0  501  0.00000000000E+00  0.00000000000E+00 -0.33543442388E+03  0.33543442391E+03  0.50400001928E-02 0. -1.
    10030    2    1    2    0    0  0.00000000000E+00  0.00000000000E+00  0.42757907558E+03  0.10984479234E+04  0.10118122230E+04 0.  0.
        2    1    3    3  502    0  0.44671267657E+03 -0.15901908278E+03  0.40524672807E+03  0.62375010598E+03  0.25500000920E-02 0.  1.
       -2    1    3    3    0  502 -0.44671267657E+03  0.15901908278E+03  0.22332347511E+02  0.47469781740E+03  0.25500000920E-02 0. -1.
</event>
<event>
 5   0  0.3569359E-03  0.1006764E+04  0.7818609E-02  0.9301157E-01
       -1   -1    0    0    0  501  0.00000000000E+00  0.00000000000E+00  0.53289385808E+03  0.53289385810E+03  0.50400001928E-02 0. -1.
        1   -1    0    0  501    0  0.00000000000E+00  0.00000000000E+00 -0.47550432522E+03  0.47550432525E+03  0.50400001928E-02 0.  1.
    10030    2    1    2    0    0  0.00000000000E+00  0.00000000000E+00  0.57389532859E+02  0.10083981833E+04  0.10067637944E+04 0.  0.
        4    1    3    3  502    0  0.38858152560E+03  0.28738884957E+03  0.16964908541E+03  0.51222102453E+03  0.12699999809E+01 0. -1.
       -4    1    3    3    0  502 -0.38858152560E+03 -0.28738884957E+03 -0.11225955255E+03  0.49617715882E+03  0.12699999809E+01 0.  1.
</event>
<event>
 5   0  0.3466598E-03  0.9986080E+03  0.7818609E-02  0.9310073E-01
       -1   -1    0    0    0  501  0.00000000000E+00  0.00000000000E+00  0.21711741636E+03  0.21711741642E+03  0.50400001928E-02 0. -1.
        1   -1    0    0  501    0  0.00000000000E+00  0.00000000000E+00 -0.11482473943E+04  0.11482473943E+04  0.50400001928E-02 0.  1.
    10030    2    1    2    0    0  0.00000000000E+00  0.00000000000E+00 -0.93112997797E+03  0.13653648108E+04  0.99860804652E+03 0.  0.
        3    1    3    3  502    0 -0.10955401750E+03 -0.30281137805E+03 -0.98729496713E+03  0.10384835944E+04  0.10100000352E+00 0.  1.
       -3    1    3    3    0  502  0.10955401750E+03  0.30281137805E+03  0.56164989157E+02  0.32688121640E+03  0.10100000352E+00 0. -1.
</event>
<event>
 5   0  0.3466598E-03  0.1002906E+04  0.7818609E-02  0.9305364E-01
        1   -1    0    0  501    0  0.00000000000E+00  0.00000000000E+00  0.52214057038E+03  0.52214057041E+03  0.50400001928E-02 0.  1.
       -1   -1    0    0    0  501  0.00000000000E+00  0.00000000000E+00 -0.48158475173E+03  0.48158475176E+03  0.50400001928E-02 0. -1.
    10030    2    1    2    0    0  0.00000000000E+00  0.00000000000E+00  0.40555818647E+02  0.10037253222E+04  0.10029056526E+04 0.  0.
        3    1    3    3  502    0  0.25992217258E+03  0.39050973418E+03 -0.15706041581E+03  0.49469725358E+03  0.10100000352E+00 0. -1.
       -3    1    3    3    0  502 -0.25992217258E+03 -0.39050973418E+03  0.19761623446E+03  0.50902806858E+03  0.10100000352E+00 0.  1.
</event>
<event>
 5   0  0.6376961E-03  0.9426405E+03  0.7818609E-02  0.9373794E-01
        2   -1    0    0  501    0  0.00000000000E+00  0.00000000000E+00  0.17373247161E+04  0.17373247161E+04  0.25500000920E-02 0.  1.
       -2   -1    0    0    0  501  0.00000000000E+00  0.00000000000E+00 -0.12786485064E+03  0.12786485066E+03  0.25500000920E-02 0. -1.
    10030    2    1    2    0    0  0.00000000000E+00  0.00000000000E+00  0.16094598654E+04  0.18651895667E+04  0.94264047303E+03 0.  0.
        3    1    3    3  502    0 -0.28387713771E+03  0.34069588345E+03  0.48886543463E+03  0.66003737598E+03  0.10100000352E+00 0.  1.
       -3    1    3    3    0  502  0.28387713771E+03 -0.34069588345E+03  0.11205944308E+04  0.12051521907E+04  0.10100000352E+00 0. -1.
</event>
<event>
 5   0  0.6022787E-03  0.9791636E+03  0.7818609E-02  0.9331698E-01
       -2   -1    0    0    0  501  0.00000000000E+00  0.00000000000E+00  0.61206921946E+03  0.61206921946E+03  0.25500000920E-02 0.  1.
        2   -1    0    0  501    0  0.00000000000E+00  0.00000000000E+00 -0.39160661005E+03  0.39160661006E+03  0.25500000920E-02 0. -1.
    10030    2    1    2    0    0  0.00000000000E+00  0.00000000000E+00  0.22046260940E+03  0.10036758295E+04  0.97916362709E+03 0.  0.
        5    1    3    3  502    0 -0.14958015348E+03  0.12551126213E+03 -0.34994034363E+03  0.40075882191E+03  0.46999998093E+01 0. -1.
       -5    1    3    3    0  502  0.14958015348E+03 -0.12551126213E+03  0.57040295304E+03  0.60291700761E+03  0.46999998093E+01 0.  1.
</event>
<event>
 5   0  0.6199539E-03  0.1002793E+04  0.7818609E-02  0.9305487E-01
        2   -1    0    0  501    0  0.00000000000E+00  0.00000000000E+00  0.10199899169E+04  0.10199899169E+04  0.25500000920E-02 0. -1.
       -2   -1    0    0    0  501  0.00000000000E+00  0.00000000000E+00 -0.24647161788E+03  0.24647161789E+03  0.25500000920E-02 0.  1.
    10030    2    1    2    0    0  0.00000000000E+00  0.00000000000E+00  0.77351829907E+03  0.12664615348E+04  0.10027932291E+04 0.  0.
        2    1    3    3  502    0 -0.26217694909E+03 -0.20239294236E+03 -0.88645981399E+02  0.34286697971E+03  0.25500000920E-02 0.  1.
       -2    1    3    3    0  502  0.26217694909E+03  0.20239294236E+03  0.86216428047E+03  0.92359455513E+03  0.25500000920E-02 0. -1.
</event>
<event>
 5   0  0.3608845E-03  0.1002281E+04  0.7818609E-02  0.9306046E-01
       -1   -1    0    0    0  501  0.00000000000E+00  0.00000000000E+00  0.23801285054E+03  0.23801285059E+03  0.50400001928E-02 0. -1.
        1   -1    0    0  501    0  0.00000000000E+00  0.00000000000E+00 -0.10551611371E+04  0.10551611371E+04  0.50400001928E-02 0.  1.
    10030    2    1    2    0    0  0.00000000000E+00  0.00000000000E+00 -0.81714828659E+03  0.12931739877E+04  0.10022812182E+04 0.  0.
        1    1    3    3  502    0  0.35658092693E+03 -0.32687116209E+03 -0.23962191503E+03  0.53982717257E+03  0.50400001928E-02 0.  1.
       -1    1    3    3    0  502 -0.35658092693E+03  0.32687116209E+03 -0.57752637156E+03  0.75334681517E+03  0.50400001928E-02 0. -1.
</event>
<event>
 5   0  0.6199539E-03  0.1039140E+04  0.7818609E-02  0.9266628E-01
        2   -1    0    0  501    0  0.00000000000E+00  0.00000000000E+00  0.88814608262E+03  0.88814608262E+03  0.25500000920E-02 0.  1.
       -2   -1    0    0    0  501  0.00000000000E+00  0.00000000000E+00 -0.30395120332E+03  0.30395120333E+03  0.25500000920E-02 0. -1.
    10030    2    1    2    0    0  0.00000000000E+00  0.00000000000E+00  0.58419487930E+03  0.11920972859E+04  0.10391401648E+04 0.  0.
        2    1    3    3  502    0  0.71296684611E+01 -0.45782817432E+03  0.57379324656E+03  0.73409547007E+03  0.25500000920E-02 0. -1.
       -2    1    3    3    0  502 -0.71296684611E+01  0.45782817432E+03  0.10401632741E+02  0.45800181588E+03  0.25500000920E-02 0.  1.
</event>
<event>
 5   0  0.3608845E-03  0.1071153E+04  0.7818609E-02  0.9233774E-01
       -1   -1    0    0    0  501  0.00000000000E+00  0.00000000000E+00  0.10545691186E+04  0.10545691186E+04  0.50400001928E-02 0.  1.
        1   -1    0    0  501    0  0.00000000000E+00  0.00000000000E+00 -0.27199924715E+03  0.27199924720E+03  0.50400001928E-02 0. -1.
    10030    2    1    2    0    0  0.00000000000E+00  0.00000000000E+00  0.78256987147E+03  0.13265683658E+04  0.10711526621E+04 0.  0.
        1    1    3    3  502    0 -0.32758597111E+03 -0.17816388428E+01 -0.13345275693E+03  0.35373066176E+03  0.50400001928E-02 0. -1.
       -1    1    3    3    0  502  0.32758597111E+03  0.17816388428E+01  0.91602262841E+03  0.97283770408E+03  0.50400001928E-02 0.  1.
</event>
<event>
 5   0  0.3640180E-03  0.1035835E+04  0.7818609E-02  0.9270092E-01
        1   -1    0    0  501    0  0.00000000000E+00  0.00000000000E+00  0.81150846764E+03  0.81150846766E+03  0.50400001928E-02 0.  1.
       -1   -1    0    0    0  501  0.00000000000E+00  0.00000000000E+00 -0.33054299426E+03  0.33054299430E+03  0.50400001928E-02 0. -1.
    10030    2    1    2    0    0  0.00000000000E+00  0.00000000000E+00  0.48096547339E+03  0.11420514620E+04  0.10358348108E+04 0.  0.
        5    1    3    3  502    0  0.32982486390E+03 -0.13906515369E+03 -0.17218742279E+03  0.39723312599E+03  0.46999998093E+01 0. -1.
       -5    1    3    3    0  502 -0.32982486390E+03  0.13906515369E+03  0.65315289617E+03  0.74481833597E+03  0.46999998093E+01 0.  1.
</event>
<event>
 5   0  0.6360455E-03  0.9950418E+03  0.7818609E-02  0.9314000E-01
        2   -1    0    0  501    0  0.00000000000E+00  0.00000000000E+00  0.65403203654E+03  0.65403203654E+03  0.25500000920E-02 0. -1.
       -2   -1    0    0    0  501  0.00000000000E+00  0.00000000000E+00 -0.37846318850E+03  0.37846318851E+03  0.25500000920E-02 0.  1.
    10030    2    1    2    0    0  0.00000000000E+00  0.00000000000E+00  0.27556884804E+03  0.10324952250E+04  0.99504180803E+03 0.  0.
        4    1    3    3  502    0 -0.11672233128E+02 -0.48322111111E+03  0.15507652475E+02  0.48361243101E+03  0.12699999809E+01 0.  1.
       -4    1    3    3    0  502  0.11672233128E+02  0.48322111111E+03  0.26006119556E+03  0.54888279403E+03  0.12699999809E+01 0. -1.
</event>
<event>
 5   0  0.3608845E-03  0.9971570E+03  0.7818609E-02  0.9311668E-01
       -1   -1    0    0    0  501  0.00000000000E+00  0.00000000000E+00  0.33382073332E+03  0.33382073336E+03  0.50400001928E-02 0.  1.
        1   -1    0    0  501    0  0.00000000000E+00  0.00000000000E+00 -0.74465280135E+03  0.74465280137E+03  0.50400001928E-02 0. -1.
    10030    2    1    2    0    0  0.00000000000E+00  0.00000000000E+00 -0.41083206803E+03  0.10784735347E+04  0.99715704731E+03 0.  0.
        1    1    3    3  502    0  0.36163864610E+03 -0.12447923657E+03 -0.55134745859E+03  0.67101535810E+03  0.50400001928E-02 0. -1.
       -1    1    3    3    0  502 -0.36163864610E+03  0.12447923657E+03  0.14051539056E+03  0.40745817663E+03  0.50400001928E-02 0.  1.
</event>
<event>
 5   0  0.2417750E-03  0.1004132E+04  0.7818609E-02  0.9304025E-01
       -3   -1    0    0    0  501  0.00000000000E+00  0.00000000000E+00  0.36258153451E+03  0.36258154858E+03  0.10100000352E+00 0.  1.
        3   -1    0    0  501    0  0.00000000000E+00  0.00000000000E+00 -0.69520945835E+03  0.69520946569E+03  0.10100000352E+00 0. -1.
    10030    2    1    2    0    0  0.00000000000E+00  0.00000000000E+00 -0.33262792384E+03  0.10577910143E+04  0.10041317116E+04 0.  0.
        2    1    3    3  502    0 -0.35426185327E+03  0.18904058527E+03 -0.48380348177E+03  0.62873174927E+03  0.25500000920E-02 0. -1.
       -2    1    3    3    0  502  0.35426185327E+03 -0.18904058527E+03  0.15117555792E+03  0.42905926500E+03  0.25500000920E-02 0.  1.
</event>
<event>
 5   0  0.3608845E-03  0.9632788E+03  0.7818609E-02  0.9349763E-01
       -1   -1    0    0    0  501  0.00000000000E+00  0.00000000000E+00  0.45312853295E+03  0.45312853298E+03  0.50400001928E-02 0.  1.
        1   -1    0    0  501    0  0.00000000000E+00  0.00000000000E+00 -0.51194417216E+03  0.51194417219E+03  0.50400001928E-02 0. -1.
    10030    2    1    2    0    0  0.00000000000E+00  0.00000000000E+00 -0.58815639212E+02  0.96507270516E+03  0.96327880016E+03 0.  0.
        1    1    3    3  502    0  0.44253579071E+03  0.29424080566E+02  0.15875250531E+03  0.47106906134E+03  0.50400001928E-02 0. -1.
       -1    1    3    3    0  502 -0.44253579071E+03 -0.29424080566E+02 -0.21756814453E+03  0.49400364383E+03  0.50400001928E-02 0.  1.
</event>
<event>
 5   0  0.3643002E-03  0.9836791E+03  0.7818609E-02  0.9326629E-01
        1   -1    0    0  501    0  0.00000000000E+00  0.00000000000E+00  0.62877991292E+03  0.62877991294E+03  0.50400001928E-02 0.  1.
       -1   -1    0    0    0  501  0.00000000000E+00  0.00000000000E+00 -0.38472304567E+03  0.38472304570E+03  0.50400001928E-02 0. -1.
    10030    2    1    2    0    0  0.00000000000E+00  0.00000000000E+00  0.24405686725E+03  0.10135029586E+04  0.98367905981E+03 0.  0.
        2    1    3    3  502    0  0.26556599476E+00  0.49078399973E+03  0.15520914813E+03  0.51474157068E+03  0.25500000920E-02 0.  1.
       -2    1    3    3    0  502 -0.26556599476E+00 -0.49078399973E+03  0.88847719126E+02  0.49876138796E+03  0.25500000920E-02 0. -1.
</event>
<event>
 5   0  0.3569359E-03  0.9930735E+03  0.7818609E-02  0.9316174E-01
       -1   -1    0    0    0  501  0.00000000000E+00  0.00000000000E+00  0.13747131247E+03  0.13747131256E+03  0.50400001928E-02 0.  1.
        1   -1    0    0  501    0  0.00000000000E+00  0.00000000000E+00 -0.17934561021E+04  0.17934561021E+04  0.50400001928E-02 0. -1.
    10030    2    1    2    0    0  0.00000000000E+00  0.00000000000E+00 -0.16559847896E+04  0.19309274146E+04  0.99307354068E+03 0.  0.
        4    1    3    3  502    0 -0.60680390572E+02 -0.22213466836E+03  0.27367426676E+02  0.23189762748E+03  0.12699999809E+01 0.  1.
       -4    1    3    3    0  502  0.60680390572E+02  0.22213466836E+03 -0.16833522163E+04  0.16990297872E+04  0.12699999809E+01 0. -1.
</event>
<event>
 5   0  0.3640180E-03  0.9610933E+03  0.7818609E-02  0.9352277E-01
        1   -1    0    0  501    0  0.00000000000E+00  0.00000000000E+00  0.26557319768E+03  0.26557319773E+03  0.50400001928E-02 0. -1.
       -1   -1    0    0    0  501  0.00000000000E+00  0.00000000000E+00 -0.86953467976E+03  0.86953467978E+03  0.50400001928E-02 0.  1.
    10030    2    1    2    0    0  0.00000000000E+00  0.00000000000E+00 -0.60396148208E+03  0.11351078775E+04  0.96109334705E+03 0.  0.
        5    1    3    3  502    0 -0.28444619940E+03  0.14752312246E+03 -0.72490919193E+03  0.79258320608E+03  0.46999998093E+01 0.  1.
       -5    1    3    3    0  502  0.28444619940E+03 -0.14752312246E+03  0.12094770985E+03  0.34252467142E+03  0.46999998093E+01 0. -1.
</event>
<event>
 5   0  0.6606947E-03  0.1007613E+04  0.7818609E-02  0.9300234E-01
       -2   -1    0    0    0  501  0.00000000000E+00  0.00000000000E+00  0.12365582341E+03  0.12365582344E+03  0.25500000920E-02 0. -1.
        2   -1    0    0  501    0  0.00000000000E+00  0.00000000000E+00 -0.20526410609E+04  0.20526410609E+04  0.25500000920E-02 0.  1.
    10030    2    1    2    0    0  0.00000000000E+00  0.00000000000E+00 -0.19289852375E+04  0.21762968843E+04  0.10076130618E+04 0.  0.
        1    1    3    3  502    0  0.29051189012E+03  0.11167101523E+03 -0.18201694641E+04  0.18465872446E+04  0.50400001928E-02 0.  1.
       -1    1    3    3    0  502 -0.29051189012E+03 -0.11167101523E+03 -0.10881577336E+03  0.32970963969E+03  0.50400001928E-02 0. -1.
</event>
<event>
 5   0  0.3643002E-03  0.1005502E+04  0.7818609E-02  0.9302531E-01
        1   -1    0    0  501    0  0.00000000000E+00  0.00000000000E+00  0.16286733233E+04  0.16286733233E+04  0.50400001928E-02 0.  1.
       -1   -1    0    0    0  501  0.00000000000E+00  0.00000000000E+00 -0.15519276824E+03  0.15519276833E+03  0.50400001928E-02 0. -1.
    10030    2    1    2    0    0  0.00000000000E+00  0.00000000000E+00  0.14734805551E+04  0.17838660917E+04  0.10055015101E+04 0.  0.
        2    1    3    3  502    0  0.41956385133E+03 -0.21990006172E+03  0.43792871586E+03  0.64511349596E+03  0.25500000920E-02 0. -1.
       -2    1    3    3    0  502 -0.41956385133E+03  0.21990006172E+03  0.10355518392E+04  0.11387525957E+04  0.25500000920E-02 0.  1.
</event>
<event>
 5   0  0.6376961E-03  0.9229148E+03  0.7818609E-02  0.9397382E-01
       -2   -1    0    0    0  501  0.00000000000E+00  0.00000000000E+00  0.39073772876E+03  0.39073772877E+03  0.25500000920E-02 0. -1.
        2   -1    0    0  501    0  0.00000000000E+00  0.00000000000E+00 -0.54497663219E+03  0.54497663219E+03  0.25500000920E-02 0.  1.
    10030    2    1    2    0    0  0.00000000000E+00  0.00000000000E+00 -0.15423890343E+03  0.93571436096E+03  0.92291479887E+03 0.  0.
        3    1    3    3  502    0  0.13608344471E+03  0.18146318337E+03  0.33031867810E+03  0.40069693054E+03  0.10100000352E+00 0. -1.
       -3    1    3    3    0  502 -0.13608344471E+03 -0.18146318337E+03 -0.48455758152E+03  0.53501743042E+03  0.10100000352E+00 0.  1.
</event>
<event>
 5   0  0.3569359E-03  0.1011411E+04  0.7818609E-02  0.9296118E-01
       -1   -1    0    0    0  501  0.00000000000E+00  0.00000000000E+00  0.43486873844E+03  0.43486873847E+03  0.50400001928E-02 0. -1.
        1   -1    0    0  501    0  0.00000000000E+00  0.00000000000E+00 -0.58808055789E+03  0.58808055791E+03  0.50400001928E-02 0.  1.
    10030    2    1    2    0    0  0.00000000000E+00  0.00000000000E+00 -0.15321181945E+03  0.10229492964E+04  0.10114105998E+04 0.  0.
        4    1    3    3  502    0 -0.42022017577E+03 -0.27354576084E+03 -0.10098912154E+02  0.50151358937E+03  0.12699999809E+01 0. -1.
       -4    1    3    3    0  502  0.42022017577E+03  0.27354576084E+03 -0.14311290730E+03  0.52143570700E+03  0.12699999809E+01 0.  1.
</event>
<event>
 5   0  0.6606947E-03  0.9777651E+03  0.7818609E-02  0.9333274E-01
       -2   -1    0    0    0  501  0.00000000000E+00  0.00000000000E+00  0.13807391863E+03  0.13807391865E+03  0.25500000920E-02 0. -1.
        2   -1    0    0  501    0  0.00000000000E+00  0.00000000000E+00 -0.17310013518E+04  0.17310013518E+04  0.25500000920E-02 0.  1.
    10030    2    1    2    0    0  0.00000000000E+00  0.00000000000E+00 -0.15929274331E+04  0.18690752704E+04  0.97776508388E+03 0.  0.
        1    1    3    3  502    0  0.65649766514E+02  0.45474062065E+03 -0.11158016591E+04  0.12066947694E+04  0.50400001928E-02 0.  1.
       -1    1    3    3    0  502 -0.65649766514E+02 -0.45474062065E+03 -0.47712577400E+03  0.66238050103E+03  0.50400001928E-02 0. -1.
</event>
<event>
 5   0  0.3466598E-03  0.9975537E+03  0.7818609E-02  0.9311232E-01
        1   -1    0    0  501    0  0.00000000000E+00  0.00000000000E+00  0.65866234299E+03  0.65866234301E+03  0.50400001928E-02 0. -1.
       -1   -1    0    0    0  501  0.00000000000E+00  0.00000000000E+00 -0.37770237668E+03  0.37770237671E+03  0.50400001928E-02 0.  1.
    10030    2    1    2    0    0  0.00000000000E+00  0.00000000000E+00  0.28095996631E+03  0.10363647197E+04  0.99755367254E+03 0.  0.
        3    1    3    3  502    0  0.17941563974E+03 -0.14923670373E+02  0.62372845529E+03  0.64919171580E+03  0.10100000352E+00 0. -1.
       -3    1    3    3    0  502 -0.17941563974E+03  0.14923670373E+02 -0.34276848898E+03  0.38717300391E+03  0.10100000352E+00 0.  1.
</event>
<event>
 5   0  0.6360455E-03  0.9994991E+03  0.7818609E-02  0.9309094E-01
        2   -1    0    0  501    0  0.00000000000E+00  0.00000000000E+00  0.14803076933E+04  0.14803076933E+04  0.25500000920E-02 0. -1.
       -2   -1    0    0    0  501  0.00000000000E+00  0.00000000000E+00 -0.16871464702E+03  0.16871464704E+03  0.25500000920E-02 0.  1.
    10030    2    1    2    0    0  0.00000000000E+00  0.00000000000E+00  0.13115930463E+04  0.16490223403E+04  0.99949905446E+03 0.  0.
        4    1    3    3  502    0 -0.77081143512E+02 -0.22046942842E+03 -0.73129962743E+02  0.24474042556E+03  0.12699999809E+01 0.  1.
       -4    1    3    3    0  502  0.77081143512E+02  0.22046942842E+03  0.13847230090E+04  0.14042819148E+04  0.12699999809E+01 0. -1.
</event>
<event>
 5   0  0.2417750E-03  0.9955307E+03  0.7818609E-02  0.9313460E-01
       -3   -1    0    0    0  501  0.00000000000E+00  0.00000000000E+00  0.37347542508E+03  0.37347543874E+03  0.10100000352E+00 0. -1.
        3   -1    0    0  501    0  0.00000000000E+00  0.00000000000E+00 -0.66341807918E+03  0.66341808686E+03  0.10100000352E+00 0.  1.
    10030    2    1    2    0    0  0.00000000000E+00  0.00000000000E+00 -0.28994265410E+03  0.10368935256E+04  0.99553073321E+03 0.  0.
        1    1    3    3  502    0  0.19567567859E+03 -0.34961131293E+03 -0.45263092528E+03  0.60447646428E+03  0.50400001928E-02 0.  1.
       -1    1    3    3    0  502 -0.19567567859E+03  0.34961131293E+03  0.16268827118E+03  0.43241706132E+03  0.50400001928E-02 0. -1.
</event>
<event>
 5   0  0.6360455E-03  0.8246943E+03  0.7818609E-02  0.9524945E-01
       -2   -1    0    0    0  501  0.00000000000E+00  0.00000000000E+00  0.10119483180E+03  0.10119483183E+03  0.25500000920E-02 0.  1.
        2   -1    0    0  501    0  0.00000000000E+00  0.00000000000E+00 -0.16802257290E+04  0.16802257290E+04  0.25500000920E-02 0. -1.
    10030    2    1    2    0    0  0.00000000000E+00  0.00000000000E+00 -0.15790308973E+04  0.17814205609E+04  0.82469427077E+03 0.  0.
        4    1    3    3  502    0  0.14800180410E+03 -0.36439769664E+03 -0.10570393243E+04  0.11278403971E+04  0.12699999809E+01 0.  1.
       -4    1    3    3    0  502 -0.14800180410E+03  0.36439769664E+03 -0.52199157296E+03  0.65358016377E+03  0.12699999809E+01 0. -1.
</event>
<event>
 5   0  0.6022787E-03  0.9929315E+03  0.7818609E-02  0.9316332E-01
       -2   -1    0    0    0  501  0.00000000000E+00  0.00000000000E+00  0.55937355329E+03  0.55937355329E+03  0.25500000920E-02 0. -1.
        2   -1    0    0  501    0  0.00000000000E+00  0.00000000000E+00 -0.44063260881E+03  0.44063260882E+03  0.25500000920E-02 0.  1.
    10030    2    1    2    0    0  0.00000000000E+00  0.00000000000E+00  0.11874094447E+03  0.10000061621E+04  0.99293147415E+03 0.  0.
        5    1    3    3  502    0 -0.51727059965E+02  0.31208356024E+03  0.44469854489E+03  0.54575701839E+03  0.46999998093E+01 0. -1.
       -5    1    3    3    0  502  0.51727059965E+02 -0.31208356024E+03 -0.32595760041E+03  0.45424914372E+03  0.46999998093E+01 0.  1.
</event>
<event>
 5   0  0.6199539E-03  0.9988345E+03  0.7818609E-02  0.9309824E-01
       -2   -1    0    0    0  501  0.00000000000E+00  0.00000000000E+00  0.12403216089E+03  0.12403216091E+03  0.25500000920E-02 0.  1.
        2   -1    0    0  501    0  0.00000000000E+00  0.00000000000E+00 -0.20109106653E+04  0.20109106653E+04  0.25500000920E-02 0. -1.
    10030    2    1    2    0    0  0.00000000000E+00  0.00000000000E+00 -0.18868785044E+04  0.21349428262E+04  0.99883451121E+03 0.  0.
        2    1    3    3  502    0  0.46494295650E+03 -0.13633561576E+03 -0.68465749511E+03  0.83875815259E+03  0.25500000920E-02 0.  1.
       -2    1    3    3    0  502 -0.46494295650E+03  0.13633561576E+03 -0.12022210093E+04  0.12961846736E+04  0.25500000920E-02 0. -1.
</event>
<event>
 5   0  0.6376961E-03  0.1001790E+04  0.7818609E-02  0.9306583E-01
       -2   -1    0    0    0  501  0.00000000000E+00  0.00000000000E+00  0.32276457286E+03  0.32276457287E+03  0.25500000920E-02 0. -1.
        2   -1    0    0  501    0  0.00000000000E+00  0.00000000000E+00 -0.77733418796E+03  0.77733418796E+03  0.25500000920E-02 0.  1.
    10030    2    1    2    0    0  0.00000000000E+00  0.00000000000E+00 -0.45456961510E+03  0.11000987608E+04  0.10017902718E+04 0.  0.
        3    1    3    3  502    0 -0.12489820308E+03  0.46973858503E+03 -0.94406075464E+02  0.49514282453E+03  0.10100000352E+00 0. -1.
       -3    1    3    3    0  502  0.12489820308E+03 -0.46973858503E+03 -0.36016353963E+03  0.60495593631E+03  0.10100000352E+00 0.  1.
</event>
<event>
 5   0  0.6376961E-03  0.1002284E+04  0.7818609E-02  0.9306043E-01
        2   -1    0    0  501    0  0.00000000000E+00  0.00000000000E+00  0.29584594822E+03  0.29584594823E+03  0.25500000920E-02 0. -1.
       -2   -1    0    0    0  501  0.00000000000E+00  0.00000000000E+00 -0.84889905824E+03  0.84889905825E+03  0.25500000920E-02 0.  1.
    10030    2    1    2    0    0  0.00000000000E+00  0.00000000000E+00 -0.55305311003E+03  0.11447450065E+04  0.10022840851E+04 0.  0.
        3    1    3    3  502    0  0.35497312840E+03  0.14321516764E+03  0.92909653067E+02  0.39388922296E+03  0.10100000352E+00 0. -1.
       -3    1    3    3    0  502 -0.35497312840E+03 -0.14321516764E+03 -0.64596276309E+03  0.75085578351E+03  0.10100000352E+00 0.  1.
</event>
<event>
 5   0  0.6199539E-03  0.1008428E+04  0.7818609E-02  0.9299349E-01
       -2   -1    0    0    0  501  0.00000000000E+00  0.00000000000E+00  0.47187032926E+03  0.47187032927E+03  0.25500000920E-02 0. -1.
        2   -1    0    0  501    0  0.00000000000E+00  0.00000000000E+00 -0.53877475361E+03  0.53877475362E+03  0.25500000920E-02 0.  1.
    10030    2    1    2    0    0  0.00000000000E+00  0.00000000000E+00 -0.66904424352E+02  0.10106450829E+04  0.10084281241E+04 0.  0.
        2    1    3    3  502    0 -0.16466433619E+03  0.44877079503E+02  0.44204159554E+03  0.47384498317E+03  0.25500000920E-02 0. -1.
       -2    1    3    3    0  502  0.16466433619E+03 -0.44877079503E+02 -0.50894601990E+03  0.53680009971E+03  0.25500000920E-02 0.  1.
</event>
<event>
 5   0  0.2417750E-03  0.1002608E+04  0.7818609E-02  0.9305689E-01
       -3   -1    0    0    0  501  0.00000000000E+00  0.00000000000E+00  0.66768935198E+03  0.66768935961E+03  0.10100000352E+00 0. -1.
        3   -1    0    0  501    0  0.00000000000E+00  0.00000000000E+00 -0.37638145971E+03  0.37638147326E+03  0.10100000352E+00 0.  1.
    10030    2    1    2    0    0  0.00000000000E+00  0.00000000000E+00  0.29130789227E+03  0.10440708329E+04  0.10026084061E+04 0.  0.
        4    1    3    3  502    0 -0.29425015355E+03 -0.27003999125E+03 -0.16986023050E+03  0.43400329555E+03  0.12699999809E+01 0.  1.
       -4    1    3    3    0  502  0.29425015355E+03  0.27003999125E+03  0.46116812277E+03  0.61006753733E+03  0.12699999809E+01 0. -1.
</event>
<event>
 5   0  0.2417750E-03  0.9983623E+03  0.7818609E-02  0.9310343E-01
       -4   -1    0    0    0  501  0.00000000000E+00  0.00000000000E+00  0.46583029426E+03  0.46583202546E+03  0.12699999809E+01 0. -1.
        4   -1    0    0  501    0  0.00000000000E+00  0.00000000000E+00 -0.53491624992E+03  0.53491775754E+03  0.12699999809E+01 0.  1.
    10030    2    1    2    0    0  0.00000000000E+00  0.00000000000E+00 -0.69085955664E+02  0.10007497830E+04  0.99836228840E+03 0.  0.
        4    1    3    3  502    0 -0.34705058822E+03 -0.70439510860E+02  0.31811417149E+03  0.47602948909E+03  0.12699999809E+01 0. -1.
       -4    1    3    3    0  502  0.34705058822E+03  0.70439510860E+02 -0.38720012716E+03  0.52472029391E+03  0.12699999809E+01 0.  1.
</event>
<event>
 5   0  0.6376961E-03  0.1000388E+04  0.7818609E-02  0.9308119E-01
        2   -1    0    0  501    0  0.00000000000E+00  0.00000000000E+00  0.68888776612E+03  0.68888776612E+03  0.25500000920E-02 0. -1.
       -2   -1    0    0    0  501  0.00000000000E+00  0.00000000000E+00 -0.36318574017E+03  0.36318574018E+03  0.25500000920E-02 0.  1.
    10030    2    1    2    0    0  0.00000000000E+00  0.00000000000E+00  0.32570202594E+03  0.10520735063E+04  0.10003883511E+04 0.  0.
        3    1    3    3  502    0 -0.27907105293E+03  0.83401805675E+02  0.59050217414E+03  0.65842945077E+03  0.10100000352E+00 0.  1.
       -3    1    3    3    0  502  0.27907105293E+03 -0.83401805675E+02 -0.26480014819E+03  0.39364405553E+03  0.10100000352E+00 0. -1.
</event>
<event>
 5   0  0.3569359E-03  0.9949495E+03  0.7818609E-02  0.9314102E-01
        1   -1    0    0  501    0  0.00000000000E+00  0.00000000000E+00  0.45392657636E+03  0.45392657639E+03  0.50400001928E-02 0. -1.
       -1   -1    0    0    0  501  0.00000000000E+00  0.00000000000E+00 -0.54520075835E+03  0.54520075837E+03  0.50400001928E-02 0.  1.
    10030    2    1    2    0    0  0.00000000000E+00  0.00000000000E+00 -0.91274181987E+02  0.99912733476E+03  0.99494947347E+03 0.  0.
        4    1    3    3  502    0 -0.37774824044E+03  0.10399265040E+03  0.26219750272E+03  0.47144177565E+03  0.12699999809E+01 0. -1.
       -4    1    3    3    0  502  0.37774824044E+03 -0.10399265040E+03 -0.35347168471E+03  0.52768555910E+03  0.12699999809E+01 0.  1.
</event>
<event>
 5   0  0.6606947E-03  0.9990567E+03  0.7818609E-02  0.9309580E-01
       -2   -1    0    0    0  501  0.00000000000E+00  0.00000000000E+00  0.10989826785E+04  0.10989826785E+04  0.25500000920E-02 0. -1.
        2   -1    0    0  501    0  0.00000000000E+00  0.00000000000E+00 -0.22705416448E+03  0.22705416450E+03  0.25500000920E-02 0.  1.
    10030    2    1    2    0    0  0.00000000000E+00  0.00000000000E+00  0.87192851404E+03  0.13260368430E+04  0.99905674286E+03 0.  0.
        1    1    3    3  502    0  0.49151064129E+02  0.33685618858E+03  0.92117986867E+03  0.98206938113E+03  0.50400001928E-02 0. -1.
       -1    1    3    3    0  502 -0.49151064129E+02 -0.33685618858E+03 -0.49251354625E+02  0.34396746190E+03  0.50400001928E-02 0.  1.
</event>
<event>
 5   0  0.6199539E-03  0.9960141E+03  0.7818609E-02  0.9312927E-01
       -2   -1    0    0    0  501  0.00000000000E+00  0.00000000000E+00  0.32636388237E+03  0.32636388238E+03  0.25500000920E-02 0.  1.
        2   -1    0    0  501    0  0.00000000000E+00  0.00000000000E+00 -0.75992182635E+03  0.75992182635E+03  0.25500000920E-02 0. -1.
    10030    2    1    2    0    0  0.00000000000E+00  0.00000000000E+00 -0.43355794398E+03  0.10862857087E+04  0.99601413153E+03 0.  0.
        2    1    3    3  502    0  0.12745338834E+03  0.74148330552E+02  0.30201008060E+03  0.33608396260E+03  0.25500000920E-02 0.  1.
       -2    1    3    3    0  502 -0.12745338834E+03 -0.74148330552E+02 -0.73556802458E+03  0.75020174614E+03  0.25500000920E-02 0. -1.
</event>
<event>
 5   0  0.3643002E-03  0.1014454E+04  0.7818609E-02  0.9292833E-01
        1   -1    0    0  501    0  0.00000000000E+00  0.00000000000E+00  0.50065184921E+03  0.50065184924E+03  0.50400001928E-02 0.  1.
       -1   -1    0    0    0  501  0.00000000000E+00  0.00000000000E+00 -0.51388835355E+03  0.51388835357E+03  0.50400001928E-02 0. -1.
    10030    2    1    2    0    0  0.00000000000E+00  0.00000000000E+00 -0.13236504335E+02  0.10145402028E+04  0.10144538521E+04 0.  0.
        2    1    3    3  502    0 -0.56415857129E+02 -0.70953082434E+02 -0.50572191674E+03  0.51378180769E+03  0.25500000920E-02 0. -1.
       -2    1    3    3    0  502  0.56415857129E+02  0.70953082434E+02  0.49248541240E+03  0.50075839511E+03  0.25500000920E-02 0.  1.
</event>
<event>
 5   0  0.6022787E-03  0.1003404E+04  0.7818609E-02  0.9304819E-01
        2   -1    0    0  501    0  0.00000000000E+00  0.00000000000E+00  0.47315439655E+03  0.47315439655E+03  0.25500000920E-02 0.  1.
       -2   -1    0    0    0  501  0.00000000000E+00  0.00000000000E+00 -0.53197198964E+03  0.53197198965E+03  0.25500000920E-02 0. -1.
    10030    2    1    2    0    0  0.00000000000E+00  0.00000000000E+00 -0.58817593098E+02  0.10051263862E+04  0.10034039780E+04 0.  0.
        5    1    3    3  502    0  0.21089309380E+02  0.22130343775E+03 -0.47991719360E+03  0.52892586744E+03  0.46999998093E+01 0. -1.
       -5    1    3    3    0  502 -0.21089309380E+02 -0.22130343775E+03  0.42109960050E+03  0.47620051877E+03  0.46999998093E+01 0.  1.
</event>
<event>
 5   0  0.3466598E-03  0.1002016E+04  0.7818609E-02  0.9306337E-01
        1   -1    0    0  501    0  0.00000000000E+00  0.00000000000E+00  0.28021843100E+03  0.28021843104E+03  0.50400001928E-02 0. -1.
       -1   -1    0    0    0  501  0.00000000000E+00  0.00000000000E+00 -0.89576143005E+03  0.89576143006E+03  0.50400001928E-02 0.  1.
    10030    2    1    2    0    0  0.00000000000E+00  0.00000000000E+00 -0.61554299905E+03  0.11759798611E+04  0.10020156935E+04 0.  0.
        3    1    3    3  502    0 -0.41316641522E+02  0.19412745246E+03  0.23211185721E+03  0.30539884925E+03  0.10100000352E+00 0. -1.
       -3    1    3    3    0  502  0.41316641522E+02 -0.19412745246E+03 -0.84765485626E+03  0.87058101186E+03  0.10100000352E+00 0.  1.
</event>
<event>
 5   0  0.3466598E-03  0.9918236E+03  0.7818609E-02  0.9317558E-01
        1   -1    0    0  501    0  0.00000000000E+00  0.00000000000E+00  0.71601109837E+03  0.71601109839E+03  0.50400001928E-02 0. -1.
       -1   -1    0    0    0  501  0.00000000000E+00  0.00000000000E+00 -0.34347025036E+03  0.34347025040E+03  0.50400001928E-02 0.  1.
    10030    2    1    2    0    0  0.00000000000E+00  0.00000000000E+00  0.37254084801E+03  0.10594813488E+04  0.99182359571E+03 0.  0.
        3    1    3    3  502    0 -0.14433199760E+03 -0.45994456829E+03  0.31060524719E+03  0.57345999095E+03  0.10100000352E+00 0.  1.
       -3    1    3    3    0  502  0.14433199760E+03  0.45994456829E+03  0.61935600816E+02  0.48602135784E+03  0.10100000352E+00 0. -1.
</event>
<event>
 5   0  0.3569359E-03  0.1001383E+04  0.7818609E-02  0.9307029E-01
        1   -1    0    0  501    0  0.00000000000E+00  0.00000000000E+00  0.64207697640E+03  0.64207697642E+03  0.50400001928E-02 0. -1.
       -1   -1    0    0    0  501  0.00000000000E+00  0.00000000000E+00 -0.39043945576E+03  0.39043945579E+03  0.50400001928E-02 0.  1.
    10030    2    1    2    0    0  0.00000000000E+00  0.00000000000E+00  0.25163752064E+03  0.10325164322E+04  0.10013834136E+04 0.  0.
        4    1    3    3  502    0 -0.26192422382E+03  0.97007983711E+01  0.56568732638E+03  0.62345983723E+03  0.12699999809E+01 0. -1.
       -4    1    3    3    0  502  0.26192422382E+03 -0.97007983711E+01 -0.31404980574E+03  0.40905659498E+03  0.12699999809E+01 0.  1.
</event>
<event>
 5   0  0.6360455E-03  0.9942497E+03  0.7818609E-02  0.9314874E-01
       -2   -1    0    0    0  501  0.00000000000E+00  0.00000000000E+00  0.18226882681E+03  0.18226882682E+03  0.25500000920E-02 0.  1.
        2   -1    0    0  501    0  0.00000000000E+00  0.00000000000E+00 -0.13558716221E+04  0.13558716221E+04  0.25500000920E-02 0. -1.
    10030    2    1    2    0    0  0.00000000000E+00  0.00000000000E+00 -0.11736027952E+04  0.15381404489E+04  0.99424972691E+03 0.  0.
        4    1    3    3  502    0  0.37732695476E+03 -0.12446154055E+01 -0.86091104640E+02  0.38702773938E+03  0.12699999809E+01 0.  1.
       -4    1    3    3    0  502 -0.37732695476E+03  0.12446154055E+01 -0.10875116906E+04  0.11511127095E+04  0.12699999809E+01 0. -1.
</event>
<event>
 5   0  0.6199539E-03  0.1006679E+04  0.7818609E-02  0.9301249E-01
       -2   -1    0    0    0  501  0.00000000000E+00  0.00000000000E+00  0.30894546965E+03  0.30894546966E+03  0.25500000920E-02 0.  1.
        2   -1    0    0  501    0  0.00000000000E+00  0.00000000000E+00 -0.82005016397E+03  0.82005016398E+03  0.25500000920E-02 0. -1.
    10030    2    1    2    0    0  0.00000000000E+00  0.00000000000E+00 -0.51110469432E+03  0.11289956336E+04  0.10066792599E+04 0.  0.
        2    1    3    3  502    0 -0.28827237223E+03  0.12241696433E+03  0.18636026816E+03  0.36444069929E+03  0.25500000920E-02 0.  1.
       -2    1    3    3    0  502  0.28827237223E+03 -0.12241696433E+03 -0.69746496248E+03  0.76455493435E+03  0.25500000920E-02 0. -1.
</event>
<event>
 5   0  0.6360455E-03  0.1000181E+04  0.7818609E-02  0.9308346E-01
       -2   -1    0    0    0  501  0.00000000000E+00  0.00000000000E+00  0.26313261637E+03  0.26313261639E+03  0.25500000920E-02 0.  1.
        2   -1    0    0  501    0  0.00000000000E+00  0.00000000000E+00 -0.95043513642E+03  0.95043513642E+03  0.25500000920E-02 0. -1.
    10030    2    1    2    0    0  0.00000000000E+00  0.00000000000E+00 -0.68730252005E+03  0.12135677528E+04  0.10001809519E+04 0.  0.
        4    1    3    3  502    0 -0.49688167388E+03  0.55361738562E+02 -0.35762065103E+03  0.61469542285E+03  0.12699999809E+01 0. -1.
       -4    1    3    3    0  502  0.49688167388E+03 -0.55361738562E+02 -0.32968186901E+03  0.59887232996E+03  0.12699999809E+01 0.  1.
</event>
<event>
 5   0  0.6606947E-03  0.9969455E+03  0.7818609E-02  0.9311901E-01
       -2   -1    0    0    0  501  0.00000000000E+00  0.00000000000E+00  0.45342327447E+03  0.45342327447E+03  0.25500000920E-02 0. -1.
        2   -1    0    0  501    0  0.00000000000E+00  0.00000000000E+00 -0.54799806944E+03  0.54799806944E+03  0.25500000920E-02 0.  1.
    10030    2    1    2    0    0  0.00000000000E+00  0.00000000000E+00 -0.94574794971E+02  0.10014213439E+04  0.99694549310E+03 0.  0.
        1    1    3    3  502    0  0.20224228399E+03 -0.45442306476E+03 -0.80188315157E+02  0.50381785313E+03  0.50400001928E-02 0.  1.
       -1    1    3    3    0  502 -0.20224228399E+03  0.45442306476E+03 -0.14386479814E+02  0.49760349079E+03  0.50400001928E-02 0. -1.
</event>
<event>
 5   0  0.6376961E-03  0.1000223E+04  0.7818609E-02  0.9308300E-01
        2   -1    0    0  501    0  0.00000000000E+00  0.00000000000E+00  0.42751475038E+03  0.42751475038E+03  0.25500000920E-02 0.  1.
       -2   -1    0    0    0  501  0.00000000000E+00  0.00000000000E+00 -0.58503572504E+03  0.58503572505E+03  0.25500000920E-02 0. -1.
    10030    2    1    2    0    0  0.00000000000E+00  0.00000000000E+00 -0.15752097467E+03  0.10125504754E+04  0.10002227791E+04 0.  0.
        3    1    3    3  502    0  0.90342079443E+02  0.27340920522E+03  0.33517658165E+03  0.44187966225E+03  0.10100000352E+00 0.  1.
       -3    1    3    3    0  502 -0.90342079443E+02 -0.27340920522E+03 -0.49269755632E+03  0.57067081319E+03  0.10100000352E+00 0. -1.
</event>
<event>
 5   0  0.3608845E-03  0.9976766E+03  0.7818609E-02  0.9311097E-01
       -1   -1    0    0    0  501  0.00000000000E+00  0.00000000000E+00  0.12222212537E+03  0.12222212547E+03  0.50400001928E-02 0.  1.
        1   -1    0    0  501    0  0.00000000000E+00  0.00000000000E+00 -0.20359621984E+04  0.20359621984E+04  0.50400001928E-02 0. -1.
    10030    2    1    2    0    0  0.00000000000E+00  0.00000000000E+00 -0.19137400730E+04  0.21581843239E+04  0.99767655515E+03 0.  0.
        1    1    3    3  502    0 -0.36902510088E+03 -0.33522567290E+03 -0.92042457590E+03  0.10467746543E+04  0.50400001928E-02 0. -1.
       -1    1    3    3    0  502  0.36902510088E+03  0.33522567290E+03 -0.99331549711E+03  0.11114096696E+04  0.50400001928E-02 0.  1.
</event>
<event>
 5   0  0.6199539E-03  0.1001885E+04  0.7818609E-02  0.9306480E-01
        2   -1    0    0  501    0  0.00000000000E+00  0.00000000000E+00  0.40637997346E+03  0.40637997347E+03  0.25500000920E-02 0. -1.
       -2   -1    0    0    0  501  0.00000000000E+00  0.00000000000E+00 -0.61750927391E+03  0.61750927391E+03  0.25500000920E-02 0.  1.
    10030    2    1    2    0    0  0.00000000000E+00  0.00000000000E+00 -0.21112930045E+03  0.10238892474E+04  0.10018850280E+04 0.  0.
        2    1    3    3  502    0  0.15777537020E+02 -0.21505733635E+03  0.35652170498E+03  0.41666091096E+03  0.25500000920E-02 0. -1.
       -2    1    3    3    0  502 -0.15777537020E+02  0.21505733635E+03 -0.56765100543E+03  0.60722833643E+03  0.25500000920E-02 0.  1.
</event>
<event>
 5   0  0.3643002E-03  0.1004470E+04  0.7818609E-02  0.9303655E-01
        1   -1    0    0  501    0  0.00000000000E+00  0.00000000000E+00  0.10742200214E+04  0.10742200214E+04  0.50400001928E-02 0.  1.
       -1   -1    0    0    0  501  0.00000000000E+00  0.00000000000E+00 -0.23481234562E+03  0.23481234568E+03  0.50400001928E-02 0. -1.
    10030    2    1    2    0    0  0.00000000000E+00  0.00000000000E+00  0.83940767581E+03  0.13090323671E+04  0.10044702544E+04 0.  0.
        2    1    3    3  502    0 -0.33781230915E+03  0.25555110822E+03  0.68039364266E+02  0.42901384619E+03  0.25500000920E-02 0. -1.
       -2    1    3    3    0  502  0.33781230915E+03 -0.25555110822E+03  0.77136831154E+03  0.88001852093E+03  0.25500000920E-02 0.  1.
</event>
<event>
 5   0  0.6199539E-03  0.1001358E+04  0.7818609E-02  0.9307056E-01
        2   -1    0    0  501    0  0.00000000000E+00  0.00000000000E+00  0.12494502560E+04  0.12494502560E+04  0.25500000920E-02 0.  1.
       -2   -1    0    0    0  501  0.00000000000E+00  0.00000000000E+00 -0.20063191604E+03  0.20063191606E+03  0.25500000920E-02 0. -1.
    10030    2    1    2    0    0  0.00000000000E+00  0.00000000000E+00  0.10488183400E+04  0.14500821721E+04  0.10013582753E+04 0.  0.
        2    1    3    3  502    0  0.22250152633E+03 -0.25813344036E+03  0.10555730142E+04  0.11092223360E+04  0.25500000920E-02 0.  1.
       -2    1    3    3    0  502 -0.22250152633E+03  0.25813344036E+03 -0.67546742281E+01  0.34085983612E+03  0.25500000920E-02 0. -1.
</event>
<event>
 5   0  0.6360455E-03  0.9983732E+03  0.7818609E-02  0.9310331E-01
       -2   -1    0    0    0  501  0.00000000000E+00  0.00000000000E+00  0.62763683215E+03  0.62763683215E+03  0.25500000920E-02 0. -1.
        2   -1    0    0  501    0  0.00000000000E+00  0.00000000000E+00 -0.39702458913E+03  0.39702458914E+03  0.25500000920E-02 0.  1.
    10030    2    1    2    0    0  0.00000000000E+00  0.00000000000E+00  0.23061224302E+03  0.10246614213E+04  0.99837318756E+03 0.  0.
        4    1    3    3  502    0  0.36305431151E+03 -0.78002701077E+02  0.45769605475E+03  0.58938963845E+03  0.12699999809E+01 0. -1.
       -4    1    3    3    0  502 -0.36305431151E+03  0.78002701077E+02 -0.22708381173E+03  0.43527178284E+03  0.12699999809E+01 0.  1.
</event>
<event>
 5   0  0.3608845E-03  0.9573184E+03  0.7818609E-02  0.9356637E-01
        1   -1    0    0  501    0  0.00000000000E+00  0.00000000000E+00  0.45756117158E+03  0.45756117161E+03  0.50400001928E-02 0.  1.
       -1   -1    0    0    0  501  0.00000000000E+00  0.00000000000E+00 -0.50073007437E+03  0.50073007439E+03  0.50400001928E-02 0. -1.
    10030    2    1    2    0    0  0.00000000000E+00  0.00000000000E+00 -0.43168902786E+02  0.95829124601E+03  0.95731842038E+03 0.  0.
        1    1    3    3  502    0 -0.36230360376E+03 -0.11064036071E+03 -0.31447270579E+03  0.49233959157E+03  0.50400001928E-02 0. -1.
       -1    1    3    3    0  502  0.36230360376E+03  0.11064036071E+03  0.27130380301E+03  0.46595165443E+03  0.50400001928E-02 0.  1.
</event>
<event>
 5   0  0.3466598E-03  0.9815357E+03  0.7818609E-02  0.9329031E-01
       -1   -1    0    0    0  501  0.00000000000E+00  0.00000000000E+00  0.23718013797E+03  0.23718013802E+03  0.50400001928E-02 0.  1.
        1   -1    0    0  501    0  0.00000000000E+00  0.00000000000E+00 -0.10154858051E+04  0.10154858051E+04  0.50400001928E-02 0. -1.
    10030    2    1    2    0    0  0.00000000000E+00  0.00000000000E+00 -0.77830566711E+03  0.12526659431E+04  0.98153566088E+03 0.  0.
        3    1    3    3  502    0 -0.36288857476E+03  0.17886991918E+03 -0.74368431810E+03  0.84661026504E+03  0.10100000352E+00 0. -1.
       -3    1    3    3    0  502  0.36288857476E+03 -0.17886991918E+03 -0.34621349004E+02  0.40605567807E+03  0.10100000352E+00 0.  1.
</event>
<event>
 5   0  0.6376961E-03  0.1007174E+04  0.7818609E-02  0.9300711E-01
        2   -1    0    0  501    0  0.00000000000E+00  0.00000000000E+00  0.62983932945E+03  0.62983932946E+03  0.25500000920E-02 0. -1.
       -2   -1    0    0    0  501  0.00000000000E+00  0.00000000000E+00 -0.40264233341E+03  0.40264233342E+03  0.25500000920E-02 0.  1.
    10030    2    1    2    0    0  0.00000000000E+00  0.00000000000E+00  0.22719699604E+03  0.10324816629E+04  0.10071742199E+04 0.  0.
        3    1    3    3  502    0  0.10167594615E+02  0.25627593134E+03  0.55786930739E+03  0.61400236750E+03  0.10100000352E+00 0. -1.
       -3    1    3    3    0  502 -0.10167594615E+02 -0.25627593134E+03 -0.33067231135E+03  0.41847929538E+03  0.10100000352E+00 0.  1.
</event>
<event>
 5   0  0.3640180E-03  0.1005412E+04  0.7818609E-02  0.9302629E-01
        1   -1    0    0  501    0  0.00000000000E+00  0.00000000000E+00  0.13960891004E+04  0.13960891004E+04  0.50400001928E-02 0.  1.
       -1   -1    0    0    0  501  0.00000000000E+00  0.00000000000E+00 -0.18101505667E+03  0.18101505674E+03  0.50400001928E-02 0. -1.
    10030    2    1    2    0    0  0.00000000000E+00  0.00000000000E+00  0.12150740437E+04  0.15771041572E+04  0.10054116524E+04 0.  0.
        5    1    3    3  502    0  0.25007098554E+03  0.18031045161E+03  0.12303458691E+04  0.12683928431E+04  0.46999998093E+01 0.  1.
       -5    1    3    3    0  502 -0.25007098554E+03 -0.18031045161E+03 -0.15271825406E+02  0.30871131404E+03  0.46999998093E+01 0. -1.
</event>
<event>
 5   0  0.3569359E-03  0.9973158E+03  0.7818609E-02  0.9311494E-01
       -1   -1    0    0    0  501  0.00000000000E+00  0.00000000000E+00  0.39672006779E+03  0.39672006782E+03  0.50400001928E-02 0. -1.
        1   -1    0    0  501    0  0.00000000000E+00  0.00000000000E+00 -0.62678882073E+03  0.62678882075E+03  0.50400001928E-02 0.  1.
    10030    2    1    2    0    0  0.00000000000E+00  0.00000000000E+00 -0.23006875294E+03  0.10235088886E+04  0.99731580450E+03 0.  0.
        4    1    3    3  502    0 -0.83930988650E+02  0.37093763271E+03 -0.44602459142E+03  0.58615585578E+03  0.12699999809E+01 0.  1.
       -4    1    3    3    0  502  0.83930988650E+02 -0.37093763271E+03  0.21595583848E+03  0.43735303279E+03  0.12699999809E+01 0. -1.
</event>
<event>
 5   0  0.6360455E-03  0.1001990E+04  0.7818609E-02  0.9306365E-01
        2   -1    0    0  501    0  0.00000000000E+00  0.00000000000E+00  0.28277461506E+03  0.28277461507E+03  0.25500000920E-02 0. -1.
       -2   -1    0    0    0  501  0.00000000000E+00  0.00000000000E+00 -0.88761878056E+03  0.88761878056E+03  0.25500000920E-02 0.  1.
    10030    2    1    2    0    0  0.00000000000E+00  0.00000000000E+00 -0.60484416550E+03  0.11703933956E+04  0.10019901377E+04 0.  0.
        4    1    3    3  502    0 -0.30636572355E+02 -0.11788412924E+03 -0.87005925822E+03  0.87854424659E+03  0.12699999809E+01 0.  1.
       -4    1    3    3    0  502  0.30636572355E+02  0.11788412924E+03  0.26521509272E+03  0.29184914905E+03  0.12699999809E+01 0. -1.
</event>
<event>
 5   0  0.6606947E-03  0.8821087E+03  0.7818609E-02  0.9448227E-01
        2   -1    0    0  501    0  0.00000000000E+00  0.00000000000E+00  0.65559144888E+03  0.65559144889E+03  0.25500000920E-02 0. -1.
       -2   -1    0    0    0  501  0.00000000000E+00  0.00000000000E+00 -0.29672282397E+03  0.29672282398E+03  0.25500000920E-02 0.  1.
    10030    2    1    2    0    0  0.00000000000E+00  0.00000000000E+00  0.35886862492E+03  0.95231427287E+03  0.88210871459E+03 0.  0.
        1    1    3    3  502    0 -0.29173989686E+03 -0.22118568420E+03 -0.86095417325E+02  0.37609532731E+03  0.50400001928E-02 0.  1.
       -1    1    3    3    0  502  0.29173989686E+03  0.22118568420E+03  0.44496404224E+03  0.57621894556E+03  0.50400001928E-02 0. -1.
</event>
<event>
 5   0  0.3643002E-03  0.9595639E+03  0.7818609E-02  0.9354041E-01
       -1   -1    0    0    0  501  0.00000000000E+00  0.00000000000E+00  0.37298749068E+03  0.37298749071E+03  0.50400001928E-02 0. -1.
        1   -1    0    0  501    0  0.00000000000E+00  0.00000000000E+00 -0.61715397532E+03  0.61715397534E+03  0.50400001928E-02 0.  1.
    10030    2    1    2    0    0  0.00000000000E+00  0.00000000000E+00 -0.24416648465E+03  0.99014146605E+03  0.95956388561E+03 0.  0.
        2    1    3    3  502    0 -0.40384107633E+03 -0.18899257921E+03 -0.30488642288E+03  0.54014955409E+03  0.25500000920E-02 0.  1.
       -2    1    3    3    0  502  0.40384107633E+03  0.18899257921E+03  0.60719938231E+02  0.44999191196E+03  0.25500000920E-02 0. -1.
</event>
<event>
 5   0  0.6199539E-03  0.9975065E+03  0.7818609E-02  0.9311284E-01
       -2   -1    0    0    0  501  0.00000000000E+00  0.00000000000E+00  0.31693231485E+03  0.31693231486E+03  0.25500000920E-02 0. -1.
        2   -1    0    0  501    0  0.00000000000E+00  0.00000000000E+00 -0.78488309420E+03  0.78488309420E+03  0.25500000920E-02 0.  1.
    10030    2    1    2    0    0  0.00000000000E+00  0.00000000000E+00 -0.46795077934E+03  0.11018154091E+04  0.99750652316E+03 0.  0.
        2    1    3    3  502    0 -0.33820878500E+00  0.46999103612E+03 -0.49597844444E+02  0.47260092531E+03  0.25500000920E-02 0. -1.
       -2    1    3    3    0  502  0.33820878500E+00 -0.46999103612E+03 -0.41835293490E+03  0.62921448375E+03  0.25500000920E-02 0.  1.
</event>
<event>
 5   0  0.2417750E-03  0.9915958E+03  0.7818609E-02  0.9317811E-01
        3   -1    0    0  501    0  0.00000000000E+00  0.00000000000E+00  0.14039528543E+04  0.14039528580E+04  0.10100000352E+00 0.  1.
       -3   -1    0    0    0  501  0.00000000000E+00  0.00000000000E+00 -0.17508817678E+03  0.17508820591E+03  0.10100000352E+00 0. -1.
    10030    2    1    2    0    0  0.00000000000E+00  0.00000000000E+00  0.12288646776E+04  0.15790410639E+04  0.99159582779E+03 0.  0.
        5    1    3    3  502    0 -0.44862136254E+03  0.20356620325E+03  0.70299682404E+03  0.85844449479E+03  0.46999998093E+01 0. -1.
       -5    1    3    3    0  502  0.44862136254E+03 -0.20356620325E+03  0.52586785351E+03  0.72059656909E+03  0.46999998093E+01 0.  1.
</event>
<event>
 5   0  0.6606947E-03  0.9964590E+03  0.7818609E-02  0.9312437E-01
       -2   -1    0    0    0  501  0.00000000000E+00  0.00000000000E+00  0.29908352220E+03  0.29908352221E+03  0.25500000920E-02 0.  1.
        2   -1    0    0  501    0  0.00000000000E+00  0.00000000000E+00 -0.82997767181E+03  0.82997767181E+03  0.25500000920E-02 0. -1.
    10030    2    1    2    0    0  0.00000000000E+00  0.00000000000E+00 -0.53089414961E+03  0.11290611940E+04  0.99645902162E+03 0.  0.
        1    1    3    3  502    0  0.28259170488E+03 -0.10532243633E+03  0.18391582665E+03  0.35323634946E+03  0.50400001928E-02 0.  1.
       -1    1    3    3    0  502 -0.28259170488E+03  0.10532243633E+03 -0.71480997626E+03  0.77582484457E+03  0.50400001928E-02 0. -1.
</event>
<event>
 5   0  0.6376961E-03  0.1004940E+04  0.7818609E-02  0.9303143E-01
       -2   -1    0    0    0  501  0.00000000000E+00  0.00000000000E+00  0.17445224859E+03  0.17445224861E+03  0.25500000920E-02 0.  1.
        2   -1    0    0  501    0  0.00000000000E+00  0.00000000000E+00 -0.14472504843E+04  0.14472504843E+04  0.25500000920E-02 0. -1.
    10030    2    1    2    0    0  0.00000000000E+00  0.00000000000E+00 -0.12727982357E+04  0.16217027329E+04  0.10049400007E+04 0.  0.
        3    1    3    3  502    0 -0.23813616903E+02  0.28066853125E+03  0.35064552943E+02  0.28385109804E+03  0.10100000352E+00 0.  1.
       -3    1    3    3    0  502  0.23813616903E+02 -0.28066853125E+03 -0.13078627886E+04  0.13378516349E+04  0.10100000352E+00 0. -1.
</event>
<event>
 5   0  0.6199539E-03  0.9991156E+03  0.7818609E-02  0.9309515E-01
       -2   -1    0    0    0  501  0.00000000000E+00  0.00000000000E+00  0.15526983705E+03  0.15526983707E+03  0.25500000920E-02 0.  1.
        2   -1    0    0  501    0  0.00000000000E+00  0.00000000000E+00 -0.16072536874E+04  0.16072536874E+04  0.25500000920E-02 0. -1.
    10030    2    1    2    0    0  0.00000000000E+00  0.00000000000E+00 -0.14519838504E+04  0.17625235245E+04  0.99911564529E+03 0.  0.
        2    1    3    3  502    0  0.45496879845E+03 -0.20624834975E+03 -0.73445747119E+03  0.88823576056E+03  0.25500000920E-02 0.  1.
       -2    1    3    3    0  502 -0.45496879845E+03  0.20624834975E+03 -0.71752637916E+03  0.87428776392E+03  0.25500000920E-02 0. -1.
</event>
<event>
 5   0  0.3640180E-03  0.9977382E+03  0.7818609E-02  0.9311029E-01
       -1   -1    0    0    0  501  0.00000000000E+00  0.00000000000E+00  0.50150621928E+03  0.50150621931E+03  0.50400001928E-02 0. -1.
        1   -1    0    0  501    0  0.00000000000E+00  0.00000000000E+00 -0.49624583870E+03  0.49624583873E+03  0.50400001928E-02 0.  1.
    10030    2    1    2    0    0  0.00000000000E+00  0.00000000000E+00  0.52603805827E+01  0.99775205803E+03  0.99773819096E+03 0.  0.
        5    1    3    3  502    0 -0.18835475757E+03  0.89345914193E+02  0.45583410307E+03  0.50126542530E+03  0.46999998093E+01 0. -1.
       -5    1    3    3    0  502  0.18835475757E+03 -0.89345914193E+02 -0.45057372249E+03  0.49648663273E+03  0.46999998093E+01 0.  1.
</event>
<event>
 5   0  0.6360455E-03  0.1017252E+04  0.7818609E-02  0.9289823E-01
       -2   -1    0    0    0  501  0.00000000000E+00  0.00000000000E+00  0.46762215829E+03  0.46762215830E+03  0.25500000920E-02 0.  1.
        2   -1    0    0  501    0  0.00000000000E+00  0.00000000000E+00 -0.55322486456E+03  0.55322486456E+03  0.25500000920E-02 0. -1.
    10030    2    1    2    0    0  0.00000000000E+00  0.00000000000E+00 -0.85602706268E+02  0.10208470229E+04  0.10172516015E+04 0.  0.
        4    1    3    3  502    0 -0.31652459456E+03  0.37750972875E+03  0.84125634577E+02  0.49978010120E+03  0.12699999809E+01 0.  1.
       -4    1    3    3    0  502  0.31652459456E+03 -0.37750972875E+03 -0.16972834085E+03  0.52106692166E+03  0.12699999809E+01 0. -1.
</event>
<event>
 5   0  0.3466598E-03  0.9971879E+03  0.7818609E-02  0.9311634E-01
       -1   -1    0    0    0  501  0.00000000000E+00  0.00000000000E+00  0.20356322220E+03  0.20356322226E+03  0.50400001928E-02 0.  1.
        1   -1    0    0  501    0  0.00000000000E+00  0.00000000000E+00 -0.12212221235E+04  0.12212221236E+04  0.50400001928E-02 0. -1.
    10030    2    1    2    0    0  0.00000000000E+00  0.00000000000E+00 -0.10176589013E+04  0.14247853458E+04  0.99718786704E+03 0.  0.
        3    1    3    3  502    0 -0.42608090662E+03 -0.36651589367E+02 -0.14257717640E+03  0.45079545186E+03  0.10100000352E+00 0.  1.
       -3    1    3    3    0  502  0.42608090662E+03  0.36651589367E+02 -0.87508172495E+03  0.97398989396E+03  0.10100000352E+00 0. -1.
</event>
<event>
 5   0  0.3608845E-03  0.1009445E+04  0.7818609E-02  0.9298246E-01
        1   -1    0    0  501    0  0.00000000000E+00  0.00000000000E+00  0.13136708122E+04  0.13136708122E+04  0.50400001928E-02 0. -1.
       -1   -1    0    0    0  501  0.00000000000E+00  0.00000000000E+00 -0.19391826034E+03  0.19391826040E+03  0.50400001928E-02 0.  1.
    10030    2    1    2    0    0  0.00000000000E+00  0.00000000000E+00  0.11197525518E+04  0.15075890726E+04  0.10094449140E+04 0.  0.
        1    1    3    3  502    0  0.28510780675E+03  0.20463356051E+03  0.11016287629E+04  0.11561778785E+04  0.50400001928E-02 0. -1.
       -1    1    3    3    0  502 -0.28510780675E+03 -0.20463356051E+03  0.18123788957E+02  0.35141119406E+03  0.50400001928E-02 0.  1.
</event>
<event>
 5   0  0.6376961E-03  0.9905430E+03  0.7818609E-02  0.9318978E-01
        2   -1    0    0  501    0  0.00000000000E+00  0.00000000000E+00  0.10452734968E+04  0.10452734968E+04  0.25500000920E-02 0. -1.
       -2   -1    0    0    0  501  0.00000000000E+00  0.00000000000E+00 -0.23466955466E+03  0.23466955467E+03  0.25500000920E-02 0.  1.
    10030    2    1    2    0    0  0.00000000000E+00  0.00000000000E+00  0.81060394214E+03  0.12799430515E+04  0.99054301472E+03 0.  0.
        3    1    3    3  502    0 -0.44299652763E+03 -0.69366088359E+01  0.69133391054E+03  0.82111913027E+03  0.10100000352E+00 0. -1.
       -3    1    3    3    0  502  0.44299652763E+03  0.69366088359E+01  0.11927003160E+03  0.45882392121E+03  0.10100000352E+00 0.  1.
</event>
<event>
 5   0  0.2417750E-03  0.9871363E+03  0.7818609E-02  0.9322767E-01
       -3   -1    0    0    0  501  0.00000000000E+00  0.00000000000E+00  0.75384075752E+03  0.75384076429E+03  0.10100000352E+00 0. -1.
        3   -1    0    0  501    0  0.00000000000E+00  0.00000000000E+00 -0.32315777166E+03  0.32315778744E+03  0.10100000352E+00 0.  1.
    10030    2    1    2    0    0  0.00000000000E+00  0.00000000000E+00  0.43068298586E+03  0.10769985517E+04  0.98713628548E+03 0.  0.
        2    1    3    3  502    0  0.92417690356E+02 -0.28253115233E+03  0.64522055877E+03  0.71040442777E+03  0.25500000920E-02 0. -1.
       -2    1    3    3    0  502 -0.92417690356E+02  0.28253115233E+03 -0.21453757290E+03  0.36659412396E+03  0.25500000920E-02 0.  1.
</event>
<event>
 5   0  0.3466598E-03  0.1000377E+04  0.7818609E-02  0.9308132E-01
        1   -1    0    0  501    0  0.00000000000E+00  0.00000000000E+00  0.70696643213E+03  0.70696643214E+03  0.50400001928E-02 0. -1.
       -1   -1    0    0    0  501  0.00000000000E+00  0.00000000000E+00 -0.35389019591E+03  0.35389019594E+03  0.50400001928E-02 0.  1.
    10030    2    1    2    0    0  0.00000000000E+00  0.00000000000E+00  0.35307623622E+03  0.10608566281E+04  0.10003769074E+04 0.  0.
        3    1    3    3  502    0  0.33102082364E+03  0.24718950229E+03 -0.12248637450E+03  0.43090643748E+03  0.10100000352E+00 0.  1.
       -3    1    3    3    0  502 -0.33102082364E+03 -0.24718950229E+03  0.47556261072E+03  0.62995019060E+03  0.10100000352E+00 0. -1.
</event>
<event>
 5   0  0.3569359E-03  0.9870340E+03  0.7818609E-02  0.9322881E-01
       -1   -1    0    0    0  501  0.00000000000E+00  0.00000000000E+00  0.19432617061E+03  0.19432617068E+03  0.50400001928E-02 0.  1.
        1   -1    0    0  501    0  0.00000000000E+00  0.00000000000E+00 -0.12533517483E+04  0.12533517483E+04  0.50400001928E-02 0. -1.
    10030    2    1    2    0    0  0.00000000000E+00  0.00000000000E+00 -0.10590255777E+04  0.14476779190E+04  0.98703403331E+03 0.  0.
        4    1    3    3  502    0  0.26354558167E+03 -0.36837791832E+03 -0.81692091044E+03  0.93408776415E+03  0.12699999809E+01 0. -1.
       -4    1    3    3    0  502 -0.26354558167E+03  0.36837791832E+03 -0.24210466723E+03  0.51359015481E+03  0.12699999809E+01 0.  1.
</event>
<event>
 5   0  0.3640180E-03  0.1018645E+04  0.7818609E-02  0.9288328E-01
       -1   -1    0    0    0  501  0.00000000000E+00  0.00000000000E+00  0.22248725258E+03  0.22248725264E+03  0.50400001928E-02 0.  1.
        1   -1    0    0  501    0  0.00000000000E+00  0.00000000000E+00 -0.11659518598E+04  0.11659518599E+04  0.50400001928E-02 0. -1.
    10030    2    1    2    0    0  0.00000000000E+00  0.00000000000E+00 -0.94346460726E+03  0.13884391125E+04  0.10186450333E+04 0.  0.
        5    1    3    3  502    0  0.28856943111E+03 -0.28619599912E+03 -0.89008758263E+03  0.97849806400E+03  0.46999998093E+01 0. -1.
       -5    1    3    3    0  502 -0.28856943111E+03  0.28619599912E+03 -0.53377024624E+02  0.40994104850E+03  0.46999998093E+01 0.  1.
</event>
<event>
 5   0  0.3569359E-03  0.9957654E+03  0.7818609E-02  0.9313201E-01
        1   -1    0    0  501    0  0.00000000000E+00  0.00000000000E+00  0.74947457636E+03  0.74947457638E+03  0.50400001928E-02 0.  1.
       -1   -1    0    0    0  501  0.00000000000E+00  0.00000000000E+00 -0.33074794645E+03  0.33074794648E+03  0.50400001928E-02 0. -1.
    10030    2    1    2    0    0  0.00000000000E+00  0.00000000000E+00  0.41872662991E+03  0.10802225229E+04  0.99576538818E+03 0.  0.
        4    1    3    3  502    0  0.16154816101E+03  0.19526180049E+03  0.67426827900E+03  0.72032236118E+03  0.12699999809E+01 0.  1.
       -4    1    3    3    0  502 -0.16154816101E+03 -0.19526180049E+03 -0.25554164908E+03  0.35990016168E+03  0.12699999809E+01 0. -1.
</event>
<event>
 5   0  0.6376961E-03  0.9950355E+03  0.7818609E-02  0.9314007E-01
        2   -1    0    0  501    0  0.00000000000E+00  0.00000000000E+00  0.30722000388E+04  0.30722000388E+04  0.25500000920E-02 0.  1.
       -2   -1    0    0    0  501  0.00000000000E+00  0.00000000000E+00 -0.80568945094E+02  0.80568945134E+02  0.25500000920E-02 0. -1.
    10030    2    1    2    0    0  0.00000000000E+00  0.00000000000E+00  0.29916310937E+04  0.31527689839E+04  0.99503550953E+03 0.  0.
        3    1    3    3  502    0 -0.41517340277E+03  0.26620901192E+03  0.17032908750E+04  0.17732557648E+04  0.10100000352E+00 0. -1.
       -3    1    3    3    0  502  0.41517340277E+03 -0.26620901192E+03  0.12883402187E+04  0.13795132191E+04  0.10100000352E+00 0.  1.
</event>
<event>
 5   0  0.3569359E-03  0.1001224E+04  0.7818609E-02  0.9307204E-01
        1   -1    0    0  501    0  0.00000000000E+00  0.00000000000E+00  0.47789114934E+03  0.47789114937E+03  0.50400001928E-02 0.  1.
       -1   -1    0    0    0  501  0.00000000000E+00  0.00000000000E+00 -0.52441264348E+03  0.52441264350E+03  0.50400001928E-02 0. -1.
    10030    2    1    2    0    0  0.00000000000E+00  0.00000000000E+00 -0.46521494139E+02  0.10023037929E+04  0.10012235733E+04 0.  0.
        4    1    3    3  502    0  0.38324909499E+03 -0.30757831431E+03 -0.11889527569E+03  0.50559073144E+03  0.12699999809E+01 0.  1.
       -4    1    3    3    0  502 -0.38324909499E+03  0.30757831431E+03  0.72373781548E+02  0.49671306143E+03  0.12699999809E+01 0. -1.
</event>
<event>
 5   0  0.6376961E-03  0.1000745E+04  0.7818609E-02  0.9307728E-01
       -2   -1    0    0    0  501  0.00000000000E+00  0.00000000000E+00  0.80899592680E+03  0.80899592680E+03  0.25500000920E-02 0. -1.
        2   -1    0    0  501    0  0.00000000000E+00  0.00000000000E+00 -0.30948583355E+03  0.30948583356E+03  0.25500000920E-02 0.  1.
    10030    2    1    2    0    0  0.00000000000E+00  0.00000000000E+00  0.49951009325E+03  0.11184817604E+04  0.10007452798E+04 0.  0.
        3    1    3    3  502    0  0.28767944248E+03  0.10850628404E+03  0.69096408260E+03  0.75628331262E+03  0.10100000352E+00 0. -1.
       -3    1    3    3    0  502 -0.28767944248E+03 -0.10850628404E+03 -0.19145398935E+03  0.36219844774E+03  0.10100000352E+00 0.  1.
</event>
<event>
 5   0  0.6360455E-03  0.1000499E+04  0.7818609E-02  0.9307997E-01
       -2   -1    0    0    0  501  0.00000000000E+00  0.00000000000E+00  0.16875286129E+03  0.16875286131E+03  0.25500000920E-02 0. -1.
        2   -1    0    0  501    0  0.00000000000E+00  0.00000000000E+00 -0.14829358496E+04  0.14829358496E+04  0.25500000920E-02 0.  1.
    10030    2    1    2    0    0  0.00000000000E+00  0.00000000000E+00 -0.13141829883E+04  0.16516887109E+04  0.10004992109E+04 0.  0.
        4    1    3    3  502    0 -0.12887462636E+03 -0.44681077158E+03 -0.35268925519E+03  0.58364360576E+03  0.12699999809E+01 0. -1.
       -4    1    3    3    0  502  0.12887462636E+03  0.44681077158E+03 -0.96149373307E+03  0.10680451051E+04  0.12699999809E+01 0.  1.
</event>
<event>
 5   0  0.3569359E-03  0.1012154E+04  0.7818609E-02  0.9295314E-01
        1   -1    0    0  501    0  0.00000000000E+00  0.00000000000E+00  0.64766922171E+03  0.64766922173E+03  0.50400001928E-02 0. -1.
       -1   -1    0    0    0  501  0.00000000000E+00  0.00000000000E+00 -0.39543960803E+03  0.39543960806E+03  0.50400001928E-02 0.  1.
    10030    2    1    2    0    0  0.00000000000E+00  0.00000000000E+00  0.25222961368E+03  0.10431088298E+04  0.10121542633E+04 0.  0.
        4    1    3    3  502    0 -0.33524850455E+03  0.30811346787E+03  0.35374763114E+03  0.57659731904E+03  0.12699999809E+01 0. -1.
       -4    1    3    3    0  502  0.33524850455E+03 -0.30811346787E+03 -0.10151801747E+03  0.46651151075E+03  0.12699999809E+01 0.  1.
</event>
<event>
 5   0  0.3608845E-03  0.1118610E+04  0.7818609E-02  0.9187241E-01
        1   -1    0    0  501    0  0.00000000000E+00  0.00000000000E+00  0.12485588860E+04  0.12485588860E+04  0.50400001928E-02 0.  1.
       -1   -1    0    0    0  501  0.00000000000E+00  0.00000000000E+00 -0.25054655036E+03  0.25054655041E+03  0.50400001928E-02 0. -1.
    10030    2    1    2    0    0  0.00000000000E+00  0.00000000000E+00  0.99801233559E+03  0.14991054364E+04  0.11186100694E+04 0.  0.
        1    1    3    3  502    0 -0.15852956714E+03  0.51789322809E+03  0.68603804346E+03  0.87406705489E+03  0.50400001928E-02 0.  1.
       -1    1    3    3    0  502  0.15852956714E+03 -0.51789322809E+03  0.31197429214E+03  0.62503838149E+03  0.50400001928E-02 0. -1.
</event>
<event>
 5   0  0.6199539E-03  0.9787816E+03  0.7818609E-02  0.9332128E-01
       -2   -1    0    0    0  501  0.00000000000E+00  0.00000000000E+00  0.30082174292E+03  0.30082174293E+03  0.25500000920E-02 0.  1.
        2   -1    0    0  501    0  0.00000000000E+00  0.00000000000E+00 -0.79616366163E+03  0.79616366164E+03  0.25500000920E-02 0. -1.
    10030    2    1    2    0    0  0.00000000000E+00  0.00000000000E+00 -0.49534191871E+03  0.10969854046E+04  0.97878156982E+03 0.  0.
        2    1    3    3  502    0 -0.38938493002E+03  0.87327217350E+02 -0.56517966997E+03  0.69186322779E+03  0.25500000920E-02 0.  1.
       -2    1    3    3    0  502  0.38938493002E+03 -0.87327217350E+02  0.69837751257E+02  0.40512217678E+03  0.25500000920E-02 0. -1.
</event>
<event>
 5   0  0.6376961E-03  0.1004178E+04  0.7818609E-02  0.9303974E-01
        2   -1    0    0  501    0  0.00000000000E+00  0.00000000000E+00  0.13755568511E+04  0.13755568511E+04  0.25500000920E-02 0.  1.
       -2   -1    0    0    0  501  0.00000000000E+00  0.00000000000E+00 -0.18326646250E+03  0.18326646252E+03  0.25500000920E-02 0. -1.
    10030    2    1    2    0    0  0.00000000000E+00  0.00000000000E+00  0.11922903886E+04  0.15588233136E+04  0.10041781477E+04 0.  0.
        3    1    3    3  502    0 -0.29591776839E+03 -0.73817479032E+02 -0.22996333013E+02  0.30585157739E+03  0.10100000352E+00 0. -1.
       -3    1    3    3    0  502  0.29591776839E+03  0.73817479032E+02  0.12152867216E+04  0.12529717362E+04  0.10100000352E+00 0.  1.
</event>
<event>
 5   0  0.3569359E-03  0.8619732E+03  0.7818609E-02  0.9474406E-01
       -1   -1    0    0    0  501  0.00000000000E+00  0.00000000000E+00  0.17602196237E+03  0.17602196244E+03  0.50400001928E-02 0. -1.
        1   -1    0    0  501    0  0.00000000000E+00  0.00000000000E+00 -0.10552630083E+04  0.10552630083E+04  0.50400001928E-02 0.  1.
    10030    2    1    2    0    0  0.00000000000E+00  0.00000000000E+00 -0.87924104591E+03  0.12312849707E+04  0.86197323760E+03 0.  0.
        4    1    3    3  502    0  0.30276575285E+03  0.18623975562E+03 -0.78775063185E+03  0.86423666814E+03  0.12699999809E+01 0.  1.
       -4    1    3    3    0  502 -0.30276575285E+03 -0.18623975562E+03 -0.91490414058E+02  0.36704830260E+03  0.12699999809E+01 0. -1.
</event>
<event>
 5   0  0.3643002E-03  0.1014790E+04  0.7818609E-02  0.9292471E-01
        1   -1    0    0  501    0  0.00000000000E+00  0.00000000000E+00  0.18840882481E+04  0.18840882481E+04  0.50400001928E-02 0.  1.
       -1   -1    0    0    0  501  0.00000000000E+00  0.00000000000E+00 -0.13664405993E+03  0.13664406002E+03  0.50400001928E-02 0. -1.
    10030    2    1    2    0    0  0.00000000000E+00  0.00000000000E+00  0.17474441882E+04  0.20207323082E+04  0.10147895695E+04 0.  0.
        2    1    3    3  502    0  0.29352896223E+03 -0.84674539107E+02  0.67018253412E+02  0.31276265048E+03  0.25500000920E-02 0. -1.
       -2    1    3    3    0  502 -0.29352896223E+03  0.84674539107E+02  0.16804259348E+04  0.17079696577E+04  0.25500000920E-02 0.  1.
</event>
<event>
 5   0  0.3608845E-03  0.1008768E+04  0.7818609E-02  0.9298980E-01
        1   -1    0    0  501    0  0.00000000000E+00  0.00000000000E+00  0.41883410191E+03  0.41883410194E+03  0.50400001928E-02 0.  1.
       -1   -1    0    0    0  501  0.00000000000E+00  0.00000000000E+00 -0.60740782108E+03  0.60740782111E+03  0.50400001928E-02 0. -1.
    10030    2    1    2    0    0  0.00000000000E+00  0.00000000000E+00 -0.18857371918E+03  0.10262419230E+04  0.10087677815E+04 0.  0.
        1    1    3    3  502    0  0.23283247051E+03 -0.35446761640E+03  0.18347166545E+03  0.46208235462E+03  0.50400001928E-02 0.  1.
       -1    1    3    3    0  502 -0.23283247051E+03  0.35446761640E+03 -0.37204538462E+03  0.56415956843E+03  0.50400001928E-02 0. -1.
</event>
<event>
 5   0  0.6199539E-03  0.9900840E+03  0.7818609E-02  0.9319488E-01
       -2   -1    0    0    0  501  0.00000000000E+00  0.00000000000E+00  0.27580117673E+03  0.27580117674E+03  0.25500000920E-02 0.  1.
        2   -1    0    0  501    0  0.00000000000E+00  0.00000000000E+00 -0.88856247912E+03  0.88856247913E+03  0.25500000920E-02 0. -1.
    10030    2    1    2    0    0  0.00000000000E+00  0.00000000000E+00 -0.61276130239E+03  0.11643636559E+04  0.99008399108E+03 0.  0.
        2    1    3    3  502    0  0.50523340787E+02 -0.43228040650E+03 -0.28959290066E+02  0.43618527978E+03  0.25500000920E-02 0.  1.
       -2    1    3    3    0  502 -0.50523340787E+02  0.43228040650E+03 -0.58380201232E+03  0.72817837609E+03  0.25500000920E-02 0. -1.
</event>
<event>
 5   0  0.3640180E-03  0.9677295E+03  0.7818609E-02  0.9344664E-01
       -1   -1    0    0    0  501  0.00000000000E+00  0.00000000000E+00  0.18182989233E+03  0.18182989240E+03  0.50400001928E-02 0. -1.
        1   -1    0    0  501    0  0.00000000000E+00  0.00000000000E+00 -0.12876051198E+04  0.12876051198E+04  0.50400001928E-02 0.  1.
    10030    2    1    2    0    0  0.00000000000E+00  0.00000000000E+00 -0.11057752275E+04  0.14694350122E+04  0.96772950841E+03 0.  0.
        5    1    3    3  502    0  0.23932501185E+03  0.34402866222E+03 -0.18571859915E+03  0.45841648072E+03  0.46999998093E+01 0. -1.
       -5    1    3    3    0  502 -0.23932501185E+03 -0.34402866222E+03 -0.92005662833E+03  0.10110185315E+04  0.46999998093E+01 0.  1.
</event>
<event>
 5   0  0.3466598E-03  0.1001430E+04  0.7818609E-02  0.9306978E-01
       -1   -1    0    0    0  501  0.00000000000E+00  0.00000000000E+00  0.17830739116E+03  0.17830739124E+03  0.50400001928E-02 0.  1.
        1   -1    0    0  501    0  0.00000000000E+00  0.00000000000E+00 -0.14060847423E+04  0.14060847423E+04  0.50400001928E-02 0. -1.
    10030    2    1    2    0    0  0.00000000000E+00  0.00000000000E+00 -0.12277773512E+04  0.15843921336E+04  0.10014295826E+04 0.  0.
        3    1    3    3  502    0 -0.33342783800E+03 -0.21518531568E+03 -0.13079080540E+03  0.41783380454E+03  0.10100000352E+00 0. -1.
       -3    1    3    3    0  502  0.33342783800E+03  0.21518531568E+03 -0.10969865458E+04  0.11665583290E+04  0.10100000352E+00 0.  1.
</event>
<event>
 5   0  0.6376961E-03  0.9990067E+03  0.7818609E-02  0.9309635E-01
       -2   -1    0    0    0  501  0.00000000000E+00  0.00000000000E+00  0.15240264038E+03  0.15240264040E+03  0.25500000920E-02 0. -1.
        2   -1    0    0  501    0  0.00000000000E+00  0.00000000000E+00 -0.16371343600E+04  0.16371343600E+04  0.25500000920E-02 0.  1.
    10030    2    1    2    0    0  0.00000000000E+00  0.00000000000E+00 -0.14847317197E+04  0.17895370005E+04  0.99900670499E+03 0.  0.
        3    1    3    3  502    0  0.12792916548E+03  0.48112379721E+03 -0.81529706164E+03  0.95527759763E+03  0.10100000352E+00 0.  1.
       -3    1    3    3    0  502 -0.12792916548E+03 -0.48112379721E+03 -0.66943465803E+03  0.83425940282E+03  0.10100000352E+00 0. -1.
</event>
<event>
 5   0  0.6376961E-03  0.1009103E+04  0.7818609E-02  0.9298617E-01
        2   -1    0    0  501    0  0.00000000000E+00  0.00000000000E+00  0.90137624380E+03  0.90137624380E+03  0.25500000920E-02 0. -1.
       -2   -1    0    0    0  501  0.00000000000E+00  0.00000000000E+00 -0.28242627034E+03  0.28242627035E+03  0.25500000920E-02 0.  1.
    10030    2    1    2    0    0  0.00000000000E+00  0.00000000000E+00  0.61894997346E+03  0.11838025142E+04  0.10091032271E+04 0.  0.
        3    1    3    3  502    0  0.10766570470E+03  0.48845678597E+03  0.23174386136E+03  0.55125961507E+03  0.10100000352E+00 0.  1.
       -3    1    3    3    0  502 -0.10766570470E+03 -0.48845678597E+03  0.38720611211E+03  0.63254289908E+03  0.10100000352E+00 0. -1.
</event>
<event>
 5   0  0.3608845E-03  0.9910137E+03  0.7818609E-02  0.9318456E-01
       -1   -1    0    0    0  501  0.00000000000E+00  0.00000000000E+00  0.13374306606E+04  0.13374306606E+04  0.50400001928E-02 0.  1.
        1   -1    0    0  501    0  0.00000000000E+00  0.00000000000E+00 -0.18358113738E+03  0.18358113745E+03  0.50400001928E-02 0. -1.
    10030    2    1    2    0    0  0.00000000000E+00  0.00000000000E+00  0.11538495232E+04  0.15210117980E+04  0.99101370707E+03 0.  0.
        1    1    3    3  502    0 -0.30772134138E+03  0.22086608562E+03  0.10672286786E+04  0.11324536654E+04  0.50400001928E-02 0.  1.
       -1    1    3    3    0  502  0.30772134138E+03 -0.22086608562E+03  0.86620844567E+02  0.38855813266E+03  0.50400001928E-02 0. -1.
</event>
<event>
 5   0  0.6606947E-03  0.1008420E+04  0.7818609E-02  0.9299357E-01
       -2   -1    0    0    0  501  0.00000000000E+00  0.00000000000E+00  0.15791894595E+03  0.15791894597E+03  0.25500000920E-02 0. -1.
        2   -1    0    0  501    0  0.00000000000E+00  0.00000000000E+00 -0.16098636408E+04  0.16098636408E+04  0.25500000920E-02 0.  1.
    10030    2    1    2    0    0  0.00000000000E+00  0.00000000000E+00 -0.14519446949E+04  0.17677825868E+04  0.10084204863E+04 0.  0.
        1    1    3    3  502    0 -0.47660881641E+03  0.29293413635E+02 -0.44214579514E+03  0.65077413297E+03  0.50400001928E-02 0. -1.
       -1    1    3    3    0  502  0.47660881641E+03 -0.29293413635E+02 -0.10097988997E+04  0.11170084538E+04  0.50400001928E-02 0.  1.
</event>
<event>
 5   0  0.3643002E-03  0.9365066E+03  0.7818609E-02  0.9381063E-01
        1   -1    0    0  501    0  0.00000000000E+00  0.00000000000E+00  0.55202159980E+03  0.55202159982E+03  0.50400001928E-02 0. -1.
       -1   -1    0    0    0  501  0.00000000000E+00  0.00000000000E+00 -0.39719665977E+03  0.39719665981E+03  0.50400001928E-02 0.  1.
    10030    2    1    2    0    0  0.00000000000E+00  0.00000000000E+00  0.15482494002E+03  0.94921825963E+03  0.93650656290E+03 0.  0.
        2    1    3    3  502    0  0.14466571716E+03  0.14772682200E+03  0.50324576111E+03  0.54406587813E+03  0.25500000920E-02 0. -1.
       -2    1    3    3    0  502 -0.14466571716E+03 -0.14772682200E+03 -0.34842082109E+03  0.40515238150E+03  0.25500000920E-02 0.  1.
</event>
<event>
 5   0  0.3608845E-03  0.1001407E+04  0.7818609E-02  0.9307003E-01
        1   -1    0    0  501    0  0.00000000000E+00  0.00000000000E+00  0.33226216545E+03  0.33226216549E+03  0.50400001928E-02 0.  1.
       -1   -1    0    0    0  501  0.00000000000E+00  0.00000000000E+00 -0.75453642304E+03  0.75453642306E+03  0.50400001928E-02 0. -1.
    10030    2    1    2    0    0  0.00000000000E+00  0.00000000000E+00 -0.42227425759E+03  0.10867985886E+04  0.10014068222E+04 0.  0.
        1    1    3    3  502    0 -0.59421364190E+02  0.91150498055E+02 -0.74155043487E+03  0.74949073329E+03  0.50400001928E-02 0. -1.
       -1    1    3    3    0  502  0.59421364190E+02 -0.91150498055E+02  0.31927617728E+03  0.33730785526E+03  0.50400001928E-02 0.  1.
</event>
<event>
 5   0  0.2417750E-03  0.9997763E+03  0.7818609E-02  0.9308790E-01
        4   -1    0    0  501    0  0.00000000000E+00  0.00000000000E+00  0.31946345969E+03  0.31946598407E+03  0.12699999809E+01 0. -1.
       -4   -1    0    0    0  501  0.00000000000E+00  0.00000000000E+00 -0.78220595754E+03  0.78220698853E+03  0.12699999809E+01 0.  1.
    10030    2    1    2    0    0  0.00000000000E+00  0.00000000000E+00 -0.46274249784E+03  0.11016729726E+04  0.99977633462E+03 0.  0.
        1    1    3    3  502    0  0.23501545222E+03  0.12916636026E+02  0.25458531288E+03  0.34671715249E+03  0.50400001928E-02 0. -1.
       -1    1    3    3    0  502 -0.23501545222E+03 -0.12916636026E+02 -0.71732781073E+03  0.75495582012E+03  0.50400001928E-02 0.  1.
</event>
<event>
 5   0  0.6376961E-03  0.9810211E+03  0.7818609E-02  0.9329609E-01
       -2   -1    0    0    0  501  0.00000000000E+00  0.00000000000E+00  0.24719235251E+03  0.24719235252E+03  0.25500000920E-02 0.  1.
        2   -1    0    0  501    0  0.00000000000E+00  0.00000000000E+00 -0.97333343174E+03  0.97333343174E+03  0.25500000920E-02 0. -1.
    10030    2    1    2    0    0  0.00000000000E+00  0.00000000000E+00 -0.72614107923E+03  0.12205257843E+04  0.98102106150E+03 0.  0.
        3    1    3    3  502    0  0.26331060365E+02 -0.58526281991E+02 -0.96808756880E+03  0.97021245173E+03  0.10100000352E+00 0. -1.
       -3    1    3    3    0  502 -0.26331060365E+02  0.58526281991E+02  0.24194648957E+03  0.25031333253E+03  0.10100000352E+00 0.  1.
</event>
<event>
 5   0  0.3643002E-03  0.1005333E+04  0.7818609E-02  0.9302715E-01
        1   -1    0    0  501    0  0.00000000000E+00  0.00000000000E+00  0.34493112693E+03  0.34493112697E+03  0.50400001928E-02 0.  1.
       -1   -1    0    0    0  501  0.00000000000E+00  0.00000000000E+00 -0.73253330165E+03  0.73253330167E+03  0.50400001928E-02 0. -1.
    10030    2    1    2    0    0  0.00000000000E+00  0.00000000000E+00 -0.38760217472E+03  0.10774644286E+04  0.10053328549E+04 0.  0.
        2    1    3    3  502    0 -0.28988374927E+03 -0.11182439706E+03 -0.61729282583E+03  0.69107721471E+03  0.25500000920E-02 0. -1.
       -2    1    3    3    0  502  0.28988374927E+03  0.11182439706E+03  0.22969065111E+03  0.38638721392E+03  0.25500000920E-02 0.  1.
</event>
<event>
 5   0  0.3643002E-03  0.1051735E+04  0.7818609E-02  0.9253555E-01
       -1   -1    0    0    0  501  0.00000000000E+00  0.00000000000E+00  0.35599596384E+03  0.35599596388E+03  0.50400001928E-02 0. -1.
        1   -1    0    0  501    0  0.00000000000E+00  0.00000000000E+00 -0.77679655119E+03  0.77679655121E+03  0.50400001928E-02 0.  1.
    10030    2    1    2    0    0  0.00000000000E+00  0.00000000000E+00 -0.42080058735E+03  0.11327925151E+04  0.10517346376E+04 0.  0.
        2    1    3    3  502    0 -0.31791176294E+03 -0.41094275750E+03 -0.29786611075E+03  0.59888735076E+03  0.25500000920E-02 0. -1.
       -2    1    3    3    0  502  0.31791176294E+03  0.41094275750E+03 -0.12293447660E+03  0.53390516433E+03  0.25500000920E-02 0.  1.
</event>
<event>
 5   0  0.6199539E-03  0.1008112E+04  0.7818609E-02  0.9299692E-01
       -2   -1    0    0    0  501  0.00000000000E+00  0.00000000000E+00  0.34277309763E+03  0.34277309764E+03  0.25500000920E-02 0.  1.
        2   -1    0    0  501    0  0.00000000000E+00  0.00000000000E+00 -0.74122673116E+03  0.74122673117E+03  0.25500000920E-02 0. -1.
    10030    2    1    2    0    0  0.00000000000E+00  0.00000000000E+00 -0.39845363354E+03  0.10839998288E+04  0.10081122610E+04 0.  0.
        2    1    3    3  502    0  0.40489355494E+02 -0.50210904011E+03 -0.18000049847E+03  0.53493275795E+03  0.25500000920E-02 0. -1.
       -2    1    3    3    0  502 -0.40489355494E+02  0.50210904011E+03 -0.21845313506E+03  0.54906707085E+03  0.25500000920E-02 0.  1.
</event>
<event>
 5   0  0.2417750E-03  0.9480995E+03  0.7818609E-02  0.9367375E-01
        3   -1    0    0  501    0  0.00000000000E+00  0.00000000000E+00  0.23627242778E+03  0.23627244936E+03  0.10100000352E+00 0.  1.
       -3   -1    0    0    0  501  0.00000000000E+00  0.00000000000E+00 -0.95111887422E+03  0.95111887958E+03  0.10100000352E+00 0. -1.
    10030    2    1    2    0    0  0.00000000000E+00  0.00000000000E+00 -0.71484644644E+03  0.11873913289E+04  0.94809953384E+03 0.  0.
        1    1    3    3  502    0 -0.22527267492E+03  0.16146228471E+03  0.12422710258E+03  0.30372721394E+03  0.50400001928E-02 0.  1.
       -1    1    3    3    0  502  0.22527267492E+03 -0.16146228471E+03 -0.83907354902E+03  0.88366411500E+03  0.50400001928E-02 0. -1.
</event>
<event>
 5   0  0.3466598E-03  0.1018110E+04  0.7818609E-02  0.9288902E-01
       -1   -1    0    0    0  501  0.00000000000E+00  0.00000000000E+00  0.16837829652E+03  0.16837829659E+03  0.50400001928E-02 0. -1.
        1   -1    0    0  501    0  0.00000000000E+00  0.00000000000E+00 -0.15390161592E+04  0.15390161592E+04  0.50400001928E-02 0.  1.
    10030    2    1    2    0    0  0.00000000000E+00  0.00000000000E+00 -0.13706378627E+04  0.17073944558E+04  0.10181098551E+04 0.  0.
        3    1    3    3  502    0 -0.43664419804E+03 -0.11358208589E+03 -0.28996128004E+03  0.53631762980E+03  0.10100000352E+00 0.  1.
       -3    1    3    3    0  502  0.43664419804E+03  0.11358208589E+03 -0.10806765827E+04  0.11710768260E+04  0.10100000352E+00 0. -1.
</event>
<event>
 5   0  0.6022787E-03  0.1004706E+04  0.7818609E-02  0.9303398E-01
       -2   -1    0    0    0  501  0.00000000000E+00  0.00000000000E+00  0.38028194342E+03  0.38028194343E+03  0.25500000920E-02 0. -1.
        2   -1    0    0  501    0  0.00000000000E+00  0.00000000000E+00 -0.66360898227E+03  0.66360898227E+03  0.25500000920E-02 0.  1.
    10030    2    1    2    0    0  0.00000000000E+00  0.00000000000E+00 -0.28332703885E+03  0.10438909257E+04  0.10047059539E+04 0.  0.
        5    1    3    3  502    0  0.26705329617E+03 -0.33422729105E+03  0.13187435915E+03  0.44770334115E+03  0.46999998093E+01 0. -1.
       -5    1    3    3    0  502 -0.26705329617E+03  0.33422729105E+03 -0.41520139800E+03  0.59618758455E+03  0.46999998093E+01 0.  1.
</event>
<event>
 5   0  0.3466598E-03  0.9949110E+03  0.7818609E-02  0.9314144E-01
       -1   -1    0    0    0  501  0.00000000000E+00  0.00000000000E+00  0.56475186110E+03  0.56475186112E+03  0.50400001928E-02 0.  1.
        1   -1    0    0  501    0  0.00000000000E+00  0.00000000000E+00 -0.43817822620E+03  0.43817822623E+03  0.50400001928E-02 0. -1.
    10030    2    1    2    0    0  0.00000000000E+00  0.00000000000E+00  0.12657363490E+03  0.10029300874E+04  0.99491098851E+03 0.  0.
        3    1    3    3  502    0 -0.93927937962E+02  0.44447724921E+02 -0.42711541864E+03  0.43957439510E+03  0.10100000352E+00 0. -1.
       -3    1    3    3    0  502  0.93927937962E+02 -0.44447724921E+02  0.55368905355E+03  0.56335569226E+03  0.10100000352E+00 0.  1.
</event>
<event>
 5   0  0.6199539E-03  0.9957831E+03  0.7818609E-02  0.9313182E-01
        2   -1    0    0  501    0  0.00000000000E+00  0.00000000000E+00  0.79485029443E+03  0.79485029443E+03  0.25500000920E-02 0. -1.
       -2   -1    0    0    0  501  0.00000000000E+00  0.00000000000E+00 -0.31187758158E+03  0.31187758159E+03  0.25500000920E-02 0.  1.
    10030    2    1    2    0    0  0.00000000000E+00  0.00000000000E+00  0.48297271285E+03  0.11067278760E+04  0.99578308391E+03 0.  0.
        2    1    3    3  502    0  0.26188296730E+03  0.14208953457E+03 -0.20186063086E+03  0.35988864763E+03  0.25500000920E-02 0.  1.
       -2    1    3    3    0  502 -0.26188296730E+03 -0.14208953457E+03  0.68483334371E+03  0.74683922839E+03  0.25500000920E-02 0. -1.
</event>
<event>
 5   0  0.6199539E-03  0.9991371E+03  0.7818609E-02  0.9309492E-01
       -2   -1    0    0    0  501  0.00000000000E+00  0.00000000000E+00  0.24397890780E+03  0.24397890781E+03  0.25500000920E-02 0. -1.
        2   -1    0    0  501    0  0.00000000000E+00  0.00000000000E+00 -0.10229112072E+04  0.10229112072E+04  0.25500000920E-02 0.  1.
    10030    2    1    2    0    0  0.00000000000E+00  0.00000000000E+00 -0.77893229936E+03  0.12668901150E+04  0.99913714596E+03 0.  0.
        2    1    3    3  502    0 -0.92215365421E+02 -0.13414381883E+03  0.20940712570E+03  0.26523495631E+03  0.25500000920E-02 0. -1.
       -2    1    3    3    0  502  0.92215365421E+02  0.13414381883E+03 -0.98833942506E+03  0.10016551587E+04  0.25500000920E-02 0.  1.
</event>
<event>
 5   0  0.3608845E-03  0.1001300E+04  0.7818609E-02  0.9307120E-01
        1   -1    0    0  501    0  0.00000000000E+00  0.00000000000E+00  0.14467904104E+04  0.14467904104E+04  0.50400001928E-02 0. -1.
       -1   -1    0    0    0  501  0.00000000000E+00  0.00000000000E+00 -0.17324585026E+03  0.17324585033E+03  0.50400001928E-02 0.  1.
    10030    2    1    2    0    0  0.00000000000E+00  0.00000000000E+00  0.12735445601E+04  0.16200362607E+04  0.10013000247E+04 0.  0.
        1    1    3    3  502    0 -0.32444436271E+03 -0.21339199207E+03  0.12552046244E+03  0.40811232925E+03  0.50400001928E-02 0. -1.
       -1    1    3    3    0  502  0.32444436271E+03  0.21339199207E+03  0.11480240977E+04  0.12119239314E+04  0.50400001928E-02 0.  1.
</event>
<event>
 5   0  0.6376961E-03  0.9538998E+03  0.7818609E-02  0.9360604E-01
        2   -1    0    0  501    0  0.00000000000E+00  0.00000000000E+00  0.46396286274E+03  0.46396286275E+03  0.25500000920E-02 0.  1.
       -2   -1    0    0    0  501  0.00000000000E+00  0.00000000000E+00 -0.49030041436E+03  0.49030041436E+03  0.25500000920E-02 0. -1.
    10030    2    1    2    0    0  0.00000000000E+00  0.00000000000E+00 -0.26337551616E+02  0.95426327711E+03  0.95389975124E+03 0.  0.
        3    1    3    3  502    0 -0.44720680429E+03  0.13648745494E+02 -0.17846176430E+03  0.48169370515E+03  0.10100000352E+00 0. -1.
       -3    1    3    3    0  502  0.44720680429E+03 -0.13648745494E+02  0.15212421269E+03  0.47256957197E+03  0.10100000352E+00 0.  1.
</event>
<event>
 5   0  0.6199539E-03  0.9944937E+03  0.7818609E-02  0.9314605E-01
        2   -1    0    0  501    0  0.00000000000E+00  0.00000000000E+00  0.12378972516E+04  0.12378972516E+04  0.25500000920E-02 0. -1.
       -2   -1    0    0    0  501  0.00000000000E+00  0.00000000000E+00 -0.19973745093E+03  0.19973745095E+03  0.25500000920E-02 0.  1.
    10030    2    1    2    0    0  0.00000000000E+00  0.00000000000E+00  0.10381598006E+04  0.14376347025E+04  0.99449372357E+03 0.  0.
        2    1    3    3  502    0  0.81347124934E+02 -0.20683725135E+03  0.11620940012E+04  0.11831574160E+04  0.25500000920E-02 0. -1.
       -2    1    3    3    0  502 -0.81347124934E+02  0.20683725135E+03 -0.12393420060E+03  0.25447728654E+03  0.25500000920E-02 0.  1.
</event>
<event>
 5   0  0.3466598E-03  0.9976390E+03  0.7818609E-02  0.9311138E-01
       -1   -1    0    0    0  501  0.00000000000E+00  0.00000000000E+00  0.41417021238E+03  0.41417021241E+03  0.50400001928E-02 0. -1.
        1   -1    0    0  501    0  0.00000000000E+00  0.00000000000E+00 -0.60076970125E+03  0.60076970127E+03  0.50400001928E-02 0.  1.
    10030    2    1    2    0    0  0.00000000000E+00  0.00000000000E+00 -0.18659948887E+03  0.10149399137E+04  0.99763904250E+03 0.  0.
        3    1    3    3  502    0 -0.20443061170E+02 -0.22914492783E+03 -0.54357618298E+03  0.59025451595E+03  0.10100000352E+00 0.  1.
       -3    1    3    3    0  502  0.20443061170E+02  0.22914492783E+03  0.35697669411E+03  0.42468539772E+03  0.10100000352E+00 0. -1.
</event>
<event>
 5   0  0.3466598E-03  0.9944258E+03  0.7818609E-02  0.9314680E-01
        1   -1    0    0  501    0  0.00000000000E+00  0.00000000000E+00  0.18746214903E+04  0.18746214903E+04  0.50400001928E-02 0.  1.
       -1   -1    0    0    0  501  0.00000000000E+00  0.00000000000E+00 -0.13187763501E+03  0.13187763510E+03  0.50400001928E-02 0. -1.
    10030    2    1    2    0    0  0.00000000000E+00  0.00000000000E+00  0.17427438553E+04  0.20064991254E+04  0.99442576148E+03 0.  0.
        3    1    3    3  502    0 -0.41365330865E+03  0.19034107363E+03  0.46841903237E+03  0.65326501832E+03  0.10100000352E+00 0. -1.
       -3    1    3    3    0  502  0.41365330865E+03 -0.19034107363E+03  0.12743248229E+04  0.13532341071E+04  0.10100000352E+00 0.  1.
</event>
<event>
 5   0  0.3569359E-03  0.9867613E+03  0.7818609E-02  0.9323185E-01
       -1   -1    0    0    0  501  0.00000000000E+00  0.00000000000E+00  0.49320338774E+03  0.49320338776E+03  0.50400001928E-02 0.  1.
        1   -1    0    0  501    0  0.00000000000E+00  0.00000000000E+00 -0.49355796749E+03  0.49355796752E+03  0.50400001928E-02 0. -1.
    10030    2    1    2    0    0  0.00000000000E+00  0.00000000000E+00 -0.35457975680E+00  0.98676135528E+03  0.98676129157E+03 0.  0.
        4    1    3    3  502    0 -0.47290182625E+03 -0.81897901487E+02  0.11418811962E+03  0.49333958193E+03  0.12699999809E+01 0.  1.
       -4    1    3    3    0  502  0.47290182625E+03  0.81897901487E+02 -0.11454269938E+03  0.49342177335E+03  0.12699999809E+01 0. -1.
</event>
<event>
 5   0  0.6376961E-03  0.1001034E+04  0.7818609E-02  0.9307412E-01
        2   -1    0    0  501    0  0.00000000000E+00  0.00000000000E+00  0.99540129675E+03  0.99540129676E+03  0.25500000920E-02 0. -1.
       -2   -1    0    0    0  501  0.00000000000E+00  0.00000000000E+00 -0.25167445297E+03  0.25167445298E+03  0.25500000920E-02 0.  1.
    10030    2    1    2    0    0  0.00000000000E+00  0.00000000000E+00  0.74372684378E+03  0.12470757497E+04  0.10010336195E+04 0.  0.
        3    1    3    3  502    0 -0.41190662344E+02 -0.64817329261E+02 -0.24429070469E+03  0.25607794797E+03  0.10100000352E+00 0.  1.
       -3    1    3    3    0  502  0.41190662344E+02  0.64817329261E+02  0.98801754847E+03  0.99099780178E+03  0.10100000352E+00 0. -1.
</event>
<event>
 5   0  0.6199539E-03  0.1004061E+04  0.7818609E-02  0.9304102E-01
        2   -1    0    0  501    0  0.00000000000E+00  0.00000000000E+00  0.15328624599E+04  0.15328624599E+04  0.25500000920E-02 0. -1.
       -2   -1    0    0    0  501  0.00000000000E+00  0.00000000000E+00 -0.16442096396E+03  0.16442096398E+03  0.25500000920E-02 0.  1.
    10030    2    1    2    0    0  0.00000000000E+00  0.00000000000E+00  0.13684414959E+04  0.16972834238E+04  0.10040611999E+04 0.  0.
        2    1    3    3  502    0  0.21117216158E+03 -0.44358605736E+03  0.85885373115E+03  0.98944024763E+03  0.25500000920E-02 0.  1.
       -2    1    3    3    0  502 -0.21117216158E+03  0.44358605736E+03  0.50958776475E+03  0.70784317621E+03  0.25500000920E-02 0. -1.
</event>
<event>
 5   0  0.6360455E-03  0.9996943E+03  0.7818609E-02  0.9308880E-01
       -2   -1    0    0    0  501  0.00000000000E+00  0.00000000000E+00  0.48947483118E+03  0.48947483119E+03  0.25500000920E-02 0. -1.
        2   -1    0    0  501    0  0.00000000000E+00  0.00000000000E+00 -0.51043925742E+03  0.51043925743E+03  0.25500000920E-02 0.  1.
    10030    2    1    2    0    0  0.00000000000E+00  0.00000000000E+00 -0.20964426236E+02  0.99991408862E+03  0.99969429200E+03 0.  0.
        4    1    3    3  502    0  0.37989492387E+03  0.29881675682E+03 -0.13792274209E+03  0.50262899143E+03  0.12699999809E+01 0.  1.
       -4    1    3    3    0  502 -0.37989492387E+03 -0.29881675682E+03  0.11695831586E+03  0.49728509719E+03  0.12699999809E+01 0. -1.
</event>
<event>
 5   0  0.3643002E-03  0.9962078E+03  0.7818609E-02  0.9312714E-01
        1   -1    0    0  501    0  0.00000000000E+00  0.00000000000E+00  0.87074964232E+03  0.87074964234E+03  0.50400001928E-02 0. -1.
       -1   -1    0    0    0  501  0.00000000000E+00  0.00000000000E+00 -0.28493548677E+03  0.28493548682E+03  0.50400001928E-02 0.  1.
    10030    2    1    2    0    0  0.00000000000E+00  0.00000000000E+00  0.58581415555E+03  0.11556851292E+04  0.99620775589E+03 0.  0.
        2    1    3    3  502    0 -0.47295998091E+03  0.15446110417E+03  0.26550115422E+03  0.56395056444E+03  0.25500000920E-02 0.  1.
       -2    1    3    3    0  502  0.47295998091E+03 -0.15446110417E+03  0.32031300133E+03  0.59173456471E+03  0.25500000920E-02 0. -1.
</event>
<event>
 5   0  0.2417750E-03  0.1013425E+04  0.7818609E-02  0.9293942E-01
        3   -1    0    0  501    0  0.00000000000E+00  0.00000000000E+00  0.38093400471E+03  0.38093401810E+03  0.10100000352E+00 0. -1.
       -3   -1    0    0    0  501  0.00000000000E+00  0.00000000000E+00 -0.67402072870E+03  0.67402073627E+03  0.10100000352E+00 0.  1.
    10030    2    1    2    0    0  0.00000000000E+00  0.00000000000E+00 -0.29308672399E+03  0.10549547544E+04  0.10134247411E+04 0.  0.
        2    1    3    3  502    0  0.43666642577E+02 -0.46374544622E+03 -0.35419422073E+03  0.58516678013E+03  0.25500000920E-02 0.  1.
       -2    1    3    3    0  502 -0.43666642577E+02  0.46374544622E+03  0.61107496734E+02  0.46978797423E+03  0.25500000920E-02 0. -1.
</event>
<event>
 5   0  0.6376961E-03  0.9975440E+03  0.7818609E-02  0.9311243E-01
       -2   -1    0    0    0  501  0.00000000000E+00  0.00000000000E+00  0.33275415513E+03  0.33275415514E+03  0.25500000920E-02 0.  1.
        2   -1    0    0  501    0  0.00000000000E+00  0.00000000000E+00 -0.74761948186E+03  0.74761948186E+03  0.25500000920E-02 0. -1.
    10030    2    1    2    0    0  0.00000000000E+00  0.00000000000E+00 -0.41486532673E+03  0.10803736370E+04  0.99754396204E+03 0.  0.
        3    1    3    3  502    0  0.31886919095E+03 -0.20639459472E+03  0.14266905166E+03  0.40574716039E+03  0.10100000352E+00 0.  1.
       -3    1    3    3    0  502 -0.31886919095E+03  0.20639459472E+03 -0.55753437839E+03  0.67462647661E+03  0.10100000352E+00 0. -1.
</event>
<event>
 5   0  0.6199539E-03  0.9900275E+03  0.7818609E-02  0.9319551E-01
        2   -1    0    0  501    0  0.00000000000E+00  0.00000000000E+00  0.11059295373E+04  0.11059295373E+04  0.25500000920E-02 0.  1.
       -2   -1    0    0    0  501  0.00000000000E+00  0.00000000000E+00 -0.22156799927E+03  0.22156799929E+03  0.25500000920E-02 0. -1.
    10030    2    1    2    0    0  0.00000000000E+00  0.00000000000E+00  0.88436153803E+03  0.13274975366E+04  0.99002746412E+03 0.  0.
        2    1    3    3  502    0 -0.26750880974E+03 -0.41332229708E+02  0.99790486373E+03  0.10339649093E+04  0.25500000920E-02 0.  1.
       -2    1    3    3    0  502  0.26750880974E+03  0.41332229708E+02 -0.11354332570E+03  0.29353262735E+03  0.25500000920E-02 0. -1.
</event>
<event>
 5   0  0.3608845E-03  0.9909426E+03  0.7818609E-02  0.9318535E-01
       -1   -1    0    0    0  501  0.00000000000E+00  0.00000000000E+00  0.51078109943E+03  0.51078109946E+03  0.50400001928E-02 0. -1.
        1   -1    0    0  501    0  0.00000000000E+00  0.00000000000E+00 -0.48062037303E+03  0.48062037306E+03  0.50400001928E-02 0.  1.
    10030    2    1    2    0    0  0.00000000000E+00  0.00000000000E+00  0.30160726398E+02  0.99140147251E+03  0.99094258678E+03 0.  0.
        1    1    3    3  502    0  0.23200571383E+03 -0.23568119116E+03  0.38419501354E+03  0.50693005787E+03  0.50400001928E-02 0. -1.
       -1    1    3    3    0  502 -0.23200571383E+03  0.23568119116E+03 -0.35403428714E+03  0.48447141465E+03  0.50400001928E-02 0.  1.
</event>
<event>
 5   0  0.3466598E-03  0.9987217E+03  0.7818609E-02  0.9309948E-01
       -1   -1    0    0    0  501  0.00000000000E+00  0.00000000000E+00  0.42569798116E+03  0.42569798119E+03  0.50400001928E-02 0. -1.
        1   -1    0    0  501    0  0.00000000000E+00  0.00000000000E+00 -0.58577041131E+03  0.58577041133E+03  0.50400001928E-02 0.  1.
    10030    2    1    2    0    0  0.00000000000E+00  0.00000000000E+00 -0.16007243014E+03  0.10114683925E+04  0.99872174612E+03 0.  0.
        3    1    3    3  502    0  0.38130304094E+03 -0.25410120660E+03 -0.28106861460E+03  0.53754907547E+03  0.10100000352E+00 0.  1.
       -3    1    3    3    0  502 -0.38130304094E+03  0.25410120660E+03  0.12099618445E+03  0.47391931705E+03  0.10100000352E+00 0. -1.
</event>
<event>
 5   0  0.3569359E-03  0.1004199E+04  0.7818609E-02  0.9303951E-01
        1   -1    0    0  501    0  0.00000000000E+00  0.00000000000E+00  0.16613900861E+04  0.16613900861E+04  0.50400001928E-02 0. -1.
       -1   -1    0    0    0  501  0.00000000000E+00  0.00000000000E+00 -0.15174272568E+03  0.15174272577E+03  0.50400001928E-02 0.  1.
    10030    2    1    2    0    0  0.00000000000E+00  0.00000000000E+00  0.15096473604E+04  0.18131328118E+04  0.10041989049E+04 0.  0.
        4    1    3    3  502    0  0.46499839630E+03 -0.68057283374E+02  0.43565986010E+03  0.64082480366E+03  0.12699999809E+01 0.  1.
       -4    1    3    3    0  502 -0.46499839630E+03  0.68057283374E+02  0.10739875003E+04  0.11723080082E+04  0.12699999809E+01 0. -1.
</event>
<event>
 5   0  0.2417750E-03  0.9967915E+03  0.7818609E-02  0.9312071E-01
        3   -1    0    0  501    0  0.00000000000E+00  0.00000000000E+00  0.21294960500E+03  0.21294962895E+03  0.10100000352E+00 0. -1.
       -3   -1    0    0    0  501  0.00000000000E+00  0.00000000000E+00 -0.11664651762E+04  0.11664651805E+04  0.10100000352E+00 0.  1.
    10030    2    1    2    0    0  0.00000000000E+00  0.00000000000E+00 -0.95351557115E+03  0.13794148095E+04  0.99679148881E+03 0.  0.
        1    1    3    3  502    0 -0.84503901365E+02  0.42583239693E+03 -0.13799818872E+03  0.45554104067E+03  0.50400001928E-02 0. -1.
       -1    1    3    3    0  502  0.84503901365E+02 -0.42583239693E+03 -0.81551738244E+03  0.92387376881E+03  0.50400001928E-02 0.  1.
</event>
<event>
 5   0  0.3608845E-03  0.9756399E+03  0.7818609E-02  0.9335674E-01
       -1   -1    0    0    0  501  0.00000000000E+00  0.00000000000E+00  0.70333294437E+03  0.70333294439E+03  0.50400001928E-02 0.  1.
        1   -1    0    0  501    0  0.00000000000E+00  0.00000000000E+00 -0.33834371853E+03  0.33834371857E+03  0.50400001928E-02 0. -1.
    10030    2    1    2    0    0  0.00000000000E+00  0.00000000000E+00  0.36498922584E+03  0.10416766630E+04  0.97563985936E+03 0.  0.
        1    1    3    3  502    0 -0.13919762744E+03 -0.42212652001E+03 -0.32111542033E+02  0.44564327610E+03  0.50400001928E-02 0.  1.
       -1    1    3    3    0  502  0.13919762744E+03  0.42212652001E+03  0.39710076787E+03  0.59603338686E+03  0.50400001928E-02 0. -1.
</event>
<event>
 5   0  0.6376961E-03  0.1056956E+04  0.7818609E-02  0.9248191E-01
        2   -1    0    0  501    0  0.00000000000E+00  0.00000000000E+00  0.13765116894E+04  0.13765116894E+04  0.25500000920E-02 0. -1.
       -2   -1    0    0    0  501  0.00000000000E+00  0.00000000000E+00 -0.20289637378E+03  0.20289637380E+03  0.25500000920E-02 0.  1.
    10030    2    1    2    0    0  0.00000000000E+00  0.00000000000E+00  0.11736153156E+04  0.15794080632E+04  0.10569564424E+04 0.  0.
        3    1    3    3  502    0 -0.21737584483E+03 -0.63124605965E+02  0.13004069947E+04  0.13199603539E+04  0.10100000352E+00 0. -1.
       -3    1    3    3    0  502  0.21737584483E+03  0.63124605965E+02 -0.12679167906E+03  0.25944770932E+03  0.10100000352E+00 0.  1.
</event>
<event>
 5   0  0.3643002E-03  0.9967233E+03  0.7818609E-02  0.9312146E-01
        1   -1    0    0  501    0  0.00000000000E+00  0.00000000000E+00  0.44565023123E+03  0.44565023126E+03  0.50400001928E-02 0.  1.
       -1   -1    0    0    0  501  0.00000000000E+00  0.00000000000E+00 -0.55730776904E+03  0.55730776907E+03  0.50400001928E-02 0. -1.
    10030    2    1    2    0    0  0.00000000000E+00  0.00000000000E+00 -0.11165753781E+03  0.10029580003E+04  0.99672330397E+03 0.  0.
        2    1    3    3  502    0 -0.45364341737E+03 -0.20175325059E+03 -0.99314968265E+02  0.50632024172E+03  0.25500000920E-02 0. -1.
       -2    1    3    3    0  502  0.45364341737E+03  0.20175325059E+03 -0.12342569546E+02  0.49663775861E+03  0.25500000920E-02 0.  1.
</event>
<event>
 5   0  0.6606947E-03  0.1000219E+04  0.7818609E-02  0.9308304E-01
        2   -1    0    0  501    0  0.00000000000E+00  0.00000000000E+00  0.15319600280E+04  0.15319600280E+04  0.25500000920E-02 0.  1.
       -2   -1    0    0    0  501  0.00000000000E+00  0.00000000000E+00 -0.16326119082E+03  0.16326119084E+03  0.25500000920E-02 0. -1.
    10030    2    1    2    0    0  0.00000000000E+00  0.00000000000E+00  0.13686988372E+04  0.16952212188E+04  0.10002192129E+04 0.  0.
        1    1    3    3  502    0  0.24423776646E+03 -0.26056112040E+03  0.12777052182E+04  0.13266781104E+04  0.50400001928E-02 0.  1.
       -1    1    3    3    0  502 -0.24423776646E+03  0.26056112040E+03  0.90993618966E+02  0.36854310840E+03  0.50400001928E-02 0. -1.
</event>
<event>
 5   0  0.3643002E-03  0.1009114E+04  0.7818609E-02  0.9298605E-01
       -1   -1    0    0    0  501  0.00000000000E+00  0.00000000000E+00  0.52550982056E+03  0.52550982058E+03  0.50400001928E-02 0. -1.
        1   -1    0    0  501    0  0.00000000000E+00  0.00000000000E+00 -0.48443920818E+03  0.48443920821E+03  0.50400001928E-02 0.  1.
    10030    2    1    2    0    0  0.00000000000E+00  0.00000000000E+00  0.41070612380E+02  0.10099490288E+04  0.10091135940E+04 0.  0.
        2    1    3    3  502    0 -0.42355728425E+02  0.49194394507E+03  0.12442253586E+03  0.50919919507E+03  0.25500000920E-02 0. -1.
       -2    1    3    3    0  502  0.42355728425E+02 -0.49194394507E+03 -0.83351923477E+02  0.50074983372E+03  0.25500000920E-02 0.  1.
</event>
<event>
 5   0  0.3466598E-03  0.1007321E+04  0.7818609E-02  0.9300551E-01
        1   -1    0    0  501    0  0.00000000000E+00  0.00000000000E+00  0.11505697745E+04  0.11505697745E+04  0.50400001928E-02 0.  1.
       -1   -1    0    0    0  501  0.00000000000E+00  0.00000000000E+00 -0.22047683530E+03  0.22047683536E+03  0.50400001928E-02 0. -1.
    10030    2    1    2    0    0  0.00000000000E+00  0.00000000000E+00  0.93009293923E+03  0.13710466099E+04  0.10073211657E+04 0.  0.
        3    1    3    3  502    0 -0.38183260266E+03 -0.52991221767E+02  0.23859026348E+02  0.38622981420E+03  0.10100000352E+00 0. -1.
       -3    1    3    3    0  502  0.38183260266E+03  0.52991221767E+02  0.90623391289E+03  0.98481679571E+03  0.10100000352E+00 0.  1.
</event>
<event>
 5   0  0.6606947E-03  0.9986848E+03  0.7818609E-02  0.9309988E-01
        2   -1    0    0  501    0  0.00000000000E+00  0.00000000000E+00  0.50406243885E+03  0.50406243886E+03  0.25500000920E-02 0.  1.
       -2   -1    0    0    0  501  0.00000000000E+00  0.00000000000E+00 -0.49466655025E+03  0.49466655026E+03  0.25500000920E-02 0. -1.
    10030    2    1    2    0    0  0.00000000000E+00  0.00000000000E+00  0.93958885972E+01  0.99872898911E+03  0.99868479060E+03 0.  0.
        1    1    3    3  502    0 -0.80633373483E+02  0.40022865947E+03 -0.28281800908E+03  0.49665958872E+03  0.50400001928E-02 0. -1.
       -1    1    3    3    0  502  0.80633373483E+02 -0.40022865947E+03  0.29221389768E+03  0.50206940039E+03  0.50400001928E-02 0.  1.
</event>
<event>
 5   0  0.3569359E-03  0.9968276E+03  0.7818609E-02  0.9312031E-01
       -1   -1    0    0    0  501  0.00000000000E+00  0.00000000000E+00  0.14272837068E+04  0.14272837068E+04  0.50400001928E-02 0.  1.
        1   -1    0    0  501    0  0.00000000000E+00  0.00000000000E+00 -0.17404829401E+03  0.17404829409E+03  0.50400001928E-02 0. -1.
    10030    2    1    2    0    0  0.00000000000E+00  0.00000000000E+00  0.12532354128E+04  0.16013320009E+04  0.99682755642E+03 0.  0.
        4    1    3    3  502    0  0.31435892429E+03 -0.21501121354E+03  0.11430870948E+04  0.12048655835E+04  0.12699999809E+01 0.  1.
       -4    1    3    3    0  502 -0.31435892429E+03  0.21501121354E+03  0.11014831798E+03  0.39646641734E+03  0.12699999809E+01 0. -1.
</event>
<event>
 5   0  0.6199539E-03  0.9979188E+03  0.7818609E-02  0.9310830E-01
       -2   -1    0    0    0  501  0.00000000000E+00  0.00000000000E+00  0.15262203878E+03  0.15262203880E+03  0.25500000920E-02 0. -1.
        2   -1    0    0  501    0  0.00000000000E+00  0.00000000000E+00 -0.16312224582E+04  0.16312224582E+04  0.25500000920E-02 0.  1.
    10030    2    1    2    0    0  0.00000000000E+00  0.00000000000E+00 -0.14786004194E+04  0.17838444970E+04  0.99791882893E+03 0.  0.
        2    1    3    3  502    0 -0.27663623056E+03 -0.10912160001E+03 -0.23101366517E+02  0.29827638322E+03  0.25500000920E-02 0. -1.
       -2    1    3    3    0  502  0.27663623056E+03  0.10912160001E+03 -0.14554990529E+04  0.14855681137E+04  0.25500000920E-02 0.  1.
</event>
<event>
 5   0  0.3466598E-03  0.9964638E+03  0.7818609E-02  0.9312432E-01
       -1   -1    0    0    0  501  0.00000000000E+00  0.00000000000E+00  0.40312730977E+03  0.40312730980E+03  0.50400001928E-02 0. -1.
        1   -1    0    0  501    0  0.00000000000E+00  0.00000000000E+00 -0.61577332650E+03  0.61577332652E+03  0.50400001928E-02 0.  1.
    10030    2    1    2    0    0  0.00000000000E+00  0.00000000000E+00 -0.21264601673E+03  0.10189006363E+04  0.99646383691E+03 0.  0.
        3    1    3    3  502    0 -0.14560352184E+03 -0.54016684760E+01  0.38085587220E+03  0.40777539061E+03  0.10100000352E+00 0. -1.
       -3    1    3    3    0  502  0.14560352184E+03  0.54016684760E+01 -0.59350188893E+03  0.61112524572E+03  0.10100000352E+00 0.  1.
</event>
<event>
 5   0  0.6376961E-03  0.1001301E+04  0.7818609E-02  0.9307119E-01
       -2   -1    0    0    0  501  0.00000000000E+00  0.00000000000E+00  0.17526092516E+03  0.17526092517E+03  0.25500000920E-02 0.  1.
        2   -1    0    0  501    0  0.00000000000E+00  0.00000000000E+00 -0.14301591396E+04  0.14301591396E+04  0.25500000920E-02 0. -1.
    10030    2    1    2    0    0  0.00000000000E+00  0.00000000000E+00 -0.12548982145E+04  0.16054200648E+04  0.10013011814E+04 0.  0.
        3    1    3    3  502    0 -0.32768287267E+03 -0.17399325705E+03 -0.11664204192E+04  0.12240042169E+04  0.10100000352E+00 0. -1.
       -3    1    3    3    0  502  0.32768287267E+03  0.17399325705E+03 -0.88477795266E+02  0.38141584786E+03  0.10100000352E+00 0.  1.
</event>
<event>
 5   0  0.3643002E-03  0.1004780E+04  0.7818609E-02  0.9303318E-01
        1   -1    0    0  501    0  0.00000000000E+00  0.00000000000E+00  0.87772196798E+03  0.87772196799E+03  0.50400001928E-02 0. -1.
       -1   -1    0    0    0  501  0.00000000000E+00  0.00000000000E+00 -0.28755759681E+03  0.28755759686E+03  0.50400001928E-02 0.  1.
    10030    2    1    2    0    0  0.00000000000E+00  0.00000000000E+00  0.59016437116E+03  0.11652795648E+04  0.10047798163E+04 0.  0.
        2    1    3    3  502    0  0.24434369742E+03 -0.41190688034E+03  0.47105854344E+03  0.67176429787E+03  0.25500000920E-02 0. -1.
       -2    1    3    3    0  502 -0.24434369742E+03  0.41190688034E+03  0.11910582772E+03  0.49351526698E+03  0.25500000920E-02 0.  1.
</event>
<event>
 5   0  0.6199539E-03  0.9713427E+03  0.7818609E-02  0.9340546E-01
       -2   -1    0    0    0  501  0.00000000000E+00  0.00000000000E+00  0.19597525324E+03  0.19597525325E+03  0.25500000920E-02 0. -1.
        2   -1    0    0  501    0  0.00000000000E+00  0.00000000000E+00 -0.12036042644E+04  0.12036042644E+04  0.25500000920E-02 0.  1.
    10030    2    1    2    0    0  0.00000000000E+00  0.00000000000E+00 -0.10076290112E+04  0.13995795177E+04  0.97134268006E+03 0.  0.
        2    1    3    3  502    0 -0.44229285593E+03 -0.58785003423E+02 -0.22741501741E+03  0.50079560420E+03  0.25500000920E-02 0. -1.
       -2    1    3    3    0  502  0.44229285593E+03  0.58785003423E+02 -0.78021399378E+03  0.89878391348E+03  0.25500000920E-02 0.  1.
</event>
<event>
 5   0  0.6606947E-03  0.1004776E+04  0.7818609E-02  0.9303322E-01
        2   -1    0    0  501    0  0.00000000000E+00  0.00000000000E+00  0.44572157080E+03  0.44572157081E+03  0.25500000920E-02 0.  1.
       -2   -1    0    0    0  501  0.00000000000E+00  0.00000000000E+00 -0.56625834473E+03  0.56625834473E+03  0.25500000920E-02 0. -1.
    10030    2    1    2    0    0  0.00000000000E+00  0.00000000000E+00 -0.12053677393E+03  0.10119799155E+04  0.10047757141E+04 0.  0.
        1    1    3    3  502    0  0.26851976401E+03  0.32151551157E+03 -0.33959871107E+03  0.53926095022E+03  0.50400001928E-02 0. -1.
       -1    1    3    3    0  502 -0.26851976401E+03 -0.32151551157E+03  0.21906193714E+03  0.47271896532E+03  0.50400001928E-02 0.  1.
</event>
<event>
 5   0  0.3466598E-03  0.9899782E+03  0.7818609E-02  0.9319605E-01
        1   -1    0    0  501    0  0.00000000000E+00  0.00000000000E+00  0.59420914564E+03  0.59420914566E+03  0.50400001928E-02 0. -1.
       -1   -1    0    0    0  501  0.00000000000E+00  0.00000000000E+00 -0.41233664483E+03  0.41233664486E+03  0.50400001928E-02 0.  1.
    10030    2    1    2    0    0  0.00000000000E+00  0.00000000000E+00  0.18187250080E+03  0.10065457905E+04  0.98997819262E+03 0.  0.
        3    1    3    3  502    0 -0.31951364204E+03 -0.27180686129E+03 -0.17622777732E+03  0.45499909559E+03  0.10100000352E+00 0.  1.
       -3    1    3    3    0  502  0.31951364204E+03  0.27180686129E+03  0.35810027813E+03  0.55154669493E+03  0.10100000352E+00 0. -1.
</event>
<event>
 5   0  0.3569359E-03  0.1000483E+04  0.7818609E-02  0.9308015E-01
        1   -1    0    0  501    0  0.00000000000E+00  0.00000000000E+00  0.10478307976E+04  0.10478307976E+04  0.50400001928E-02 0.  1.
       -1   -1    0    0    0  501  0.00000000000E+00  0.00000000000E+00 -0.23881877540E+03  0.23881877545E+03  0.50400001928E-02 0. -1.
    10030    2    1    2    0    0  0.00000000000E+00  0.00000000000E+00  0.80901202222E+03  0.12866495731E+04  0.10004832192E+04 0.  0.
        4    1    3    3  502    0  0.47733576186E+03 -0.76035854780E+02  0.57024492662E+03  0.74753713620E+03  0.12699999809E+01 0.  1.
       -4    1    3    3    0  502 -0.47733576186E+03  0.76035854780E+02  0.23876709560E+03  0.53911243688E+03  0.12699999809E+01 0. -1.
</event>
<event>
 5   0  0.6199539E-03  0.9955517E+03  0.7818609E-02  0.9313437E-01
        2   -1    0    0  501    0  0.00000000000E+00  0.00000000000E+00  0.57191141364E+03  0.57191141364E+03  0.25500000920E-02 0.  1.
       -2   -1    0    0    0  501  0.00000000000E+00  0.00000000000E+00 -0.43325030614E+03  0.43325030615E+03  0.25500000920E-02 0. -1.
    10030    2    1    2    0    0  0.00000000000E+00  0.00000000000E+00  0.13866110749E+03  0.10051617198E+04  0.99555169640E+03 0.  0.
        2    1    3    3  502    0 -0.20859309683E+03  0.17509474684E+03  0.49001981345E+03  0.56061454494E+03  0.25500000920E-02 0.  1.
       -2    1    3    3    0  502  0.20859309683E+03 -0.17509474684E+03 -0.35135870596E+03  0.44454717486E+03  0.25500000920E-02 0. -1.
</event>
<event>
 5   0  0.6360455E-03  0.1004609E+04  0.7818609E-02  0.9303505E-01
        2   -1    0    0  501    0  0.00000000000E+00  0.00000000000E+00  0.79452117498E+03  0.79452117498E+03  0.25500000920E-02 0. -1.
       -2   -1    0    0    0  501  0.00000000000E+00  0.00000000000E+00 -0.31756183858E+03  0.31756183859E+03  0.25500000920E-02 0.  1.
    10030    2    1    2    0    0  0.00000000000E+00  0.00000000000E+00  0.47695933640E+03  0.11120830136E+04  0.10046085907E+04 0.  0.
        4    1    3    3  502    0  0.32328177607E+03 -0.14236650571E+03 -0.15683617841E+03  0.38649518554E+03  0.12699999809E+01 0.  1.
       -4    1    3    3    0  502 -0.32328177607E+03  0.14236650571E+03  0.63379551481E+03  0.72558782803E+03  0.12699999809E+01 0. -1.
</event>
<event>
 5   0  0.6376961E-03  0.1009391E+04  0.7818609E-02  0.9298304E-01
       -2   -1    0    0    0  501  0.00000000000E+00  0.00000000000E+00  0.95238894738E+03  0.95238894738E+03  0.25500000920E-02 0.  1.
        2   -1    0    0  501    0  0.00000000000E+00  0.00000000000E+00 -0.26745140554E+03  0.26745140555E+03  0.25500000920E-02 0. -1.
    10030    2    1    2    0    0  0.00000000000E+00  0.00000000000E+00  0.68493754184E+03  0.12198403529E+04  0.10093914258E+04 0.  0.
        3    1    3    3  502    0  0.36216914720E+02  0.16791122121E+03 -0.23103867508E+03  0.28789706963E+03  0.10100000352E+00 0. -1.
       -3    1    3    3    0  502 -0.36216914720E+02 -0.16791122121E+03  0.91597621692E+03  0.93194328330E+03  0.10100000352E+00 0.  1.
</event>
<event>
 5   0  0.6022787E-03  0.9996607E+03  0.7818609E-02  0.9308917E-01
        2   -1    0    0  501    0  0.00000000000E+00  0.00000000000E+00  0.54931456859E+03  0.54931456859E+03  0.25500000920E-02 0. -1.
       -2   -1    0    0    0  501  0.00000000000E+00  0.00000000000E+00 -0.45480387482E+03  0.45480387483E+03  0.25500000920E-02 0.  1.
    10030    2    1    2    0    0  0.00000000000E+00  0.00000000000E+00  0.94510693763E+02  0.10041184434E+04  0.99966073104E+03 0.  0.
        5    1    3    3  502    0  0.42998963647E+03 -0.15137193581E+03  0.25311743058E+03  0.52143558959E+03  0.46999998093E+01 0. -1.
       -5    1    3    3    0  502 -0.42998963647E+03  0.15137193581E+03 -0.15860673681E+03  0.48268285384E+03  0.46999998093E+01 0.  1.
</event>
<event>
 5   0  0.3569359E-03  0.9907131E+03  0.7818609E-02  0.9318790E-01
        1   -1    0    0  501    0  0.00000000000E+00  0.00000000000E+00  0.64081745985E+03  0.64081745987E+03  0.50400001928E-02 0. -1.
       -1   -1    0    0    0  501  0.00000000000E+00  0.00000000000E+00 -0.38291421395E+03  0.38291421399E+03  0.50400001928E-02 0.  1.
    10030    2    1    2    0    0  0.00000000000E+00  0.00000000000E+00  0.25790324589E+03  0.10237316739E+04  0.99071310469E+03 0.  0.
        4    1    3    3  502    0 -0.11354723902E+03 -0.15622152049E+03 -0.34240725684E+03  0.39311891507E+03  0.12699999809E+01 0.  1.
       -4    1    3    3    0  502  0.11354723902E+03  0.15622152049E+03  0.60031050273E+03  0.63061275878E+03  0.12699999809E+01 0. -1.
</event>
<event>
 5   0  0.3466598E-03  0.9919405E+03  0.7818609E-02  0.9317429E-01
        1   -1    0    0  501    0  0.00000000000E+00  0.00000000000E+00  0.96273526993E+03  0.96273526995E+03  0.50400001928E-02 0. -1.
       -1   -1    0    0    0  501  0.00000000000E+00  0.00000000000E+00 -0.25550791192E+03  0.25550791197E+03  0.50400001928E-02 0.  1.
    10030    2    1    2    0    0  0.00000000000E+00  0.00000000000E+00  0.70722735801E+03  0.12182431819E+04  0.99194047925E+03 0.  0.
        3    1    3    3  502    0 -0.95530589455E+02  0.32450397163E+03  0.79907116331E+03  0.86772325966E+03  0.10100000352E+00 0. -1.
       -3    1    3    3    0  502  0.95530589455E+02 -0.32450397163E+03 -0.91843805296E+02  0.35051992226E+03  0.10100000352E+00 0.  1.
</event>
<event>
 5   0  0.3608845E-03  0.9209993E+03  0.7818609E-02  0.9399705E-01
       -1   -1    0    0    0  501  0.00000000000E+00  0.00000000000E+00  0.26529392528E+03  0.26529392533E+03  0.50400001928E-02 0. -1.
        1   -1    0    0  501    0  0.00000000000E+00  0.00000000000E+00 -0.79933953017E+03  0.79933953018E+03  0.50400001928E-02 0.  1.
    10030    2    1    2    0    0  0.00000000000E+00  0.00000000000E+00 -0.53404560488E+03  0.10646334555E+04  0.92099928692E+03 0.  0.
        1    1    3    3  502    0 -0.38095861159E+02  0.17257311435E+03  0.22453277807E+03  0.28574069169E+03  0.50400001928E-02 0. -1.
       -1    1    3    3    0  502  0.38095861159E+02 -0.17257311435E+03 -0.75857838295E+03  0.77889276383E+03  0.50400001928E-02 0.  1.
</event>
<event>
 5   0  0.6360455E-03  0.9989726E+03  0.7818609E-02  0.9309672E-01
       -2   -1    0    0    0  501  0.00000000000E+00  0.00000000000E+00  0.17548095956E+03  0.17548095958E+03  0.25500000920E-02 0.  1.
        2   -1    0    0  501    0  0.00000000000E+00  0.00000000000E+00 -0.14217301892E+04  0.14217301892E+04  0.25500000920E-02 0. -1.
    10030    2    1    2    0    0  0.00000000000E+00  0.00000000000E+00 -0.12462492296E+04  0.15972111487E+04  0.99897262795E+03 0.  0.
        4    1    3    3  502    0  0.45213587830E+03 -0.35447251533E+02 -0.95774604868E+03  0.10596992341E+04  0.12699999809E+01 0. -1.
       -4    1    3    3    0  502 -0.45213587830E+03  0.35447251533E+02 -0.28850318092E+03  0.53751191465E+03  0.12699999809E+01 0.  1.
</event>
<event>
 5   0  0.6360455E-03  0.9861354E+03  0.7818609E-02  0.9323883E-01
       -2   -1    0    0    0  501  0.00000000000E+00  0.00000000000E+00  0.45873111575E+03  0.45873111576E+03  0.25500000920E-02 0. -1.
        2   -1    0    0  501    0  0.00000000000E+00  0.00000000000E+00 -0.52997443739E+03  0.52997443739E+03  0.25500000920E-02 0.  1.
    10030    2    1    2    0    0  0.00000000000E+00  0.00000000000E+00 -0.71243321635E+02  0.98870555315E+03  0.98613541664E+03 0.  0.
        4    1    3    3  502    0  0.46299493975E+03 -0.12842338802E+02 -0.20513303636E+03  0.50656728615E+03  0.12699999809E+01 0.  1.
       -4    1    3    3    0  502 -0.46299493975E+03  0.12842338802E+02  0.13388971472E+03  0.48213826700E+03  0.12699999809E+01 0. -1.
</event>
<event>
 5   0  0.3640180E-03  0.1011259E+04  0.7818609E-02  0.9296281E-01
        1   -1    0    0  501    0  0.00000000000E+00  0.00000000000E+00  0.60938524564E+03  0.60938524566E+03  0.50400001928E-02 0. -1.
       -1   -1    0    0    0  501  0.00000000000E+00  0.00000000000E+00 -0.41953979053E+03  0.41953979056E+03  0.50400001928E-02 0.  1.
    10030    2    1    2    0    0  0.00000000000E+00  0.00000000000E+00  0.18984545512E+03  0.10289250362E+04  0.10112593304E+04 0.  0.
        5    1    3    3  502    0  0.28620748761E+03 -0.37612582614E+03  0.27765377606E+03  0.54817795689E+03  0.46999998093E+01 0. -1.
       -5    1    3    3    0  502 -0.28620748761E+03  0.37612582614E+03 -0.87808320949E+02  0.48074707933E+03  0.46999998093E+01 0.  1.
</event>
<event>
 5   0  0.6199539E-03  0.1005496E+04  0.7818609E-02  0.9302538E-01
       -2   -1    0    0    0  501  0.00000000000E+00  0.00000000000E+00  0.46396102486E+03  0.46396102487E+03  0.25500000920E-02 0.  1.
        2   -1    0    0  501    0  0.00000000000E+00  0.00000000000E+00 -0.54477713805E+03  0.54477713805E+03  0.25500000920E-02 0. -1.
    10030    2    1    2    0    0  0.00000000000E+00  0.00000000000E+00 -0.80816113189E+02  0.10087381629E+04  0.10054956177E+04 0.  0.
        2    1    3    3  502    0 -0.39534888213E+02 -0.49972241125E+03 -0.19456206599E+01  0.50128762317E+03  0.25500000920E-02 0.  1.
       -2    1    3    3    0  502  0.39534888213E+02  0.49972241125E+03 -0.78870492529E+02  0.50745053975E+03  0.25500000920E-02 0. -1.
</event>
<event>
 5   0  0.3643002E-03  0.1003751E+04  0.7818609E-02  0.9304440E-01
       -1   -1    0    0    0  501  0.00000000000E+00  0.00000000000E+00  0.50746227009E+03  0.50746227012E+03  0.50400001928E-02 0. -1.
        1   -1    0    0  501    0  0.00000000000E+00  0.00000000000E+00 -0.49635014663E+03  0.49635014666E+03  0.50400001928E-02 0.  1.
    10030    2    1    2    0    0  0.00000000000E+00  0.00000000000E+00  0.11112123458E+02  0.10038124168E+04  0.10037509097E+04 0.  0.
        2    1    3    3  502    0  0.12298605568E+02 -0.15373719208E+03 -0.47206360586E+03  0.49661899673E+03  0.25500000920E-02 0.  1.
       -2    1    3    3    0  502 -0.12298605568E+02  0.15373719208E+03  0.48317572932E+03  0.50719342005E+03  0.25500000920E-02 0. -1.
</event>
<event>
 5   0  0.3466598E-03  0.9963324E+03  0.7818609E-02  0.9312577E-01
       -1   -1    0    0    0  501  0.00000000000E+00  0.00000000000E+00  0.60026905654E+03  0.60026905656E+03  0.50400001928E-02 0.  1.
        1   -1    0    0  501    0  0.00000000000E+00  0.00000000000E+00 -0.41343053594E+03  0.41343053597E+03  0.50400001928E-02 0. -1.
    10030    2    1    2    0    0  0.00000000000E+00  0.00000000000E+00  0.18683852059E+03  0.10136995925E+04  0.99633238988E+03 0.  0.
        3    1    3    3  502    0 -0.55850404186E+02  0.38187400880E+03  0.41390606428E+03  0.56591984105E+03  0.10100000352E+00 0.  1.
       -3    1    3    3    0  502  0.55850404186E+02 -0.38187400880E+03 -0.22706754368E+03  0.44777975149E+03  0.10100000352E+00 0. -1.
</event>
<event>
 5   0  0.6022787E-03  0.1000815E+04  0.7818609E-02  0.9307651E-01
        2   -1    0    0  501    0  0.00000000000E+00  0.00000000000E+00  0.19691867787E+03  0.19691867788E+03  0.25500000920E-02 0. -1.
       -2   -1    0    0    0  501  0.00000000000E+00  0.00000000000E+00 -0.12716298500E+04  0.12716298500E+04  0.25500000920E-02 0.  1.
    10030    2    1    2    0    0  0.00000000000E+00  0.00000000000E+00 -0.10747111721E+04  0.14685485279E+04  0.10008150055E+04 0.  0.
        5    1    3    3  502    0 -0.11788352885E+03  0.23029221062E+03  0.91134943634E+02  0.27433318537E+03  0.46999998093E+01 0. -1.
       -5    1    3    3    0  502  0.11788352885E+03 -0.23029221062E+03 -0.11658461157E+04  0.11942153425E+04  0.46999998093E+01 0.  1.
</event>
<event>
 5   0  0.6606947E-03  0.1014087E+04  0.7818609E-02  0.9293228E-01
        2   -1    0    0  501    0  0.00000000000E+00  0.00000000000E+00  0.74059948501E+03  0.74059948501E+03  0.25500000920E-02 0.  1.
       -2   -1    0    0    0  501  0.00000000000E+00  0.00000000000E+00 -0.34714214627E+03  0.34714214628E+03  0.25500000920E-02 0. -1.
    10030    2    1    2    0    0  0.00000000000E+00  0.00000000000E+00  0.39345733874E+03  0.10877416313E+04  0.10140873626E+04 0.  0.
        1    1    3    3  502    0 -0.44637711427E+03 -0.20093787748E+03  0.54975952207E+02  0.49259609631E+03  0.50400001928E-02 0. -1.
       -1    1    3    3    0  502  0.44637711427E+03  0.20093787748E+03  0.33848138653E+03  0.59514553498E+03  0.50400001928E-02 0.  1.
</event>
<event>
 5   0  0.3569359E-03  0.1001334E+04  0.7818609E-02  0.9307083E-01
       -1   -1    0    0    0  501  0.00000000000E+00  0.00000000000E+00  0.16643399296E+03  0.16643399304E+03  0.50400001928E-02 0. -1.
        1   -1    0    0  501    0  0.00000000000E+00  0.00000000000E+00 -0.15061063957E+04  0.15061063957E+04  0.50400001928E-02 0.  1.
    10030    2    1    2    0    0  0.00000000000E+00  0.00000000000E+00 -0.13396724027E+04  0.16725403887E+04  0.10013337133E+04 0.  0.
        4    1    3    3  502    0  0.35676405206E+03  0.35078155540E+03 -0.70051725706E+03  0.86084512474E+03  0.12699999809E+01 0.  1.
       -4    1    3    3    0  502 -0.35676405206E+03 -0.35078155540E+03 -0.63915514564E+03  0.81169526397E+03  0.12699999809E+01 0. -1.
</event>
<event>
 5   0  0.3569359E-03  0.1005776E+04  0.7818609E-02  0.9302232E-01
       -1   -1    0    0    0  501  0.00000000000E+00  0.00000000000E+00  0.80383997070E+03  0.80383997071E+03  0.50400001928E-02 0. -1.
        1   -1    0    0  501    0  0.00000000000E+00  0.00000000000E+00 -0.31461035114E+03  0.31461035118E+03  0.50400001928E-02 0.  1.
    10030    2    1    2    0    0  0.00000000000E+00  0.00000000000E+00  0.48922961956E+03  0.11184503219E+04  0.10057760695E+04 0.  0.
        4    1    3    3  502    0 -0.34159518332E+03  0.33542175183E+03  0.41580828456E+03  0.63410816370E+03  0.12699999809E+01 0. -1.
       -4    1    3    3    0  502  0.34159518332E+03 -0.33542175183E+03  0.73421335004E+02  0.48434215819E+03  0.12699999809E+01 0.  1.
</event>
<event>
 5   0  0.3466598E-03  0.9893111E+03  0.7818609E-02  0.9320346E-01
        1   -1    0    0  501    0  0.00000000000E+00  0.00000000000E+00  0.50115313093E+03  0.50115313096E+03  0.50400001928E-02 0.  1.
       -1   -1    0    0    0  501  0.00000000000E+00  0.00000000000E+00 -0.48824224160E+03  0.48824224163E+03  0.50400001928E-02 0. -1.
    10030    2    1    2    0    0  0.00000000000E+00  0.00000000000E+00  0.12910889330E+02  0.98939537258E+03  0.98931113014E+03 0.  0.
        3    1    3    3  502    0 -0.34376538783E+03  0.48932478602E+02  0.35878515796E+03  0.49929533255E+03  0.10100000352E+00 0.  1.
       -3    1    3    3    0  502  0.34376538783E+03 -0.48932478602E+02 -0.34587426863E+03  0.49010004003E+03  0.10100000352E+00 0. -1.
</event>
<event>
 5   0  0.6360455E-03  0.9963727E+03  0.7818609E-02  0.9312532E-01
       -2   -1    0    0    0  501  0.00000000000E+00  0.00000000000E+00  0.20906909162E+03  0.20906909163E+03  0.25500000920E-02 0.  1.
        2   -1    0    0  501    0  0.00000000000E+00  0.00000000000E+00 -0.11871178486E+04  0.11871178486E+04  0.25500000920E-02 0. -1.
    10030    2    1    2    0    0  0.00000000000E+00  0.00000000000E+00 -0.97804875701E+03  0.13961869403E+04  0.99637272196E+03 0.  0.
        4    1    3    3  502    0  0.92077004788E+02 -0.29289757886E+03  0.60732279961E+02  0.31298113240E+03  0.12699999809E+01 0.  1.
       -4    1    3    3    0  502 -0.92077004788E+02  0.29289757886E+03 -0.10387810370E+04  0.10832058079E+04  0.12699999809E+01 0. -1.
</event>
<event>
 5   0  0.3640180E-03  0.9968382E+03  0.7818609E-02  0.9312019E-01
        1   -1    0    0  501    0  0.00000000000E+00  0.00000000000E+00  0.10595271403E+04  0.10595271403E+04  0.50400001928E-02 0. -1.
       -1   -1    0    0    0  501  0.00000000000E+00  0.00000000000E+00 -0.23446461396E+03  0.23446461401E+03  0.50400001928E-02 0.  1.
    10030    2    1    2    0    0  0.00000000000E+00  0.00000000000E+00  0.82506252632E+03  0.12939917543E+04  0.99683824558E+03 0.  0.
        5    1    3    3  502    0  0.34269585676E+03  0.17395186671E+02  0.88174671863E+03  0.94617250466E+03  0.46999998093E+01 0. -1.
       -5    1    3    3    0  502 -0.34269585676E+03 -0.17395186671E+02 -0.56684192310E+02  0.34781924964E+03  0.46999998093E+01 0.  1.
</event>
<event>
 5   0  0.6376961E-03  0.9624754E+03  0.7818609E-02  0.9350686E-01
       -2   -1    0    0    0  501  0.00000000000E+00  0.00000000000E+00  0.12830021765E+03  0.12830021768E+03  0.25500000920E-02 0.  1.
        2   -1    0    0  501    0  0.00000000000E+00  0.00000000000E+00 -0.18050609756E+04  0.18050609756E+04  0.25500000920E-02 0. -1.
    10030    2    1    2    0    0  0.00000000000E+00  0.00000000000E+00 -0.16767607580E+04  0.19333611933E+04  0.96247538373E+03 0.  0.
        3    1    3    3  502    0 -0.39060402877E+03 -0.15900317911E+03 -0.37273339742E+03  0.56283542355E+03  0.10100000352E+00 0.  1.
       -3    1    3    3    0  502  0.39060402877E+03  0.15900317911E+03 -0.13040273606E+04  0.13705257697E+04  0.10100000352E+00 0. -1.
</event>
<event>
 5   0  0.6376961E-03  0.1007172E+04  0.7818609E-02  0.9300714E-01
        2   -1    0    0  501    0  0.00000000000E+00  0.00000000000E+00  0.40145886280E+03  0.40145886281E+03  0.25500000920E-02 0.  1.
       -2   -1    0    0    0  501  0.00000000000E+00  0.00000000000E+00 -0.63169284136E+03  0.63169284136E+03  0.25500000920E-02 0. -1.
    10030    2    1    2    0    0  0.00000000000E+00  0.00000000000E+00 -0.23023397856E+03  0.10331517042E+04  0.10071716631E+04 0.  0.
        3    1    3    3  502    0 -0.16835049932E+02 -0.29451482738E+03 -0.53378248866E+03  0.60987388684E+03  0.10100000352E+00 0. -1.
       -3    1    3    3    0  502  0.16835049932E+02  0.29451482738E+03  0.30354851010E+03  0.42327781732E+03  0.10100000352E+00 0.  1.
</event>
<event>
 5   0  0.2417750E-03  0.9965183E+03  0.7818609E-02  0.9312372E-01
        3   -1    0    0  501    0  0.00000000000E+00  0.00000000000E+00  0.56982822906E+03  0.56982823802E+03  0.10100000352E+00 0. -1.
       -3   -1    0    0    0  501  0.00000000000E+00  0.00000000000E+00 -0.43567895450E+03  0.43567896620E+03  0.10100000352E+00 0.  1.
    10030    2    1    2    0    0  0.00000000000E+00  0.00000000000E+00  0.13414927457E+03  0.10055072042E+04  0.99651829380E+03 0.  0.
        2    1    3    3  502    0 -0.27148423374E+02 -0.28721477793E+03 -0.34283210380E+03  0.44806608548E+03  0.25500000920E-02 0. -1.
       -2    1    3    3    0  502  0.27148423374E+02  0.28721477793E+03  0.47698137836E+03  0.55744111874E+03  0.25500000920E-02 0.  1.
</event>
<event>
 5   0  0.3640180E-03  0.1001178E+04  0.7818609E-02  0.9307254E-01
       -1   -1    0    0    0  501  0.00000000000E+00  0.00000000000E+00  0.11562182415E+04  0.11562182415E+04  0.50400001928E-02 0. -1.
        1   -1    0    0  501    0  0.00000000000E+00  0.00000000000E+00 -0.21673180882E+03  0.21673180888E+03  0.50400001928E-02 0.  1.
    10030    2    1    2    0    0  0.00000000000E+00  0.00000000000E+00  0.93948643271E+03  0.13729500504E+04  0.10011778482E+04 0.  0.
        5    1    3    3  502    0 -0.41460338769E+02 -0.13297235315E+03  0.11290780552E+04  0.11376466724E+04  0.46999998093E+01 0. -1.
       -5    1    3    3    0  502  0.41460338769E+02  0.13297235315E+03 -0.18959162252E+03  0.23530337804E+03  0.46999998093E+01 0.  1.
</event>
<event>
 5   0  0.6376961E-03  0.1107860E+04  0.7818609E-02  0.9197565E-01
        2   -1    0    0  501    0  0.00000000000E+00  0.00000000000E+00  0.96053107816E+03  0.96053107816E+03  0.25500000920E-02 0.  1.
       -2   -1    0    0    0  501  0.00000000000E+00  0.00000000000E+00 -0.31944646034E+03  0.31944646035E+03  0.25500000920E-02 0. -1.
    10030    2    1    2    0    0  0.00000000000E+00  0.00000000000E+00  0.64108461781E+03  0.12799775385E+04  0.11078596535E+04 0.  0.
        3    1    3    3  502    0  0.43620633574E+03  0.34041040082E+03  0.29034703971E+03  0.62486528308E+03  0.10100000352E+00 0.  1.
       -3    1    3    3    0  502 -0.43620633574E+03 -0.34041040082E+03  0.35073757810E+03  0.65511225544E+03  0.10100000352E+00 0. -1.
</event>
<event>
 5   0  0.2417750E-03  0.1002579E+04  0.7818609E-02  0.9305720E-01
        3   -1    0    0  501    0  0.00000000000E+00  0.00000000000E+00  0.49474608080E+03  0.49474609111E+03  0.10100000352E+00 0.  1.
       -3   -1    0    0    0  501  0.00000000000E+00  0.00000000000E+00 -0.50791987958E+03  0.50791988962E+03  0.10100000352E+00 0. -1.
    10030    2    1    2    0    0  0.00000000000E+00  0.00000000000E+00 -0.13173798777E+02  0.10026659807E+04  0.10025794332E+04 0.  0.
        4    1    3    3  502    0 -0.27500592096E+03 -0.41034028792E+03  0.78757203993E+02  0.50021167373E+03  0.12699999809E+01 0.  1.
       -4    1    3    3    0  502  0.27500592096E+03  0.41034028792E+03 -0.91931002769E+02  0.50245430700E+03  0.12699999809E+01 0. -1.
</event>
<event>
 5   0  0.6199539E-03  0.1000777E+04  0.7818609E-02  0.9307693E-01
        2   -1    0    0  501    0  0.00000000000E+00  0.00000000000E+00  0.47549643748E+03  0.47549643749E+03  0.25500000920E-02 0. -1.
       -2   -1    0    0    0  501  0.00000000000E+00  0.00000000000E+00 -0.52658378895E+03  0.52658378895E+03  0.25500000920E-02 0.  1.
    10030    2    1    2    0    0  0.00000000000E+00  0.00000000000E+00 -0.51087351464E+02  0.10020802264E+04  0.10007771294E+04 0.  0.
        2    1    3    3  502    0 -0.22376066999E+03  0.23933304803E+03  0.35315450524E+03  0.48173358809E+03  0.25500000920E-02 0. -1.
       -2    1    3    3    0  502  0.22376066999E+03 -0.23933304803E+03 -0.40424185671E+03  0.52034663835E+03  0.25500000920E-02 0.  1.
</event>
<event>
 5   0  0.6606947E-03  0.9584400E+03  0.7818609E-02  0.9355340E-01
        2   -1    0    0  501    0  0.00000000000E+00  0.00000000000E+00  0.16524827598E+04  0.16524827598E+04  0.25500000920E-02 0.  1.
       -2   -1    0    0    0  501  0.00000000000E+00  0.00000000000E+00 -0.13897379448E+03  0.13897379451E+03  0.25500000920E-02 0. -1.
    10030    2    1    2    0    0  0.00000000000E+00  0.00000000000E+00  0.15135089653E+04  0.17914565543E+04  0.95843998136E+03 0.  0.
        1    1    3    3  502    0  0.26008428322E+03  0.37109534450E+03  0.10481015345E+04  0.11418723290E+04  0.50400001928E-02 0.  1.
       -1    1    3    3    0  502 -0.26008428322E+03 -0.37109534450E+03  0.46540743083E+03  0.64958422532E+03  0.50400001928E-02 0. -1.
</event>
<event>
 5   0  0.3608845E-03  0.1003444E+04  0.7818609E-02  0.9304776E-01
        1   -1    0    0  501    0  0.00000000000E+00  0.00000000000E+00  0.29940695232E+03  0.29940695236E+03  0.50400001928E-02 0.  1.
       -1   -1    0    0    0  501  0.00000000000E+00  0.00000000000E+00 -0.84074452645E+03  0.84074452646E+03  0.50400001928E-02 0. -1.
    10030    2    1    2    0    0  0.00000000000E+00  0.00000000000E+00 -0.54133757412E+03  0.11401514788E+04  0.10034435836E+04 0.  0.
        1    1    3    3  502    0 -0.14105450483E+03  0.26682482460E+03 -0.72606229936E+03  0.78629404355E+03  0.50400001928E-02 0. -1.
       -1    1    3    3    0  502  0.14105450483E+03 -0.26682482460E+03  0.18472472523E+03  0.35385743527E+03  0.50400001928E-02 0.  1.
</event>
<event>
 5   0  0.6360455E-03  0.1008878E+04  0.7818609E-02  0.9298861E-01
        2   -1    0    0  501    0  0.00000000000E+00  0.00000000000E+00  0.54522492786E+03  0.54522492786E+03  0.25500000920E-02 0.  1.
       -2   -1    0    0    0  501  0.00000000000E+00  0.00000000000E+00 -0.46670407957E+03  0.46670407958E+03  0.25500000920E-02 0. -1.
    10030    2    1    2    0    0  0.00000000000E+00  0.00000000000E+00  0.78520848291E+02  0.10119290074E+04  0.10088779869E+04 0.  0.
        4    1    3    3  502    0 -0.31317731025E+02 -0.10197620597E+03  0.53377996429E+03  0.54433685346E+03  0.12699999809E+01 0.  1.
       -4    1    3    3    0  502  0.31317731025E+02  0.10197620597E+03 -0.45525911600E+03  0.46759215398E+03  0.12699999809E+01 0. -1.
</event>
<event>
 5   0  0.6360455E-03  0.9904509E+03  0.7818609E-02  0.9319080E-01
       -2   -1    0    0    0  501  0.00000000000E+00  0.00000000000E+00  0.15668487253E+03  0.15668487255E+03  0.25500000920E-02 0.  1.
        2   -1    0    0  501    0  0.00000000000E+00  0.00000000000E+00 -0.15652325786E+04  0.15652325786E+04  0.25500000920E-02 0. -1.
    10030    2    1    2    0    0  0.00000000000E+00  0.00000000000E+00 -0.14085477061E+04  0.17219174511E+04  0.99045094188E+03 0.  0.
        4    1    3    3  502    0  0.47135685914E+03 -0.53400536056E+02 -0.45707539890E+03  0.65874762928E+03  0.12699999809E+01 0. -1.
       -4    1    3    3    0  502 -0.47135685914E+03  0.53400536056E+02 -0.95147230715E+03  0.10631698218E+04  0.12699999809E+01 0.  1.
</event>
<event>
 5   0  0.6022787E-03  0.1007569E+04  0.7818609E-02  0.9300282E-01
        2   -1    0    0  501    0  0.00000000000E+00  0.00000000000E+00  0.13828935458E+04  0.13828935458E+04  0.25500000920E-02 0. -1.
       -2   -1    0    0    0  501  0.00000000000E+00  0.00000000000E+00 -0.18352751455E+03  0.18352751456E+03  0.25500000920E-02 0.  1.
    10030    2    1    2    0    0  0.00000000000E+00  0.00000000000E+00  0.11993660312E+04  0.15664210603E+04  0.10075693829E+04 0.  0.
        5    1    3    3  502    0  0.46733386530E+03  0.12128426551E+03  0.37619052958E+03  0.61208840804E+03  0.46999998093E+01 0. -1.
       -5    1    3    3    0  502 -0.46733386530E+03 -0.12128426551E+03  0.82317550166E+03  0.95433265230E+03  0.46999998093E+01 0.  1.
</event>
<event>
 5   0  0.3569359E-03  0.1014914E+04  0.7818609E-02  0.9292337E-01
       -1   -1    0    0    0  501  0.00000000000E+00  0.00000000000E+00  0.59426363233E+03  0.59426363235E+03  0.50400001928E-02 0. -1.
        1   -1    0    0  501    0  0.00000000000E+00  0.00000000000E+00 -0.43333086266E+03  0.43333086269E+03  0.50400001928E-02 0.  1.
    10030    2    1    2    0    0  0.00000000000E+00  0.00000000000E+00  0.16093276966E+03  0.10275944950E+04  0.10149143264E+04 0.  0.
        4    1    3    3  502    0 -0.42133805298E+03  0.28074383723E+03  0.45858899196E+02  0.50837732892E+03  0.12699999809E+01 0.  1.
       -4    1    3    3    0  502  0.42133805298E+03 -0.28074383723E+03  0.11507387047E+03  0.51921716612E+03  0.12699999809E+01 0. -1.
</event>
<event>
 5   0  0.3643002E-03  0.1012877E+04  0.7818609E-02  0.9294533E-01
       -1   -1    0    0    0  501  0.00000000000E+00  0.00000000000E+00  0.79616570538E+03  0.79616570539E+03  0.50400001928E-02 0.  1.
        1   -1    0    0  501    0  0.00000000000E+00  0.00000000000E+00 -0.32214401397E+03  0.32214401401E+03  0.50400001928E-02 0. -1.
    10030    2    1    2    0    0  0.00000000000E+00  0.00000000000E+00  0.47402169141E+03  0.11183097194E+04  0.10128771222E+04 0.  0.
        2    1    3    3  502    0 -0.31206989584E+03  0.38074526308E+03  0.36823275236E+03  0.61477632937E+03  0.25500000920E-02 0.  1.
       -2    1    3    3    0  502  0.31206989584E+03 -0.38074526308E+03  0.10578893905E+03  0.50353339003E+03  0.25500000920E-02 0. -1.
</event>
<event>
 5   0  0.6376961E-03  0.1000083E+04  0.7818609E-02  0.9308454E-01
       -2   -1    0    0    0  501  0.00000000000E+00  0.00000000000E+00  0.78438466711E+03  0.78438466711E+03  0.25500000920E-02 0.  1.
        2   -1    0    0  501    0  0.00000000000E+00  0.00000000000E+00 -0.31877393164E+03  0.31877393165E+03  0.25500000920E-02 0. -1.
    10030    2    1    2    0    0  0.00000000000E+00  0.00000000000E+00  0.46561073547E+03  0.11031585988E+04  0.10000827651E+04 0.  0.
        3    1    3    3  502    0  0.45292482085E+03  0.96175107682E+02  0.44108021778E+03  0.63948597591E+03  0.10100000352E+00 0.  1.
       -3    1    3    3    0  502 -0.45292482085E+03 -0.96175107682E+02  0.24530517690E+02  0.46367262285E+03  0.10100000352E+00 0. -1.
</event>
<event>
 5   0  0.6360455E-03  0.9840393E+03  0.7818609E-02  0.9326226E-01
       -2   -1    0    0    0  501  0.00000000000E+00  0.00000000000E+00  0.16815687552E+03  0.16815687554E+03  0.25500000920E-02 0.  1.
        2   -1    0    0  501    0  0.00000000000E+00  0.00000000000E+00 -0.14396279559E+04  0.14396279559E+04  0.25500000920E-02 0. -1.
    10030    2    1    2    0    0  0.00000000000E+00  0.00000000000E+00 -0.12714710804E+04  0.16077848315E+04  0.98403930612E+03 0.  0.
        4    1    3    3  502    0 -0.27386438095E+03 -0.68616817634E+02  0.22635514816E+02  0.28323832058E+03  0.12699999809E+01 0.  1.
       -4    1    3    3    0  502  0.27386438095E+03  0.68616817634E+02 -0.12941065952E+04  0.13245465109E+04  0.12699999809E+01 0. -1.
</event>
<event>
 5   0  0.6360455E-03  0.1001263E+04  0.7818609E-02  0.9307161E-01
       -2   -1    0    0    0  501  0.00000000000E+00  0.00000000000E+00  0.64085738294E+03  0.64085738294E+03  0.25500000920E-02 0.  1.
        2   -1    0    0  501    0  0.00000000000E+00  0.00000000000E+00 -0.39108822812E+03  0.39108822813E+03  0.25500000920E-02 0. -1.
    10030    2    1    2    0    0  0.00000000000E+00  0.00000000000E+00  0.24976915482E+03  0.10319456111E+04  0.10012627595E+04 0.  0.
        4    1    3    3  502    0  0.18997684983E+03  0.30357644273E+03  0.48543375656E+03  0.60323909436E+03  0.12699999809E+01 0.  1.
       -4    1    3    3    0  502 -0.18997684983E+03 -0.30357644273E+03 -0.23566460174E+03  0.42870651671E+03  0.12699999809E+01 0. -1.
</event>
<event>
 5   0  0.3466598E-03  0.9938520E+03  0.7818609E-02  0.9315314E-01
        1   -1    0    0  501    0  0.00000000000E+00  0.00000000000E+00  0.15842209962E+04  0.15842209962E+04  0.50400001928E-02 0.  1.
       -1   -1    0    0    0  501  0.00000000000E+00  0.00000000000E+00 -0.15587183729E+03  0.15587183737E+03  0.50400001928E-02 0. -1.
    10030    2    1    2    0    0  0.00000000000E+00  0.00000000000E+00  0.14283491589E+04  0.17400928336E+04  0.99385197576E+03 0.  0.
        3    1    3    3  502    0  0.34624612288E+03  0.12788674140E+02  0.90501914503E+02  0.35810687584E+03  0.10100000352E+00 0. -1.
       -3    1    3    3    0  502 -0.34624612288E+03 -0.12788674140E+02  0.13378472444E+04  0.13819859578E+04  0.10100000352E+00 0.  1.
</event>
<event>
 5   0  0.3608845E-03  0.9931532E+03  0.7818609E-02  0.9316086E-01
        1   -1    0    0  501    0  0.00000000000E+00  0.00000000000E+00  0.10191575475E+04  0.10191575475E+04  0.50400001928E-02 0.  1.
       -1   -1    0    0    0  501  0.00000000000E+00  0.00000000000E+00 -0.24195311332E+03  0.24195311338E+03  0.50400001928E-02 0. -1.
    10030    2    1    2    0    0  0.00000000000E+00  0.00000000000E+00  0.77720443414E+03  0.12611106609E+04  0.99315324420E+03 0.  0.
        1    1    3    3  502    0  0.35986579396E+03 -0.77035130270E+02 -0.34741112476E+02  0.36965490107E+03  0.50400001928E-02 0. -1.
       -1    1    3    3    0  502 -0.35986579396E+03  0.77035130270E+02  0.81194554662E+03  0.89145575979E+03  0.50400001928E-02 0.  1.
</event>
<event>
 5   0  0.3643002E-03  0.9961320E+03  0.7818609E-02  0.9312797E-01
       -1   -1    0    0    0  501  0.00000000000E+00  0.00000000000E+00  0.35829210296E+03  0.35829210300E+03  0.50400001928E-02 0. -1.
        1   -1    0    0  501    0  0.00000000000E+00  0.00000000000E+00 -0.69236737358E+03  0.69236737359E+03  0.50400001928E-02 0.  1.
    10030    2    1    2    0    0  0.00000000000E+00  0.00000000000E+00 -0.33407527062E+03  0.10506594766E+04  0.99613204412E+03 0.  0.
        2    1    3    3  502    0  0.25023165988E+03  0.27660289467E+03  0.18109774291E+03  0.41463410067E+03  0.25500000920E-02 0. -1.
       -2    1    3    3    0  502 -0.25023165988E+03 -0.27660289467E+03 -0.51517301352E+03  0.63602537592E+03  0.25500000920E-02 0.  1.
</event>
<event>
 5   0  0.6606947E-03  0.1003635E+04  0.7818609E-02  0.9304567E-01
       -2   -1    0    0    0  501  0.00000000000E+00  0.00000000000E+00  0.64841905180E+03  0.64841905181E+03  0.25500000920E-02 0.  1.
        2   -1    0    0  501    0  0.00000000000E+00  0.00000000000E+00 -0.38836139304E+03  0.38836139304E+03  0.25500000920E-02 0. -1.
    10030    2    1    2    0    0  0.00000000000E+00  0.00000000000E+00  0.26005765877E+03  0.10367804449E+04  0.10036352450E+04 0.  0.
        1    1    3    3  502    0  0.34246607827E+03 -0.22560123187E+02 -0.24816131275E+03  0.42352805231E+03  0.50400001928E-02 0. -1.
       -1    1    3    3    0  502 -0.34246607827E+03  0.22560123187E+02  0.50821897152E+03  0.61325239254E+03  0.50400001928E-02 0.  1.
</event>
<event>
 5   0  0.6360455E-03  0.1026766E+04  0.7818609E-02  0.9279666E-01
       -2   -1    0    0    0  501  0.00000000000E+00  0.00000000000E+00  0.27680415256E+03  0.27680415257E+03  0.25500000920E-02 0. -1.
        2   -1    0    0  501    0  0.00000000000E+00  0.00000000000E+00 -0.95216097221E+03  0.95216097222E+03  0.25500000920E-02 0.  1.
    10030    2    1    2    0    0  0.00000000000E+00  0.00000000000E+00 -0.67535681965E+03  0.12289651248E+04  0.10267660123E+04 0.  0.
        4    1    3    3  502    0  0.34553490948E+03 -0.23398580738E+03  0.20234657415E+02  0.41779754186E+03  0.12699999809E+01 0. -1.
       -4    1    3    3    0  502 -0.34553490948E+03  0.23398580738E+03 -0.69559147707E+03  0.81116758293E+03  0.12699999809E+01 0.  1.
</event>
<event>
 5   0  0.3640180E-03  0.9916697E+03  0.7818609E-02  0.9317729E-01
       -1   -1    0    0    0  501  0.00000000000E+00  0.00000000000E+00  0.94671739832E+03  0.94671739833E+03  0.50400001928E-02 0.  1.
        1   -1    0    0  501    0  0.00000000000E+00  0.00000000000E+00 -0.25968913319E+03  0.25968913324E+03  0.50400001928E-02 0. -1.
    10030    2    1    2    0    0  0.00000000000E+00  0.00000000000E+00  0.68702826512E+03  0.12064065316E+04  0.99166974459E+03 0.  0.
        5    1    3    3  502    0 -0.55211817871E+02 -0.27379031897E+03 -0.15485290740E+03  0.31939160371E+03  0.46999998093E+01 0. -1.
       -5    1    3    3    0  502  0.55211817871E+02  0.27379031897E+03  0.84188117253E+03  0.88701492786E+03  0.46999998093E+01 0.  1.
</event>
<event>
 5   0  0.6606947E-03  0.1009291E+04  0.7818609E-02  0.9298413E-01
       -2   -1    0    0    0  501  0.00000000000E+00  0.00000000000E+00  0.17112589646E+03  0.17112589648E+03  0.25500000920E-02 0.  1.
        2   -1    0    0  501    0  0.00000000000E+00  0.00000000000E+00 -0.14881851684E+04  0.14881851684E+04  0.25500000920E-02 0. -1.
    10030    2    1    2    0    0  0.00000000000E+00  0.00000000000E+00 -0.13170592720E+04  0.16593110649E+04  0.10092908819E+04 0.  0.
        1    1    3    3  502    0  0.24873546442E+03  0.35981958560E+03 -0.24480839197E+03  0.50126900388E+03  0.50400001928E-02 0.  1.
       -1    1    3    3    0  502 -0.24873546442E+03 -0.35981958560E+03 -0.10722508800E+04  0.11580420610E+04  0.50400001928E-02 0. -1.
</event>
<event>
 5   0  0.3466598E-03  0.9946843E+03  0.7818609E-02  0.9314394E-01
        1   -1    0    0  501    0  0.00000000000E+00  0.00000000000E+00  0.12883583937E+04  0.12883583937E+04  0.50400001928E-02 0.  1.
       -1   -1    0    0    0  501  0.00000000000E+00  0.00000000000E+00 -0.19198787803E+03  0.19198787809E+03  0.50400001928E-02 0. -1.
    10030    2    1    2    0    0  0.00000000000E+00  0.00000000000E+00  0.10963705157E+04  0.14803462718E+04  0.99468425986E+03 0.  0.
        3    1    3    3  502    0  0.32107679846E+03  0.19652466825E+03  0.10318962434E+04  0.10984180093E+04  0.10100000352E+00 0.  1.
       -3    1    3    3    0  502 -0.32107679846E+03 -0.19652466825E+03  0.64474272277E+02  0.38192826254E+03  0.10100000352E+00 0. -1.
</event>
<event>
 5   0  0.3640180E-03  0.9886966E+03  0.7818609E-02  0.9321030E-01
       -1   -1    0    0    0  501  0.00000000000E+00  0.00000000000E+00  0.31283116138E+03  0.31283116142E+03  0.50400001928E-02 0. -1.
        1   -1    0    0  501    0  0.00000000000E+00  0.00000000000E+00 -0.78118889012E+03  0.78118889014E+03  0.50400001928E-02 0.  1.
    10030    2    1    2    0    0  0.00000000000E+00  0.00000000000E+00 -0.46835772874E+03  0.10940200516E+04  0.98869657183E+03 0.  0.
        5    1    3    3  502    0 -0.26871863810E+03  0.17165629556E+03 -0.65215133766E+03  0.72594700046E+03  0.46999998093E+01 0.  1.
       -5    1    3    3    0  502  0.26871863810E+03 -0.17165629556E+03  0.18379360892E+03  0.36807305110E+03  0.46999998093E+01 0. -1.
</event>
<event>
 5   0  0.3640180E-03  0.1027526E+04  0.7818609E-02  0.9278859E-01
        1   -1    0    0  501    0  0.00000000000E+00  0.00000000000E+00  0.47063396247E+03  0.47063396250E+03  0.50400001928E-02 0. -1.
       -1   -1    0    0    0  501  0.00000000000E+00  0.00000000000E+00 -0.56084475722E+03  0.56084475724E+03  0.50400001928E-02 0.  1.
    10030    2    1    2    0    0  0.00000000000E+00  0.00000000000E+00 -0.90210794748E+02  0.10314787197E+04  0.10275263314E+04 0.  0.
        5    1    3    3  502    0 -0.37258500919E+03  0.35160388937E+03 -0.83797350056E+02  0.51912327050E+03  0.46999998093E+01 0. -1.
       -5    1    3    3    0  502  0.37258500919E+03 -0.35160388937E+03 -0.64134446917E+01  0.51235544924E+03  0.46999998093E+01 0.  1.
</event>
<event>
 5   0  0.2417750E-03  0.9960972E+03  0.7818609E-02  0.9312836E-01
        4   -1    0    0  501    0  0.00000000000E+00  0.00000000000E+00  0.64928374632E+03  0.64928498838E+03  0.12699999809E+01 0.  1.
       -4   -1    0    0    0  501  0.00000000000E+00  0.00000000000E+00 -0.38203741421E+03  0.38203952512E+03  0.12699999809E+01 0. -1.
    10030    2    1    2    0    0  0.00000000000E+00  0.00000000000E+00  0.26724633212E+03  0.10313245135E+04  0.99609720917E+03 0.  0.
        4    1    3    3  502    0  0.25434288882E+02 -0.26417503152E+03  0.56997216773E+03  0.62873303970E+03  0.12699999809E+01 0.  1.
       -4    1    3    3    0  502 -0.25434288882E+02  0.26417503152E+03 -0.30272583561E+03  0.40259147380E+03  0.12699999809E+01 0. -1.
</event>
<event>
 5   0  0.6022787E-03  0.1058183E+04  0.7818609E-02  0.9246936E-01
        2   -1    0    0  501    0  0.00000000000E+00  0.00000000000E+00  0.65355278164E+03  0.65355278164E+03  0.25500000920E-02 0. -1.
       -2   -1    0    0    0  501  0.00000000000E+00  0.00000000000E+00 -0.42833267946E+03  0.42833267947E+03  0.25500000920E-02 0.  1.
    10030    2    1    2    0    0  0.00000000000E+00  0.00000000000E+00  0.22522010218E+03  0.10818854611E+04  0.10581833757E+04 0.  0.
        5    1    3    3  502    0  0.15273628248E+02 -0.50657997259E+03 -0.42644409242E+02  0.50862283471E+03  0.46999998093E+01 0. -1.
       -5    1    3    3    0  502 -0.15273628248E+02  0.50657997259E+03  0.26786451142E+03  0.57326262640E+03  0.46999998093E+01 0.  1.
</event>
<event>
 5   0  0.6360455E-03  0.9687876E+03  0.7818609E-02  0.9343456E-01
       -2   -1    0    0    0  501  0.00000000000E+00  0.00000000000E+00  0.22934498206E+03  0.22934498208E+03  0.25500000920E-02 0.  1.
        2   -1    0    0  501    0  0.00000000000E+00  0.00000000000E+00 -0.10230760083E+04  0.10230760083E+04  0.25500000920E-02 0. -1.
    10030    2    1    2    0    0  0.00000000000E+00  0.00000000000E+00 -0.79373102624E+03  0.12524209904E+04  0.96878759030E+03 0.  0.
        4    1    3    3  502    0  0.45682498775E+03  0.15975725071E+03 -0.42349432469E+03  0.64308670063E+03  0.12699999809E+01 0.  1.
       -4    1    3    3    0  502 -0.45682498775E+03 -0.15975725071E+03 -0.37023670155E+03  0.60933428975E+03  0.12699999809E+01 0. -1.
</event>
<event>
 5   0  0.3608845E-03  0.9872444E+03  0.7818609E-02  0.9322647E-01
       -1   -1    0    0    0  501  0.00000000000E+00  0.00000000000E+00  0.96978271040E+03  0.96978271041E+03  0.50400001928E-02 0.  1.
        1   -1    0    0  501    0  0.00000000000E+00  0.00000000000E+00 -0.25125513116E+03  0.25125513121E+03  0.50400001928E-02 0. -1.
    10030    2    1    2    0    0  0.00000000000E+00  0.00000000000E+00  0.71852757923E+03  0.12210378416E+04  0.98724441176E+03 0.  0.
        1    1    3    3  502    0 -0.17344983101E+03  0.33587076805E+03  0.75187945480E+03  0.84155613674E+03  0.50400001928E-02 0.  1.
       -1    1    3    3    0  502  0.17344983101E+03 -0.33587076805E+03 -0.33351875564E+02  0.37948170488E+03  0.50400001928E-02 0. -1.
</event>
<event>
 5   0  0.6022787E-03  0.9978189E+03  0.7818609E-02  0.9310940E-01
        2   -1    0    0  501    0  0.00000000000E+00  0.00000000000E+00  0.16953447157E+04  0.16953447157E+04  0.25500000920E-02 0. -1.
       -2   -1    0    0    0  501  0.00000000000E+00  0.00000000000E+00 -0.14682006823E+03  0.14682006825E+03  0.25500000920E-02 0.  1.
    10030    2    1    2    0    0  0.00000000000E+00  0.00000000000E+00  0.15485246475E+04  0.18421647840E+04  0.99781887505E+03 0.  0.
        5    1    3    3  502    0 -0.15646492877E+03 -0.20024393216E+03 -0.18331666732E+02  0.25482748342E+03  0.46999998093E+01 0.  1.
       -5    1    3    3    0  502  0.15646492877E+03  0.20024393216E+03  0.15668563142E+04  0.15873373005E+04  0.46999998093E+01 0. -1.
</event>
<event>
 5   0  0.3640180E-03  0.1007768E+04  0.7818609E-02  0.9300065E-01
        1   -1    0    0  501    0  0.00000000000E+00  0.00000000000E+00  0.15037904294E+04  0.15037904295E+04  0.50400001928E-02 0.  1.
       -1   -1    0    0    0  501  0.00000000000E+00  0.00000000000E+00 -0.16883951229E+03  0.16883951236E+03  0.50400001928E-02 0. -1.
    10030    2    1    2    0    0  0.00000000000E+00  0.00000000000E+00  0.13349509172E+04  0.16726299418E+04  0.10077683122E+04 0.  0.
        5    1    3    3  502    0  0.13729656608E+03  0.47338329734E+03  0.49391541774E+03  0.69779411229E+03  0.46999998093E+01 0. -1.
       -5    1    3    3    0  502 -0.13729656608E+03 -0.47338329734E+03  0.84103549942E+03  0.97483582953E+03  0.46999998093E+01 0.  1.
</event>
<event>
 5   0  0.6376961E-03  0.1024390E+04  0.7818609E-02  0.9282191E-01
        2   -1    0    0  501    0  0.00000000000E+00  0.00000000000E+00  0.10680812938E+04  0.10680812938E+04  0.25500000920E-02 0.  1.
       -2   -1    0    0    0  501  0.00000000000E+00  0.00000000000E+00 -0.24562154980E+03  0.24562154981E+03  0.25500000920E-02 0. -1.
    10030    2    1    2    0    0  0.00000000000E+00  0.00000000000E+00  0.82245974403E+03  0.13137028436E+04  0.10243901263E+04 0.  0.
        3    1    3    3  502    0 -0.45148123666E+03 -0.55236516623E+02  0.10922671709E+03  0.46777865038E+03  0.10100000352E+00 0. -1.
       -3    1    3    3    0  502  0.45148123666E+03  0.55236516623E+02  0.71323302694E+03  0.84592419326E+03  0.10100000352E+00 0.  1.
</event>
<event>
 5   0  0.6022787E-03  0.9906316E+03  0.7818609E-02  0.9318880E-01
       -2   -1    0    0    0  501  0.00000000000E+00  0.00000000000E+00  0.22165196305E+03  0.22165196306E+03  0.25500000920E-02 0. -1.
        2   -1    0    0  501    0  0.00000000000E+00  0.00000000000E+00 -0.11068601270E+04  0.11068601270E+04  0.25500000920E-02 0.  1.
    10030    2    1    2    0    0  0.00000000000E+00  0.00000000000E+00 -0.88520816397E+03  0.13285120901E+04  0.99063155610E+03 0.  0.
        5    1    3    3  502    0 -0.40450116821E+03  0.43705007446E+02 -0.63802231302E+02  0.41185451008E+03  0.46999998093E+01 0. -1.
       -5    1    3    3    0  502  0.40450116821E+03 -0.43705007446E+02 -0.82140593267E+03  0.91665758000E+03  0.46999998093E+01 0.  1.
</event>
<event>
 5   0  0.3569359E-03  0.1002980E+04  0.7818609E-02  0.9305282E-01
       -1   -1    0    0    0  501  0.00000000000E+00  0.00000000000E+00  0.33021409115E+03  0.33021409119E+03  0.50400001928E-02 0.  1.
        1   -1    0    0  501    0  0.00000000000E+00  0.00000000000E+00 -0.76160404700E+03  0.76160404702E+03  0.50400001928E-02 0. -1.
    10030    2    1    2    0    0  0.00000000000E+00  0.00000000000E+00 -0.43138995585E+03  0.10918181382E+04  0.10029803353E+04 0.  0.
        4    1    3    3  502    0  0.39088220072E+03  0.13847604587E+03  0.91287212272E+02  0.42461686041E+03  0.12699999809E+01 0.  1.
       -4    1    3    3    0  502 -0.39088220072E+03 -0.13847604587E+03 -0.52267716812E+03  0.66720127780E+03  0.12699999809E+01 0. -1.
</event>
<event>
 5   0  0.6376961E-03  0.9967207E+03  0.7818609E-02  0.9312149E-01
       -2   -1    0    0    0  501  0.00000000000E+00  0.00000000000E+00  0.49345422682E+03  0.49345422683E+03  0.25500000920E-02 0. -1.
        2   -1    0    0  501    0  0.00000000000E+00  0.00000000000E+00 -0.50331529399E+03  0.50331529400E+03  0.25500000920E-02 0.  1.
    10030    2    1    2    0    0  0.00000000000E+00  0.00000000000E+00 -0.98610671677E+01  0.99676952083E+03  0.99672074174E+03 0.  0.
        3    1    3    3  502    0  0.14727391613E+03  0.28627870731E+03 -0.38536726898E+03  0.50214843108E+03  0.10100000352E+00 0.  1.
       -3    1    3    3    0  502 -0.14727391613E+03 -0.28627870731E+03  0.37550620181E+03  0.49462108975E+03  0.10100000352E+00 0. -1.
</event>
<event>
 5   0  0.6199539E-03  0.9877292E+03  0.7818609E-02  0.9322106E-01
       -2   -1    0    0    0  501  0.00000000000E+00  0.00000000000E+00  0.22272354743E+03  0.22272354745E+03  0.25500000920E-02 0. -1.
        2   -1    0    0  501    0  0.00000000000E+00  0.00000000000E+00 -0.10950896663E+04  0.10950896663E+04  0.25500000920E-02 0.  1.
    10030    2    1    2    0    0  0.00000000000E+00  0.00000000000E+00 -0.87236611891E+03  0.13178132138E+04  0.98772922455E+03 0.  0.
        2    1    3    3  502    0  0.17905571098E+03 -0.10016090744E+03 -0.10355410881E+04  0.10556696928E+04  0.25500000920E-02 0.  1.
       -2    1    3    3    0  502 -0.17905571098E+03  0.10016090744E+03  0.16317496924E+03  0.26214352101E+03  0.25500000920E-02 0. -1.
</event>
<event>
 5   0  0.6360455E-03  0.9964959E+03  0.7818609E-02  0.9312396E-01
       -2   -1    0    0    0  501  0.00000000000E+00  0.00000000000E+00  0.24939599120E+03  0.24939599121E+03  0.25500000920E-02 0.  1.
        2   -1    0    0  501    0  0.00000000000E+00  0.00000000000E+00 -0.99540896607E+03  0.99540896607E+03  0.25500000920E-02 0. -1.
    10030    2    1    2    0    0  0.00000000000E+00  0.00000000000E+00 -0.74601297487E+03  0.12448049573E+04  0.99649587205E+03 0.  0.
        4    1    3    3  502    0 -0.47002331570E+03  0.12753268284E+02 -0.16711931058E+03  0.49901406796E+03  0.12699999809E+01 0.  1.
       -4    1    3    3    0  502  0.47002331570E+03 -0.12753268284E+02 -0.57889366429E+03  0.74579088933E+03  0.12699999809E+01 0. -1.
</event>
<event>
 5   0  0.6022787E-03  0.1004636E+04  0.7818609E-02  0.9303474E-01
       -2   -1    0    0    0  501  0.00000000000E+00  0.00000000000E+00  0.11830370660E+03  0.11830370663E+03  0.25500000920E-02 0. -1.
        2   -1    0    0  501    0  0.00000000000E+00  0.00000000000E+00 -0.21328451223E+04  0.21328451223E+04  0.25500000920E-02 0.  1.
    10030    2    1    2    0    0  0.00000000000E+00  0.00000000000E+00 -0.20145414157E+04  0.22511488290E+04  0.10046362200E+04 0.  0.
        5    1    3    3  502    0 -0.22805973676E+03  0.16228123146E+03 -0.72696535585E+02  0.28922883310E+03  0.46999998093E+01 0. -1.
       -5    1    3    3    0  502  0.22805973676E+03 -0.16228123146E+03 -0.19418448802E+04  0.19619199959E+04  0.46999998093E+01 0.  1.
</event>
<event>
 5   0  0.6606947E-03  0.1001929E+04  0.7818609E-02  0.9306432E-01
       -2   -1    0    0    0  501  0.00000000000E+00  0.00000000000E+00  0.39758339129E+03  0.39758339129E+03  0.25500000920E-02 0. -1.
        2   -1    0    0  501    0  0.00000000000E+00  0.00000000000E+00 -0.63122653414E+03  0.63122653414E+03  0.25500000920E-02 0.  1.
    10030    2    1    2    0    0  0.00000000000E+00  0.00000000000E+00 -0.23364314285E+03  0.10288099254E+04  0.10019285127E+04 0.  0.
        1    1    3    3  502    0 -0.32237333391E+03  0.22435145367E+03  0.20249941778E+03  0.44188703919E+03  0.50400001928E-02 0. -1.
       -1    1    3    3    0  502  0.32237333391E+03 -0.22435145367E+03 -0.43614256063E+03  0.58692288625E+03  0.50400001928E-02 0.  1.
</event>
<event>
 5   0  0.6606947E-03  0.1010453E+04  0.7818609E-02  0.9297154E-01
       -2   -1    0    0    0  501  0.00000000000E+00  0.00000000000E+00  0.38391522566E+03  0.38391522567E+03  0.25500000920E-02 0.  1.
        2   -1    0    0  501    0  0.00000000000E+00  0.00000000000E+00 -0.66487055175E+03  0.66487055175E+03  0.25500000920E-02 0. -1.
    10030    2    1    2    0    0  0.00000000000E+00  0.00000000000E+00 -0.28095532609E+03  0.10487857774E+04  0.10104532209E+04 0.  0.
        1    1    3    3  502    0  0.36317475833E+03  0.30466604885E+03 -0.32185418495E+03  0.57298117142E+03  0.50400001928E-02 0. -1.
       -1    1    3    3    0  502 -0.36317475833E+03 -0.30466604885E+03  0.40898858855E+02  0.47580460600E+03  0.50400001928E-02 0.  1.
</event>
<event>
 5   0  0.3608845E-03  0.1065251E+04  0.7818609E-02  0.9239739E-01
        1   -1    0    0  501    0  0.00000000000E+00  0.00000000000E+00  0.16842255244E+04  0.16842255244E+04  0.50400001928E-02 0. -1.
       -1   -1    0    0    0  501  0.00000000000E+00  0.00000000000E+00 -0.16843937037E+03  0.16843937045E+03  0.50400001928E-02 0.  1.
    10030    2    1    2    0    0  0.00000000000E+00  0.00000000000E+00  0.15157861541E+04  0.18526648949E+04  0.10652509319E+04 0.  0.
        1    1    3    3  502    0 -0.43095241508E+01  0.23093761948E+03 -0.76803843939E+02  0.24341237963E+03  0.50400001928E-02 0.  1.
       -1    1    3    3    0  502  0.43095241508E+01 -0.23093761948E+03  0.15925899980E+04  0.16092525153E+04  0.50400001928E-02 0. -1.
</event>
<event>
 5   0  0.3643002E-03  0.9948323E+03  0.7818609E-02  0.9314231E-01
        1   -1    0    0  501    0  0.00000000000E+00  0.00000000000E+00  0.11347563428E+04  0.11347563428E+04  0.50400001928E-02 0.  1.
       -1   -1    0    0    0  501  0.00000000000E+00  0.00000000000E+00 -0.21804047319E+03  0.21804047325E+03  0.50400001928E-02 0. -1.
    10030    2    1    2    0    0  0.00000000000E+00  0.00000000000E+00  0.91671586962E+03  0.13527968161E+04  0.99483226726E+03 0.  0.
        2    1    3    3  502    0  0.22563866850E+03  0.43173166214E+03  0.32157712248E+03  0.58370958749E+03  0.25500000920E-02 0. -1.
       -2    1    3    3    0  502 -0.22563866850E+03 -0.43173166214E+03  0.59513874714E+03  0.76908722858E+03  0.25500000920E-02 0.  1.
</event>
<event>
 5   0  0.6606947E-03  0.9975285E+03  0.7818609E-02  0.9311260E-01
        2   -1    0    0  501    0  0.00000000000E+00  0.00000000000E+00  0.75527837066E+03  0.75527837067E+03  0.25500000920E-02 0. -1.
       -2   -1    0    0    0  501  0.00000000000E+00  0.00000000000E+00 -0.32936967047E+03  0.32936967048E+03  0.25500000920E-02 0.  1.
    10030    2    1    2    0    0  0.00000000000E+00  0.00000000000E+00  0.42590870019E+03  0.10846480411E+04  0.99752852202E+03 0.  0.
        1    1    3    3  502    0  0.43077471453E+03 -0.67429308500E+02 -0.50378929466E+02  0.43892095288E+03  0.50400001928E-02 0.  1.
       -1    1    3    3    0  502 -0.43077471453E+03  0.67429308500E+02  0.47628762966E+03  0.64572708826E+03  0.50400001928E-02 0. -1.
</event>
<event>
 5   0  0.3466598E-03  0.9900341E+03  0.7818609E-02  0.9319543E-01
        1   -1    0    0  501    0  0.00000000000E+00  0.00000000000E+00  0.59390002976E+03  0.59390002978E+03  0.50400001928E-02 0. -1.
       -1   -1    0    0    0  501  0.00000000000E+00  0.00000000000E+00 -0.41259783205E+03  0.41259783208E+03  0.50400001928E-02 0.  1.
    10030    2    1    2    0    0  0.00000000000E+00  0.00000000000E+00  0.18130219772E+03  0.10064978619E+04  0.99003406963E+03 0.  0.
        3    1    3    3  502    0 -0.20353446999E+03 -0.38311091101E+03 -0.15172839750E+03  0.45958869375E+03  0.10100000352E+00 0.  1.
       -3    1    3    3    0  502  0.20353446999E+03  0.38311091101E+03  0.33303059521E+03  0.54690916811E+03  0.10100000352E+00 0. -1.
</event>
<event>
 5   0  0.6022787E-03  0.9953697E+03  0.7818609E-02  0.9313638E-01
       -2   -1    0    0    0  501  0.00000000000E+00  0.00000000000E+00  0.44215671478E+03  0.44215671478E+03  0.25500000920E-02 0.  1.
        2   -1    0    0  501    0  0.00000000000E+00  0.00000000000E+00 -0.56018643882E+03  0.56018643882E+03  0.25500000920E-02 0. -1.
    10030    2    1    2    0    0  0.00000000000E+00  0.00000000000E+00 -0.11802972404E+03  0.10023431536E+04  0.99536967094E+03 0.  0.
        5    1    3    3  502    0 -0.39688325777E+03 -0.17027028157E+03  0.19002284623E+03  0.47184643813E+03  0.46999998093E+01 0. -1.
       -5    1    3    3    0  502  0.39688325777E+03  0.17027028157E+03 -0.30805257027E+03  0.53049671548E+03  0.46999998093E+01 0.  1.
</event>
<event>
 5   0  0.3466598E-03  0.9778890E+03  0.7818609E-02  0.9333134E-01
       -1   -1    0    0    0  501  0.00000000000E+00  0.00000000000E+00  0.54538521289E+03  0.54538521291E+03  0.50400001928E-02 0.  1.
        1   -1    0    0  501    0  0.00000000000E+00  0.00000000000E+00 -0.43834472182E+03  0.43834472184E+03  0.50400001928E-02 0. -1.
    10030    2    1    2    0    0  0.00000000000E+00  0.00000000000E+00  0.10704049107E+03  0.98372993476E+03  0.97788901099E+03 0.  0.
        3    1    3    3  502    0  0.42866123315E+03  0.59362292743E+02  0.28245897857E+03  0.51677598568E+03  0.10100000352E+00 0.  1.
       -3    1    3    3    0  502 -0.42866123315E+03 -0.59362292743E+02 -0.17541848749E+03  0.46695394908E+03  0.10100000352E+00 0. -1.
</event>
<event>
 5   0  0.6199539E-03  0.1006897E+04  0.7818609E-02  0.9301012E-01
        2   -1    0    0  501    0  0.00000000000E+00  0.00000000000E+00  0.54352725850E+03  0.54352725851E+03  0.25500000920E-02 0. -1.
       -2   -1    0    0    0  501  0.00000000000E+00  0.00000000000E+00 -0.46632549420E+03  0.46632549421E+03  0.25500000920E-02 0.  1.
    10030    2    1    2    0    0  0.00000000000E+00  0.00000000000E+00  0.77201764300E+02  0.10098527527E+04  0.10068974475E+04 0.  0.
        2    1    3    3  502    0 -0.99365440162E+02  0.13104989916E+03 -0.43862450827E+03  0.46844319403E+03  0.25500000920E-02 0.  1.
       -2    1    3    3    0  502  0.99365440162E+02 -0.13104989916E+03  0.51582627257E+03  0.54140955870E+03  0.25500000920E-02 0. -1.
</event>
<event>
 5   0  0.3569359E-03  0.1006495E+04  0.7818609E-02  0.9301449E-01
        1   -1    0    0  501    0  0.00000000000E+00  0.00000000000E+00  0.34713068862E+03  0.34713068865E+03  0.50400001928E-02 0. -1.
       -1   -1    0    0    0  501  0.00000000000E+00  0.00000000000E+00 -0.72957604120E+03  0.72957604122E+03  0.50400001928E-02 0.  1.
    10030    2    1    2    0    0  0.00000000000E+00  0.00000000000E+00 -0.38244535258E+03  0.10767067299E+04  0.10064953723E+04 0.  0.
        4    1    3    3  502    0  0.50136635369E+03  0.19698185348E+02 -0.23265950486E+03  0.55307169266E+03  0.12699999809E+01 0. -1.
       -4    1    3    3    0  502 -0.50136635369E+03 -0.19698185348E+02 -0.14978584772E+03  0.52363503721E+03  0.12699999809E+01 0.  1.
</event>
<event>
 5   0  0.3640180E-03  0.1013258E+04  0.7818609E-02  0.9294122E-01
       -1   -1    0    0    0  501  0.00000000000E+00  0.00000000000E+00  0.57384661090E+03  0.57384661093E+03  0.50400001928E-02 0. -1.
        1   -1    0    0  501    0  0.00000000000E+00  0.00000000000E+00 -0.44728478508E+03  0.44728478510E+03  0.50400001928E-02 0.  1.
    10030    2    1    2    0    0  0.00000000000E+00  0.00000000000E+00  0.12656182583E+03  0.10211313960E+04  0.10132578311E+04 0.  0.
        5    1    3    3  502    0  0.30451310580E+03  0.18117832305E+03 -0.30160572275E+03  0.46534064763E+03  0.46999998093E+01 0.  1.
       -5    1    3    3    0  502 -0.30451310580E+03 -0.18117832305E+03  0.42816754858E+03  0.55579074840E+03  0.46999998093E+01 0. -1.
</event>
<event>
 5   0  0.3608845E-03  0.1018443E+04  0.7818609E-02  0.9288545E-01
        1   -1    0    0  501    0  0.00000000000E+00  0.00000000000E+00  0.62056687664E+03  0.62056687666E+03  0.50400001928E-02 0.  1.
       -1   -1    0    0    0  501  0.00000000000E+00  0.00000000000E+00 -0.41785410982E+03  0.41785410985E+03  0.50400001928E-02 0. -1.
    10030    2    1    2    0    0  0.00000000000E+00  0.00000000000E+00  0.20271276682E+03  0.10384209865E+04  0.10184427718E+04 0.  0.
        1    1    3    3  502    0 -0.15967183015E+03 -0.25834579429E+03 -0.31540212330E+03  0.43785401925E+03  0.50400001928E-02 0. -1.
       -1    1    3    3    0  502  0.15967183015E+03  0.25834579429E+03  0.51811489012E+03  0.60056696726E+03  0.50400001928E-02 0.  1.
</event>
<event>
 5   0  0.3643002E-03  0.9858114E+03  0.7818609E-02  0.9324245E-01
       -1   -1    0    0    0  501  0.00000000000E+00  0.00000000000E+00  0.22756744246E+03  0.22756744251E+03  0.50400001928E-02 0.  1.
        1   -1    0    0  501    0  0.00000000000E+00  0.00000000000E+00 -0.10676221426E+04  0.10676221426E+04  0.50400001928E-02 0. -1.
    10030    2    1    2    0    0  0.00000000000E+00  0.00000000000E+00 -0.84005470012E+03  0.12951895851E+04  0.98581142322E+03 0.  0.
        2    1    3    3  502    0  0.56595168478E+02 -0.37551498621E+03 -0.83287461047E+03  0.91536584748E+03  0.25500000920E-02 0. -1.
       -2    1    3    3    0  502 -0.56595168478E+02  0.37551498621E+03 -0.71800896545E+01  0.37982373762E+03  0.25500000920E-02 0.  1.
</event>
<event>
 5   0  0.6376961E-03  0.1050675E+04  0.7818609E-02  0.9254647E-01
       -2   -1    0    0    0  501  0.00000000000E+00  0.00000000000E+00  0.44080187927E+03  0.44080187928E+03  0.25500000920E-02 0. -1.
        2   -1    0    0  501    0  0.00000000000E+00  0.00000000000E+00 -0.62608542040E+03  0.62608542040E+03  0.25500000920E-02 0.  1.
    10030    2    1    2    0    0  0.00000000000E+00  0.00000000000E+00 -0.18528354113E+03  0.10668872997E+04  0.10506752684E+04 0.  0.
        3    1    3    3  502    0  0.48077762349E+03 -0.20833812586E+03 -0.13101000594E+03  0.54010696144E+03  0.10100000352E+00 0. -1.
       -3    1    3    3    0  502 -0.48077762349E+03  0.20833812586E+03 -0.54273535191E+02  0.52678033825E+03  0.10100000352E+00 0.  1.
</event>
<event>
 5   0  0.6606947E-03  0.9853058E+03  0.7818609E-02  0.9324810E-01
       -2   -1    0    0    0  501  0.00000000000E+00  0.00000000000E+00  0.36472914406E+03  0.36472914407E+03  0.25500000920E-02 0.  1.
        2   -1    0    0  501    0  0.00000000000E+00  0.00000000000E+00 -0.66544414456E+03  0.66544414456E+03  0.25500000920E-02 0. -1.
    10030    2    1    2    0    0  0.00000000000E+00  0.00000000000E+00 -0.30071500050E+03  0.10301732886E+04  0.98530578659E+03 0.  0.
        1    1    3    3  502    0  0.13337551060E+03  0.21835578524E+03 -0.59052543689E+03  0.64357483436E+03  0.50400001928E-02 0. -1.
       -1    1    3    3    0  502 -0.13337551060E+03 -0.21835578524E+03  0.28981043639E+03  0.38659845427E+03  0.50400001928E-02 0.  1.
</event>
<event>
 5   0  0.3643002E-03  0.9906610E+03  0.7818609E-02  0.9318847E-01
       -1   -1    0    0    0  501  0.00000000000E+00  0.00000000000E+00  0.23309391823E+03  0.23309391829E+03  0.50400001928E-02 0.  1.
        1   -1    0    0  501    0  0.00000000000E+00  0.00000000000E+00 -0.10525900003E+04  0.10525900003E+04  0.50400001928E-02 0. -1.
    10030    2    1    2    0    0  0.00000000000E+00  0.00000000000E+00 -0.81949608204E+03  0.12856839186E+04  0.99066104698E+03 0.  0.
        2    1    3    3  502    0  0.22532924913E+03  0.12286974305E+03  0.14007087317E+03  0.29238689059E+03  0.25500000920E-02 0.  1.
       -2    1    3    3    0  502 -0.22532924913E+03 -0.12286974305E+03 -0.95956695521E+03  0.99329702799E+03  0.25500000920E-02 0. -1.
</event>
<event>
 5   0  0.3569359E-03  0.1083344E+04  0.7818609E-02  0.9221580E-01
        1   -1    0    0  501    0  0.00000000000E+00  0.00000000000E+00  0.14462847993E+04  0.14462847993E+04  0.50400001928E-02 0.  1.
       -1   -1    0    0    0  501  0.00000000000E+00  0.00000000000E+00 -0.20287054430E+03  0.20287054436E+03  0.50400001928E-02 0. -1.
    10030    2    1    2    0    0  0.00000000000E+00  0.00000000000E+00  0.12434142550E+04  0.16491553437E+04  0.10833440534E+04 0.  0.
        4    1    3    3  502    0 -0.31158549363E+03 -0.42661637913E+03  0.80387232552E+03  0.96192483252E+03  0.12699999809E+01 0.  1.
       -4    1    3    3    0  502  0.31158549363E+03  0.42661637913E+03  0.43954192947E+03  0.68723051114E+03  0.12699999809E+01 0. -1.
</event>
<event>
 5   0  0.3466598E-03  0.9986896E+03  0.7818609E-02  0.9309983E-01
        1   -1    0    0  501    0  0.00000000000E+00  0.00000000000E+00  0.59676411065E+03  0.59676411067E+03  0.50400001928E-02 0.  1.
       -1   -1    0    0    0  501  0.00000000000E+00  0.00000000000E+00 -0.41782878054E+03  0.41782878057E+03  0.50400001928E-02 0. -1.
    10030    2    1    2    0    0  0.00000000000E+00  0.00000000000E+00  0.17893533011E+03  0.10145928912E+04  0.99868958270E+03 0.  0.
        3    1    3    3  502    0 -0.20650470227E+02  0.20945591323E+03  0.54949961313E+03  0.58842846340E+03  0.10100000352E+00 0.  1.
       -3    1    3    3    0  502  0.20650470227E+02 -0.20945591323E+03 -0.37056428302E+03  0.42616442784E+03  0.10100000352E+00 0. -1.
</event>
<event>
 5   0  0.3569359E-03  0.9959957E+03  0.7818609E-02  0.9312948E-01
       -1   -1    0    0    0  501  0.00000000000E+00  0.00000000000E+00  0.31794011343E+03  0.31794011347E+03  0.50400001928E-02 0.  1.
        1   -1    0    0  501    0  0.00000000000E+00  0.00000000000E+00 -0.78002698918E+03  0.78002698919E+03  0.50400001928E-02 0. -1.
    10030    2    1    2    0    0  0.00000000000E+00  0.00000000000E+00 -0.46208687574E+03  0.10979671027E+04  0.99599572178E+03 0.  0.
        4    1    3    3  502    0  0.14437632368E+03  0.46847239320E+03 -0.13437678429E+03  0.50830073686E+03  0.12699999809E+01 0. -1.
       -4    1    3    3    0  502 -0.14437632368E+03 -0.46847239320E+03 -0.32771009145E+03  0.58966636581E+03  0.12699999809E+01 0.  1.
</event>
<event>
 5   0  0.6199539E-03  0.9957327E+03  0.7818609E-02  0.9313237E-01
        2   -1    0    0  501    0  0.00000000000E+00  0.00000000000E+00  0.12429430986E+04  0.12429430986E+04  0.25500000920E-02 0.  1.
       -2   -1    0    0    0  501  0.00000000000E+00  0.00000000000E+00 -0.19942257890E+03  0.19942257891E+03  0.25500000920E-02 0. -1.
    10030    2    1    2    0    0  0.00000000000E+00  0.00000000000E+00  0.10435205197E+04  0.14423656775E+04  0.99573273153E+03 0.  0.
        2    1    3    3  502    0 -0.10105150824E+03  0.20361028968E+03 -0.11986981211E+03  0.25697729325E+03  0.25500000920E-02 0. -1.
       -2    1    3    3    0  502  0.10105150824E+03 -0.20361028968E+03  0.11633903318E+04  0.11853883843E+04  0.25500000920E-02 0.  1.
</event>
<event>
 5   0  0.6606947E-03  0.9974722E+03  0.7818609E-02  0.9311322E-01
       -2   -1    0    0    0  501  0.00000000000E+00  0.00000000000E+00  0.39408331213E+03  0.39408331214E+03  0.25500000920E-02 0. -1.
        2   -1    0    0  501    0  0.00000000000E+00  0.00000000000E+00 -0.63118043372E+03  0.63118043373E+03  0.25500000920E-02 0.  1.
    10030    2    1    2    0    0  0.00000000000E+00  0.00000000000E+00 -0.23709712160E+03  0.10252637459E+04  0.99747215676E+03 0.  0.
        1    1    3    3  502    0 -0.28120025449E+03  0.27950935449E+03 -0.42953180075E+03  0.58454822749E+03  0.50400001928E-02 0.  1.
       -1    1    3    3    0  502  0.28120025449E+03 -0.27950935449E+03  0.19243467916E+03  0.44071551838E+03  0.50400001928E-02 0. -1.
</event>
<event>
 5   0  0.2417750E-03  0.1003085E+04  0.7818609E-02  0.9305168E-01
       -3   -1    0    0    0  501  0.00000000000E+00  0.00000000000E+00  0.40001343908E+03  0.40001345183E+03  0.10100000352E+00 0.  1.
        3   -1    0    0  501    0  0.00000000000E+00  0.00000000000E+00 -0.62884096738E+03  0.62884097549E+03  0.10100000352E+00 0. -1.
    10030    2    1    2    0    0  0.00000000000E+00  0.00000000000E+00 -0.22882752830E+03  0.10288544273E+04  0.10030849390E+04 0.  0.
        3    1    3    3  502    0  0.37396204151E+02 -0.19562035508E+03  0.35771473700E+03  0.40942110678E+03  0.10100000352E+00 0.  1.
       -3    1    3    3    0  502 -0.37396204151E+02  0.19562035508E+03 -0.58654226530E+03  0.61943332054E+03  0.10100000352E+00 0. -1.
</event>
<event>
 5   0  0.3608845E-03  0.9906502E+03  0.7818609E-02  0.9318859E-01
        1   -1    0    0  501    0  0.00000000000E+00  0.00000000000E+00  0.45086415306E+03  0.45086415309E+03  0.50400001928E-02 0. -1.
       -1   -1    0    0    0  501  0.00000000000E+00  0.00000000000E+00 -0.54417050610E+03  0.54417050612E+03  0.50400001928E-02 0.  1.
    10030    2    1    2    0    0  0.00000000000E+00  0.00000000000E+00 -0.93306353042E+02  0.99503465921E+03  0.99065023975E+03 0.  0.
        1    1    3    3  502    0 -0.66277552443E+02  0.49014946609E+03 -0.73374702754E+02  0.50002305957E+03  0.50400001928E-02 0.  1.
       -1    1    3    3    0  502  0.66277552443E+02 -0.49014946609E+03 -0.19931650288E+02  0.49501159964E+03  0.50400001928E-02 0. -1.
</event>
<event>
 5   0  0.6199539E-03  0.1005574E+04  0.7818609E-02  0.9302452E-01
       -2   -1    0    0    0  501  0.00000000000E+00  0.00000000000E+00  0.19161865354E+03  0.19161865356E+03  0.25500000920E-02 0. -1.
        2   -1    0    0  501    0  0.00000000000E+00  0.00000000000E+00 -0.13192596083E+04  0.13192596083E+04  0.25500000920E-02 0.  1.
    10030    2    1    2    0    0  0.00000000000E+00  0.00000000000E+00 -0.11276409547E+04  0.15108782618E+04  0.10055739651E+04 0.  0.
        2    1    3    3  502    0 -0.21635521785E+02 -0.29178225720E+03 -0.11781767546E+04  0.12139627039E+04  0.25500000920E-02 0.  1.
       -2    1    3    3    0  502  0.21635521785E+02  0.29178225720E+03  0.50535799924E+02  0.29691555787E+03  0.25500000920E-02 0. -1.
</event>
<event>
 5   0  0.3466598E-03  0.9793603E+03  0.7818609E-02  0.9331476E-01
       -1   -1    0    0    0  501  0.00000000000E+00  0.00000000000E+00  0.59839160248E+03  0.59839160251E+03  0.50400001928E-02 0.  1.
        1   -1    0    0  501    0  0.00000000000E+00  0.00000000000E+00 -0.40071863554E+03  0.40071863557E+03  0.50400001928E-02 0. -1.
    10030    2    1    2    0    0  0.00000000000E+00  0.00000000000E+00  0.19767296694E+03  0.99911023808E+03  0.97936033510E+03 0.  0.
        3    1    3    3  502    0 -0.27451472183E+03 -0.39292584805E+03 -0.33717491301E+01  0.47933332187E+03  0.10100000352E+00 0. -1.
       -3    1    3    3    0  502  0.27451472183E+03  0.39292584805E+03  0.20104471607E+03  0.51977691621E+03  0.10100000352E+00 0.  1.
</event>
<event>
 5   0  0.6606947E-03  0.9906849E+03  0.7818609E-02  0.9318821E-01
        2   -1    0    0  501    0  0.00000000000E+00  0.00000000000E+00  0.38647548452E+03  0.38647548453E+03  0.25500000920E-02 0. -1.
       -2   -1    0    0    0  501  0.00000000000E+00  0.00000000000E+00 -0.63487631583E+03  0.63487631584E+03  0.25500000920E-02 0.  1.
    10030    2    1    2    0    0  0.00000000000E+00  0.00000000000E+00 -0.24840083131E+03  0.10213518004E+04  0.99068487781E+03 0.  0.
        1    1    3    3  502    0  0.11110678225E+02 -0.29075925995E+03  0.28908245784E+03  0.41016223848E+03  0.50400001928E-02 0. -1.
       -1    1    3    3    0  502 -0.11110678225E+02  0.29075925995E+03 -0.53748328915E+03  0.61118956189E+03  0.50400001928E-02 0.  1.
</event>
<event>
 5   0  0.3466598E-03  0.1004987E+04  0.7818609E-02  0.9303092E-01
        1   -1    0    0  501    0  0.00000000000E+00  0.00000000000E+00  0.15412173362E+04  0.15412173362E+04  0.50400001928E-02 0. -1.
       -1   -1    0    0    0  501  0.00000000000E+00  0.00000000000E+00 -0.16383146352E+03  0.16383146360E+03  0.50400001928E-02 0.  1.
    10030    2    1    2    0    0  0.00000000000E+00  0.00000000000E+00  0.13773858727E+04  0.17050487998E+04  0.10049873469E+04 0.  0.
        3    1    3    3  502    0  0.27483460920E+03  0.39506158201E+03  0.44346612564E+03  0.65442335745E+03  0.10100000352E+00 0.  1.
       -3    1    3    3    0  502 -0.27483460920E+03 -0.39506158201E+03  0.93391974703E+03  0.10506254423E+04  0.10100000352E+00 0. -1.
</event>
<event>
 5   0  0.6022787E-03  0.9533788E+03  0.7818609E-02  0.9361210E-01
       -2   -1    0    0    0  501  0.00000000000E+00  0.00000000000E+00  0.14279421973E+03  0.14279421975E+03  0.25500000920E-02 0. -1.
        2   -1    0    0  501    0  0.00000000000E+00  0.00000000000E+00 -0.15913305259E+04  0.15913305259E+04  0.25500000920E-02 0.  1.
    10030    2    1    2    0    0  0.00000000000E+00  0.00000000000E+00 -0.14485363062E+04  0.17341247457E+04  0.95337883508E+03 0.  0.
        5    1    3    3  502    0 -0.16879924138E+03  0.19557707775E+03 -0.14528995424E+04  0.14756973766E+04  0.46999998093E+01 0.  1.
       -5    1    3    3    0  502  0.16879924138E+03 -0.19557707775E+03  0.43632361735E+01  0.25842736902E+03  0.46999998093E+01 0. -1.
</event>
<event>
 5   0  0.6606947E-03  0.1005033E+04  0.7818609E-02  0.9303042E-01
        2   -1    0    0  501    0  0.00000000000E+00  0.00000000000E+00  0.67466690053E+03  0.67466690054E+03  0.25500000920E-02 0. -1.
       -2   -1    0    0    0  501  0.00000000000E+00  0.00000000000E+00 -0.37429277255E+03  0.37429277256E+03  0.25500000920E-02 0.  1.
    10030    2    1    2    0    0  0.00000000000E+00  0.00000000000E+00  0.30037412799E+03  0.10489596731E+04  0.10050332228E+04 0.  0.
        1    1    3    3  502    0  0.11060412104E+03  0.39019932681E+02  0.66018172857E+03  0.67051900905E+03  0.50400001928E-02 0. -1.
       -1    1    3    3    0  502 -0.11060412104E+03 -0.39019932681E+02 -0.35980760058E+03  0.37844066404E+03  0.50400001928E-02 0.  1.
</event>
<event>
 5   0  0.3643002E-03  0.1001596E+04  0.7818609E-02  0.9306796E-01
       -1   -1    0    0    0  501  0.00000000000E+00  0.00000000000E+00  0.19342058635E+03  0.19342058641E+03  0.50400001928E-02 0.  1.
        1   -1    0    0  501    0  0.00000000000E+00  0.00000000000E+00 -0.12966499997E+04  0.12966499997E+04  0.50400001928E-02 0. -1.
    10030    2    1    2    0    0  0.00000000000E+00  0.00000000000E+00 -0.11032294133E+04  0.14900705861E+04  0.10015963324E+04 0.  0.
        2    1    3    3  502    0  0.12814920350E+03 -0.10276484250E+03  0.15220213369E+03  0.22393820737E+03  0.25500000920E-02 0.  1.
       -2    1    3    3    0  502 -0.12814920350E+03  0.10276484250E+03 -0.12554315470E+04  0.12661323787E+04  0.25500000920E-02 0. -1.
</event>
<event>
 5   0  0.6199539E-03  0.9878457E+03  0.7818609E-02  0.9321977E-01
        2   -1    0    0  501    0  0.00000000000E+00  0.00000000000E+00  0.65396151870E+03  0.65396151871E+03  0.25500000920E-02 0. -1.
       -2   -1    0    0    0  501  0.00000000000E+00  0.00000000000E+00 -0.37304911057E+03  0.37304911057E+03  0.25500000920E-02 0.  1.
    10030    2    1    2    0    0  0.00000000000E+00  0.00000000000E+00  0.28091240814E+03  0.10270106293E+04  0.98784566184E+03 0.  0.
        2    1    3    3  502    0  0.15556233911E+03 -0.41062548120E+03  0.37557926496E+03  0.57781719551E+03  0.25500000920E-02 0. -1.
       -2    1    3    3    0  502 -0.15556233911E+03  0.41062548120E+03 -0.94666856822E+02  0.44919343377E+03  0.25500000920E-02 0.  1.
</event>
<event>
 5   0  0.6606947E-03  0.9968535E+03  0.7818609E-02  0.9312003E-01
       -2   -1    0    0    0  501  0.00000000000E+00  0.00000000000E+00  0.65926876370E+03  0.65926876371E+03  0.25500000920E-02 0. -1.
        2   -1    0    0  501    0  0.00000000000E+00  0.00000000000E+00 -0.37682543008E+03  0.37682543009E+03  0.25500000920E-02 0.  1.
    10030    2    1    2    0    0  0.00000000000E+00  0.00000000000E+00  0.28244333362E+03  0.10360941938E+04  0.99685352069E+03 0.  0.
        1    1    3    3  502    0  0.65778214380E+02 -0.43230160899E+03  0.38984014148E+03  0.58582146646E+03  0.50400001928E-02 0. -1.
       -1    1    3    3    0  502 -0.65778214380E+02  0.43230160899E+03 -0.10739680787E+03  0.45027272734E+03  0.50400001928E-02 0.  1.
</event>
<event>
 5   0  0.3643002E-03  0.9993480E+03  0.7818609E-02  0.9309260E-01
        1   -1    0    0  501    0  0.00000000000E+00  0.00000000000E+00  0.10691921935E+04  0.10691921935E+04  0.50400001928E-02 0. -1.
       -1   -1    0    0    0  501  0.00000000000E+00  0.00000000000E+00 -0.23351656920E+03  0.23351656925E+03  0.50400001928E-02 0.  1.
    10030    2    1    2    0    0  0.00000000000E+00  0.00000000000E+00  0.83567562427E+03  0.13027087627E+04  0.99934797318E+03 0.  0.
        2    1    3    3  502    0 -0.32806821056E+03  0.36098937874E+03  0.27664362404E+03  0.56077961542E+03  0.25500000920E-02 0.  1.
       -2    1    3    3    0  502  0.32806821056E+03 -0.36098937874E+03  0.55903200023E+03  0.74192914731E+03  0.25500000920E-02 0. -1.
</event>
<event>
 5   0  0.3569359E-03  0.9995719E+03  0.7818609E-02  0.9309014E-01
       -1   -1    0    0    0  501  0.00000000000E+00  0.00000000000E+00  0.32110550769E+03  0.32110550773E+03  0.50400001928E-02 0. -1.
        1   -1    0    0  501    0  0.00000000000E+00  0.00000000000E+00 -0.77789381642E+03  0.77789381644E+03  0.50400001928E-02 0.  1.
    10030    2    1    2    0    0  0.00000000000E+00  0.00000000000E+00 -0.45678830873E+03  0.10989993242E+04  0.99957188613E+03 0.  0.
        4    1    3    3  502    0  0.58862314538E+02 -0.44314172290E+03 -0.47410791384E+03  0.65162818041E+03  0.12699999809E+01 0.  1.
       -4    1    3    3    0  502 -0.58862314538E+02  0.44314172290E+03  0.17319605113E+02  0.44737114376E+03  0.12699999809E+01 0. -1.
</event>
<event>
 5   0  0.6022787E-03  0.1008015E+04  0.7818609E-02  0.9299798E-01
       -2   -1    0    0    0  501  0.00000000000E+00  0.00000000000E+00  0.53762642584E+03  0.53762642585E+03  0.25500000920E-02 0. -1.
        2   -1    0    0  501    0  0.00000000000E+00  0.00000000000E+00 -0.47249073187E+03  0.47249073187E+03  0.25500000920E-02 0.  1.
    10030    2    1    2    0    0  0.00000000000E+00  0.00000000000E+00  0.65135693976E+02  0.10101171577E+04  0.10080148876E+04 0.  0.
        5    1    3    3  502    0  0.23338450314E+02  0.22386683256E+03  0.48444107122E+03  0.53419685834E+03  0.46999998093E+01 0. -1.
       -5    1    3    3    0  502 -0.23338450314E+02 -0.22386683256E+03 -0.41930537724E+03  0.47592029938E+03  0.46999998093E+01 0.  1.
</event>
<event>
 5   0  0.3466598E-03  0.1006773E+04  0.7818609E-02  0.9301147E-01
        1   -1    0    0  501    0  0.00000000000E+00  0.00000000000E+00  0.32240643644E+03  0.32240643648E+03  0.50400001928E-02 0. -1.
       -1   -1    0    0    0  501  0.00000000000E+00  0.00000000000E+00 -0.78595796216E+03  0.78595796217E+03  0.50400001928E-02 0.  1.
    10030    2    1    2    0    0  0.00000000000E+00  0.00000000000E+00 -0.46355152572E+03  0.11083643987E+04  0.10067728757E+04 0.  0.
        3    1    3    3  502    0 -0.23751711649E+03 -0.22698267270E+03  0.18810541577E+03  0.37857518668E+03  0.10100000352E+00 0. -1.
       -3    1    3    3    0  502  0.23751711649E+03  0.22698267270E+03 -0.65165694148E+03  0.72978921197E+03  0.10100000352E+00 0.  1.
</event>
<event>
 5   0  0.3466598E-03  0.1000240E+04  0.7818609E-02  0.9308282E-01
       -1   -1    0    0    0  501  0.00000000000E+00  0.00000000000E+00  0.54954919913E+03  0.54954919915E+03  0.50400001928E-02 0.  1.
        1   -1    0    0  501    0  0.00000000000E+00  0.00000000000E+00 -0.45513627497E+03  0.45513627500E+03  0.50400001928E-02 0. -1.
    10030    2    1    2    0    0  0.00000000000E+00  0.00000000000E+00  0.94412924152E+02  0.10046854742E+04  0.10002395222E+04 0.  0.
        3    1    3    3  502    0 -0.19857897086E+03 -0.24127651232E+03  0.43941846408E+03  0.53919992567E+03  0.10100000352E+00 0.  1.
       -3    1    3    3    0  502  0.19857897086E+03  0.24127651232E+03 -0.34500553993E+03  0.46548554848E+03  0.10100000352E+00 0. -1.
</event>
<event>
 5   0  0.6376961E-03  0.9918047E+03  0.7818609E-02  0.9317579E-01
       -2   -1    0    0    0  501  0.00000000000E+00  0.00000000000E+00  0.27521214908E+03  0.27521214910E+03  0.25500000920E-02 0. -1.
        2   -1    0    0  501    0  0.00000000000E+00  0.00000000000E+00 -0.89356203696E+03  0.89356203696E+03  0.25500000920E-02 0.  1.
    10030    2    1    2    0    0  0.00000000000E+00  0.00000000000E+00 -0.61834988788E+03  0.11687741861E+04  0.99180467541E+03 0.  0.
        3    1    3    3  502    0  0.19270181513E+03  0.14287856698E+03 -0.82063450491E+03  0.85497910811E+03  0.10100000352E+00 0.  1.
       -3    1    3    3    0  502 -0.19270181513E+03 -0.14287856698E+03  0.20228461703E+03  0.31379507795E+03  0.10100000352E+00 0. -1.
</event>
<event>
 5   0  0.6022787E-03  0.9898997E+03  0.7818609E-02  0.9319693E-01
        2   -1    0    0  501    0  0.00000000000E+00  0.00000000000E+00  0.12648616145E+04  0.12648616145E+04  0.25500000920E-02 0.  1.
       -2   -1    0    0    0  501  0.00000000000E+00  0.00000000000E+00 -0.19367758966E+03  0.19367758968E+03  0.25500000920E-02 0. -1.
    10030    2    1    2    0    0  0.00000000000E+00  0.00000000000E+00  0.10711840248E+04  0.14585392042E+04  0.98989968939E+03 0.  0.
        5    1    3    3  502    0  0.19365662267E+03 -0.11980626059E+03 -0.11187029774E+03  0.25375870644E+03  0.46999998093E+01 0. -1.
       -5    1    3    3    0  502 -0.19365662267E+03  0.11980626059E+03  0.11830543226E+04  0.12047804977E+04  0.46999998093E+01 0.  1.
</event>
<event>
 5   0  0.3640180E-03  0.1026319E+04  0.7818609E-02  0.9280141E-01
        1   -1    0    0  501    0  0.00000000000E+00  0.00000000000E+00  0.44044714749E+03  0.44044714752E+03  0.50400001928E-02 0. -1.
       -1   -1    0    0    0  501  0.00000000000E+00  0.00000000000E+00 -0.59787552879E+03  0.59787552881E+03  0.50400001928E-02 0.  1.
    10030    2    1    2    0    0  0.00000000000E+00  0.00000000000E+00 -0.15742838130E+03  0.10383226763E+04  0.10263188028E+04 0.  0.
        5    1    3    3  502    0  0.24367322244E+02  0.36827512167E+03 -0.43938085129E+03  0.57384488681E+03  0.46999998093E+01 0.  1.
       -5    1    3    3    0  502 -0.24367322244E+02 -0.36827512167E+03  0.28195246999E+03  0.46447778953E+03  0.46999998093E+01 0. -1.
</event>
<event>
 5   0  0.3643002E-03  0.9797806E+03  0.7818609E-02  0.9331003E-01
       -1   -1    0    0    0  501  0.00000000000E+00  0.00000000000E+00  0.49622728288E+03  0.49622728290E+03  0.50400001928E-02 0. -1.
        1   -1    0    0  501    0  0.00000000000E+00  0.00000000000E+00 -0.48363427652E+03  0.48363427655E+03  0.50400001928E-02 0.  1.
    10030    2    1    2    0    0  0.00000000000E+00  0.00000000000E+00  0.12593006353E+02  0.97986155945E+03  0.97978063457E+03 0.  0.
        2    1    3    3  502    0 -0.18348646091E+03 -0.37747617293E+02  0.45899309899E+03  0.49574875580E+03  0.25500000920E-02 0. -1.
       -2    1    3    3    0  502  0.18348646091E+03  0.37747617293E+02 -0.44640009264E+03  0.48411280365E+03  0.25500000920E-02 0.  1.
</event>
<event>
 5   0  0.6360455E-03  0.9659677E+03  0.7818609E-02  0.9346679E-01
       -2   -1    0    0    0  501  0.00000000000E+00  0.00000000000E+00  0.10218304703E+04  0.10218304703E+04  0.25500000920E-02 0.  1.
        2   -1    0    0  501    0  0.00000000000E+00  0.00000000000E+00 -0.22828970476E+03  0.22828970477E+03  0.25500000920E-02 0. -1.
    10030    2    1    2    0    0  0.00000000000E+00  0.00000000000E+00  0.79354076556E+03  0.12501201751E+04  0.96596765244E+03 0.  0.
        4    1    3    3  502    0 -0.40273128731E+03 -0.24648455277E+03  0.52827064463E+03  0.70853271725E+03  0.12699999809E+01 0. -1.
       -4    1    3    3    0  502  0.40273128731E+03  0.24648455277E+03  0.26527012093E+03  0.54158745784E+03  0.12699999809E+01 0.  1.
</event>
<event>
 5   0  0.6022787E-03  0.9954174E+03  0.7818609E-02  0.9313585E-01
       -2   -1    0    0    0  501  0.00000000000E+00  0.00000000000E+00  0.23018921816E+03  0.23018921818E+03  0.25500000920E-02 0. -1.
        2   -1    0    0  501    0  0.00000000000E+00  0.00000000000E+00 -0.10761319095E+04  0.10761319095E+04  0.25500000920E-02 0.  1.
    10030    2    1    2    0    0  0.00000000000E+00  0.00000000000E+00 -0.84594269133E+03  0.13063211277E+04  0.99541742580E+03 0.  0.
        5    1    3    3  502    0  0.56461410717E+02 -0.48492952822E+03 -0.54985001280E+03  0.73532419028E+03  0.46999998093E+01 0. -1.
       -5    1    3    3    0  502 -0.56461410717E+02  0.48492952822E+03 -0.29609267853E+03  0.57099693739E+03  0.46999998093E+01 0.  1.
</event>
<event>
 5   0  0.3608845E-03  0.1004300E+04  0.7818609E-02  0.9303841E-01
       -1   -1    0    0    0  501  0.00000000000E+00  0.00000000000E+00  0.28745505308E+03  0.28745505313E+03  0.50400001928E-02 0.  1.
        1   -1    0    0  501    0  0.00000000000E+00  0.00000000000E+00 -0.87719677755E+03  0.87719677757E+03  0.50400001928E-02 0. -1.
    10030    2    1    2    0    0  0.00000000000E+00  0.00000000000E+00 -0.58974172447E+03  0.11646518307E+04  0.10043000474E+04 0.  0.
        1    1    3    3  502    0  0.52599777744E+02  0.40023367977E+03  0.51480799737E+02  0.40694472329E+03  0.50400001928E-02 0.  1.
       -1    1    3    3    0  502 -0.52599777744E+02 -0.40023367977E+03 -0.64122252420E+03  0.75770710741E+03  0.50400001928E-02 0. -1.
</event>
<event>
 5   0  0.6199539E-03  0.9988631E+03  0.7818609E-02  0.9309793E-01
        2   -1    0    0  501    0  0.00000000000E+00  0.00000000000E+00  0.26005402604E+04  0.26005402604E+04  0.25500000920E-02 0.  1.
       -2   -1    0    0    0  501  0.00000000000E+00  0.00000000000E+00 -0.95915405945E+02  0.95915405978E+02  0.25500000920E-02 0. -1.
    10030    2    1    2    0    0  0.00000000000E+00  0.00000000000E+00  0.25046248544E+04  0.26964556664E+04  0.99886310333E+03 0.  0.
        2    1    3    3  502    0  0.86792691471E+02 -0.42592316027E+03  0.58838098531E+03  0.73152969429E+03  0.25500000920E-02 0. -1.
       -2    1    3    3    0  502 -0.86792691471E+02  0.42592316027E+03  0.19162438691E+04  0.19649259721E+04  0.25500000920E-02 0.  1.
</event>
<event>
 5   0  0.3643002E-03  0.1037494E+04  0.7818609E-02  0.9268351E-01
       -1   -1    0    0    0  501  0.00000000000E+00  0.00000000000E+00  0.96925637708E+03  0.96925637709E+03  0.50400001928E-02 0. -1.
        1   -1    0    0  501    0  0.00000000000E+00  0.00000000000E+00 -0.27763409064E+03  0.27763409068E+03  0.50400001928E-02 0.  1.
    10030    2    1    2    0    0  0.00000000000E+00  0.00000000000E+00  0.69162228644E+03  0.12468904678E+04  0.10374943140E+04 0.  0.
        2    1    3    3  502    0  0.49776966248E+03 -0.10366141756E+03  0.22220210074E+03  0.55488205950E+03  0.25500000920E-02 0.  1.
       -2    1    3    3    0  502 -0.49776966248E+03  0.10366141756E+03  0.46942018569E+03  0.69200840827E+03  0.25500000920E-02 0. -1.
</event>
<event>
 5   0  0.6606947E-03  0.1020269E+04  0.7818609E-02  0.9286590E-01
        2   -1    0    0  501    0  0.00000000000E+00  0.00000000000E+00  0.10391769637E+04  0.10391769637E+04  0.25500000920E-02 0.  1.
       -2   -1    0    0    0  501  0.00000000000E+00  0.00000000000E+00 -0.25042607862E+03  0.25042607864E+03  0.25500000920E-02 0. -1.
    10030    2    1    2    0    0  0.00000000000E+00  0.00000000000E+00  0.78875088512E+03  0.12896030424E+04  0.10202686157E+04 0.  0.
        1    1    3    3  502    0 -0.14363565561E+03 -0.16310058099E+03 -0.18898289877E+03  0.28800614079E+03  0.50400001928E-02 0. -1.
       -1    1    3    3    0  502  0.14363565561E+03  0.16310058099E+03  0.97773378389E+03  0.10015969016E+04  0.50400001928E-02 0.  1.
</event>
<event>
 5   0  0.3466598E-03  0.9972351E+03  0.7818609E-02  0.9311582E-01
        1   -1    0    0  501    0  0.00000000000E+00  0.00000000000E+00  0.68777017890E+03  0.68777017892E+03  0.50400001928E-02 0.  1.
       -1   -1    0    0    0  501  0.00000000000E+00  0.00000000000E+00 -0.36148627064E+03  0.36148627068E+03  0.50400001928E-02 0. -1.
    10030    2    1    2    0    0  0.00000000000E+00  0.00000000000E+00  0.32628390826E+03  0.10492564496E+04  0.99723513187E+03 0.  0.
        3    1    3    3  502    0 -0.25599335877E+03 -0.31216044280E+02  0.61214973504E+03  0.66425473236E+03  0.10100000352E+00 0.  1.
       -3    1    3    3    0  502  0.25599335877E+03  0.31216044280E+02 -0.28586582678E+03  0.38500171724E+03  0.10100000352E+00 0. -1.
</event>
<event>
 5   0  0.3466598E-03  0.1008486E+04  0.7818609E-02  0.9299286E-01
        1   -1    0    0  501    0  0.00000000000E+00  0.00000000000E+00  0.14002892234E+04  0.14002892234E+04  0.50400001928E-02 0.  1.
       -1   -1    0    0    0  501  0.00000000000E+00  0.00000000000E+00 -0.18157759521E+03  0.18157759528E+03  0.50400001928E-02 0. -1.
    10030    2    1    2    0    0  0.00000000000E+00  0.00000000000E+00  0.12187116282E+04  0.15818668187E+04  0.10084862911E+04 0.  0.
        3    1    3    3  502    0  0.42788038635E+03 -0.24421375348E+03  0.77785079282E+03  0.92074635406E+03  0.10100000352E+00 0.  1.
       -3    1    3    3    0  502 -0.42788038635E+03  0.24421375348E+03  0.44086083540E+03  0.66112046467E+03  0.10100000352E+00 0. -1.
</event>
<event>
 5   0  0.6360455E-03  0.9984203E+03  0.7818609E-02  0.9310279E-01
        2   -1    0    0  501    0  0.00000000000E+00  0.00000000000E+00  0.14741993103E+04  0.14741993103E+04  0.25500000920E-02 0.  1.
       -2   -1    0    0    0  501  0.00000000000E+00  0.00000000000E+00 -0.16904823324E+03  0.16904823326E+03  0.25500000920E-02 0. -1.
    10030    2    1    2    0    0  0.00000000000E+00  0.00000000000E+00  0.13051510770E+04  0.16432475435E+04  0.99842033004E+03 0.  0.
        4    1    3    3  502    0  0.14746302318E+03 -0.17557850738E+03  0.13824045354E+04  0.14012912145E+04  0.12699999809E+01 0.  1.
       -4    1    3    3    0  502 -0.14746302318E+03  0.17557850738E+03 -0.77253458313E+02  0.24195632908E+03  0.12699999809E+01 0. -1.
</event>
<event>
 5   0  0.6606947E-03  0.9956026E+03  0.7818609E-02  0.9313381E-01
       -2   -1    0    0    0  501  0.00000000000E+00  0.00000000000E+00  0.13537019271E+03  0.13537019274E+03  0.25500000920E-02 0.  1.
        2   -1    0    0  501    0  0.00000000000E+00  0.00000000000E+00 -0.18305811187E+04  0.18305811187E+04  0.25500000920E-02 0. -1.
    10030    2    1    2    0    0  0.00000000000E+00  0.00000000000E+00 -0.16952109260E+04  0.19659513114E+04  0.99560256898E+03 0.  0.
        1    1    3    3  502    0 -0.39260348835E+03  0.67060937729E+01 -0.24340712111E+03  0.46198430427E+03  0.50400001928E-02 0.  1.
       -1    1    3    3    0  502  0.39260348835E+03 -0.67060937729E+01 -0.14518038049E+04  0.15039670072E+04  0.50400001928E-02 0. -1.
</event>
<event>
 5   0  0.2417750E-03  0.1003814E+04  0.7818609E-02  0.9304372E-01
       -4   -1    0    0    0  501  0.00000000000E+00  0.00000000000E+00  0.80469890260E+03  0.80469990478E+03  0.12699999809E+01 0. -1.
        4   -1    0    0  501    0  0.00000000000E+00  0.00000000000E+00 -0.31304681997E+03  0.31304939609E+03  0.12699999809E+01 0.  1.
    10030    2    1    2    0    0  0.00000000000E+00  0.00000000000E+00  0.49165208263E+03  0.11177493009E+04  0.10038135929E+04 0.  0.
        1    1    3    3  502    0 -0.20004956570E+03  0.36560695388E+03 -0.65600938105E+02  0.42189069267E+03  0.50400001928E-02 0.  1.
       -1    1    3    3    0  502  0.20004956570E+03 -0.36560695388E+03  0.55725302074E+03  0.69585860820E+03  0.50400001928E-02 0. -1.
</event>
<event>
 5   0  0.3569359E-03  0.1020637E+04  0.7818609E-02  0.9286196E-01
        1   -1    0    0  501    0  0.00000000000E+00  0.00000000000E+00  0.41229763941E+03  0.41229763944E+03  0.50400001928E-02 0.  1.
       -1   -1    0    0    0  501  0.00000000000E+00  0.00000000000E+00 -0.63164288159E+03  0.63164288161E+03  0.50400001928E-02 0. -1.
    10030    2    1    2    0    0  0.00000000000E+00  0.00000000000E+00 -0.21934524218E+03  0.10439405211E+04  0.10206367994E+04 0.  0.
        4    1    3    3  502    0  0.22342579325E+02  0.76549466955E+02  0.40588392669E+03  0.41364524243E+03  0.12699999809E+01 0.  1.
       -4    1    3    3    0  502 -0.22342579325E+02 -0.76549466955E+02 -0.62522916887E+03  0.63029527862E+03  0.12699999809E+01 0. -1.
</event>
<event>
 5   0  0.3640180E-03  0.1000307E+04  0.7818609E-02  0.9308208E-01
       -1   -1    0    0    0  501  0.00000000000E+00  0.00000000000E+00  0.74151647651E+03  0.74151647652E+03  0.50400001928E-02 0.  1.
        1   -1    0    0  501    0  0.00000000000E+00  0.00000000000E+00 -0.33735375369E+03  0.33735375373E+03  0.50400001928E-02 0. -1.
    10030    2    1    2    0    0  0.00000000000E+00  0.00000000000E+00  0.40416272282E+03  0.10788702303E+04  0.10003066866E+04 0.  0.
        5    1    3    3  502    0 -0.41404632146E+03 -0.28009707086E+03  0.21887860101E+03  0.54572764031E+03  0.46999998093E+01 0. -1.
       -5    1    3    3    0  502  0.41404632146E+03  0.28009707086E+03  0.18528412181E+03  0.53314258994E+03  0.46999998093E+01 0.  1.
</event>
<event>
 5   0  0.6199539E-03  0.1005788E+04  0.7818609E-02  0.9302219E-01
       -2   -1    0    0    0  501  0.00000000000E+00  0.00000000000E+00  0.19431971970E+03  0.19431971971E+03  0.25500000920E-02 0.  1.
        2   -1    0    0  501    0  0.00000000000E+00  0.00000000000E+00 -0.13014760504E+04  0.13014760504E+04  0.25500000920E-02 0. -1.
    10030    2    1    2    0    0  0.00000000000E+00  0.00000000000E+00 -0.11071563307E+04  0.14957957702E+04  0.10057881712E+04 0.  0.
        2    1    3    3  502    0 -0.85781599798E+02  0.25667459935E+03 -0.11839460041E+04  0.12144828008E+04  0.25500000920E-02 0. -1.
       -2    1    3    3    0  502  0.85781599798E+02 -0.25667459935E+03  0.76789673316E+02  0.28131296940E+03  0.25500000920E-02 0.  1.
</event>
<event>
 5   0  0.3569359E-03  0.1001080E+04  0.7818609E-02  0.9307361E-01
       -1   -1    0    0    0  501  0.00000000000E+00  0.00000000000E+00  0.26515573523E+03  0.26515573528E+03  0.50400001928E-02 0. -1.
        1   -1    0    0  501    0  0.00000000000E+00  0.00000000000E+00 -0.94488018650E+03  0.94488018652E+03  0.50400001928E-02 0.  1.
    10030    2    1    2    0    0  0.00000000000E+00  0.00000000000E+00 -0.67972445127E+03  0.12100359218E+04  0.10010802178E+04 0.  0.
        4    1    3    3  502    0  0.19503502845E+03 -0.26222804035E+03 -0.79812337262E+03  0.86244115063E+03  0.12699999809E+01 0.  1.
       -4    1    3    3    0  502 -0.19503502845E+03  0.26222804035E+03  0.11839892135E+03  0.34759477117E+03  0.12699999809E+01 0. -1.
</event>
<event>
 5   0  0.6022787E-03  0.9925695E+03  0.7818609E-02  0.9316732E-01
       -2   -1    0    0    0  501  0.00000000000E+00  0.00000000000E+00  0.21668098739E+03  0.21668098740E+03  0.25500000920E-02 0. -1.
        2   -1    0    0  501    0  0.00000000000E+00  0.00000000000E+00 -0.11366873413E+04  0.11366873413E+04  0.25500000920E-02 0.  1.
    10030    2    1    2    0    0  0.00000000000E+00  0.00000000000E+00 -0.92000635393E+03  0.13533683287E+04  0.99256946453E+03 0.  0.
        5    1    3    3  502    0  0.25906291478E+03 -0.10771035118E+03 -0.10181417022E+04  0.10561011927E+04  0.46999998093E+01 0.  1.
       -5    1    3    3    0  502 -0.25906291478E+03  0.10771035118E+03  0.98135348254E+02  0.29726713599E+03  0.46999998093E+01 0. -1.
</event>
<event>
 5   0  0.3640180E-03  0.1015430E+04  0.7818609E-02  0.9291782E-01
       -1   -1    0    0    0  501  0.00000000000E+00  0.00000000000E+00  0.14683686251E+04  0.14683686251E+04  0.50400001928E-02 0.  1.
        1   -1    0    0  501    0  0.00000000000E+00  0.00000000000E+00 -0.17555161361E+03  0.17555161368E+03  0.50400001928E-02 0. -1.
    10030    2    1    2    0    0  0.00000000000E+00  0.00000000000E+00  0.12928170115E+04  0.16439202388E+04  0.10154299219E+04 0.  0.
        5    1    3    3  502    0 -0.85828446186E+02  0.20289957975E+03 -0.94099783740E+02  0.23960722221E+03  0.46999998093E+01 0. -1.
       -5    1    3    3    0  502  0.85828446186E+02 -0.20289957975E+03  0.13869167952E+04  0.14043130166E+04  0.46999998093E+01 0.  1.
</event>
<event>
 5   0  0.3608845E-03  0.9920647E+03  0.7818609E-02  0.9317291E-01
       -1   -1    0    0    0  501  0.00000000000E+00  0.00000000000E+00  0.18659073906E+03  0.18659073913E+03  0.50400001928E-02 0. -1.
        1   -1    0    0  501    0  0.00000000000E+00  0.00000000000E+00 -0.13186511986E+04  0.13186511986E+04  0.50400001928E-02 0.  1.
    10030    2    1    2    0    0  0.00000000000E+00  0.00000000000E+00 -0.11320604595E+04  0.15052419377E+04  0.99206471918E+03 0.  0.
        1    1    3    3  502    0  0.89028488318E+02  0.44788577189E+03 -0.85993039745E+03  0.97365703658E+03  0.50400001928E-02 0.  1.
       -1    1    3    3    0  502 -0.89028488318E+02 -0.44788577189E+03 -0.27213006204E+03  0.53158490111E+03  0.50400001928E-02 0. -1.
</event>
<event>
 5   0  0.6199539E-03  0.1008841E+04  0.7818609E-02  0.9298901E-01
        2   -1    0    0  501    0  0.00000000000E+00  0.00000000000E+00  0.18289335520E+04  0.18289335520E+04  0.25500000920E-02 0.  1.
       -2   -1    0    0    0  501  0.00000000000E+00  0.00000000000E+00 -0.13911941118E+03  0.13911941120E+03  0.25500000920E-02 0. -1.
    10030    2    1    2    0    0  0.00000000000E+00  0.00000000000E+00  0.16898141408E+04  0.19680529632E+04  0.10088412340E+04 0.  0.
        2    1    3    3  502    0 -0.36141216589E+02  0.25881381080E+03  0.32314317567E+01  0.26134501785E+03  0.25500000920E-02 0. -1.
       -2    1    3    3    0  502  0.36141216589E+02 -0.25881381080E+03  0.16865827091E+04  0.17067079453E+04  0.25500000920E-02 0.  1.
</event>
<event>
 5   0  0.3640180E-03  0.1037635E+04  0.7818609E-02  0.9268204E-01
       -1   -1    0    0    0  501  0.00000000000E+00  0.00000000000E+00  0.35496603879E+03  0.35496603882E+03  0.50400001928E-02 0. -1.
        1   -1    0    0  501    0  0.00000000000E+00  0.00000000000E+00 -0.75830211665E+03  0.75830211666E+03  0.50400001928E-02 0.  1.
    10030    2    1    2    0    0  0.00000000000E+00  0.00000000000E+00 -0.40333607786E+03  0.11132681555E+04  0.10376348078E+04 0.  0.
        5    1    3    3  502    0 -0.41912407361E+03 -0.39939189315E+01 -0.52967859244E+03  0.67547201405E+03  0.46999998093E+01 0.  1.
       -5    1    3    3    0  502  0.41912407361E+03  0.39939189315E+01  0.12634251458E+03  0.43779614144E+03  0.46999998093E+01 0. -1.
</event>
<event>
 5   0  0.6606947E-03  0.1006320E+04  0.7818609E-02  0.9301640E-01
       -2   -1    0    0    0  501  0.00000000000E+00  0.00000000000E+00  0.16408456478E+03  0.16408456480E+03  0.25500000920E-02 0.  1.
        2   -1    0    0  501    0  0.00000000000E+00  0.00000000000E+00 -0.15429243925E+04  0.15429243925E+04  0.25500000920E-02 0. -1.
    10030    2    1    2    0    0  0.00000000000E+00  0.00000000000E+00 -0.13788398277E+04  0.17070089573E+04  0.10063201826E+04 0.  0.
        1    1    3    3  502    0  0.56824133677E+01 -0.37661939326E+03 -0.12553185590E+04  0.13106102173E+04  0.50400001928E-02 0. -1.
       -1    1    3    3    0  502 -0.56824133677E+01  0.37661939326E+03 -0.12352126874E+03  0.39639873998E+03  0.50400001928E-02 0.  1.
</event>
<event>
 5   0  0.3608845E-03  0.1010918E+04  0.7818609E-02  0.9296651E-01
        1   -1    0    0  501    0  0.00000000000E+00  0.00000000000E+00  0.47431972000E+03  0.47431972003E+03  0.50400001928E-02 0. -1.
       -1   -1    0    0    0  501  0.00000000000E+00  0.00000000000E+00 -0.53864239207E+03  0.53864239209E+03  0.50400001928E-02 0.  1.
    10030    2    1    2    0    0  0.00000000000E+00  0.00000000000E+00 -0.64322672064E+02  0.10129621121E+04  0.10109178179E+04 0.  0.
        1    1    3    3  502    0  0.34534275322E+03 -0.21815547049E+03 -0.33048016535E+03  0.52542417743E+03  0.50400001928E-02 0.  1.
       -1    1    3    3    0  502 -0.34534275322E+03  0.21815547049E+03  0.26615749329E+03  0.48753793470E+03  0.50400001928E-02 0. -1.
</event>
<event>
 5   0  0.3643002E-03  0.1000665E+04  0.7818609E-02  0.9307816E-01
       -1   -1    0    0    0  501  0.00000000000E+00  0.00000000000E+00  0.45684702038E+03  0.45684702041E+03  0.50400001928E-02 0.  1.
        1   -1    0    0  501    0  0.00000000000E+00  0.00000000000E+00 -0.54795681744E+03  0.54795681746E+03  0.50400001928E-02 0. -1.
    10030    2    1    2    0    0  0.00000000000E+00  0.00000000000E+00 -0.91109797052E+02  0.10048038379E+04  0.10006646579E+04 0.  0.
        2    1    3    3  502    0 -0.10214237351E+03  0.38186588227E+03 -0.35354471219E+03  0.53032865285E+03  0.25500000920E-02 0. -1.
       -2    1    3    3    0  502  0.10214237351E+03 -0.38186588227E+03  0.26243491514E+03  0.47447518502E+03  0.25500000920E-02 0.  1.
</event>
<event>
 5   0  0.6360455E-03  0.1006449E+04  0.7818609E-02  0.9301499E-01
       -2   -1    0    0    0  501  0.00000000000E+00  0.00000000000E+00  0.30578107520E+03  0.30578107521E+03  0.25500000920E-02 0. -1.
        2   -1    0    0  501    0  0.00000000000E+00  0.00000000000E+00 -0.82815812822E+03  0.82815812823E+03  0.25500000920E-02 0.  1.
    10030    2    1    2    0    0  0.00000000000E+00  0.00000000000E+00 -0.52237705302E+03  0.11339392034E+04  0.10064493686E+04 0.  0.
        4    1    3    3  502    0  0.80602965775E+02  0.86888854071E+02 -0.81220754287E+03  0.82081009780E+03  0.12699999809E+01 0.  1.
       -4    1    3    3    0  502 -0.80602965775E+02 -0.86888854071E+02  0.28983048985E+03  0.31312910564E+03  0.12699999809E+01 0. -1.
</event>
<event>
 5   0  0.6199539E-03  0.9799032E+03  0.7818609E-02  0.9330865E-01
       -2   -1    0    0    0  501  0.00000000000E+00  0.00000000000E+00  0.40533619702E+03  0.40533619703E+03  0.25500000920E-02 0.  1.
        2   -1    0    0  501    0  0.00000000000E+00  0.00000000000E+00 -0.59223072120E+03  0.59223072121E+03  0.25500000920E-02 0. -1.
    10030    2    1    2    0    0  0.00000000000E+00  0.00000000000E+00 -0.18689452419E+03  0.99756691823E+03  0.97990315500E+03 0.  0.
        2    1    3    3  502    0 -0.41115143376E+02 -0.36812084231E+03  0.23303471525E+03  0.43761694217E+03  0.25500000920E-02 0.  1.
       -2    1    3    3    0  502  0.41115143376E+02  0.36812084231E+03 -0.41992923943E+03  0.55994997606E+03  0.25500000920E-02 0. -1.
</event>
<event>
 5   0  0.6360455E-03  0.1000321E+04  0.7818609E-02  0.9308193E-01
        2   -1    0    0  501    0  0.00000000000E+00  0.00000000000E+00  0.12155673996E+04  0.12155673996E+04  0.25500000920E-02 0. -1.
       -2   -1    0    0    0  501  0.00000000000E+00  0.00000000000E+00 -0.20579713354E+03  0.20579713356E+03  0.25500000920E-02 0.  1.
    10030    2    1    2    0    0  0.00000000000E+00  0.00000000000E+00  0.10097702661E+04  0.14213645332E+04  0.10003205216E+04 0.  0.
        4    1    3    3  502    0 -0.35698131052E+03  0.10662701382E+03  0.97903825784E+03  0.10475316221E+04  0.12699999809E+01 0. -1.
       -4    1    3    3    0  502  0.35698131052E+03 -0.10662701382E+03  0.30732008215E+02  0.37383291103E+03  0.12699999809E+01 0.  1.
</event>
<event>
 5   0  0.3643002E-03  0.1005059E+04  0.7818609E-02  0.9303014E-01
        1   -1    0    0  501    0  0.00000000000E+00  0.00000000000E+00  0.44299892289E+03  0.44299892292E+03  0.50400001928E-02 0.  1.
       -1   -1    0    0    0  501  0.00000000000E+00  0.00000000000E+00 -0.57005967297E+03  0.57005967299E+03  0.50400001928E-02 0. -1.
    10030    2    1    2    0    0  0.00000000000E+00  0.00000000000E+00 -0.12706075008E+03  0.10130585959E+04  0.10050588463E+04 0.  0.
        2    1    3    3  502    0  0.75755922468E+02  0.10375728585E+03 -0.55322784773E+03  0.56794857661E+03  0.25500000920E-02 0. -1.
       -2    1    3    3    0  502 -0.75755922468E+02 -0.10375728585E+03  0.42616709765E+03  0.44511001930E+03  0.25500000920E-02 0.  1.
</event>
<event>
 5   0  0.6606947E-03  0.9868485E+03  0.7818609E-02  0.9323088E-01
        2   -1    0    0  501    0  0.00000000000E+00  0.00000000000E+00  0.10583288136E+04  0.10583288136E+04  0.25500000920E-02 0.  1.
       -2   -1    0    0    0  501  0.00000000000E+00  0.00000000000E+00 -0.23004899086E+03  0.23004899087E+03  0.25500000920E-02 0. -1.
    10030    2    1    2    0    0  0.00000000000E+00  0.00000000000E+00  0.82827982274E+03  0.12883778045E+04  0.98684846977E+03 0.  0.
        1    1    3    3  502    0 -0.13868540915E+03  0.46609252769E+03  0.30497559713E+03  0.57400871243E+03  0.50400001928E-02 0. -1.
       -1    1    3    3    0  502  0.13868540915E+03 -0.46609252769E+03  0.52330422562E+03  0.71436909204E+03  0.50400001928E-02 0.  1.
</event>
<event>
 5   0  0.3569359E-03  0.9761914E+03  0.7818609E-02  0.9335050E-01
       -1   -1    0    0    0  501  0.00000000000E+00  0.00000000000E+00  0.35172303783E+03  0.35172303786E+03  0.50400001928E-02 0. -1.
        1   -1    0    0  501    0  0.00000000000E+00  0.00000000000E+00 -0.67734384603E+03  0.67734384605E+03  0.50400001928E-02 0.  1.
    10030    2    1    2    0    0  0.00000000000E+00  0.00000000000E+00 -0.32562080820E+03  0.10290668839E+04  0.97619144681E+03 0.  0.
        4    1    3    3  502    0  0.27588235817E+03 -0.31187742375E+03 -0.43127546122E+03  0.59948205923E+03  0.12699999809E+01 0.  1.
       -4    1    3    3    0  502 -0.27588235817E+03  0.31187742375E+03  0.10565465301E+03  0.42958482468E+03  0.12699999809E+01 0. -1.
</event>
<event>
 5   0  0.3643002E-03  0.1002562E+04  0.7818609E-02  0.9305739E-01
       -1   -1    0    0    0  501  0.00000000000E+00  0.00000000000E+00  0.13561828914E+03  0.13561828923E+03  0.50400001928E-02 0.  1.
        1   -1    0    0  501    0  0.00000000000E+00  0.00000000000E+00 -0.18528683994E+04  0.18528683995E+04  0.50400001928E-02 0. -1.
    10030    2    1    2    0    0  0.00000000000E+00  0.00000000000E+00 -0.17172501103E+04  0.19884866887E+04  0.10025624019E+04 0.  0.
        2    1    3    3  502    0 -0.31617345534E+03 -0.18368467087E+03 -0.15387249417E+04  0.15815752143E+04  0.25500000920E-02 0.  1.
       -2    1    3    3    0  502  0.31617345534E+03  0.18368467087E+03 -0.17852516860E+03  0.40691147441E+03  0.25500000920E-02 0. -1.
</event>
<event>
 5   0  0.3608845E-03  0.9837885E+03  0.7818609E-02  0.9326506E-01
       -1   -1    0    0    0  501  0.00000000000E+00  0.00000000000E+00  0.24909676214E+03  0.24909676219E+03  0.50400001928E-02 0. -1.
        1   -1    0    0  501    0  0.00000000000E+00  0.00000000000E+00 -0.97134926167E+03  0.97134926169E+03  0.50400001928E-02 0.  1.
    10030    2    1    2    0    0  0.00000000000E+00  0.00000000000E+00 -0.72225249954E+03  0.12204460239E+04  0.98378850578E+03 0.  0.
        1    1    3    3  502    0  0.37673469907E+03 -0.25669739548E+01 -0.75347264345E+03  0.84241121033E+03  0.50400001928E-02 0.  1.
       -1    1    3    3    0  502 -0.37673469907E+03  0.25669739548E+01  0.31220143910E+02  0.37803481354E+03  0.50400001928E-02 0. -1.
</event>
<event>
 5   0  0.6606947E-03  0.1003952E+04  0.7818609E-02  0.9304221E-01
       -2   -1    0    0    0  501  0.00000000000E+00  0.00000000000E+00  0.53876433203E+03  0.53876433204E+03  0.25500000920E-02 0. -1.
        2   -1    0    0  501    0  0.00000000000E+00  0.00000000000E+00 -0.46769978116E+03  0.46769978117E+03  0.25500000920E-02 0.  1.
    10030    2    1    2    0    0  0.00000000000E+00  0.00000000000E+00  0.71064550871E+02  0.10064641132E+04  0.10039521108E+04 0.  0.
        1    1    3    3  502    0  0.14539588561E+03  0.35897068661E+03  0.35567445097E+03  0.52583669756E+03  0.50400001928E-02 0. -1.
       -1    1    3    3    0  502 -0.14539588561E+03 -0.35897068661E+03 -0.28460990010E+03  0.48062741564E+03  0.50400001928E-02 0.  1.
</event>
<event>
 5   0  0.3466598E-03  0.1003608E+04  0.7818609E-02  0.9304597E-01
        1   -1    0    0  501    0  0.00000000000E+00  0.00000000000E+00  0.45348971946E+03  0.45348971949E+03  0.50400001928E-02 0.  1.
       -1   -1    0    0    0  501  0.00000000000E+00  0.00000000000E+00 -0.55526527225E+03  0.55526527227E+03  0.50400001928E-02 0. -1.
    10030    2    1    2    0    0  0.00000000000E+00  0.00000000000E+00 -0.10177555279E+03  0.10087549918E+04  0.10036076775E+04 0.  0.
        3    1    3    3  502    0 -0.21699644464E+03  0.41152697928E+03  0.13813302546E+03  0.48530676339E+03  0.10100000352E+00 0.  1.
       -3    1    3    3    0  502  0.21699644464E+03 -0.41152697928E+03 -0.23990857824E+03  0.52344822837E+03  0.10100000352E+00 0. -1.
</event>
<event>
 5   0  0.3640180E-03  0.1012421E+04  0.7818609E-02  0.9295025E-01
       -1   -1    0    0    0  501  0.00000000000E+00  0.00000000000E+00  0.19582124871E+03  0.19582124878E+03  0.50400001928E-02 0. -1.
        1   -1    0    0  501    0  0.00000000000E+00  0.00000000000E+00 -0.13085870515E+04  0.13085870515E+04  0.50400001928E-02 0.  1.
    10030    2    1    2    0    0  0.00000000000E+00  0.00000000000E+00 -0.11127658028E+04  0.15044083003E+04  0.10124211585E+04 0.  0.
        5    1    3    3  502    0 -0.42484242518E+02 -0.15746314054E+03  0.15567689439E+03  0.22551482642E+03  0.46999998093E+01 0. -1.
       -5    1    3    3    0  502  0.42484242518E+02  0.15746314054E+03 -0.12684426972E+04  0.12788934739E+04  0.46999998093E+01 0.  1.
</event>
<event>
 5   0  0.3466598E-03  0.9567847E+03  0.7818609E-02  0.9357255E-01
        1   -1    0    0  501    0  0.00000000000E+00  0.00000000000E+00  0.47682875607E+03  0.47682875610E+03  0.50400001928E-02 0.  1.
       -1   -1    0    0    0  501  0.00000000000E+00  0.00000000000E+00 -0.47996109839E+03  0.47996109842E+03  0.50400001928E-02 0. -1.
    10030    2    1    2    0    0  0.00000000000E+00  0.00000000000E+00 -0.31323423178E+01  0.95678985452E+03  0.95678472717E+03 0.  0.
        3    1    3    3  502    0  0.30573924360E+03 -0.30941467140E+03  0.19754621997E+03  0.47774307235E+03  0.10100000352E+00 0. -1.
       -3    1    3    3    0  502 -0.30573924360E+03  0.30941467140E+03 -0.20067856228E+03  0.47904678217E+03  0.10100000352E+00 0.  1.
</event>
<event>
 5   0  0.6199539E-03  0.9876438E+03  0.7818609E-02  0.9322202E-01
       -2   -1    0    0    0  501  0.00000000000E+00  0.00000000000E+00  0.35372334233E+03  0.35372334234E+03  0.25500000920E-02 0. -1.
        2   -1    0    0  501    0  0.00000000000E+00  0.00000000000E+00 -0.68940903543E+03  0.68940903544E+03  0.25500000920E-02 0.  1.
    10030    2    1    2    0    0  0.00000000000E+00  0.00000000000E+00 -0.33568569310E+03  0.10431323778E+04  0.98764379865E+03 0.  0.
        2    1    3    3  502    0 -0.44505616847E+03 -0.14319423174E+03  0.88512894863E-01  0.46752496077E+03  0.25500000920E-02 0. -1.
       -2    1    3    3    0  502  0.44505616847E+03  0.14319423174E+03 -0.33577420600E+03  0.57560741701E+03  0.25500000920E-02 0.  1.
</event>
<event>
 5   0  0.6199539E-03  0.1068548E+04  0.7818609E-02  0.9236402E-01
       -2   -1    0    0    0  501  0.00000000000E+00  0.00000000000E+00  0.15629344448E+03  0.15629344450E+03  0.25500000920E-02 0.  1.
        2   -1    0    0  501    0  0.00000000000E+00  0.00000000000E+00 -0.18263622908E+04  0.18263622908E+04  0.25500000920E-02 0. -1.
    10030    2    1    2    0    0  0.00000000000E+00  0.00000000000E+00 -0.16700688464E+04  0.19826557353E+04  0.10685475250E+04 0.  0.
        2    1    3    3  502    0  0.42846878809E+02  0.52528479233E+03 -0.99772929360E+03  0.11283721511E+04  0.25500000920E-02 0. -1.
       -2    1    3    3    0  502 -0.42846878809E+02 -0.52528479233E+03 -0.67233955275E+03  0.85428358422E+03  0.25500000920E-02 0.  1.
</event>
<event>
 5   0  0.6360455E-03  0.9947707E+03  0.7818609E-02  0.9314299E-01
       -2   -1    0    0    0  501  0.00000000000E+00  0.00000000000E+00  0.55244697974E+03  0.55244697974E+03  0.25500000920E-02 0.  1.
        2   -1    0    0  501    0  0.00000000000E+00  0.00000000000E+00 -0.44781163593E+03  0.44781163594E+03  0.25500000920E-02 0. -1.
    10030    2    1    2    0    0  0.00000000000E+00  0.00000000000E+00  0.10463534381E+03  0.10002586157E+04  0.99477069874E+03 0.  0.
        4    1    3    3  502    0 -0.39167754509E+03 -0.23889014285E+03  0.24549932925E+03  0.52033771076E+03  0.12699999809E+01 0.  1.
       -4    1    3    3    0  502  0.39167754509E+03  0.23889014285E+03 -0.14086398544E+03  0.47992090491E+03  0.12699999809E+01 0. -1.
</event>
<event>
 5   0  0.2417750E-03  0.9903951E+03  0.7818609E-02  0.9319142E-01
       -3   -1    0    0    0  501  0.00000000000E+00  0.00000000000E+00  0.13327320308E+03  0.13327324135E+03  0.10100000352E+00 0.  1.
        3   -1    0    0  501    0  0.00000000000E+00  0.00000000000E+00 -0.18399839820E+04  0.18399839848E+04  0.10100000352E+00 0. -1.
    10030    2    1    2    0    0  0.00000000000E+00  0.00000000000E+00 -0.17067107789E+04  0.19732572261E+04  0.99039507147E+03 0.  0.
        2    1    3    3  502    0  0.32735737083E+03 -0.26495253348E+03 -0.33434570841E+03  0.53772646018E+03  0.25500000920E-02 0.  1.
       -2    1    3    3    0  502 -0.32735737083E+03  0.26495253348E+03 -0.13723650705E+04  0.14355307660E+04  0.25500000920E-02 0. -1.
</event>
<event>
 5   0  0.3466598E-03  0.9340397E+03  0.7818609E-02  0.9384003E-01
        1   -1    0    0  501    0  0.00000000000E+00  0.00000000000E+00  0.53356553137E+03  0.53356553139E+03  0.50400001928E-02 0.  1.
       -1   -1    0    0    0  501  0.00000000000E+00  0.00000000000E+00 -0.40877367255E+03  0.40877367258E+03  0.50400001928E-02 0. -1.
    10030    2    1    2    0    0  0.00000000000E+00  0.00000000000E+00  0.12479185882E+03  0.94233920397E+03  0.93403970329E+03 0.  0.
        3    1    3    3  502    0 -0.34700895725E+03  0.20420355056E+03 -0.17633553592E+03  0.43955493161E+03  0.10100000352E+00 0. -1.
       -3    1    3    3    0  502  0.34700895725E+03 -0.20420355056E+03  0.30112739474E+03  0.50278427236E+03  0.10100000352E+00 0.  1.
</event>
<event>
 5   0  0.3569359E-03  0.1000564E+04  0.7818609E-02  0.9307926E-01
        1   -1    0    0  501    0  0.00000000000E+00  0.00000000000E+00  0.10617629360E+04  0.10617629360E+04  0.50400001928E-02 0. -1.
       -1   -1    0    0    0  501  0.00000000000E+00  0.00000000000E+00 -0.23572313398E+03  0.23572313404E+03  0.50400001928E-02 0.  1.
    10030    2    1    2    0    0  0.00000000000E+00  0.00000000000E+00  0.82603980203E+03  0.12974860701E+04  0.10005640147E+04 0.  0.
        4    1    3    3  502    0  0.46517234887E+03 -0.45646386887E+02  0.64430643983E+03  0.79599077136E+03  0.12699999809E+01 0. -1.
       -4    1    3    3    0  502 -0.46517234887E+03  0.45646386887E+02  0.18173336220E+03  0.50149529870E+03  0.12699999809E+01 0.  1.
</event>
<event>
 5   0  0.6022787E-03  0.9966450E+03  0.7818609E-02  0.9312232E-01
       -2   -1    0    0    0  501  0.00000000000E+00  0.00000000000E+00  0.39923426603E+03  0.39923426604E+03  0.25500000920E-02 0. -1.
        2   -1    0    0  501    0  0.00000000000E+00  0.00000000000E+00 -0.62200400129E+03  0.62200400130E+03  0.25500000920E-02 0.  1.
    10030    2    1    2    0    0  0.00000000000E+00  0.00000000000E+00 -0.22276973526E+03  0.10212382673E+04  0.99664499383E+03 0.  0.
        5    1    3    3  502    0  0.30368830781E+03 -0.39123093787E+03 -0.16764868983E+03  0.52289234862E+03  0.46999998093E+01 0.  1.
       -5    1    3    3    0  502 -0.30368830781E+03  0.39123093787E+03 -0.55121045436E+02  0.49834591871E+03  0.46999998093E+01 0. -1.
</event>
<event>
 5   0  0.3466598E-03  0.9755510E+03  0.7818609E-02  0.9335774E-01
       -1   -1    0    0    0  501  0.00000000000E+00  0.00000000000E+00  0.33278297570E+03  0.33278297574E+03  0.50400001928E-02 0. -1.
        1   -1    0    0  501    0  0.00000000000E+00  0.00000000000E+00 -0.71495527327E+03  0.71495527329E+03  0.50400001928E-02 0.  1.
    10030    2    1    2    0    0  0.00000000000E+00  0.00000000000E+00 -0.38217229757E+03  0.10477382490E+04  0.97555101017E+03 0.  0.
        3    1    3    3  502    0  0.27454215018E+03 -0.67706406583E+02  0.23577490089E+03  0.36816757572E+03  0.10100000352E+00 0. -1.
       -3    1    3    3    0  502 -0.27454215018E+03  0.67706406583E+02 -0.61794719847E+03  0.67957067330E+03  0.10100000352E+00 0.  1.
</event>
<event>
 5   0  0.3643002E-03  0.1008346E+04  0.7818609E-02  0.9299438E-01
        1   -1    0    0  501    0  0.00000000000E+00  0.00000000000E+00  0.31202835356E+03  0.31202835360E+03  0.50400001928E-02 0. -1.
       -1   -1    0    0    0  501  0.00000000000E+00  0.00000000000E+00 -0.81463830405E+03  0.81463830407E+03  0.50400001928E-02 0.  1.
    10030    2    1    2    0    0  0.00000000000E+00  0.00000000000E+00 -0.50260995049E+03  0.11266666577E+04  0.10083456725E+04 0.  0.
        2    1    3    3  502    0 -0.41481603284E+03 -0.27351281722E+03 -0.15578273887E+03  0.52072052391E+03  0.25500000920E-02 0. -1.
       -2    1    3    3    0  502  0.41481603284E+03  0.27351281722E+03 -0.34682721162E+03  0.60594613376E+03  0.25500000920E-02 0.  1.
</event>
<event>
 5   0  0.6022787E-03  0.1008968E+04  0.7818609E-02  0.9298763E-01
        2   -1    0    0  501    0  0.00000000000E+00  0.00000000000E+00  0.12363017170E+04  0.12363017170E+04  0.25500000920E-02 0.  1.
       -2   -1    0    0    0  501  0.00000000000E+00  0.00000000000E+00 -0.20585936786E+03  0.20585936788E+03  0.25500000920E-02 0. -1.
    10030    2    1    2    0    0  0.00000000000E+00  0.00000000000E+00  0.10304423491E+04  0.14421610848E+04  0.10089683641E+04 0.  0.
        5    1    3    3  502    0  0.45377213399E+03 -0.75511467480E+02  0.81117119734E+03  0.93254057966E+03  0.46999998093E+01 0.  1.
       -5    1    3    3    0  502 -0.45377213399E+03  0.75511467480E+02  0.21927115175E+03  0.50962050518E+03  0.46999998093E+01 0. -1.
</event>
<event>
 5   0  0.3466598E-03  0.9527635E+03  0.7818609E-02  0.9361926E-01
       -1   -1    0    0    0  501  0.00000000000E+00  0.00000000000E+00  0.14514755861E+03  0.14514755870E+03  0.50400001928E-02 0. -1.
        1   -1    0    0  501    0  0.00000000000E+00  0.00000000000E+00 -0.15635094461E+04  0.15635094461E+04  0.50400001928E-02 0.  1.
    10030    2    1    2    0    0  0.00000000000E+00  0.00000000000E+00 -0.14183618875E+04  0.17086570048E+04  0.95276351535E+03 0.  0.
        3    1    3    3  502    0 -0.53421111638E+02 -0.21982852897E+03  0.42669122894E+02  0.23021525051E+03  0.10100000352E+00 0. -1.
       -3    1    3    3    0  502  0.53421111638E+02  0.21982852897E+03 -0.14610310104E+04  0.14784417543E+04  0.10100000352E+00 0.  1.
</event>
<event>
 5   0  0.3466598E-03  0.1007978E+04  0.7818609E-02  0.9299837E-01
       -1   -1    0    0    0  501  0.00000000000E+00  0.00000000000E+00  0.28811723130E+03  0.28811723134E+03  0.50400001928E-02 0.  1.
        1   -1    0    0  501    0  0.00000000000E+00  0.00000000000E+00 -0.88160311799E+03  0.88160311801E+03  0.50400001928E-02 0. -1.
    10030    2    1    2    0    0  0.00000000000E+00  0.00000000000E+00 -0.59348588670E+03  0.11697203493E+04  0.10079782726E+04 0.  0.
        3    1    3    3  502    0 -0.29015389425E+03 -0.38165906623E+03 -0.11639613933E+03  0.49335686540E+03  0.10100000352E+00 0.  1.
       -3    1    3    3    0  502  0.29015389425E+03  0.38165906623E+03 -0.47708974737E+03  0.67636348395E+03  0.10100000352E+00 0. -1.
</event>
<event>
 5   0  0.3466598E-03  0.1004193E+04  0.7818609E-02  0.9303958E-01
       -1   -1    0    0    0  501  0.00000000000E+00  0.00000000000E+00  0.84356787274E+03  0.84356787276E+03  0.50400001928E-02 0. -1.
        1   -1    0    0  501    0  0.00000000000E+00  0.00000000000E+00 -0.29885064224E+03  0.29885064228E+03  0.50400001928E-02 0.  1.
    10030    2    1    2    0    0  0.00000000000E+00  0.00000000000E+00  0.54471723050E+03  0.11424185150E+04  0.10041928113E+04 0.  0.
        3    1    3    3  502    0  0.25864315353E+03  0.38654604422E+03  0.48757173353E+03  0.67382514847E+03  0.10100000352E+00 0. -1.
       -3    1    3    3    0  502 -0.25864315353E+03 -0.38654604422E+03  0.57145496973E+02  0.46859336657E+03  0.10100000352E+00 0.  1.
</event>
<event>
 5   0  0.2417750E-03  0.9940933E+03  0.7818609E-02  0.9315047E-01
       -4   -1    0    0    0  501  0.00000000000E+00  0.00000000000E+00  0.92353851117E+03  0.92353938439E+03  0.12699999809E+01 0. -1.
        4   -1    0    0  501    0  0.00000000000E+00  0.00000000000E+00 -0.26750706748E+03  0.26751008215E+03  0.12699999809E+01 0.  1.
    10030    2    1    2    0    0  0.00000000000E+00  0.00000000000E+00  0.65603144370E+03  0.11910494665E+04  0.99409334402E+03 0.  0.
        1    1    3    3  502    0 -0.25065069298E+03 -0.17481088756E+03  0.79769162345E+03  0.85422277097E+03  0.50400001928E-02 0. -1.
       -1    1    3    3    0  502  0.25065069298E+03  0.17481088756E+03 -0.14166017975E+03  0.33682669557E+03  0.50400001928E-02 0.  1.
</event>
<event>
 5   0  0.3569359E-03  0.9927917E+03  0.7818609E-02  0.9316486E-01
       -1   -1    0    0    0  501  0.00000000000E+00  0.00000000000E+00  0.26391194634E+03  0.26391194639E+03  0.50400001928E-02 0. -1.
        1   -1    0    0  501    0  0.00000000000E+00  0.00000000000E+00 -0.93367816994E+03  0.93367816995E+03  0.50400001928E-02 0.  1.
    10030    2    1    2    0    0  0.00000000000E+00  0.00000000000E+00 -0.66976622360E+03  0.11975901163E+04  0.99279166620E+03 0.  0.
        4    1    3    3  502    0  0.29949220730E+03  0.41232266819E+02 -0.80981581890E+03  0.86440670723E+03  0.12699999809E+01 0.  1.
       -4    1    3    3    0  502 -0.29949220730E+03 -0.41232266819E+02  0.14004959530E+03  0.33318340911E+03  0.12699999809E+01 0. -1.
</event>
<event>
 5   0  0.3569359E-03  0.9995792E+03  0.7818609E-02  0.9309006E-01
        1   -1    0    0  501    0  0.00000000000E+00  0.00000000000E+00  0.10122912612E+04  0.10122912612E+04  0.50400001928E-02 0.  1.
       -1   -1    0    0    0  501  0.00000000000E+00  0.00000000000E+00 -0.24675670984E+03  0.24675670990E+03  0.50400001928E-02 0. -1.
    10030    2    1    2    0    0  0.00000000000E+00  0.00000000000E+00  0.76553455135E+03  0.12590479711E+04  0.99957923359E+03 0.  0.
        4    1    3    3  502    0 -0.45434175465E+03  0.86342934978E+02  0.62144488802E+03  0.77464630263E+03  0.12699999809E+01 0.  1.
       -4    1    3    3    0  502  0.45434175465E+03 -0.86342934978E+02  0.14408966333E+03  0.48440166847E+03  0.12699999809E+01 0. -1.
</event>
<event>
 5   0  0.6376961E-03  0.1000646E+04  0.7818609E-02  0.9307837E-01
        2   -1    0    0  501    0  0.00000000000E+00  0.00000000000E+00  0.15033496145E+04  0.15033496146E+04  0.25500000920E-02 0. -1.
       -2   -1    0    0    0  501  0.00000000000E+00  0.00000000000E+00 -0.16651015124E+03  0.16651015125E+03  0.25500000920E-02 0.  1.
    10030    2    1    2    0    0  0.00000000000E+00  0.00000000000E+00  0.13368394633E+04  0.16698597658E+04  0.10006457349E+04 0.  0.
        3    1    3    3  502    0 -0.28105018011E+03  0.36727498746E+03  0.34984907748E+03  0.57989180660E+03  0.10100000352E+00 0.  1.
       -3    1    3    3    0  502  0.28105018011E+03 -0.36727498746E+03  0.98699038584E+03  0.10899679592E+04  0.10100000352E+00 0. -1.
</event>
<event>
 5   0  0.6360455E-03  0.9989858E+03  0.7818609E-02  0.9309658E-01
       -2   -1    0    0    0  501  0.00000000000E+00  0.00000000000E+00  0.69722743540E+03  0.69722743540E+03  0.25500000920E-02 0.  1.
        2   -1    0    0  501    0  0.00000000000E+00  0.00000000000E+00 -0.35783613515E+03  0.35783613516E+03  0.25500000920E-02 0. -1.
    10030    2    1    2    0    0  0.00000000000E+00  0.00000000000E+00  0.33939130024E+03  0.10550635706E+04  0.99898582735E+03 0.  0.
        4    1    3    3  502    0 -0.64195345769E+02 -0.48882622156E+03  0.85076649160E+02  0.50031166930E+03  0.12699999809E+01 0. -1.
       -4    1    3    3    0  502  0.64195345769E+02  0.48882622156E+03  0.25431465108E+03  0.55475190127E+03  0.12699999809E+01 0.  1.
</event>
<event>
 5   0  0.6360455E-03  0.9941787E+03  0.7818609E-02  0.9314953E-01
       -2   -1    0    0    0  501  0.00000000000E+00  0.00000000000E+00  0.76850335758E+03  0.76850335758E+03  0.25500000920E-02 0.  1.
        2   -1    0    0  501    0  0.00000000000E+00  0.00000000000E+00 -0.32153121033E+03  0.32153121034E+03  0.25500000920E-02 0. -1.
    10030    2    1    2    0    0  0.00000000000E+00  0.00000000000E+00  0.44697214725E+03  0.10900345679E+04  0.99417868557E+03 0.  0.
        4    1    3    3  502    0  0.10486120467E+03  0.25254329970E+02 -0.30854468708E+03  0.32685637557E+03  0.12699999809E+01 0. -1.
       -4    1    3    3    0  502 -0.10486120467E+03 -0.25254329970E+02  0.75551683433E+03  0.76317819235E+03  0.12699999809E+01 0.  1.
</event>
<event>
 5   0  0.3640180E-03  0.9901628E+03  0.7818609E-02  0.9319400E-01
       -1   -1    0    0    0  501  0.00000000000E+00  0.00000000000E+00  0.55495679379E+03  0.55495679382E+03  0.50400001928E-02 0.  1.
        1   -1    0    0  501    0  0.00000000000E+00  0.00000000000E+00 -0.44166604278E+03  0.44166604281E+03  0.50400001928E-02 0. -1.
    10030    2    1    2    0    0  0.00000000000E+00  0.00000000000E+00  0.11329075101E+03  0.99662283663E+03  0.99016275643E+03 0.  0.
        5    1    3    3  502    0  0.38994652440E+03  0.94942101890E+01  0.36348681669E+03  0.53319151140E+03  0.46999998093E+01 0.  1.
       -5    1    3    3    0  502 -0.38994652440E+03 -0.94942101890E+01 -0.25019606568E+03  0.46343132523E+03  0.46999998093E+01 0. -1.
</event>
<event>
 5   0  0.3466598E-03  0.1016592E+04  0.7818609E-02  0.9290532E-01
        1   -1    0    0  501    0  0.00000000000E+00  0.00000000000E+00  0.14327493296E+04  0.14327493296E+04  0.50400001928E-02 0. -1.
       -1   -1    0    0    0  501  0.00000000000E+00  0.00000000000E+00 -0.18032796290E+03  0.18032796297E+03  0.50400001928E-02 0.  1.
    10030    2    1    2    0    0  0.00000000000E+00  0.00000000000E+00  0.12524213667E+04  0.16130772926E+04  0.10165918906E+04 0.  0.
        3    1    3    3  502    0  0.43139010645E+02  0.45109441119E+03  0.99156869348E+03  0.10902089828E+04  0.10100000352E+00 0. -1.
       -3    1    3    3    0  502 -0.43139010645E+02 -0.45109441119E+03  0.26085267321E+03  0.52286830978E+03  0.10100000352E+00 0.  1.
</event>
<event>
 5   0  0.6360455E-03  0.1005025E+04  0.7818609E-02  0.9303050E-01
        2   -1    0    0  501    0  0.00000000000E+00  0.00000000000E+00  0.93360362279E+03  0.93360362279E+03  0.25500000920E-02 0. -1.
       -2   -1    0    0    0  501  0.00000000000E+00  0.00000000000E+00 -0.27047778304E+03  0.27047778306E+03  0.25500000920E-02 0.  1.
    10030    2    1    2    0    0  0.00000000000E+00  0.00000000000E+00  0.66312583974E+03  0.12040814058E+04  0.10050254487E+04 0.  0.
        4    1    3    3  502    0 -0.37366340601E+03  0.29249235022E+03  0.13346110923E+03  0.49293974937E+03  0.12699999809E+01 0.  1.
       -4    1    3    3    0  502  0.37366340601E+03 -0.29249235022E+03  0.52966473052E+03  0.71114165648E+03  0.12699999809E+01 0. -1.
</event>
<event>
 5   0  0.6022787E-03  0.1012303E+04  0.7818609E-02  0.9295153E-01
       -2   -1    0    0    0  501  0.00000000000E+00  0.00000000000E+00  0.61360022864E+03  0.61360022865E+03  0.25500000920E-02 0. -1.
        2   -1    0    0  501    0  0.00000000000E+00  0.00000000000E+00 -0.41751808523E+03  0.41751808524E+03  0.25500000920E-02 0.  1.
    10030    2    1    2    0    0  0.00000000000E+00  0.00000000000E+00  0.19608214341E+03  0.10311183139E+04  0.10123027068E+04 0.  0.
        5    1    3    3  502    0  0.21546952028E+03 -0.68634938044E+02 -0.36317666111E+03  0.42785189735E+03  0.46999998093E+01 0.  1.
       -5    1    3    3    0  502 -0.21546952028E+03  0.68634938044E+02  0.55925880452E+03  0.60326641654E+03  0.46999998093E+01 0. -1.
</event>
<event>
 5   0  0.3640180E-03  0.9763609E+03  0.7818609E-02  0.9334859E-01
        1   -1    0    0  501    0  0.00000000000E+00  0.00000000000E+00  0.13141799930E+04  0.13141799931E+04  0.50400001928E-02 0.  1.
       -1   -1    0    0    0  501  0.00000000000E+00  0.00000000000E+00 -0.18134514140E+03  0.18134514147E+03  0.50400001928E-02 0. -1.
    10030    2    1    2    0    0  0.00000000000E+00  0.00000000000E+00  0.11328348516E+04  0.14955251345E+04  0.97636091016E+03 0.  0.
        5    1    3    3  502    0  0.33555466866E+03 -0.35074493717E+03  0.48713454444E+03  0.68770713316E+03  0.46999998093E+01 0. -1.
       -5    1    3    3    0  502 -0.33555466866E+03  0.35074493717E+03  0.64570030720E+03  0.80781800137E+03  0.46999998093E+01 0.  1.
</event>
<event>
 5   0  0.3466598E-03  0.9873758E+03  0.7818609E-02  0.9322500E-01
       -1   -1    0    0    0  501  0.00000000000E+00  0.00000000000E+00  0.18737525203E+03  0.18737525209E+03  0.50400001928E-02 0. -1.
        1   -1    0    0  501    0  0.00000000000E+00  0.00000000000E+00 -0.13007467432E+04  0.13007467432E+04  0.50400001928E-02 0.  1.
    10030    2    1    2    0    0  0.00000000000E+00  0.00000000000E+00 -0.11133714912E+04  0.14881219953E+04  0.98737581272E+03 0.  0.
        3    1    3    3  502    0  0.27685451307E+03  0.40488013183E+03 -0.47207850127E+03  0.68076021044E+03  0.10100000352E+00 0. -1.
       -3    1    3    3    0  502 -0.27685451307E+03 -0.40488013183E+03 -0.64129298991E+03  0.80736178487E+03  0.10100000352E+00 0.  1.
</event>
<event>
 5   0  0.6199539E-03  0.9796636E+03  0.7818609E-02  0.9331135E-01
       -2   -1    0    0    0  501  0.00000000000E+00  0.00000000000E+00  0.11044534969E+03  0.11044534972E+03  0.25500000920E-02 0.  1.
        2   -1    0    0  501    0  0.00000000000E+00  0.00000000000E+00 -0.21724335373E+04  0.21724335373E+04  0.25500000920E-02 0. -1.
    10030    2    1    2    0    0  0.00000000000E+00  0.00000000000E+00 -0.20619881877E+04  0.22828788871E+04  0.97966357848E+03 0.  0.
        2    1    3    3  502    0  0.37576839923E+03  0.62956044690E+02 -0.17483603697E+04  0.17893935665E+04  0.25500000920E-02 0. -1.
       -2    1    3    3    0  502 -0.37576839923E+03 -0.62956044690E+02 -0.31362781792E+03  0.49348532056E+03  0.25500000920E-02 0.  1.
</event>
<event>
 5   0  0.6022787E-03  0.9477845E+03  0.7818609E-02  0.9367744E-01
        2   -1    0    0  501    0  0.00000000000E+00  0.00000000000E+00  0.67537775975E+03  0.67537775975E+03  0.25500000920E-02 0. -1.
       -2   -1    0    0    0  501  0.00000000000E+00  0.00000000000E+00 -0.33251593472E+03  0.33251593473E+03  0.25500000920E-02 0.  1.
    10030    2    1    2    0    0  0.00000000000E+00  0.00000000000E+00  0.34286182503E+03  0.10078936945E+04  0.94778450521E+03 0.  0.
        5    1    3    3  502    0  0.43044626090E+03  0.16900543910E+03  0.28145747612E+03  0.54137530682E+03  0.46999998093E+01 0. -1.
       -5    1    3    3    0  502 -0.43044626090E+03 -0.16900543910E+03  0.61404348907E+02  0.46651838767E+03  0.46999998093E+01 0.  1.
</event>
<event>
 5   0  0.6606947E-03  0.9973902E+03  0.7818609E-02  0.9311412E-01
       -2   -1    0    0    0  501  0.00000000000E+00  0.00000000000E+00  0.30231284869E+03  0.30231284870E+03  0.25500000920E-02 0. -1.
        2   -1    0    0  501    0  0.00000000000E+00  0.00000000000E+00 -0.82264714268E+03  0.82264714268E+03  0.25500000920E-02 0.  1.
    10030    2    1    2    0    0  0.00000000000E+00  0.00000000000E+00 -0.52033429399E+03  0.11249599914E+04  0.99739019681E+03 0.  0.
        1    1    3    3  502    0 -0.25799399588E+03 -0.70670810643E+02  0.21454701136E+03  0.34290769238E+03  0.50400001928E-02 0. -1.
       -1    1    3    3    0  502  0.25799399588E+03  0.70670810643E+02 -0.73488130535E+03  0.78205229900E+03  0.50400001928E-02 0.  1.
</event>
<event>
 5   0  0.6360455E-03  0.9958373E+03  0.7818609E-02  0.9313122E-01
       -2   -1    0    0    0  501  0.00000000000E+00  0.00000000000E+00  0.61665708278E+03  0.61665708279E+03  0.25500000920E-02 0.  1.
        2   -1    0    0  501    0  0.00000000000E+00  0.00000000000E+00 -0.40204354802E+03  0.40204354803E+03  0.25500000920E-02 0. -1.
    10030    2    1    2    0    0  0.00000000000E+00  0.00000000000E+00  0.21461353477E+03  0.10187006308E+04  0.99583733908E+03 0.  0.
        4    1    3    3  502    0  0.43281001333E+02 -0.49018191291E+03  0.29603390249E+02  0.49298024953E+03  0.12699999809E+01 0. -1.
       -4    1    3    3    0  502 -0.43281001333E+02  0.49018191291E+03  0.18501014452E+03  0.52572038128E+03  0.12699999809E+01 0.  1.
</event>
<event>
 5   0  0.6022787E-03  0.9372722E+03  0.7818609E-02  0.9380152E-01
       -2   -1    0    0    0  501  0.00000000000E+00  0.00000000000E+00  0.28517527723E+03  0.28517527724E+03  0.25500000920E-02 0. -1.
        2   -1    0    0  501    0  0.00000000000E+00  0.00000000000E+00 -0.77012216540E+03  0.77012216541E+03  0.25500000920E-02 0.  1.
    10030    2    1    2    0    0  0.00000000000E+00  0.00000000000E+00 -0.48494688818E+03  0.10552974426E+04  0.93727221665E+03 0.  0.
        5    1    3    3  502    0  0.84511134704E+02  0.98906373497E+02 -0.74935583888E+03  0.76057929624E+03  0.46999998093E+01 0.  1.
       -5    1    3    3    0  502 -0.84511134704E+02 -0.98906373497E+02  0.26440895071E+03  0.29471814641E+03  0.46999998093E+01 0. -1.
</event>
<event>
 5   0  0.6376961E-03  0.9998312E+03  0.7818609E-02  0.9308730E-01
       -2   -1    0    0    0  501  0.00000000000E+00  0.00000000000E+00  0.11433654494E+03  0.11433654496E+03  0.25500000920E-02 0. -1.
        2   -1    0    0  501    0  0.00000000000E+00  0.00000000000E+00 -0.21857892056E+04  0.21857892056E+04  0.25500000920E-02 0.  1.
    10030    2    1    2    0    0  0.00000000000E+00  0.00000000000E+00 -0.20714526607E+04  0.23001257506E+04  0.99983115727E+03 0.  0.
        3    1    3    3  502    0 -0.26703939719E+03  0.18623640557E+03 -0.19084722120E+04  0.19360424150E+04  0.10100000352E+00 0.  1.
       -3    1    3    3    0  502  0.26703939719E+03 -0.18623640557E+03 -0.16298044868E+03  0.36408333560E+03  0.10100000352E+00 0. -1.
</event>
<event>
 5   0  0.3643002E-03  0.1030573E+04  0.7818609E-02  0.9275634E-01
       -1   -1    0    0    0  501  0.00000000000E+00  0.00000000000E+00  0.39824193336E+03  0.39824193340E+03  0.50400001928E-02 0.  1.
        1   -1    0    0  501    0  0.00000000000E+00  0.00000000000E+00 -0.66673123673E+03  0.66673123675E+03  0.50400001928E-02 0. -1.
    10030    2    1    2    0    0  0.00000000000E+00  0.00000000000E+00 -0.26848930337E+03  0.10649731701E+04  0.10305733099E+04 0.  0.
        2    1    3    3  502    0 -0.62008314938E+02  0.24484435194E+03  0.32988712724E+03  0.41547479409E+03  0.25500000920E-02 0.  1.
       -2    1    3    3    0  502  0.62008314938E+02 -0.24484435194E+03 -0.59837643060E+03  0.64949837606E+03  0.25500000920E-02 0. -1.
</event>
<event>
 5   0  0.6022787E-03  0.9595672E+03  0.7818609E-02  0.9354037E-01
       -2   -1    0    0    0  501  0.00000000000E+00  0.00000000000E+00  0.30349956697E+03  0.30349956698E+03  0.25500000920E-02 0. -1.
        2   -1    0    0  501    0  0.00000000000E+00  0.00000000000E+00 -0.75846002759E+03  0.75846002759E+03  0.25500000920E-02 0.  1.
    10030    2    1    2    0    0  0.00000000000E+00  0.00000000000E+00 -0.45496046062E+03  0.10619595946E+04  0.95956717314E+03 0.  0.
        5    1    3    3  502    0  0.33899194718E+03 -0.22139953916E+02 -0.60239829053E+03  0.69160068554E+03  0.46999998093E+01 0.  1.
       -5    1    3    3    0  502 -0.33899194718E+03  0.22139953916E+02  0.14743782991E+03  0.37035890903E+03  0.46999998093E+01 0. -1.
</event>
<event>
 5   0  0.3640180E-03  0.1004272E+04  0.7818609E-02  0.9303872E-01
       -1   -1    0    0    0  501  0.00000000000E+00  0.00000000000E+00  0.48274386473E+03  0.48274386476E+03  0.50400001928E-02 0. -1.
        1   -1    0    0  501    0  0.00000000000E+00  0.00000000000E+00 -0.52230674626E+03  0.52230674628E+03  0.50400001928E-02 0.  1.
    10030    2    1    2    0    0  0.00000000000E+00  0.00000000000E+00 -0.39562881527E+02  0.10050506110E+04  0.10042716312E+04 0.  0.
        5    1    3    3  502    0 -0.41179580323E+03 -0.10951034164E+03  0.24603706457E+03  0.49206160756E+03  0.46999998093E+01 0. -1.
       -5    1    3    3    0  502  0.41179580323E+03  0.10951034164E+03 -0.28559994610E+03  0.51298900349E+03  0.46999998093E+01 0.  1.
</event>
<event>
 5   0  0.3640180E-03  0.9906665E+03  0.7818609E-02  0.9318841E-01
       -1   -1    0    0    0  501  0.00000000000E+00  0.00000000000E+00  0.50246799265E+03  0.50246799267E+03  0.50400001928E-02 0. -1.
        1   -1    0    0  501    0  0.00000000000E+00  0.00000000000E+00 -0.48829981048E+03  0.48829981050E+03  0.50400001928E-02 0.  1.
    10030    2    1    2    0    0  0.00000000000E+00  0.00000000000E+00  0.14168182174E+02  0.99076780318E+03  0.99066649404E+03 0.  0.
        5    1    3    3  502    0 -0.30951192922E+03 -0.95385425616E+02 -0.36770337735E+03  0.49002436415E+03  0.46999998093E+01 0.  1.
       -5    1    3    3    0  502  0.30951192922E+03  0.95385425616E+02  0.38187155953E+03  0.50074343902E+03  0.46999998093E+01 0. -1.
</event>
<event>
 5   0  0.3640180E-03  0.1136668E+04  0.7818609E-02  0.9170172E-01
        1   -1    0    0  501    0  0.00000000000E+00  0.00000000000E+00  0.15629959853E+04  0.15629959853E+04  0.50400001928E-02 0. -1.
       -1   -1    0    0    0  501  0.00000000000E+00  0.00000000000E+00 -0.20665658581E+03  0.20665658587E+03  0.50400001928E-02 0.  1.
    10030    2    1    2    0    0  0.00000000000E+00  0.00000000000E+00  0.13563393995E+04  0.17696525711E+04  0.11366677861E+04 0.  0.
        5    1    3    3  502    0  0.53781356313E+03 -0.16305796682E+03  0.80981559491E+03  0.98572547749E+03  0.46999998093E+01 0.  1.
       -5    1    3    3    0  502 -0.53781356313E+03  0.16305796682E+03  0.54652380454E+03  0.78392709365E+03  0.46999998093E+01 0. -1.
</event>
<event>
 5   0  0.3608845E-03  0.9747892E+03  0.7818609E-02  0.9336636E-01
        1   -1    0    0  501    0  0.00000000000E+00  0.00000000000E+00  0.71635636162E+03  0.71635636164E+03  0.50400001928E-02 0. -1.
       -1   -1    0    0    0  501  0.00000000000E+00  0.00000000000E+00 -0.33161361163E+03  0.33161361167E+03  0.50400001928E-02 0.  1.
    10030    2    1    2    0    0  0.00000000000E+00  0.00000000000E+00  0.38474275000E+03  0.10479699733E+04  0.97478924968E+03 0.  0.
        1    1    3    3  502    0  0.60203036846E+02  0.36415887707E+03 -0.14982876604E+03  0.39835254807E+03  0.50400001928E-02 0.  1.
       -1    1    3    3    0  502 -0.60203036846E+02 -0.36415887707E+03  0.53457151604E+03  0.64961742524E+03  0.50400001928E-02 0. -1.
</event>
<event>
 5   0  0.6376961E-03  0.1001552E+04  0.7818609E-02  0.9306844E-01
        2   -1    0    0  501    0  0.00000000000E+00  0.00000000000E+00  0.12056602443E+04  0.12056602443E+04  0.25500000920E-02 0.  1.
       -2   -1    0    0    0  501  0.00000000000E+00  0.00000000000E+00 -0.20799930787E+03  0.20799930789E+03  0.25500000920E-02 0. -1.
    10030    2    1    2    0    0  0.00000000000E+00  0.00000000000E+00  0.99766093641E+03  0.14136595522E+04  0.10015517887E+04 0.  0.
        3    1    3    3  502    0 -0.45968590840E+03  0.19181342911E+03  0.57180438654E+03  0.75832960685E+03  0.10100000352E+00 0.  1.
       -3    1    3    3    0  502  0.45968590840E+03 -0.19181342911E+03  0.42585654987E+03  0.65532994532E+03  0.10100000352E+00 0. -1.
</event>
<event>
 5   0  0.2417750E-03  0.9937937E+03  0.7818609E-02  0.9315378E-01
        4   -1    0    0  501    0  0.00000000000E+00  0.00000000000E+00  0.36564871682E+03  0.36565092235E+03  0.12699999809E+01 0. -1.
       -4   -1    0    0    0  501  0.00000000000E+00  0.00000000000E+00 -0.67525109005E+03  0.67525228434E+03  0.12699999809E+01 0.  1.
    10030    2    1    2    0    0  0.00000000000E+00  0.00000000000E+00 -0.30960237323E+03  0.10409032067E+04  0.99379366882E+03 0.  0.
        4    1    3    3  502    0  0.24612892569E+03 -0.35015908971E+03 -0.41918301850E+03  0.59908835080E+03  0.12699999809E+01 0.  1.
       -4    1    3    3    0  502 -0.24612892569E+03  0.35015908971E+03  0.10958064528E+03  0.44181485589E+03  0.12699999809E+01 0. -1.
</event>
<event>
 5   0  0.3569359E-03  0.9931833E+03  0.7818609E-02  0.9316053E-01
       -1   -1    0    0    0  501  0.00000000000E+00  0.00000000000E+00  0.72256272582E+03  0.72256272584E+03  0.50400001928E-02 0. -1.
        1   -1    0    0  501    0  0.00000000000E+00  0.00000000000E+00 -0.34128978822E+03  0.34128978826E+03  0.50400001928E-02 0.  1.
    10030    2    1    2    0    0  0.00000000000E+00  0.00000000000E+00  0.38127293760E+03  0.10638525141E+04  0.99318332587E+03 0.  0.
        4    1    3    3  502    0 -0.36347451476E+03 -0.10561741305E+03 -0.15369072723E+03  0.40852321030E+03  0.12699999809E+01 0.  1.
       -4    1    3    3    0  502  0.36347451476E+03  0.10561741305E+03  0.53496366483E+03  0.65532930379E+03  0.12699999809E+01 0. -1.
</event>
<event>
 5   0  0.6199539E-03  0.9839417E+03  0.7818609E-02  0.9326335E-01
        2   -1    0    0  501    0  0.00000000000E+00  0.00000000000E+00  0.63460963607E+03  0.63460963608E+03  0.25500000920E-02 0.  1.
       -2   -1    0    0    0  501  0.00000000000E+00  0.00000000000E+00 -0.38139246069E+03  0.38139246070E+03  0.25500000920E-02 0. -1.
    10030    2    1    2    0    0  0.00000000000E+00  0.00000000000E+00  0.25321717538E+03  0.10160020968E+04  0.98394172731E+03 0.  0.
        2    1    3    3  502    0  0.37597496118E+03 -0.45772556347E+02  0.45081851726E+03  0.58880356135E+03  0.25500000920E-02 0.  1.
       -2    1    3    3    0  502 -0.37597496118E+03  0.45772556347E+02 -0.19760134188E+03  0.42719853543E+03  0.25500000920E-02 0. -1.
</event>
<event>
 5   0  0.6199539E-03  0.1006248E+04  0.7818609E-02  0.9301719E-01
       -2   -1    0    0    0  501  0.00000000000E+00  0.00000000000E+00  0.10552133359E+04  0.10552133359E+04  0.25500000920E-02 0. -1.
        2   -1    0    0  501    0  0.00000000000E+00  0.00000000000E+00 -0.23988848036E+03  0.23988848038E+03  0.25500000920E-02 0.  1.
    10030    2    1    2    0    0  0.00000000000E+00  0.00000000000E+00  0.81532485555E+03  0.12951018163E+04  0.10062475314E+04 0.  0.
        2    1    3    3  502    0 -0.56663291561E+02 -0.18816306721E+03  0.10037779117E+04  0.10228324224E+04  0.25500000920E-02 0. -1.
       -2    1    3    3    0  502  0.56663291561E+02  0.18816306721E+03 -0.18845305610E+03  0.27226939386E+03  0.25500000920E-02 0.  1.
</event>
<event>
 5   0  0.3608845E-03  0.9980672E+03  0.7818609E-02  0.9310667E-01
        1   -1    0    0  501    0  0.00000000000E+00  0.00000000000E+00  0.62429025233E+03  0.62429025235E+03  0.50400001928E-02 0. -1.
       -1   -1    0    0    0  501  0.00000000000E+00  0.00000000000E+00 -0.39890824637E+03  0.39890824640E+03  0.50400001928E-02 0.  1.
    10030    2    1    2    0    0  0.00000000000E+00  0.00000000000E+00  0.22538200596E+03  0.10231984988E+04  0.99806719174E+03 0.  0.
        1    1    3    3  502    0  0.30290172339E+03 -0.28744357769E+03  0.39281337011E+03  0.57330237061E+03  0.50400001928E-02 0. -1.
       -1    1    3    3    0  502 -0.30290172339E+03  0.28744357769E+03 -0.16743136415E+03  0.44989612814E+03  0.50400001928E-02 0.  1.
</event>
<event>
 5   0  0.6022787E-03  0.9870552E+03  0.7818609E-02  0.9322857E-01
        2   -1    0    0  501    0  0.00000000000E+00  0.00000000000E+00  0.10051364355E+04  0.10051364355E+04  0.25500000920E-02 0. -1.
       -2   -1    0    0    0  501  0.00000000000E+00  0.00000000000E+00 -0.24232482535E+03  0.24232482536E+03  0.25500000920E-02 0.  1.
    10030    2    1    2    0    0  0.00000000000E+00  0.00000000000E+00  0.76281161017E+03  0.12474612609E+04  0.98705523898E+03 0.  0.
        5    1    3    3  502    0  0.40766398480E+03 -0.27012305248E+03  0.29765886054E+03  0.57252010903E+03  0.46999998093E+01 0.  1.
       -5    1    3    3    0  502 -0.40766398480E+03  0.27012305248E+03  0.46515274963E+03  0.67494115186E+03  0.46999998093E+01 0. -1.
</event>
<event>
 5   0  0.3466598E-03  0.9944820E+03  0.7818609E-02  0.9314618E-01
       -1   -1    0    0    0  501  0.00000000000E+00  0.00000000000E+00  0.37165015211E+03  0.37165015214E+03  0.50400001928E-02 0. -1.
        1   -1    0    0  501    0  0.00000000000E+00  0.00000000000E+00 -0.66527248566E+03  0.66527248568E+03  0.50400001928E-02 0.  1.
    10030    2    1    2    0    0  0.00000000000E+00  0.00000000000E+00 -0.29362233356E+03  0.10369226378E+04  0.99448201696E+03 0.  0.
        3    1    3    3  502    0 -0.22968651680E+03 -0.22319990774E+03 -0.54340452798E+03  0.63076349454E+03  0.10100000352E+00 0.  1.
       -3    1    3    3    0  502  0.22968651680E+03  0.22319990774E+03  0.24978219443E+03  0.40615914328E+03  0.10100000352E+00 0. -1.
</event>
<event>
 5   0  0.6360455E-03  0.9890362E+03  0.7818609E-02  0.9320652E-01
        2   -1    0    0  501    0  0.00000000000E+00  0.00000000000E+00  0.11035722173E+04  0.11035722173E+04  0.25500000920E-02 0.  1.
       -2   -1    0    0    0  501  0.00000000000E+00  0.00000000000E+00 -0.22159688736E+03  0.22159688738E+03  0.25500000920E-02 0. -1.
    10030    2    1    2    0    0  0.00000000000E+00  0.00000000000E+00  0.88197532998E+03  0.13251691047E+04  0.98903623464E+03 0.  0.
        4    1    3    3  502    0  0.19242109428E+03  0.11563730983E+03  0.10313604540E+04  0.10555111860E+04  0.12699999809E+01 0.  1.
       -4    1    3    3    0  502 -0.19242109428E+03 -0.11563730983E+03 -0.14938512397E+03  0.26965791870E+03  0.12699999809E+01 0. -1.
</event>
<event>
 5   0  0.2417750E-03  0.9975539E+03  0.7818609E-02  0.9311232E-01
       -3   -1    0    0    0  501  0.00000000000E+00  0.00000000000E+00  0.36786189312E+03  0.36786190699E+03  0.10100000352E+00 0. -1.
        3   -1    0    0  501    0  0.00000000000E+00  0.00000000000E+00 -0.67628213294E+03  0.67628214048E+03  0.10100000352E+00 0.  1.
    10030    2    1    2    0    0  0.00000000000E+00  0.00000000000E+00 -0.30842023982E+03  0.10441440475E+04  0.99755388202E+03 0.  0.
        4    1    3    3  502    0  0.38819861594E+02 -0.14915528133E+03 -0.65073048888E+03  0.66873467209E+03  0.12699999809E+01 0.  1.
       -4    1    3    3    0  502 -0.38819861594E+02  0.14915528133E+03  0.34231024906E+03  0.37540937537E+03  0.12699999809E+01 0. -1.
</event>
<event>
 5   0  0.2417750E-03  0.9974749E+03  0.7818609E-02  0.9311319E-01
        4   -1    0    0  501    0  0.00000000000E+00  0.00000000000E+00  0.29090780430E+03  0.29091057647E+03  0.12699999809E+01 0.  1.
       -4   -1    0    0    0  501  0.00000000000E+00  0.00000000000E+00 -0.85503689449E+03  0.85503783767E+03  0.12699999809E+01 0. -1.
    10030    2    1    2    0    0  0.00000000000E+00  0.00000000000E+00 -0.56412909020E+03  0.11459484141E+04  0.99747488061E+03 0.  0.
        1    1    3    3  502    0 -0.10668690070E+00 -0.40739256168E+03 -0.61258658688E+03  0.73568406069E+03  0.50400001928E-02 0. -1.
       -1    1    3    3    0  502  0.10668690070E+00  0.40739256168E+03  0.48457496688E+02  0.41026435345E+03  0.50400001928E-02 0.  1.
</event>
<event>
 5   0  0.3608845E-03  0.9974481E+03  0.7818609E-02  0.9311348E-01
       -1   -1    0    0    0  501  0.00000000000E+00  0.00000000000E+00  0.17616274437E+03  0.17616274444E+03  0.50400001928E-02 0.  1.
        1   -1    0    0  501    0  0.00000000000E+00  0.00000000000E+00 -0.14119083748E+04  0.14119083748E+04  0.50400001928E-02 0. -1.
    10030    2    1    2    0    0  0.00000000000E+00  0.00000000000E+00 -0.12357456304E+04  0.15880711193E+04  0.99744805213E+03 0.  0.
        1    1    3    3  502    0  0.38723283568E+02 -0.42121876156E+03 -0.19723314984E+03  0.46671795894E+03  0.50400001928E-02 0.  1.
       -1    1    3    3    0  502 -0.38723283568E+02  0.42121876156E+03 -0.10385124806E+04  0.11213531603E+04  0.50400001928E-02 0. -1.
</event>
<event>
 5   0  0.3608845E-03  0.9959921E+03  0.7818609E-02  0.9312951E-01
       -1   -1    0    0    0  501  0.00000000000E+00  0.00000000000E+00  0.14348394958E+03  0.14348394967E+03  0.50400001928E-02 0. -1.
        1   -1    0    0  501    0  0.00000000000E+00  0.00000000000E+00 -0.17284169124E+04  0.17284169124E+04  0.50400001928E-02 0.  1.
    10030    2    1    2    0    0  0.00000000000E+00  0.00000000000E+00 -0.15849329628E+04  0.18719008621E+04  0.99599213893E+03 0.  0.
        1    1    3    3  502    0 -0.26327846552E+03 -0.31926120190E+03 -0.27176906863E+03  0.49507746074E+03  0.50400001928E-02 0. -1.
       -1    1    3    3    0  502  0.26327846552E+03  0.31926120190E+03 -0.13131638942E+04  0.13768234013E+04  0.50400001928E-02 0.  1.
</event>
<event>
 5   0  0.3466598E-03  0.1003099E+04  0.7818609E-02  0.9305153E-01
       -1   -1    0    0    0  501  0.00000000000E+00  0.00000000000E+00  0.33399799084E+03  0.33399799087E+03  0.50400001928E-02 0. -1.
        1   -1    0    0  501    0  0.00000000000E+00  0.00000000000E+00 -0.75315333741E+03  0.75315333743E+03  0.50400001928E-02 0.  1.
    10030    2    1    2    0    0  0.00000000000E+00  0.00000000000E+00 -0.41915534657E+03  0.10871513283E+04  0.10030986024E+04 0.  0.
        3    1    3    3  502    0 -0.90874153652E+02 -0.12220329892E+03 -0.72749009722E+03  0.74325877716E+03  0.10100000352E+00 0.  1.
       -3    1    3    3    0  502  0.90874153652E+02  0.12220329892E+03  0.30833475065E+03  0.34389255114E+03  0.10100000352E+00 0. -1.
</event>
<event>
 5   0  0.6360455E-03  0.9984712E+03  0.7818609E-02  0.9310223E-01
        2   -1    0    0  501    0  0.00000000000E+00  0.00000000000E+00  0.77048548093E+03  0.77048548093E+03  0.25500000920E-02 0. -1.
       -2   -1    0    0    0  501  0.00000000000E+00  0.00000000000E+00 -0.32347938096E+03  0.32347938097E+03  0.25500000920E-02 0.  1.
    10030    2    1    2    0    0  0.00000000000E+00  0.00000000000E+00  0.44700609997E+03  0.10939648619E+04  0.99847116416E+03 0.  0.
        4    1    3    3  502    0  0.24430184834E+03 -0.47228314027E+02  0.69770208956E+03  0.74074538502E+03  0.12699999809E+01 0. -1.
       -4    1    3    3    0  502 -0.24430184834E+03  0.47228314027E+02 -0.25069598959E+03  0.35321947688E+03  0.12699999809E+01 0.  1.
</event>
<event>
 5   0  0.6606947E-03  0.1011611E+04  0.7818609E-02  0.9295901E-01
        2   -1    0    0  501    0  0.00000000000E+00  0.00000000000E+00  0.19767516938E+04  0.19767516938E+04  0.25500000920E-02 0. -1.
       -2   -1    0    0    0  501  0.00000000000E+00  0.00000000000E+00 -0.12942398494E+03  0.12942398497E+03  0.25500000920E-02 0.  1.
    10030    2    1    2    0    0  0.00000000000E+00  0.00000000000E+00  0.18473277088E+04  0.21061756787E+04  0.10116107581E+04 0.  0.
        1    1    3    3  502    0  0.15190875742E+03  0.48102360004E+03  0.84634593701E+03  0.98527225653E+03  0.50400001928E-02 0. -1.
       -1    1    3    3    0  502 -0.15190875742E+03 -0.48102360004E+03  0.10009817718E+04  0.11209034222E+04  0.50400001928E-02 0.  1.
</event>
<event>
 5   0  0.2417750E-03  0.1009584E+04  0.7818609E-02  0.9298095E-01
        4   -1    0    0  501    0  0.00000000000E+00  0.00000000000E+00  0.12289070960E+04  0.12289077522E+04  0.12699999809E+01 0.  1.
       -4   -1    0    0    0  501  0.00000000000E+00  0.00000000000E+00 -0.20734837035E+03  0.20735225966E+03  0.12699999809E+01 0. -1.
    10030    2    1    2    0    0  0.00000000000E+00  0.00000000000E+00  0.10215587256E+04  0.14362600119E+04  0.10095843659E+04 0.  0.
        1    1    3    3  502    0 -0.22963064117E+03 -0.25906356786E+03 -0.11870282645E+02  0.34638860719E+03  0.50400001928E-02 0. -1.
       -1    1    3    3    0  502  0.22963064117E+03  0.25906356786E+03  0.10334290083E+04  0.10898714047E+04  0.50400001928E-02 0.  1.
</event>
<event>
 5   0  0.3643002E-03  0.9991940E+03  0.7818609E-02  0.9309429E-01
       -1   -1    0    0    0  501  0.00000000000E+00  0.00000000000E+00  0.21239596313E+03  0.21239596319E+03  0.50400001928E-02 0. -1.
        1   -1    0    0  501    0  0.00000000000E+00  0.00000000000E+00 -0.11751502734E+04  0.11751502734E+04  0.50400001928E-02 0.  1.
    10030    2    1    2    0    0  0.00000000000E+00  0.00000000000E+00 -0.96275431023E+03  0.13875462365E+04  0.99919402355E+03 0.  0.
        2    1    3    3  502    0 -0.16566515918E+03  0.46066720517E+01 -0.11358659710E+04  0.11478927086E+04  0.25500000920E-02 0.  1.
       -2    1    3    3    0  502  0.16566515918E+03 -0.46066720517E+01  0.17311166072E+03  0.23965352799E+03  0.25500000920E-02 0. -1.
</event>
<event>
 5   0  0.3640180E-03  0.9810170E+03  0.7818609E-02  0.9329614E-01
        1   -1    0    0  501    0  0.00000000000E+00  0.00000000000E+00  0.29554683168E+03  0.29554683172E+03  0.50400001928E-02 0. -1.
       -1   -1    0    0    0  501  0.00000000000E+00  0.00000000000E+00 -0.81407939520E+03  0.81407939522E+03  0.50400001928E-02 0.  1.
    10030    2    1    2    0    0  0.00000000000E+00  0.00000000000E+00 -0.51853256353E+03  0.11096262269E+04  0.98101699479E+03 0.  0.
        5    1    3    3  502    0  0.42832539790E+03 -0.59558838342E+01  0.10965229373E+02  0.42853289873E+03  0.46999998093E+01 0. -1.
       -5    1    3    3    0  502 -0.42832539790E+03  0.59558838342E+01 -0.52949779290E+03  0.68109332820E+03  0.46999998093E+01 0.  1.
</event>
<event>
 5   0  0.6360455E-03  0.9959440E+03  0.7818609E-02  0.9313005E-01
       -2   -1    0    0    0  501  0.00000000000E+00  0.00000000000E+00  0.16630119988E+03  0.16630119990E+03  0.25500000920E-02 0.  1.
        2   -1    0    0  501    0  0.00000000000E+00  0.00000000000E+00 -0.14911262868E+04  0.14911262868E+04  0.25500000920E-02 0. -1.
    10030    2    1    2    0    0  0.00000000000E+00  0.00000000000E+00 -0.13248250869E+04  0.16574274867E+04  0.99594395561E+03 0.  0.
        4    1    3    3  502    0 -0.25430921053E+03  0.31099558543E+03 -0.17272836257E+03  0.43729638559E+03  0.12699999809E+01 0.  1.
       -4    1    3    3    0  502  0.25430921053E+03 -0.31099558543E+03 -0.11520967243E+04  0.12201311011E+04  0.12699999809E+01 0. -1.
</event>
<event>
 5   0  0.3466598E-03  0.9956945E+03  0.7818609E-02  0.9313280E-01
        1   -1    0    0  501    0  0.00000000000E+00  0.00000000000E+00  0.49261769626E+03  0.49261769629E+03  0.50400001928E-02 0. -1.
       -1   -1    0    0    0  501  0.00000000000E+00  0.00000000000E+00 -0.50313230439E+03  0.50313230442E+03  0.50400001928E-02 0.  1.
    10030    2    1    2    0    0  0.00000000000E+00  0.00000000000E+00 -0.10514608131E+02  0.99575000070E+03  0.99569448473E+03 0.  0.
        3    1    3    3  502    0  0.30906667970E+03 -0.32647048521E+03  0.20863934798E+03  0.49561636166E+03  0.10100000352E+00 0. -1.
       -3    1    3    3    0  502 -0.30906667970E+03  0.32647048521E+03 -0.21915395611E+03  0.50013363904E+03  0.10100000352E+00 0.  1.
</event>
<event>
 5   0  0.6360455E-03  0.1002794E+04  0.7818609E-02  0.9305486E-01
        2   -1    0    0  501    0  0.00000000000E+00  0.00000000000E+00  0.22332876486E+03  0.22332876488E+03  0.25500000920E-02 0. -1.
       -2   -1    0    0    0  501  0.00000000000E+00  0.00000000000E+00 -0.11256898189E+04  0.11256898189E+04  0.25500000920E-02 0.  1.
    10030    2    1    2    0    0  0.00000000000E+00  0.00000000000E+00 -0.90236105400E+03  0.13490185837E+04  0.10027939307E+04 0.  0.
        4    1    3    3  502    0 -0.18208198315E+03  0.21306165775E+03 -0.10104725793E+04  0.10486207918E+04  0.12699999809E+01 0.  1.
       -4    1    3    3    0  502  0.18208198315E+03 -0.21306165775E+03  0.10811152531E+03  0.30039779193E+03  0.12699999809E+01 0. -1.
</event>
<event>
 5   0  0.3608845E-03  0.9965819E+03  0.7818609E-02  0.9312302E-01
       -1   -1    0    0    0  501  0.00000000000E+00  0.00000000000E+00  0.28359268411E+03  0.28359268415E+03  0.50400001928E-02 0. -1.
        1   -1    0    0  501    0  0.00000000000E+00  0.00000000000E+00 -0.87552986155E+03  0.87552986157E+03  0.50400001928E-02 0.  1.
    10030    2    1    2    0    0  0.00000000000E+00  0.00000000000E+00 -0.59193717745E+03  0.11591225457E+04  0.99658188522E+03 0.  0.
        1    1    3    3  502    0 -0.29875732481E+03  0.13914430013E+03 -0.73065742257E+03  0.80154684490E+03  0.50400001928E-02 0.  1.
       -1    1    3    3    0  502  0.29875732481E+03 -0.13914430013E+03  0.13872024512E+03  0.35757570082E+03  0.50400001928E-02 0. -1.
</event>
<event>
 5   0  0.3608845E-03  0.9970708E+03  0.7818609E-02  0.9311763E-01
       -1   -1    0    0    0  501  0.00000000000E+00  0.00000000000E+00  0.20410196961E+03  0.20410196967E+03  0.50400001928E-02 0. -1.
        1   -1    0    0  501    0  0.00000000000E+00  0.00000000000E+00 -0.12177125765E+04  0.12177125765E+04  0.50400001928E-02 0.  1.
    10030    2    1    2    0    0  0.00000000000E+00  0.00000000000E+00 -0.10136106069E+04  0.14218145462E+04  0.99707078051E+03 0.  0.
        1    1    3    3  502    0 -0.33040206986E+03  0.20957809567E+03 -0.66247678777E+02  0.39683404708E+03  0.50400001928E-02 0. -1.
       -1    1    3    3    0  502  0.33040206986E+03 -0.20957809567E+03 -0.94736292813E+03  0.10249804991E+04  0.50400001928E-02 0.  1.
</event>
<event>
 5   0  0.6360455E-03  0.9961158E+03  0.7818609E-02  0.9312815E-01
       -2   -1    0    0    0  501  0.00000000000E+00  0.00000000000E+00  0.36357090515E+03  0.36357090515E+03  0.25500000920E-02 0. -1.
        2   -1    0    0  501    0  0.00000000000E+00  0.00000000000E+00 -0.68229248262E+03  0.68229248263E+03  0.25500000920E-02 0.  1.
    10030    2    1    2    0    0  0.00000000000E+00  0.00000000000E+00 -0.31872157748E+03  0.10458633878E+04  0.99611584766E+03 0.  0.
        4    1    3    3  502    0 -0.20969798914E+03  0.23053368899E+03 -0.56727496619E+03  0.64724147625E+03  0.12699999809E+01 0.  1.
       -4    1    3    3    0  502  0.20969798914E+03 -0.23053368899E+03  0.24855338871E+03  0.39862191153E+03  0.12699999809E+01 0. -1.
</event>
<event>
 5   0  0.6606947E-03  0.1000551E+04  0.7818609E-02  0.9307941E-01
        2   -1    0    0  501    0  0.00000000000E+00  0.00000000000E+00  0.12381642348E+04  0.12381642348E+04  0.25500000920E-02 0.  1.
       -2   -1    0    0    0  501  0.00000000000E+00  0.00000000000E+00 -0.20213424448E+03  0.20213424450E+03  0.25500000920E-02 0. -1.
    10030    2    1    2    0    0  0.00000000000E+00  0.00000000000E+00  0.10360299903E+04  0.14402984793E+04  0.10005506327E+04 0.  0.
        1    1    3    3  502    0  0.38304266521E+03  0.62006208171E+02  0.97256375634E+03  0.10471135150E+04  0.50400001928E-02 0.  1.
       -1    1    3    3    0  502 -0.38304266521E+03 -0.62006208171E+02  0.63466233955E+02  0.39318496423E+03  0.50400001928E-02 0. -1.
</event>
<event>
 5   0  0.6199539E-03  0.1034379E+04  0.7818609E-02  0.9271622E-01
        2   -1    0    0  501    0  0.00000000000E+00  0.00000000000E+00  0.62904032814E+03  0.62904032815E+03  0.25500000920E-02 0.  1.
       -2   -1    0    0    0  501  0.00000000000E+00  0.00000000000E+00 -0.42522698827E+03  0.42522698828E+03  0.25500000920E-02 0. -1.
    10030    2    1    2    0    0  0.00000000000E+00  0.00000000000E+00  0.20381333988E+03  0.10542673164E+04  0.10343788943E+04 0.  0.
        2    1    3    3  502    0 -0.43717689465E+03 -0.11026758724E+03 -0.15634702402E+03  0.47720747054E+03  0.25500000920E-02 0. -1.
       -2    1    3    3    0  502  0.43717689465E+03  0.11026758724E+03  0.36016036390E+03  0.57705984589E+03  0.25500000920E-02 0.  1.
</event>
<event>
 5   0  0.6360455E-03  0.9863940E+03  0.7818609E-02  0.9323595E-01
       -2   -1    0    0    0  501  0.00000000000E+00  0.00000000000E+00  0.35629815187E+03  0.35629815188E+03  0.25500000920E-02 0.  1.
        2   -1    0    0  501    0  0.00000000000E+00  0.00000000000E+00 -0.68269592424E+03  0.68269592425E+03  0.25500000920E-02 0. -1.
    10030    2    1    2    0    0  0.00000000000E+00  0.00000000000E+00 -0.32639777237E+03  0.10389940761E+04  0.98639403102E+03 0.  0.
        4    1    3    3  502    0  0.22750856587E+00 -0.35760553564E+03  0.19455972383E+03  0.40710793399E+03  0.12699999809E+01 0.  1.
       -4    1    3    3    0  502 -0.22750856587E+00  0.35760553564E+03 -0.52095749620E+03  0.63188614214E+03  0.12699999809E+01 0. -1.
</event>
<event>
 5   0  0.3608845E-03  0.9336659E+03  0.7818609E-02  0.9384449E-01
        1   -1    0    0  501    0  0.00000000000E+00  0.00000000000E+00  0.19902781703E+04  0.19902781703E+04  0.50400001928E-02 0.  1.
       -1   -1    0    0    0  501  0.00000000000E+00  0.00000000000E+00 -0.10949876971E+03  0.10949876983E+03  0.50400001928E-02 0. -1.
    10030    2    1    2    0    0  0.00000000000E+00  0.00000000000E+00  0.18807794005E+04  0.20997769401E+04  0.93366591704E+03 0.  0.
        1    1    3    3  502    0  0.81390385744E+02  0.10555704929E+03 -0.65793739053E+02  0.14864555718E+03  0.50400001928E-02 0. -1.
       -1    1    3    3    0  502 -0.81390385744E+02 -0.10555704929E+03  0.19465731396E+04  0.19511313829E+04  0.50400001928E-02 0.  1.
</event>
<event>
 5   0  0.3466598E-03  0.1009500E+04  0.7818609E-02  0.9298186E-01
       -1   -1    0    0    0  501  0.00000000000E+00  0.00000000000E+00  0.17645601693E+03  0.17645601701E+03  0.50400001928E-02 0. -1.
        1   -1    0    0  501    0  0.00000000000E+00  0.00000000000E+00 -0.14438304448E+04  0.14438304448E+04  0.50400001928E-02 0.  1.
    10030    2    1    2    0    0  0.00000000000E+00  0.00000000000E+00 -0.12673744278E+04  0.16202864618E+04  0.10095000138E+04 0.  0.
        3    1    3    3  502    0  0.19926873272E+03  0.46357085457E+03 -0.65440366936E+03  0.82634746791E+03  0.10100000352E+00 0. -1.
       -3    1    3    3    0  502 -0.19926873272E+03 -0.46357085457E+03 -0.61297075846E+03  0.79393899386E+03  0.10100000352E+00 0.  1.
</event>
<event>
 5   0  0.6199539E-03  0.9996941E+03  0.7818609E-02  0.9308880E-01
        2   -1    0    0  501    0  0.00000000000E+00  0.00000000000E+00  0.39695716142E+03  0.39695716142E+03  0.25500000920E-02 0.  1.
       -2   -1    0    0    0  501  0.00000000000E+00  0.00000000000E+00 -0.62940568262E+03  0.62940568263E+03  0.25500000920E-02 0. -1.
    10030    2    1    2    0    0  0.00000000000E+00  0.00000000000E+00 -0.23244852120E+03  0.10263628441E+04  0.99969413954E+03 0.  0.
        2    1    3    3  502    0 -0.45338997728E+03 -0.83346952267E+02 -0.31460922840E+03  0.55811123672E+03  0.25500000920E-02 0. -1.
       -2    1    3    3    0  502  0.45338997728E+03  0.83346952267E+02  0.82160707200E+02  0.46825160733E+03  0.25500000920E-02 0.  1.
</event>
<event>
 5   0  0.2417750E-03  0.9976569E+03  0.7818609E-02  0.9311118E-01
        3   -1    0    0  501    0  0.00000000000E+00  0.00000000000E+00  0.21357924379E+03  0.21357926767E+03  0.10100000352E+00 0.  1.
       -3   -1    0    0    0  501  0.00000000000E+00  0.00000000000E+00 -0.11650468406E+04  0.11650468450E+04  0.10100000352E+00 0. -1.
    10030    2    1    2    0    0  0.00000000000E+00  0.00000000000E+00 -0.95146759681E+03  0.13786261127E+04  0.99765694039E+03 0.  0.
        5    1    3    3  502    0 -0.13597534170E+03 -0.24019886145E+03  0.98401910922E+02  0.29306963791E+03  0.46999998093E+01 0.  1.
       -5    1    3    3    0  502  0.13597534170E+03  0.24019886145E+03 -0.10498695077E+04  0.10855564747E+04  0.46999998093E+01 0. -1.
</event>
<event>
 5   0  0.3643002E-03  0.9031225E+03  0.7818609E-02  0.9421687E-01
        1   -1    0    0  501    0  0.00000000000E+00  0.00000000000E+00  0.86247838200E+03  0.86247838202E+03  0.50400001928E-02 0. -1.
       -1   -1    0    0    0  501  0.00000000000E+00  0.00000000000E+00 -0.23642048697E+03  0.23642048703E+03  0.50400001928E-02 0.  1.
    10030    2    1    2    0    0  0.00000000000E+00  0.00000000000E+00  0.62605789503E+03  0.10988988690E+04  0.90312249250E+03 0.  0.
        2    1    3    3  502    0 -0.18474989334E+02 -0.17231749142E+03 -0.19434368363E+03  0.26039222426E+03  0.25500000920E-02 0.  1.
       -2    1    3    3    0  502  0.18474989334E+02  0.17231749142E+03  0.82040157866E+03  0.83850664479E+03  0.25500000920E-02 0. -1.
</event>
<event>
 5   0  0.3569359E-03  0.1015406E+04  0.7818609E-02  0.9291808E-01
       -1   -1    0    0    0  501  0.00000000000E+00  0.00000000000E+00  0.41010180186E+03  0.41010180189E+03  0.50400001928E-02 0. -1.
        1   -1    0    0  501    0  0.00000000000E+00  0.00000000000E+00 -0.62853199100E+03  0.62853199102E+03  0.50400001928E-02 0.  1.
    10030    2    1    2    0    0  0.00000000000E+00  0.00000000000E+00 -0.21843018914E+03  0.10386337929E+04  0.10154055388E+04 0.  0.
        4    1    3    3  502    0 -0.29587557546E+03 -0.70672590868E+02  0.30656036573E+03  0.43187711446E+03  0.12699999809E+01 0. -1.
       -4    1    3    3    0  502  0.29587557546E+03  0.70672590868E+02 -0.52499055487E+03  0.60675667846E+03  0.12699999809E+01 0.  1.
</event>
<event>
 5   0  0.3569359E-03  0.9814883E+03  0.7818609E-02  0.9329084E-01
       -1   -1    0    0    0  501  0.00000000000E+00  0.00000000000E+00  0.71041666945E+03  0.71041666947E+03  0.50400001928E-02 0. -1.
        1   -1    0    0  501    0  0.00000000000E+00  0.00000000000E+00 -0.33899801879E+03  0.33899801883E+03  0.50400001928E-02 0.  1.
    10030    2    1    2    0    0  0.00000000000E+00  0.00000000000E+00  0.37141865066E+03  0.10494146883E+04  0.98148834631E+03 0.  0.
        4    1    3    3  502    0  0.31535116662E+03  0.21681994248E+03  0.51416837715E+03  0.64095864040E+03  0.12699999809E+01 0. -1.
       -4    1    3    3    0  502 -0.31535116662E+03 -0.21681994248E+03 -0.14274972649E+03  0.40845604789E+03  0.12699999809E+01 0.  1.
</event>
<event>
 5   0  0.6199539E-03  0.1006252E+04  0.7818609E-02  0.9301714E-01
        2   -1    0    0  501    0  0.00000000000E+00  0.00000000000E+00  0.48198878520E+03  0.48198878520E+03  0.25500000920E-02 0.  1.
       -2   -1    0    0    0  501  0.00000000000E+00  0.00000000000E+00 -0.52519018868E+03  0.52519018869E+03  0.25500000920E-02 0. -1.
    10030    2    1    2    0    0  0.00000000000E+00  0.00000000000E+00 -0.43201403484E+02  0.10071789739E+04  0.10062520182E+04 0.  0.
        2    1    3    3  502    0 -0.26129438094E+03  0.20062240594E+03  0.35902803072E+03  0.48726299893E+03  0.25500000920E-02 0.  1.
       -2    1    3    3    0  502  0.26129438094E+03 -0.20062240594E+03 -0.40222943420E+03  0.51991597496E+03  0.25500000920E-02 0. -1.
</event>
<event>
 5   0  0.3608845E-03  0.1014190E+04  0.7818609E-02  0.9293117E-01
        1   -1    0    0  501    0  0.00000000000E+00  0.00000000000E+00  0.78929648866E+03  0.78929648867E+03  0.50400001928E-02 0. -1.
       -1   -1    0    0    0  501  0.00000000000E+00  0.00000000000E+00 -0.32579023332E+03  0.32579023336E+03  0.50400001928E-02 0.  1.
    10030    2    1    2    0    0  0.00000000000E+00  0.00000000000E+00  0.46350625534E+03  0.11150867220E+04  0.10141895035E+04 0.  0.
        1    1    3    3  502    0  0.98394606798E+01 -0.47124161911E+03  0.26118141593E+02  0.47206740612E+03  0.50400001928E-02 0.  1.
       -1    1    3    3    0  502 -0.98394606798E+01  0.47124161911E+03  0.43738811375E+03  0.64301931592E+03  0.50400001928E-02 0. -1.
</event>
<event>
 5   0  0.6199539E-03  0.1014039E+04  0.7818609E-02  0.9293280E-01
       -2   -1    0    0    0  501  0.00000000000E+00  0.00000000000E+00  0.17494627392E+03  0.17494627394E+03  0.25500000920E-02 0.  1.
        2   -1    0    0  501    0  0.00000000000E+00  0.00000000000E+00 -0.14694155846E+04  0.14694155846E+04  0.25500000920E-02 0. -1.
    10030    2    1    2    0    0  0.00000000000E+00  0.00000000000E+00 -0.12944693107E+04  0.16443618585E+04  0.10140390158E+04 0.  0.
        2    1    3    3  502    0 -0.15367196835E+03 -0.16599301555E+03  0.88584230840E+02  0.24293192674E+03  0.25500000920E-02 0.  1.
       -2    1    3    3    0  502  0.15367196835E+03  0.16599301555E+03 -0.13830535415E+04  0.14014299318E+04  0.25500000920E-02 0. -1.
</event>
<event>
 5   0  0.6199539E-03  0.1001313E+04  0.7818609E-02  0.9307106E-01
        2   -1    0    0  501    0  0.00000000000E+00  0.00000000000E+00  0.13258704998E+04  0.13258704998E+04  0.25500000920E-02 0.  1.
       -2   -1    0    0    0  501  0.00000000000E+00  0.00000000000E+00 -0.18905096472E+03  0.18905096474E+03  0.25500000920E-02 0. -1.
    10030    2    1    2    0    0  0.00000000000E+00  0.00000000000E+00  0.11368195351E+04  0.15149214645E+04  0.10013133318E+04 0.  0.
        2    1    3    3  502    0 -0.76940484162E+01 -0.16744666903E+03 -0.14533543223E+03  0.22185574867E+03  0.25500000920E-02 0. -1.
       -2    1    3    3    0  502  0.76940484162E+01  0.16744666903E+03  0.12821549673E+04  0.12930657159E+04  0.25500000920E-02 0.  1.
</event>
<event>
 5   0  0.6199539E-03  0.1002136E+04  0.7818609E-02  0.9306205E-01
        2   -1    0    0  501    0  0.00000000000E+00  0.00000000000E+00  0.15634899541E+04  0.15634899541E+04  0.25500000920E-02 0.  1.
       -2   -1    0    0    0  501  0.00000000000E+00  0.00000000000E+00 -0.16058260795E+03  0.16058260797E+03  0.25500000920E-02 0. -1.
    10030    2    1    2    0    0  0.00000000000E+00  0.00000000000E+00  0.14029073461E+04  0.17240725620E+04  0.10021363068E+04 0.  0.
        2    1    3    3  502    0 -0.24026194433E+03 -0.43955460620E+03  0.72146068829E+03  0.87831633167E+03  0.25500000920E-02 0. -1.
       -2    1    3    3    0  502  0.24026194433E+03  0.43955460620E+03  0.68144665782E+03  0.84575623035E+03  0.25500000920E-02 0.  1.
</event>
<event>
 5   0  0.6606947E-03  0.9991364E+03  0.7818609E-02  0.9309492E-01
       -2   -1    0    0    0  501  0.00000000000E+00  0.00000000000E+00  0.45115963074E+03  0.45115963075E+03  0.25500000920E-02 0. -1.
        2   -1    0    0  501    0  0.00000000000E+00  0.00000000000E+00 -0.55317094995E+03  0.55317094996E+03  0.25500000920E-02 0.  1.
    10030    2    1    2    0    0  0.00000000000E+00  0.00000000000E+00 -0.10201131921E+03  0.10043305807E+04  0.99913643017E+03 0.  0.
        1    1    3    3  502    0  0.57985713404E+02  0.14341257787E+03  0.42647839230E+03  0.45366654007E+03  0.50400001928E-02 0. -1.
       -1    1    3    3    0  502 -0.57985713404E+02 -0.14341257787E+03 -0.52848971151E+03  0.55066404064E+03  0.50400001928E-02 0.  1.
</event>
<event>
 5   0  0.3643002E-03  0.1004732E+04  0.7818609E-02  0.9303370E-01
        1   -1    0    0  501    0  0.00000000000E+00  0.00000000000E+00  0.85604478368E+03  0.85604478370E+03  0.50400001928E-02 0.  1.
       -1   -1    0    0    0  501  0.00000000000E+00  0.00000000000E+00 -0.29481111679E+03  0.29481111683E+03  0.50400001928E-02 0. -1.
    10030    2    1    2    0    0  0.00000000000E+00  0.00000000000E+00  0.56123366690E+03  0.11508559005E+04  0.10047318423E+04 0.  0.
        2    1    3    3  502    0 -0.30176935101E+03  0.32214953370E+03  0.58877798301E+01  0.44145184249E+03  0.25500000920E-02 0. -1.
       -2    1    3    3    0  502  0.30176935101E+03 -0.32214953370E+03  0.55534588707E+03  0.70940405804E+03  0.25500000920E-02 0.  1.
</event>
<event>
 5   0  0.6360455E-03  0.1003932E+04  0.7818609E-02  0.9304242E-01
       -2   -1    0    0    0  501  0.00000000000E+00  0.00000000000E+00  0.21782774534E+03  0.21782774535E+03  0.25500000920E-02 0.  1.
        2   -1    0    0  501    0  0.00000000000E+00  0.00000000000E+00 -0.11567401507E+04  0.11567401507E+04  0.25500000920E-02 0. -1.
    10030    2    1    2    0    0  0.00000000000E+00  0.00000000000E+00 -0.93891240540E+03  0.13745678961E+04  0.10039324658E+04 0.  0.
        4    1    3    3  502    0  0.38607730305E+03 -0.85451337449E+02 -0.89282157642E+03  0.97646791817E+03  0.12699999809E+01 0. -1.
       -4    1    3    3    0  502 -0.38607730305E+03  0.85451337449E+02 -0.46090828977E+02  0.39809997791E+03  0.12699999809E+01 0.  1.
</event>
<event>
 5   0  0.6022787E-03  0.1002019E+04  0.7818609E-02  0.9306333E-01
        2   -1    0    0  501    0  0.00000000000E+00  0.00000000000E+00  0.62245742121E+03  0.62245742121E+03  0.25500000920E-02 0. -1.
       -2   -1    0    0    0  501  0.00000000000E+00  0.00000000000E+00 -0.40325756667E+03  0.40325756668E+03  0.25500000920E-02 0.  1.
    10030    2    1    2    0    0  0.00000000000E+00  0.00000000000E+00  0.21919985454E+03  0.10257149879E+04  0.10020192913E+04 0.  0.
        5    1    3    3  502    0 -0.32706098161E+03  0.15593179551E+03 -0.24456593677E+03  0.43717067373E+03  0.46999998093E+01 0.  1.
       -5    1    3    3    0  502  0.32706098161E+03 -0.15593179551E+03  0.46376579131E+03  0.58854431416E+03  0.46999998093E+01 0. -1.
</event>
<event>
 5   0  0.3466598E-03  0.9990005E+03  0.7818609E-02  0.9309642E-01
        1   -1    0    0  501    0  0.00000000000E+00  0.00000000000E+00  0.62520741886E+03  0.62520741888E+03  0.50400001928E-02 0.  1.
       -1   -1    0    0    0  501  0.00000000000E+00  0.00000000000E+00 -0.39906838130E+03  0.39906838133E+03  0.50400001928E-02 0. -1.
    10030    2    1    2    0    0  0.00000000000E+00  0.00000000000E+00  0.22613903757E+03  0.10242758002E+04  0.99900052582E+03 0.  0.
        3    1    3    3  502    0 -0.23069105282E+03  0.12179335569E+03 -0.32367544860E+03  0.41571359079E+03  0.10100000352E+00 0. -1.
       -3    1    3    3    0  502  0.23069105282E+03 -0.12179335569E+03  0.54981448616E+03  0.60856220942E+03  0.10100000352E+00 0.  1.
</event>
<event>
 5   0  0.6022787E-03  0.9957913E+03  0.7818609E-02  0.9313173E-01
        2   -1    0    0  501    0  0.00000000000E+00  0.00000000000E+00  0.21878226970E+03  0.21878226971E+03  0.25500000920E-02 0. -1.
       -2   -1    0    0    0  501  0.00000000000E+00  0.00000000000E+00 -0.11330903945E+04  0.11330903945E+04  0.25500000920E-02 0.  1.
    10030    2    1    2    0    0  0.00000000000E+00  0.00000000000E+00 -0.91430812477E+03  0.13518726642E+04  0.99579132008E+03 0.  0.
        5    1    3    3  502    0  0.12923591466E+03  0.40911345533E+02 -0.11075248223E+04  0.11157997051E+04  0.46999998093E+01 0.  1.
       -5    1    3    3    0  502 -0.12923591466E+03 -0.40911345533E+02  0.19321669752E+03  0.23607295912E+03  0.46999998093E+01 0. -1.
</event>
<event>
 5   0  0.3640180E-03  0.9951589E+03  0.7818609E-02  0.9313870E-01
       -1   -1    0    0    0  501  0.00000000000E+00  0.00000000000E+00  0.59854642937E+03  0.59854642939E+03  0.50400001928E-02 0.  1.
        1   -1    0    0  501    0  0.00000000000E+00  0.00000000000E+00 -0.41364426065E+03  0.41364426068E+03  0.50400001928E-02 0. -1.
    10030    2    1    2    0    0  0.00000000000E+00  0.00000000000E+00  0.18490216872E+03  0.10121906901E+04  0.99515887228E+03 0.  0.
        5    1    3    3  502    0  0.17083305516E+03 -0.30717110874E+03 -0.26574831767E+03  0.44066118632E+03  0.46999998093E+01 0. -1.
       -5    1    3    3    0  502 -0.17083305516E+03  0.30717110874E+03  0.45065048639E+03  0.57152950376E+03  0.46999998093E+01 0.  1.
</event>
<event>
 5   0  0.6022787E-03  0.9894600E+03  0.7818609E-02  0.9320181E-01
       -2   -1    0    0    0  501  0.00000000000E+00  0.00000000000E+00  0.48625423297E+03  0.48625423297E+03  0.25500000920E-02 0. -1.
        2   -1    0    0  501    0  0.00000000000E+00  0.00000000000E+00 -0.50335347149E+03  0.50335347150E+03  0.25500000920E-02 0.  1.
    10030    2    1    2    0    0  0.00000000000E+00  0.00000000000E+00 -0.17099238521E+02  0.98960770447E+03  0.98945996624E+03 0.  0.
        5    1    3    3  502    0 -0.32226845399E+03  0.14080260253E+03  0.33942953099E+03  0.48879118836E+03  0.46999998093E+01 0. -1.
       -5    1    3    3    0  502  0.32226845399E+03 -0.14080260253E+03 -0.35652876951E+03  0.50081651611E+03  0.46999998093E+01 0.  1.
</event>
<event>
 5   0  0.6199539E-03  0.1018076E+04  0.7818609E-02  0.9288938E-01
       -2   -1    0    0    0  501  0.00000000000E+00  0.00000000000E+00  0.71795338232E+03  0.71795338232E+03  0.25500000920E-02 0.  1.
        2   -1    0    0  501    0  0.00000000000E+00  0.00000000000E+00 -0.36091447225E+03  0.36091447226E+03  0.25500000920E-02 0. -1.
    10030    2    1    2    0    0  0.00000000000E+00  0.00000000000E+00  0.35703891007E+03  0.10788678546E+04  0.10180761584E+04 0.  0.
        2    1    3    3  502    0 -0.17061311559E+03 -0.42053891209E+03  0.42284682259E+03  0.62029125995E+03  0.25500000920E-02 0.  1.
       -2    1    3    3    0  502  0.17061311559E+03  0.42053891209E+03 -0.65807912518E+02  0.45857659463E+03  0.25500000920E-02 0. -1.
</event>
<event>
 5   0  0.3608845E-03  0.1001411E+04  0.7818609E-02  0.9306999E-01
       -1   -1    0    0    0  501  0.00000000000E+00  0.00000000000E+00  0.25290667905E+03  0.25290667910E+03  0.50400001928E-02 0.  1.
        1   -1    0    0  501    0  0.00000000000E+00  0.00000000000E+00 -0.99129769117E+03  0.99129769118E+03  0.50400001928E-02 0. -1.
    10030    2    1    2    0    0  0.00000000000E+00  0.00000000000E+00 -0.73839101212E+03  0.12442043703E+04  0.10014106192E+04 0.  0.
        1    1    3    3  502    0  0.22869436750E+03 -0.43689412779E+03 -0.47699718381E+03  0.68607864419E+03  0.50400001928E-02 0.  1.
       -1    1    3    3    0  502 -0.22869436750E+03  0.43689412779E+03 -0.26139382831E+03  0.55812572609E+03  0.50400001928E-02 0. -1.
</event>
<event>
 5   0  0.3466598E-03  0.1002558E+04  0.7818609E-02  0.9305743E-01
        1   -1    0    0  501    0  0.00000000000E+00  0.00000000000E+00  0.18717039707E+04  0.18717039707E+04  0.50400001928E-02 0.  1.
       -1   -1    0    0    0  501  0.00000000000E+00  0.00000000000E+00 -0.13425243316E+03  0.13425243325E+03  0.50400001928E-02 0. -1.
    10030    2    1    2    0    0  0.00000000000E+00  0.00000000000E+00  0.17374515375E+04  0.20059564039E+04  0.10025583520E+04 0.  0.
        3    1    3    3  502    0  0.35514471850E+02 -0.86567076706E+02 -0.11662459990E+03  0.14952071423E+03  0.10100000352E+00 0. -1.
       -3    1    3    3    0  502 -0.35514471850E+02  0.86567076706E+02  0.18540761374E+04  0.18564356897E+04  0.10100000352E+00 0.  1.
</event>
<event>
 5   0  0.6360455E-03  0.1002058E+04  0.7818609E-02  0.9306290E-01
       -2   -1    0    0    0  501  0.00000000000E+00  0.00000000000E+00  0.25389383224E+03  0.25389383225E+03  0.25500000920E-02 0.  1.
        2   -1    0    0  501    0  0.00000000000E+00  0.00000000000E+00 -0.98872080948E+03  0.98872080949E+03  0.25500000920E-02 0. -1.
    10030    2    1    2    0    0  0.00000000000E+00  0.00000000000E+00 -0.73482697724E+03  0.12426146417E+04  0.10020581128E+04 0.  0.
        4    1    3    3  502    0 -0.22298175460E+03  0.43989673362E+03 -0.47692233109E+03  0.68606597491E+03  0.12699999809E+01 0. -1.
       -4    1    3    3    0  502  0.22298175460E+03 -0.43989673362E+03 -0.25790464616E+03  0.55654866683E+03  0.12699999809E+01 0.  1.
</event>
<event>
 5   0  0.6360455E-03  0.1003506E+04  0.7818609E-02  0.9304707E-01
       -2   -1    0    0    0  501  0.00000000000E+00  0.00000000000E+00  0.19283053044E+03  0.19283053045E+03  0.25500000920E-02 0.  1.
        2   -1    0    0  501    0  0.00000000000E+00  0.00000000000E+00 -0.13055832680E+04  0.13055832680E+04  0.25500000920E-02 0. -1.
    10030    2    1    2    0    0  0.00000000000E+00  0.00000000000E+00 -0.11127527375E+04  0.14984137984E+04  0.10035064805E+04 0.  0.
        4    1    3    3  502    0  0.43860381273E+02  0.62353578392E+02  0.18413002861E+03  0.19929170108E+03  0.12699999809E+01 0.  1.
       -4    1    3    3    0  502 -0.43860381273E+02 -0.62353578392E+02 -0.12968827661E+04  0.12991220973E+04  0.12699999809E+01 0. -1.
</event>
<event>
 5   0  0.6606947E-03  0.1002929E+04  0.7818609E-02  0.9305338E-01
        2   -1    0    0  501    0  0.00000000000E+00  0.00000000000E+00  0.36429616063E+03  0.36429616064E+03  0.25500000920E-02 0.  1.
       -2   -1    0    0    0  501  0.00000000000E+00  0.00000000000E+00 -0.69028094735E+03  0.69028094735E+03  0.25500000920E-02 0. -1.
    10030    2    1    2    0    0  0.00000000000E+00  0.00000000000E+00 -0.32598478671E+03  0.10545771080E+04  0.10029291079E+04 0.  0.
        1    1    3    3  502    0  0.43849903080E+03  0.23406499166E+03 -0.93252851777E+02  0.50573106956E+03  0.50400001928E-02 0. -1.
       -1    1    3    3    0  502 -0.43849903080E+03 -0.23406499166E+03 -0.23273193494E+03  0.54884603843E+03  0.50400001928E-02 0.  1.
</event>
<event>
 5   0  0.2417750E-03  0.9936943E+03  0.7818609E-02  0.9315488E-01
        4   -1    0    0  501    0  0.00000000000E+00  0.00000000000E+00  0.11411902815E+04  0.11411909882E+04  0.12699999809E+01 0.  1.
       -4   -1    0    0    0  501  0.00000000000E+00  0.00000000000E+00 -0.21631281582E+03  0.21631654395E+03  0.12699999809E+01 0. -1.
    10030    2    1    2    0    0  0.00000000000E+00  0.00000000000E+00  0.92487746573E+03  0.13575075322E+04  0.99369430575E+03 0.  0.
        2    1    3    3  502    0  0.32939256532E+03  0.13183607299E+03  0.93759956986E+03  0.10024834989E+04  0.25500000920E-02 0.  1.
       -2    1    3    3    0  502 -0.32939256532E+03 -0.13183607299E+03 -0.12722104136E+02  0.35502403323E+03  0.25500000920E-02 0. -1.
</event>
<event>
 5   0  0.3466598E-03  0.9976624E+03  0.7818609E-02  0.9311112E-01
       -1   -1    0    0    0  501  0.00000000000E+00  0.00000000000E+00  0.36835735322E+03  0.36835735325E+03  0.50400001928E-02 0. -1.
        1   -1    0    0  501    0  0.00000000000E+00  0.00000000000E+00 -0.67551943121E+03  0.67551943123E+03  0.50400001928E-02 0.  1.
    10030    2    1    2    0    0  0.00000000000E+00  0.00000000000E+00 -0.30716207800E+03  0.10438767845E+04  0.99766236724E+03 0.  0.
        3    1    3    3  502    0  0.31374549459E+03 -0.32242178613E+03  0.71902100648E+02  0.45558969021E+03  0.10100000352E+00 0. -1.
       -3    1    3    3    0  502 -0.31374549459E+03  0.32242178613E+03 -0.37906417864E+03  0.58828709427E+03  0.10100000352E+00 0.  1.
</event>
<event>
 5   0  0.3608845E-03  0.1012870E+04  0.7818609E-02  0.9294541E-01
       -1   -1    0    0    0  501  0.00000000000E+00  0.00000000000E+00  0.16093331581E+03  0.16093331589E+03  0.50400001928E-02 0. -1.
        1   -1    0    0  501    0  0.00000000000E+00  0.00000000000E+00 -0.15936813029E+04  0.15936813029E+04  0.50400001928E-02 0.  1.
    10030    2    1    2    0    0  0.00000000000E+00  0.00000000000E+00 -0.14327479871E+04  0.17546146188E+04  0.10128700143E+04 0.  0.
        1    1    3    3  502    0 -0.42338758256E+03 -0.22817978273E+03 -0.44163138549E+03  0.65296350510E+03  0.50400001928E-02 0. -1.
       -1    1    3    3    0  502  0.42338758256E+03  0.22817978273E+03 -0.99111660160E+03  0.11016511137E+04  0.50400001928E-02 0.  1.
</event>
<event>
 5   0  0.6199539E-03  0.1009969E+04  0.7818609E-02  0.9297678E-01
       -2   -1    0    0    0  501  0.00000000000E+00  0.00000000000E+00  0.12303561648E+03  0.12303561650E+03  0.25500000920E-02 0. -1.
        2   -1    0    0  501    0  0.00000000000E+00  0.00000000000E+00 -0.20726479496E+04  0.20726479496E+04  0.25500000920E-02 0.  1.
    10030    2    1    2    0    0  0.00000000000E+00  0.00000000000E+00 -0.19496123331E+04  0.21956835661E+04  0.10099693426E+04 0.  0.
        2    1    3    3  502    0  0.12717385873E+02 -0.19204427977E+03  0.40172035808E+02  0.19661263887E+03  0.25500000920E-02 0. -1.
       -2    1    3    3    0  502 -0.12717385873E+02  0.19204427977E+03 -0.19897843689E+04  0.19990709273E+04  0.25500000920E-02 0.  1.
</event>
<event>
 5   0  0.3640180E-03  0.9880274E+03  0.7818609E-02  0.9321775E-01
        1   -1    0    0  501    0  0.00000000000E+00  0.00000000000E+00  0.42984990817E+03  0.42984990820E+03  0.50400001928E-02 0.  1.
       -1   -1    0    0    0  501  0.00000000000E+00  0.00000000000E+00 -0.56775519534E+03  0.56775519536E+03  0.50400001928E-02 0. -1.
    10030    2    1    2    0    0  0.00000000000E+00  0.00000000000E+00 -0.13790528717E+03  0.99760510356E+03  0.98802736522E+03 0.  0.
        5    1    3    3  502    0 -0.16346474985E+03  0.40968454025E+03  0.15561125121E+03  0.46775965887E+03  0.46999998093E+01 0. -1.
       -5    1    3    3    0  502  0.16346474985E+03 -0.40968454025E+03 -0.29351653838E+03  0.52984544469E+03  0.46999998093E+01 0.  1.
</event>
<event>
 5   0  0.3608845E-03  0.9984384E+03  0.7818609E-02  0.9310259E-01
       -1   -1    0    0    0  501  0.00000000000E+00  0.00000000000E+00  0.62777542385E+03  0.62777542387E+03  0.50400001928E-02 0.  1.
        1   -1    0    0  501    0  0.00000000000E+00  0.00000000000E+00 -0.39698878613E+03  0.39698878616E+03  0.50400001928E-02 0. -1.
    10030    2    1    2    0    0  0.00000000000E+00  0.00000000000E+00  0.23078663772E+03  0.10247642100E+04  0.99843838769E+03 0.  0.
        1    1    3    3  502    0 -0.18035092965E+03 -0.40777266763E+03 -0.11505932300E+03  0.46048198024E+03  0.50400001928E-02 0. -1.
       -1    1    3    3    0  502  0.18035092965E+03  0.40777266763E+03  0.34584596072E+03  0.56428222979E+03  0.50400001928E-02 0.  1.
</event>
<event>
 5   0  0.3643002E-03  0.1007540E+04  0.7818609E-02  0.9300314E-01
        1   -1    0    0  501    0  0.00000000000E+00  0.00000000000E+00  0.53255765906E+03  0.53255765909E+03  0.50400001928E-02 0. -1.
       -1   -1    0    0    0  501  0.00000000000E+00  0.00000000000E+00 -0.47653808164E+03  0.47653808167E+03  0.50400001928E-02 0.  1.
    10030    2    1    2    0    0  0.00000000000E+00  0.00000000000E+00  0.56019577424E+02  0.10090957408E+04  0.10075395878E+04 0.  0.
        2    1    3    3  502    0 -0.42812675501E+03 -0.26430142971E+03  0.53272567810E+02  0.50595032423E+03  0.25500000920E-02 0. -1.
       -2    1    3    3    0  502  0.42812675501E+03  0.26430142971E+03  0.27470096144E+01  0.50314541652E+03  0.25500000920E-02 0.  1.
</event>
<event>
 5   0  0.6199539E-03  0.9070757E+03  0.7818609E-02  0.9416779E-01
       -2   -1    0    0    0  501  0.00000000000E+00  0.00000000000E+00  0.38587208936E+03  0.38587208937E+03  0.25500000920E-02 0.  1.
        2   -1    0    0  501    0  0.00000000000E+00  0.00000000000E+00 -0.53306935678E+03  0.53306935679E+03  0.25500000920E-02 0. -1.
    10030    2    1    2    0    0  0.00000000000E+00  0.00000000000E+00 -0.14719726742E+03  0.91894144616E+03  0.90707571124E+03 0.  0.
        2    1    3    3  502    0  0.32184279639E+03  0.19119526198E+03 -0.33299131685E+03  0.50102058929E+03  0.25500000920E-02 0. -1.
       -2    1    3    3    0  502 -0.32184279639E+03 -0.19119526198E+03  0.18579404944E+03  0.41792085686E+03  0.25500000920E-02 0.  1.
</event>
<event>
 5   0  0.6022787E-03  0.1000011E+04  0.7818609E-02  0.9308532E-01
       -2   -1    0    0    0  501  0.00000000000E+00  0.00000000000E+00  0.18080222642E+03  0.18080222644E+03  0.25500000920E-02 0. -1.
        2   -1    0    0  501    0  0.00000000000E+00  0.00000000000E+00 -0.13827580226E+04  0.13827580226E+04  0.25500000920E-02 0.  1.
    10030    2    1    2    0    0  0.00000000000E+00  0.00000000000E+00 -0.12019557962E+04  0.15635602491E+04  0.10000114581E+04 0.  0.
        5    1    3    3  502    0 -0.43204152968E+03 -0.69931104688E+02 -0.97893299757E+03  0.10723255786E+04  0.46999998093E+01 0.  1.
       -5    1    3    3    0  502  0.43204152968E+03  0.69931104688E+02 -0.22302279864E+03  0.49123467048E+03  0.46999998093E+01 0. -1.
</event>
<event>
 5   0  0.3640180E-03  0.9970083E+03  0.7818609E-02  0.9311832E-01
       -1   -1    0    0    0  501  0.00000000000E+00  0.00000000000E+00  0.14228027110E+03  0.14228027119E+03  0.50400001928E-02 0.  1.
        1   -1    0    0  501    0  0.00000000000E+00  0.00000000000E+00 -0.17465975856E+04  0.17465975856E+04  0.50400001928E-02 0. -1.
    10030    2    1    2    0    0  0.00000000000E+00  0.00000000000E+00 -0.16043173145E+04  0.18888778568E+04  0.99700828097E+03 0.  0.
        5    1    3    3  502    0 -0.47218398166E+03 -0.14638067305E+03 -0.92345803955E+03  0.10474644886E+04  0.46999998093E+01 0. -1.
       -5    1    3    3    0  502  0.47218398166E+03  0.14638067305E+03 -0.68085927494E+03  0.84141336823E+03  0.46999998093E+01 0.  1.
</event>
<event>
 5   0  0.3608845E-03  0.1000631E+04  0.7818609E-02  0.9307854E-01
        1   -1    0    0  501    0  0.00000000000E+00  0.00000000000E+00  0.53771527290E+03  0.53771527293E+03  0.50400001928E-02 0.  1.
       -1   -1    0    0    0  501  0.00000000000E+00  0.00000000000E+00 -0.46551654500E+03  0.46551654502E+03  0.50400001928E-02 0. -1.
    10030    2    1    2    0    0  0.00000000000E+00  0.00000000000E+00  0.72198727908E+02  0.10032318179E+04  0.10006305133E+04 0.  0.
        1    1    3    3  502    0  0.30447222182E+03 -0.20413708402E+03  0.37748428961E+03  0.52618406652E+03  0.50400001928E-02 0.  1.
       -1    1    3    3    0  502 -0.30447222182E+03  0.20413708402E+03 -0.30528556170E+03  0.47704775143E+03  0.50400001928E-02 0. -1.
</event>
<event>
 5   0  0.3466598E-03  0.1033718E+04  0.7818609E-02  0.9272317E-01
        1   -1    0    0  501    0  0.00000000000E+00  0.00000000000E+00  0.46605658924E+03  0.46605658926E+03  0.50400001928E-02 0.  1.
       -1   -1    0    0    0  501  0.00000000000E+00  0.00000000000E+00 -0.57319948358E+03  0.57319948360E+03  0.50400001928E-02 0. -1.
    10030    2    1    2    0    0  0.00000000000E+00  0.00000000000E+00 -0.10714289434E+03  0.10392560729E+04  0.10337183297E+04 0.  0.
        3    1    3    3  502    0 -0.32220063731E+03 -0.15298212260E+03 -0.42964301723E+03  0.55839942064E+03  0.10100000352E+00 0. -1.
       -3    1    3    3    0  502  0.32220063731E+03  0.15298212260E+03  0.32250012289E+03  0.48085665222E+03  0.10100000352E+00 0.  1.
</event>
<event>
 5   0  0.6022787E-03  0.1014735E+04  0.7818609E-02  0.9292530E-01
        2   -1    0    0  501    0  0.00000000000E+00  0.00000000000E+00  0.37247847370E+03  0.37247847371E+03  0.25500000920E-02 0. -1.
       -2   -1    0    0    0  501  0.00000000000E+00  0.00000000000E+00 -0.69110493399E+03  0.69110493399E+03  0.25500000920E-02 0.  1.
    10030    2    1    2    0    0  0.00000000000E+00  0.00000000000E+00 -0.31862646029E+03  0.10635834077E+04  0.10147348639E+04 0.  0.
        5    1    3    3  502    0 -0.34338797002E+03  0.36722901238E+03 -0.88015294173E+02  0.51043239268E+03  0.46999998093E+01 0. -1.
       -5    1    3    3    0  502  0.34338797002E+03 -0.36722901238E+03 -0.23061116612E+03  0.55315101503E+03  0.46999998093E+01 0.  1.
</event>
<event>
 5   0  0.2417750E-03  0.1007230E+04  0.7818609E-02  0.9300651E-01
        3   -1    0    0  501    0  0.00000000000E+00  0.00000000000E+00  0.20389920500E+04  0.20389920525E+04  0.10100000352E+00 0.  1.
       -3   -1    0    0    0  501  0.00000000000E+00  0.00000000000E+00 -0.12438883472E+03  0.12438887573E+03  0.10100000352E+00 0. -1.
    10030    2    1    2    0    0  0.00000000000E+00  0.00000000000E+00  0.19146032153E+04  0.21633809283E+04  0.10072296504E+04 0.  0.
        2    1    3    3  502    0 -0.15105387437E+03  0.38332434560E+03  0.33526527454E+03  0.53118511953E+03  0.25500000920E-02 0. -1.
       -2    1    3    3    0  502  0.15105387437E+03 -0.38332434560E+03  0.15793379408E+04  0.16321958087E+04  0.25500000920E-02 0.  1.
</event>
<event>
 5   0  0.6199539E-03  0.1002170E+04  0.7818609E-02  0.9306168E-01
       -2   -1    0    0    0  501  0.00000000000E+00  0.00000000000E+00  0.24504852725E+03  0.24504852726E+03  0.25500000920E-02 0.  1.
        2   -1    0    0  501    0  0.00000000000E+00  0.00000000000E+00 -0.10246386540E+04  0.10246386540E+04  0.25500000920E-02 0. -1.
    10030    2    1    2    0    0  0.00000000000E+00  0.00000000000E+00 -0.77959012676E+03  0.12696871813E+04  0.10021700318E+04 0.  0.
        2    1    3    3  502    0 -0.39143527573E+03 -0.10935497504E+02 -0.78589308375E+03  0.87804846068E+03  0.25500000920E-02 0. -1.
       -2    1    3    3    0  502  0.39143527573E+03  0.10935497504E+02  0.63029569980E+01  0.39163872059E+03  0.25500000920E-02 0.  1.
</event>
<event>
 5   0  0.6199539E-03  0.9969300E+03  0.7818609E-02  0.9311918E-01
       -2   -1    0    0    0  501  0.00000000000E+00  0.00000000000E+00  0.24892858641E+03  0.24892858643E+03  0.25500000920E-02 0. -1.
        2   -1    0    0  501    0  0.00000000000E+00  0.00000000000E+00 -0.99814723351E+03  0.99814723351E+03  0.25500000920E-02 0.  1.
    10030    2    1    2    0    0  0.00000000000E+00  0.00000000000E+00 -0.74921864709E+03  0.12470758199E+04  0.99693004745E+03 0.  0.
        2    1    3    3  502    0 -0.30461318604E+03  0.18476913864E+03  0.61489788128E+02  0.36153813319E+03  0.25500000920E-02 0. -1.
       -2    1    3    3    0  502  0.30461318604E+03 -0.18476913864E+03 -0.81070843522E+03  0.88553768675E+03  0.25500000920E-02 0.  1.
</event>
<event>
 5   0  0.6022787E-03  0.1002867E+04  0.7818609E-02  0.9305405E-01
       -2   -1    0    0    0  501  0.00000000000E+00  0.00000000000E+00  0.65775360220E+03  0.65775360221E+03  0.25500000920E-02 0.  1.
        2   -1    0    0  501    0  0.00000000000E+00  0.00000000000E+00 -0.38226437072E+03  0.38226437072E+03  0.25500000920E-02 0. -1.
    10030    2    1    2    0    0  0.00000000000E+00  0.00000000000E+00  0.27548923149E+03  0.10400179729E+04  0.10028674226E+04 0.  0.
        5    1    3    3  502    0 -0.22127727284E+03 -0.22909917501E+02  0.60375174540E+03  0.64344910900E+03  0.46999998093E+01 0.  1.
       -5    1    3    3    0  502  0.22127727284E+03  0.22909917501E+02 -0.32826251392E+03  0.39656886393E+03  0.46999998093E+01 0. -1.
</event>
<event>
 5   0  0.6606947E-03  0.1002813E+04  0.7818609E-02  0.9305465E-01
        2   -1    0    0  501    0  0.00000000000E+00  0.00000000000E+00  0.23352908262E+03  0.23352908264E+03  0.25500000920E-02 0.  1.
       -2   -1    0    0    0  501  0.00000000000E+00  0.00000000000E+00 -0.10765621132E+04  0.10765621132E+04  0.25500000920E-02 0. -1.
    10030    2    1    2    0    0  0.00000000000E+00  0.00000000000E+00 -0.84303303056E+03  0.13100911958E+04  0.10028131684E+04 0.  0.
        1    1    3    3  502    0  0.33024390485E+03  0.22460896517E+03 -0.25479909146E+02  0.40019926252E+03  0.50400001928E-02 0.  1.
       -1    1    3    3    0  502 -0.33024390485E+03 -0.22460896517E+03 -0.81755312141E+03  0.90989193330E+03  0.50400001928E-02 0. -1.
</event>
<event>
 5   0  0.6199539E-03  0.9948244E+03  0.7818609E-02  0.9314240E-01
        2   -1    0    0  501    0  0.00000000000E+00  0.00000000000E+00  0.70758048146E+03  0.70758048147E+03  0.25500000920E-02 0. -1.
       -2   -1    0    0    0  501  0.00000000000E+00  0.00000000000E+00 -0.34966893380E+03  0.34966893380E+03  0.25500000920E-02 0.  1.
    10030    2    1    2    0    0  0.00000000000E+00  0.00000000000E+00  0.35791154767E+03  0.10572494153E+04  0.99482443182E+03 0.  0.
        2    1    3    3  502    0  0.17282259987E+03  0.47041604583E+01  0.67462245319E+03  0.69642317200E+03  0.25500000920E-02 0. -1.
       -2    1    3    3    0  502 -0.17282259987E+03 -0.47041604583E+01 -0.31671090552E+03  0.36082624327E+03  0.25500000920E-02 0.  1.
</event>
<event>
 5   0  0.6606947E-03  0.9910866E+03  0.7818609E-02  0.9318375E-01
       -2   -1    0    0    0  501  0.00000000000E+00  0.00000000000E+00  0.21825881267E+03  0.21825881268E+03  0.25500000920E-02 0. -1.
        2   -1    0    0  501    0  0.00000000000E+00  0.00000000000E+00 -0.11251006855E+04  0.11251006855E+04  0.25500000920E-02 0.  1.
    10030    2    1    2    0    0  0.00000000000E+00  0.00000000000E+00 -0.90684187286E+03  0.13433594982E+04  0.99108655479E+03 0.  0.
        1    1    3    3  502    0 -0.27322736169E+03  0.34718650586E+03 -0.14921126570E+03  0.46632141583E+03  0.50400001928E-02 0. -1.
       -1    1    3    3    0  502  0.27322736169E+03 -0.34718650586E+03 -0.75763060717E+03  0.87703808239E+03  0.50400001928E-02 0.  1.
</event>
<event>
 5   0  0.3569359E-03  0.1002920E+04  0.7818609E-02  0.9305348E-01
        1   -1    0    0  501    0  0.00000000000E+00  0.00000000000E+00  0.80923877047E+03  0.80923877048E+03  0.50400001928E-02 0. -1.
       -1   -1    0    0    0  501  0.00000000000E+00  0.00000000000E+00 -0.31073908937E+03  0.31073908941E+03  0.50400001928E-02 0.  1.
    10030    2    1    2    0    0  0.00000000000E+00  0.00000000000E+00  0.49849968110E+03  0.11199778599E+04  0.10029199742E+04 0.  0.
        4    1    3    3  502    0  0.46643520079E+03 -0.13861157385E+03  0.11392169553E+03  0.49975467037E+03  0.12699999809E+01 0. -1.
       -4    1    3    3    0  502 -0.46643520079E+03  0.13861157385E+03  0.38457798557E+03  0.62022318952E+03  0.12699999809E+01 0.  1.
</event>
<event>
 5   0  0.3569359E-03  0.1092734E+04  0.7818609E-02  0.9212302E-01
        1   -1    0    0  501    0  0.00000000000E+00  0.00000000000E+00  0.93905049757E+03  0.93905049758E+03  0.50400001928E-02 0.  1.
       -1   -1    0    0    0  501  0.00000000000E+00  0.00000000000E+00 -0.31789250406E+03  0.31789250410E+03  0.50400001928E-02 0. -1.
    10030    2    1    2    0    0  0.00000000000E+00  0.00000000000E+00  0.62115799351E+03  0.12569430017E+04  0.10927343943E+04 0.  0.
        4    1    3    3  502    0 -0.45991708597E+03  0.10776275217E+03 -0.52311321904E+01  0.47240397370E+03  0.12699999809E+01 0. -1.
       -4    1    3    3    0  502  0.45991708597E+03 -0.10776275217E+03  0.62638912570E+03  0.78453902798E+03  0.12699999809E+01 0.  1.
</event>
<event>
 5   0  0.3569359E-03  0.1015745E+04  0.7818609E-02  0.9291443E-01
        1   -1    0    0  501    0  0.00000000000E+00  0.00000000000E+00  0.10103692958E+04  0.10103692958E+04  0.50400001928E-02 0. -1.
       -1   -1    0    0    0  501  0.00000000000E+00  0.00000000000E+00 -0.25528708201E+03  0.25528708205E+03  0.50400001928E-02 0.  1.
    10030    2    1    2    0    0  0.00000000000E+00  0.00000000000E+00  0.75508221377E+03  0.12656563778E+04  0.10157445138E+04 0.  0.
        4    1    3    3  502    0 -0.30088842075E+03 -0.10410123779E+03 -0.11548974951E+03  0.33868924487E+03  0.12699999809E+01 0.  1.
       -4    1    3    3    0  502  0.30088842075E+03  0.10410123779E+03  0.87057196328E+03  0.92696713297E+03  0.12699999809E+01 0. -1.
</event>
<event>
 5   0  0.6360455E-03  0.1007279E+04  0.7818609E-02  0.9300597E-01
       -2   -1    0    0    0  501  0.00000000000E+00  0.00000000000E+00  0.18125905698E+03  0.18125905700E+03  0.25500000920E-02 0.  1.
        2   -1    0    0  501    0  0.00000000000E+00  0.00000000000E+00 -0.13993948503E+04  0.13993948503E+04  0.25500000920E-02 0. -1.
    10030    2    1    2    0    0  0.00000000000E+00  0.00000000000E+00 -0.12181357933E+04  0.15806539073E+04  0.10072794864E+04 0.  0.
        4    1    3    3  502    0  0.27204604951E+03  0.29866506429E+03 -0.13714539160E+03  0.42663842422E+03  0.12699999809E+01 0.  1.
       -4    1    3    3    0  502 -0.27204604951E+03 -0.29866506429E+03 -0.10809904017E+04  0.11540154831E+04  0.12699999809E+01 0. -1.
</event>
<event>
 5   0  0.3640180E-03  0.1002680E+04  0.7818609E-02  0.9305610E-01
       -1   -1    0    0    0  501  0.00000000000E+00  0.00000000000E+00  0.66191247198E+03  0.66191247199E+03  0.50400001928E-02 0. -1.
        1   -1    0    0  501    0  0.00000000000E+00  0.00000000000E+00 -0.37972079577E+03  0.37972079581E+03  0.50400001928E-02 0.  1.
    10030    2    1    2    0    0  0.00000000000E+00  0.00000000000E+00  0.28219167620E+03  0.10416332678E+04  0.10026802693E+04 0.  0.
        5    1    3    3  502    0 -0.40504677815E+03 -0.68803567413E+02 -0.15733240503E+03  0.43996863417E+03  0.46999998093E+01 0.  1.
       -5    1    3    3    0  502  0.40504677815E+03  0.68803567413E+02  0.43952408123E+03  0.60166463363E+03  0.46999998093E+01 0. -1.
</event>
<event>
 5   0  0.3643002E-03  0.1004158E+04  0.7818609E-02  0.9303996E-01
        1   -1    0    0  501    0  0.00000000000E+00  0.00000000000E+00  0.14669726014E+03  0.14669726022E+03  0.50400001928E-02 0. -1.
       -1   -1    0    0    0  501  0.00000000000E+00  0.00000000000E+00 -0.17183908103E+04  0.17183908103E+04  0.50400001928E-02 0.  1.
    10030    2    1    2    0    0  0.00000000000E+00  0.00000000000E+00 -0.15716935502E+04  0.18650880705E+04  0.10041578039E+04 0.  0.
        2    1    3    3  502    0  0.23970701528E+03 -0.12646426907E+02  0.33215273910E+02  0.24232754634E+03  0.25500000920E-02 0. -1.
       -2    1    3    3    0  502 -0.23970701528E+03  0.12646426907E+02 -0.16049088241E+04  0.16227605242E+04  0.25500000920E-02 0.  1.
</event>
<event>
 5   0  0.3569359E-03  0.1020270E+04  0.7818609E-02  0.9286588E-01
        1   -1    0    0  501    0  0.00000000000E+00  0.00000000000E+00  0.49482091221E+03  0.49482091224E+03  0.50400001928E-02 0.  1.
       -1   -1    0    0    0  501  0.00000000000E+00  0.00000000000E+00 -0.52592290519E+03  0.52592290521E+03  0.50400001928E-02 0. -1.
    10030    2    1    2    0    0  0.00000000000E+00  0.00000000000E+00 -0.31101992975E+02  0.10207438175E+04  0.10202698696E+04 0.  0.
        4    1    3    3  502    0  0.48059868257E+03  0.34427500050E+01  0.15555211040E+03  0.50515840899E+03  0.12699999809E+01 0.  1.
       -4    1    3    3    0  502 -0.48059868257E+03 -0.34427500050E+01 -0.18665410338E+03  0.51558540847E+03  0.12699999809E+01 0. -1.
</event>
<event>
 5   0  0.3569359E-03  0.9984096E+03  0.7818609E-02  0.9310291E-01
        1   -1    0    0  501    0  0.00000000000E+00  0.00000000000E+00  0.84539752335E+03  0.84539752337E+03  0.50400001928E-02 0. -1.
       -1   -1    0    0    0  501  0.00000000000E+00  0.00000000000E+00 -0.29477896872E+03  0.29477896877E+03  0.50400001928E-02 0.  1.
    10030    2    1    2    0    0  0.00000000000E+00  0.00000000000E+00  0.55061855463E+03  0.11401764921E+04  0.99840955550E+03 0.  0.
        4    1    3    3  502    0 -0.19842290780E+03  0.20332264926E+03 -0.19345343366E+03  0.34371149812E+03  0.12699999809E+01 0.  1.
       -4    1    3    3    0  502  0.19842290780E+03 -0.20332264926E+03  0.74407198829E+03  0.79646499402E+03  0.12699999809E+01 0. -1.
</event>
<event>
 5   0  0.6376961E-03  0.9991907E+03  0.7818609E-02  0.9309433E-01
        2   -1    0    0  501    0  0.00000000000E+00  0.00000000000E+00  0.44872015740E+03  0.44872015741E+03  0.25500000920E-02 0. -1.
       -2   -1    0    0    0  501  0.00000000000E+00  0.00000000000E+00 -0.55623866702E+03  0.55623866702E+03  0.25500000920E-02 0.  1.
    10030    2    1    2    0    0  0.00000000000E+00  0.00000000000E+00 -0.10751850961E+03  0.10049588244E+04  0.99919067694E+03 0.  0.
        3    1    3    3  502    0 -0.49660031661E+03  0.36897406823E+02 -0.13250214813E+02  0.49814543206E+03  0.10100000352E+00 0.  1.
       -3    1    3    3    0  502  0.49660031661E+03 -0.36897406823E+02 -0.94268294800E+02  0.50681339237E+03  0.10100000352E+00 0. -1.
</event>
<event>
 5   0  0.3643002E-03  0.1001060E+04  0.7818609E-02  0.9307383E-01
       -1   -1    0    0    0  501  0.00000000000E+00  0.00000000000E+00  0.88743628938E+02  0.88743629081E+02  0.50400001928E-02 0. -1.
        1   -1    0    0  501    0  0.00000000000E+00  0.00000000000E+00 -0.28230795087E+04  0.28230795087E+04  0.50400001928E-02 0.  1.
    10030    2    1    2    0    0  0.00000000000E+00  0.00000000000E+00 -0.27343358797E+04  0.29118231377E+04  0.10010600793E+04 0.  0.
        2    1    3    3  502    0 -0.43768299117E+03 -0.37324017027E+02 -0.20650887112E+04  0.21112912798E+04  0.25500000920E-02 0.  1.
       -2    1    3    3    0  502  0.43768299117E+03  0.37324017027E+02 -0.66924716850E+03  0.80053185793E+03  0.25500000920E-02 0. -1.
</event>
<event>
 5   0  0.6376961E-03  0.9991301E+03  0.7818609E-02  0.9309499E-01
       -2   -1    0    0    0  501  0.00000000000E+00  0.00000000000E+00  0.51598256505E+03  0.51598256505E+03  0.25500000920E-02 0.  1.
        2   -1    0    0  501    0  0.00000000000E+00  0.00000000000E+00 -0.48366989595E+03  0.48366989596E+03  0.25500000920E-02 0. -1.
    10030    2    1    2    0    0  0.00000000000E+00  0.00000000000E+00  0.32312669097E+02  0.99965246101E+03  0.99913008874E+03 0.  0.
        3    1    3    3  502    0  0.20690849578E+03  0.40182267555E+03 -0.19677559812E+03  0.49294343939E+03  0.10100000352E+00 0.  1.
       -3    1    3    3    0  502 -0.20690849578E+03 -0.40182267555E+03  0.22908826722E+03  0.50670902162E+03  0.10100000352E+00 0. -1.
</event>
<event>
 5   0  0.3640180E-03  0.9644763E+03  0.7818609E-02  0.9348388E-01
       -1   -1    0    0    0  501  0.00000000000E+00  0.00000000000E+00  0.22624903437E+03  0.22624903442E+03  0.50400001928E-02 0.  1.
        1   -1    0    0  501    0  0.00000000000E+00  0.00000000000E+00 -0.10278657573E+04  0.10278657573E+04  0.50400001928E-02 0. -1.
    10030    2    1    2    0    0  0.00000000000E+00  0.00000000000E+00 -0.80161672291E+03  0.12541147917E+04  0.96447630367E+03 0.  0.
        5    1    3    3  502    0  0.11751920372E+03 -0.38384186470E+03 -0.53389914184E+02  0.40499125086E+03  0.46999998093E+01 0. -1.
       -5    1    3    3    0  502 -0.11751920372E+03  0.38384186470E+03 -0.74822680873E+03  0.84912354086E+03  0.46999998093E+01 0.  1.
</event>
<event>
 5   0  0.6022787E-03  0.9939575E+03  0.7818609E-02  0.9315197E-01
       -2   -1    0    0    0  501  0.00000000000E+00  0.00000000000E+00  0.60734730979E+03  0.60734730980E+03  0.25500000920E-02 0. -1.
        2   -1    0    0  501    0  0.00000000000E+00  0.00000000000E+00 -0.40666662029E+03  0.40666662030E+03  0.25500000920E-02 0.  1.
    10030    2    1    2    0    0  0.00000000000E+00  0.00000000000E+00  0.20068068950E+03  0.10140139301E+04  0.99395749974E+03 0.  0.
        5    1    3    3  502    0  0.28320729748E+03  0.90677237506E+02  0.50654182044E+03  0.58739717449E+03  0.46999998093E+01 0. -1.
       -5    1    3    3    0  502 -0.28320729748E+03 -0.90677237506E+02 -0.30586113094E+03  0.42661675561E+03  0.46999998093E+01 0.  1.
</event>
<event>
 5   0  0.3466598E-03  0.1013973E+04  0.7818609E-02  0.9293351E-01
        1   -1    0    0  501    0  0.00000000000E+00  0.00000000000E+00  0.58884388542E+03  0.58884388544E+03  0.50400001928E-02 0. -1.
       -1   -1    0    0    0  501  0.00000000000E+00  0.00000000000E+00 -0.43650841862E+03  0.43650841865E+03  0.50400001928E-02 0.  1.
    10030    2    1    2    0    0  0.00000000000E+00  0.00000000000E+00  0.15233546680E+03  0.10253523041E+04  0.10139730041E+04 0.  0.
        3    1    3    3  502    0  0.35866490876E+03  0.27655349944E+03  0.30656884291E+03  0.54690659209E+03  0.10100000352E+00 0. -1.
       -3    1    3    3    0  502 -0.35866490876E+03 -0.27655349944E+03 -0.15423337610E+03  0.47844571200E+03  0.10100000352E+00 0.  1.
</event>
<event>
 5   0  0.3640180E-03  0.1040835E+04  0.7818609E-02  0.9264857E-01
       -1   -1    0    0    0  501  0.00000000000E+00  0.00000000000E+00  0.83377100097E+03  0.83377100098E+03  0.50400001928E-02 0.  1.
        1   -1    0    0  501    0  0.00000000000E+00  0.00000000000E+00 -0.32483085417E+03  0.32483085421E+03  0.50400001928E-02 0. -1.
    10030    2    1    2    0    0  0.00000000000E+00  0.00000000000E+00  0.50894014680E+03  0.11586018552E+04  0.10408353308E+04 0.  0.
        5    1    3    3  502    0 -0.60857207428E+02 -0.51650900870E+03  0.23433164142E+03  0.57045469929E+03  0.46999998093E+01 0. -1.
       -5    1    3    3    0  502  0.60857207428E+02  0.51650900870E+03  0.27460850538E+03  0.58814715590E+03  0.46999998093E+01 0.  1.
</event>
<event>
 5   0  0.6022787E-03  0.9908783E+03  0.7818609E-02  0.9318606E-01
       -2   -1    0    0    0  501  0.00000000000E+00  0.00000000000E+00  0.24952846841E+03  0.24952846842E+03  0.25500000920E-02 0. -1.
        2   -1    0    0  501    0  0.00000000000E+00  0.00000000000E+00 -0.98369509599E+03  0.98369509600E+03  0.25500000920E-02 0.  1.
    10030    2    1    2    0    0  0.00000000000E+00  0.00000000000E+00 -0.73416662759E+03  0.12332235644E+04  0.99087825830E+03 0.  0.
        5    1    3    3  502    0  0.64567369424E+02 -0.46102006491E+03 -0.57803585309E+03  0.74219672790E+03  0.46999998093E+01 0.  1.
       -5    1    3    3    0  502 -0.64567369424E+02  0.46102006491E+03 -0.15613077449E+03  0.49102683652E+03  0.46999998093E+01 0. -1.
</event>
<event>
 5   0  0.3608845E-03  0.1006077E+04  0.7818609E-02  0.9301904E-01
       -1   -1    0    0    0  501  0.00000000000E+00  0.00000000000E+00  0.11698020070E+04  0.11698020070E+04  0.50400001928E-02 0. -1.
        1   -1    0    0  501    0  0.00000000000E+00  0.00000000000E+00 -0.21631691440E+03  0.21631691446E+03  0.50400001928E-02 0.  1.
    10030    2    1    2    0    0  0.00000000000E+00  0.00000000000E+00  0.95348509257E+03  0.13861189215E+04  0.10060774536E+04 0.  0.
        1    1    3    3  502    0 -0.38259175595E+03 -0.12735591207E+03  0.89110282440E+03  0.97809008979E+03  0.50400001928E-02 0.  1.
       -1    1    3    3    0  502  0.38259175595E+03  0.12735591207E+03  0.62382268173E+02  0.40802883166E+03  0.50400001928E-02 0. -1.
</event>
<event>
 5   0  0.3643002E-03  0.1011094E+04  0.7818609E-02  0.9296460E-01
       -1   -1    0    0    0  501  0.00000000000E+00  0.00000000000E+00  0.67793127615E+03  0.67793127616E+03  0.50400001928E-02 0.  1.
        1   -1    0    0  501    0  0.00000000000E+00  0.00000000000E+00 -0.37699654160E+03  0.37699654164E+03  0.50400001928E-02 0. -1.
    10030    2    1    2    0    0  0.00000000000E+00  0.00000000000E+00  0.30093473454E+03  0.10549278178E+04  0.10110939552E+04 0.  0.
        2    1    3    3  502    0 -0.29188415436E+03  0.39206251480E+03  0.15764197305E+02  0.48903771328E+03  0.25500000920E-02 0.  1.
       -2    1    3    3    0  502  0.29188415436E+03 -0.39206251480E+03  0.28517053724E+03  0.56589010452E+03  0.25500000920E-02 0. -1.
</event>
<event>
 5   0  0.6199539E-03  0.9990155E+03  0.7818609E-02  0.9309625E-01
       -2   -1    0    0    0  501  0.00000000000E+00  0.00000000000E+00  0.36211634036E+03  0.36211634037E+03  0.25500000920E-02 0. -1.
        2   -1    0    0  501    0  0.00000000000E+00  0.00000000000E+00 -0.68902722422E+03  0.68902722423E+03  0.25500000920E-02 0.  1.
    10030    2    1    2    0    0  0.00000000000E+00  0.00000000000E+00 -0.32691088387E+03  0.10511435646E+04  0.99901554913E+03 0.  0.
        2    1    3    3  502    0  0.37609291402E+03 -0.12183350274E+03 -0.48470414965E+03  0.62548173039E+03  0.25500000920E-02 0. -1.
       -2    1    3    3    0  502 -0.37609291402E+03  0.12183350274E+03  0.15779326578E+03  0.42566183420E+03  0.25500000920E-02 0.  1.
</event>
<event>
 5   0  0.6199539E-03  0.9817038E+03  0.7818609E-02  0.9328842E-01
       -2   -1    0    0    0  501  0.00000000000E+00  0.00000000000E+00  0.13039218599E+03  0.13039218601E+03  0.25500000920E-02 0. -1.
        2   -1    0    0  501    0  0.00000000000E+00  0.00000000000E+00 -0.18477764071E+04  0.18477764071E+04  0.25500000920E-02 0.  1.
    10030    2    1    2    0    0  0.00000000000E+00  0.00000000000E+00 -0.17173842211E+04  0.19781685931E+04  0.98170383510E+03 0.  0.
        2    1    3    3  502    0  0.18155778186E+03  0.19701788624E+03 -0.16874485978E+04  0.17085848080E+04  0.25500000920E-02 0.  1.
       -2    1    3    3    0  502 -0.18155778186E+03 -0.19701788624E+03 -0.29935623233E+02  0.26958378511E+03  0.25500000920E-02 0. -1.
</event>
<event>
 5   0  0.6360455E-03  0.1000828E+04  0.7818609E-02  0.9307637E-01
        2   -1    0    0  501    0  0.00000000000E+00  0.00000000000E+00  0.35957742732E+03  0.35957742733E+03  0.25500000920E-02 0.  1.
       -2   -1    0    0    0  501  0.00000000000E+00  0.00000000000E+00 -0.69641272932E+03  0.69641272932E+03  0.25500000920E-02 0. -1.
    10030    2    1    2    0    0  0.00000000000E+00  0.00000000000E+00 -0.33683530200E+03  0.10559901567E+04  0.10008282521E+04 0.  0.
        4    1    3    3  502    0  0.36686282818E+03 -0.33758259572E+03 -0.21395103418E+03  0.54251912552E+03  0.12699999809E+01 0. -1.
       -4    1    3    3    0  502 -0.36686282818E+03  0.33758259572E+03 -0.12288426782E+03  0.51347103113E+03  0.12699999809E+01 0.  1.
</event>
<event>
 5   0  0.6606947E-03  0.9985607E+03  0.7818609E-02  0.9310125E-01
       -2   -1    0    0    0  501  0.00000000000E+00  0.00000000000E+00  0.20794118194E+03  0.20794118196E+03  0.25500000920E-02 0.  1.
        2   -1    0    0  501    0  0.00000000000E+00  0.00000000000E+00 -0.11988047213E+04  0.11988047213E+04  0.25500000920E-02 0. -1.
    10030    2    1    2    0    0  0.00000000000E+00  0.00000000000E+00 -0.99086353938E+03  0.14067459033E+04  0.99856070559E+03 0.  0.
        1    1    3    3  502    0 -0.20375407644E+02 -0.48555639113E+03 -0.65667760696E+03  0.81694898599E+03  0.50400001928E-02 0.  1.
       -1    1    3    3    0  502  0.20375407644E+02  0.48555639113E+03 -0.33418593241E+03  0.58979691729E+03  0.50400001928E-02 0. -1.
</event>
<event>
 5   0  0.2417750E-03  0.9906251E+03  0.7818609E-02  0.9318887E-01
        4   -1    0    0  501    0  0.00000000000E+00  0.00000000000E+00  0.18845594727E+03  0.18846022647E+03  0.12699999809E+01 0. -1.
       -4   -1    0    0    0  501  0.00000000000E+00  0.00000000000E+00 -0.13017941722E+04  0.13017947917E+04  0.12699999809E+01 0.  1.
    10030    2    1    2    0    0  0.00000000000E+00  0.00000000000E+00 -0.11133382249E+04  0.14902550182E+04  0.99062506332E+03 0.  0.
        1    1    3    3  502    0 -0.14064452201E+03 -0.47233286070E+03 -0.63121141062E+03  0.80081649446E+03  0.50400001928E-02 0.  1.
       -1    1    3    3    0  502  0.14064452201E+03  0.47233286070E+03 -0.48212681429E+03  0.68943852370E+03  0.50400001928E-02 0. -1.
</event>
<event>
 5   0  0.6199539E-03  0.9962906E+03  0.7818609E-02  0.9312623E-01
        2   -1    0    0  501    0  0.00000000000E+00  0.00000000000E+00  0.15964894964E+04  0.15964894964E+04  0.25500000920E-02 0. -1.
       -2   -1    0    0    0  501  0.00000000000E+00  0.00000000000E+00 -0.15543400817E+03  0.15543400819E+03  0.25500000920E-02 0.  1.
    10030    2    1    2    0    0  0.00000000000E+00  0.00000000000E+00  0.14410554882E+04  0.17519235045E+04  0.99629064322E+03 0.  0.
        2    1    3    3  502    0  0.23937890748E+03 -0.41052037198E+01 -0.47632827255E+02  0.24410653470E+03  0.25500000920E-02 0.  1.
       -2    1    3    3    0  502 -0.23937890748E+03  0.41052037198E+01  0.14886883154E+04  0.15078169699E+04  0.25500000920E-02 0. -1.
</event>
<event>
 5   0  0.6376961E-03  0.9930628E+03  0.7818609E-02  0.9316186E-01
        2   -1    0    0  501    0  0.00000000000E+00  0.00000000000E+00  0.20007999886E+04  0.20007999886E+04  0.25500000920E-02 0.  1.
       -2   -1    0    0    0  501  0.00000000000E+00  0.00000000000E+00 -0.12322242949E+03  0.12322242952E+03  0.25500000920E-02 0. -1.
    10030    2    1    2    0    0  0.00000000000E+00  0.00000000000E+00  0.18775775591E+04  0.21240224181E+04  0.99306280879E+03 0.  0.
        3    1    3    3  502    0 -0.16989743198E+03  0.15566172540E+03 -0.19394597781E+01  0.23043324815E+03  0.10100000352E+00 0. -1.
       -3    1    3    3    0  502  0.16989743198E+03 -0.15566172540E+03  0.18795170189E+04  0.18935891699E+04  0.10100000352E+00 0.  1.
</event>
<event>
 5   0  0.2417750E-03  0.1010585E+04  0.7818609E-02  0.9297011E-01
       -3   -1    0    0    0  501  0.00000000000E+00  0.00000000000E+00  0.13619404643E+04  0.13619404681E+04  0.10100000352E+00 0.  1.
        3   -1    0    0  501    0  0.00000000000E+00  0.00000000000E+00 -0.18746828754E+03  0.18746831475E+03  0.10100000352E+00 0. -1.
    10030    2    1    2    0    0  0.00000000000E+00  0.00000000000E+00  0.11744721768E+04  0.15494087828E+04  0.10105853167E+04 0.  0.
        4    1    3    3  502    0 -0.43387810594E+02  0.33229653045E+03  0.11670447413E+04  0.12142069541E+04  0.12699999809E+01 0.  1.
       -4    1    3    3    0  502  0.43387810594E+02 -0.33229653045E+03  0.74274354248E+01  0.33520182868E+03  0.12699999809E+01 0. -1.
</event>
<event>
 5   0  0.2417750E-03  0.1006714E+04  0.7818609E-02  0.9301212E-01
        3   -1    0    0  501    0  0.00000000000E+00  0.00000000000E+00  0.38738293840E+03  0.38738295157E+03  0.10100000352E+00 0. -1.
       -3   -1    0    0    0  501  0.00000000000E+00  0.00000000000E+00 -0.65405104969E+03  0.65405105749E+03  0.10100000352E+00 0.  1.
    10030    2    1    2    0    0  0.00000000000E+00  0.00000000000E+00 -0.26666811129E+03  0.10414340091E+04  0.10067139185E+04 0.  0.
        2    1    3    3  502    0  0.44867289704E+03  0.22412198751E+03 -0.89077835795E+02  0.50938481981E+03  0.25500000920E-02 0. -1.
       -2    1    3    3    0  502 -0.44867289704E+03 -0.22412198751E+03 -0.17759027550E+03  0.53204918925E+03  0.25500000920E-02 0.  1.
</event>
<event>
 5   0  0.3466598E-03  0.1013043E+04  0.7818609E-02  0.9294354E-01
       -1   -1    0    0    0  501  0.00000000000E+00  0.00000000000E+00  0.20045320646E+03  0.20045320653E+03  0.50400001928E-02 0. -1.
        1   -1    0    0  501    0  0.00000000000E+00  0.00000000000E+00 -0.12799188282E+04  0.12799188282E+04  0.50400001928E-02 0.  1.
    10030    2    1    2    0    0  0.00000000000E+00  0.00000000000E+00 -0.10794656217E+04  0.14803720347E+04  0.10130426115E+04 0.  0.
        3    1    3    3  502    0 -0.28615833031E+03 -0.17734348559E+03  0.13305071037E+02  0.33691888787E+03  0.10100000352E+00 0. -1.
       -3    1    3    3    0  502  0.28615833031E+03  0.17734348559E+03 -0.10927706927E+04  0.11434531468E+04  0.10100000352E+00 0.  1.
</event>
<event>
 5   0  0.6022787E-03  0.1020928E+04  0.7818609E-02  0.9285885E-01
       -2   -1    0    0    0  501  0.00000000000E+00  0.00000000000E+00  0.95236052623E+03  0.95236052623E+03  0.25500000920E-02 0. -1.
        2   -1    0    0  501    0  0.00000000000E+00  0.00000000000E+00 -0.27360788247E+03  0.27360788248E+03  0.25500000920E-02 0.  1.
    10030    2    1    2    0    0  0.00000000000E+00  0.00000000000E+00  0.67875264375E+03  0.12259684087E+04  0.10209277094E+04 0.  0.
        5    1    3    3  502    0 -0.12257862756E+03  0.75730545861E+02 -0.24865489823E+03  0.28742300521E+03  0.46999998093E+01 0.  1.
       -5    1    3    3    0  502  0.12257862756E+03 -0.75730545861E+02  0.92740754198E+03  0.93854540350E+03  0.46999998093E+01 0. -1.
</event>
<event>
 5   0  0.3569359E-03  0.9935986E+03  0.7818609E-02  0.9315594E-01
       -1   -1    0    0    0  501  0.00000000000E+00  0.00000000000E+00  0.70927824070E+03  0.70927824072E+03  0.50400001928E-02 0.  1.
        1   -1    0    0  501    0  0.00000000000E+00  0.00000000000E+00 -0.34797284154E+03  0.34797284157E+03  0.50400001928E-02 0. -1.
    10030    2    1    2    0    0  0.00000000000E+00  0.00000000000E+00  0.36130539917E+03  0.10572510823E+04  0.99359864107E+03 0.  0.
        4    1    3    3  502    0  0.21141518298E+03  0.26794089175E+03  0.56477669461E+03  0.65989622573E+03  0.12699999809E+01 0.  1.
       -4    1    3    3    0  502 -0.21141518298E+03 -0.26794089175E+03 -0.20347129544E+03  0.39735485656E+03  0.12699999809E+01 0. -1.
</event>
<event>
 5   0  0.6606947E-03  0.1011822E+04  0.7818609E-02  0.9295673E-01
       -2   -1    0    0    0  501  0.00000000000E+00  0.00000000000E+00  0.16743059770E+03  0.16743059772E+03  0.25500000920E-02 0. -1.
        2   -1    0    0  501    0  0.00000000000E+00  0.00000000000E+00 -0.15286680169E+04  0.15286680170E+04  0.25500000920E-02 0.  1.
    10030    2    1    2    0    0  0.00000000000E+00  0.00000000000E+00 -0.13612374193E+04  0.16960986147E+04  0.10118217230E+04 0.  0.
        1    1    3    3  502    0  0.97241160437E+02 -0.46934024795E+03 -0.95199882758E+03  0.10658507773E+04  0.50400001928E-02 0.  1.
       -1    1    3    3    0  502 -0.97241160437E+02  0.46934024795E+03 -0.40923859167E+03  0.63024783742E+03  0.50400001928E-02 0. -1.
</event>
<event>
 5   0  0.2417750E-03  0.9969791E+03  0.7818609E-02  0.9311864E-01
       -3   -1    0    0    0  501  0.00000000000E+00  0.00000000000E+00  0.59897872180E+03  0.59897873032E+03  0.10100000352E+00 0. -1.
        3   -1    0    0  501    0  0.00000000000E+00  0.00000000000E+00 -0.41485919896E+03  0.41485921126E+03  0.10100000352E+00 0.  1.
    10030    2    1    2    0    0  0.00000000000E+00  0.00000000000E+00  0.18411952284E+03  0.10138379416E+04  0.99697912369E+03 0.  0.
        1    1    3    3  502    0  0.17692364868E+03  0.23565208364E+03 -0.31680626384E+03  0.43266625801E+03  0.50400001928E-02 0.  1.
       -1    1    3    3    0  502 -0.17692364868E+03 -0.23565208364E+03  0.50092578668E+03  0.58117168356E+03  0.50400001928E-02 0. -1.
</event>
<event>
 5   0  0.6199539E-03  0.9607573E+03  0.7818609E-02  0.9352665E-01
        2   -1    0    0  501    0  0.00000000000E+00  0.00000000000E+00  0.95106568634E+03  0.95106568634E+03  0.25500000920E-02 0.  1.
       -2   -1    0    0    0  501  0.00000000000E+00  0.00000000000E+00 -0.24263690559E+03  0.24263690561E+03  0.25500000920E-02 0. -1.
    10030    2    1    2    0    0  0.00000000000E+00  0.00000000000E+00  0.70842878074E+03  0.11937025919E+04  0.96075727457E+03 0.  0.
        2    1    3    3  502    0 -0.52218627796E+02 -0.42855639552E+03  0.92481782136E+02  0.44152038375E+03  0.25500000920E-02 0.  1.
       -2    1    3    3    0  502  0.52218627796E+02  0.42855639552E+03  0.61594699861E+03  0.75218220820E+03  0.25500000920E-02 0. -1.
</event>
<event>
 5   0  0.3640180E-03  0.1000550E+04  0.7818609E-02  0.9307942E-01
       -1   -1    0    0    0  501  0.00000000000E+00  0.00000000000E+00  0.39795806455E+03  0.39795806458E+03  0.50400001928E-02 0.  1.
        1   -1    0    0  501    0  0.00000000000E+00  0.00000000000E+00 -0.62889761620E+03  0.62889761622E+03  0.50400001928E-02 0. -1.
    10030    2    1    2    0    0  0.00000000000E+00  0.00000000000E+00 -0.23093955165E+03  0.10268556808E+04  0.10005496053E+04 0.  0.
        5    1    3    3  502    0  0.22893429296E+03 -0.23107407346E+03  0.27458403251E+03  0.42570484943E+03  0.46999998093E+01 0.  1.
       -5    1    3    3    0  502 -0.22893429296E+03  0.23107407346E+03 -0.50552358416E+03  0.60115083137E+03  0.46999998093E+01 0. -1.
</event>
<event>
 5   0  0.6360455E-03  0.9967863E+03  0.7818609E-02  0.9312077E-01
       -2   -1    0    0    0  501  0.00000000000E+00  0.00000000000E+00  0.29103993169E+03  0.29103993170E+03  0.25500000920E-02 0.  1.
        2   -1    0    0  501    0  0.00000000000E+00  0.00000000000E+00 -0.85347647164E+03  0.85347647164E+03  0.25500000920E-02 0. -1.
    10030    2    1    2    0    0  0.00000000000E+00  0.00000000000E+00 -0.56243653995E+03  0.11445164033E+04  0.99678630410E+03 0.  0.
        4    1    3    3  502    0  0.16828744430E+03  0.97556184664E+02 -0.80808894370E+03  0.83117220051E+03  0.12699999809E+01 0. -1.
       -4    1    3    3    0  502 -0.16828744430E+03 -0.97556184664E+02  0.24565240376E+03  0.31334420283E+03  0.12699999809E+01 0.  1.
</event>
<event>
 5   0  0.6022787E-03  0.9971727E+03  0.7818609E-02  0.9311651E-01
       -2   -1    0    0    0  501  0.00000000000E+00  0.00000000000E+00  0.96265560213E+02  0.96265560247E+02  0.25500000920E-02 0.  1.
        2   -1    0    0  501    0  0.00000000000E+00  0.00000000000E+00 -0.25823184553E+04  0.25823184553E+04  0.25500000920E-02 0. -1.
    10030    2    1    2    0    0  0.00000000000E+00  0.00000000000E+00 -0.24860528951E+04  0.26785840155E+04  0.99717266869E+03 0.  0.
        5    1    3    3  502    0 -0.33397603631E+03 -0.15012468540E+03 -0.21519271994E+04  0.21828628394E+04  0.46999998093E+01 0. -1.
       -5    1    3    3    0  502  0.33397603631E+03  0.15012468540E+03 -0.33412569570E+03  0.49572117619E+03  0.46999998093E+01 0.  1.
</event>
<event>
 5   0  0.3569359E-03  0.9443954E+03  0.7818609E-02  0.9371726E-01
       -1   -1    0    0    0  501  0.00000000000E+00  0.00000000000E+00  0.22011492294E+03  0.22011492300E+03  0.50400001928E-02 0. -1.
        1   -1    0    0  501    0  0.00000000000E+00  0.00000000000E+00 -0.10129739515E+04  0.10129739515E+04  0.50400001928E-02 0.  1.
    10030    2    1    2    0    0  0.00000000000E+00  0.00000000000E+00 -0.79285902854E+03  0.12330888745E+04  0.94439543267E+03 0.  0.
        4    1    3    3  502    0 -0.84306214991E+02 -0.43219196458E+02  0.20757603380E+03  0.22817725465E+03  0.12699999809E+01 0. -1.
       -4    1    3    3    0  502  0.84306214991E+02  0.43219196458E+02 -0.10004350623E+04  0.10049116198E+04  0.12699999809E+01 0.  1.
</event>
<event>
 5   0  0.6376961E-03  0.9934225E+03  0.7818609E-02  0.9315788E-01
       -2   -1    0    0    0  501  0.00000000000E+00  0.00000000000E+00  0.21639173007E+03  0.21639173008E+03  0.25500000920E-02 0. -1.
        2   -1    0    0  501    0  0.00000000000E+00  0.00000000000E+00 -0.11401639317E+04  0.11401639317E+04  0.25500000920E-02 0.  1.
    10030    2    1    2    0    0  0.00000000000E+00  0.00000000000E+00 -0.92377220162E+03  0.13565556618E+04  0.99342245949E+03 0.  0.
        3    1    3    3  502    0 -0.31101691064E+03 -0.20831339470E+03 -0.16051066832E+02  0.37467804320E+03  0.10100000352E+00 0. -1.
       -3    1    3    3    0  502  0.31101691064E+03  0.20831339470E+03 -0.90772113478E+03  0.98187761857E+03  0.10100000352E+00 0.  1.
</event>
<event>
 5   0  0.3640180E-03  0.1000852E+04  0.7818609E-02  0.9307611E-01
       -1   -1    0    0    0  501  0.00000000000E+00  0.00000000000E+00  0.89422302615E+03  0.89422302616E+03  0.50400001928E-02 0. -1.
        1   -1    0    0  501    0  0.00000000000E+00  0.00000000000E+00 -0.28004864668E+03  0.28004864672E+03  0.50400001928E-02 0.  1.
    10030    2    1    2    0    0  0.00000000000E+00  0.00000000000E+00  0.61417437947E+03  0.11742716729E+04  0.10008515341E+04 0.  0.
        5    1    3    3  502    0 -0.15672873556E+03 -0.82659746472E+02  0.85615786388E+03  0.87431396427E+03  0.46999998093E+01 0. -1.
       -5    1    3    3    0  502  0.15672873556E+03  0.82659746472E+02 -0.24198348441E+03  0.29995770862E+03  0.46999998093E+01 0.  1.
</event>
<event>
 5   0  0.3466598E-03  0.1001305E+04  0.7818609E-02  0.9307115E-01
       -1   -1    0    0    0  501  0.00000000000E+00  0.00000000000E+00  0.24058430730E+03  0.24058430735E+03  0.50400001928E-02 0.  1.
        1   -1    0    0  501    0  0.00000000000E+00  0.00000000000E+00 -0.10418506422E+04  0.10418506422E+04  0.50400001928E-02 0. -1.
    10030    2    1    2    0    0  0.00000000000E+00  0.00000000000E+00 -0.80126633490E+03  0.12824349496E+04  0.10013049787E+04 0.  0.
        3    1    3    3  502    0  0.18295462634E+02 -0.12724691356E+03  0.21908491280E+03  0.25401714544E+03  0.10100000352E+00 0.  1.
       -3    1    3    3    0  502 -0.18295462634E+02  0.12724691356E+03 -0.10203512477E+04  0.10284178041E+04  0.10100000352E+00 0. -1.
</event>
<event>
 5   0  0.3466598E-03  0.1007229E+04  0.7818609E-02  0.9300652E-01
       -1   -1    0    0    0  501  0.00000000000E+00  0.00000000000E+00  0.76816517415E+03  0.76816517417E+03  0.50400001928E-02 0. -1.
        1   -1    0    0  501    0  0.00000000000E+00  0.00000000000E+00 -0.33017295612E+03  0.33017295616E+03  0.50400001928E-02 0.  1.
    10030    2    1    2    0    0  0.00000000000E+00  0.00000000000E+00  0.43799221803E+03  0.10983381303E+04  0.10072286064E+04 0.  0.
        3    1    3    3  502    0 -0.94629679591E+02 -0.89505870388E+02  0.74947928253E+03  0.76071366640E+03  0.10100000352E+00 0. -1.
       -3    1    3    3    0  502  0.94629679591E+02  0.89505870388E+02 -0.31148706450E+03  0.33762446393E+03  0.10100000352E+00 0.  1.
</event>
<event>
 5   0  0.3569359E-03  0.1008566E+04  0.7818609E-02  0.9299200E-01
       -1   -1    0    0    0  501  0.00000000000E+00  0.00000000000E+00  0.35441877865E+03  0.35441877869E+03  0.50400001928E-02 0.  1.
        1   -1    0    0  501    0  0.00000000000E+00  0.00000000000E+00 -0.71751607545E+03  0.71751607547E+03  0.50400001928E-02 0. -1.
    10030    2    1    2    0    0  0.00000000000E+00  0.00000000000E+00 -0.36309729680E+03  0.10719348542E+04  0.10085656571E+04 0.  0.
        4    1    3    3  502    0  0.31637989731E+03  0.92458393134E+02  0.22407807935E+03  0.39856918148E+03  0.12699999809E+01 0.  1.
       -4    1    3    3    0  502 -0.31637989731E+03 -0.92458393134E+02 -0.58717537615E+03  0.67336567267E+03  0.12699999809E+01 0. -1.
</event>
<event>
 5   0  0.6376961E-03  0.9965277E+03  0.7818609E-02  0.9312361E-01
        2   -1    0    0  501    0  0.00000000000E+00  0.00000000000E+00  0.61814661197E+03  0.61814661198E+03  0.25500000920E-02 0.  1.
       -2   -1    0    0    0  501  0.00000000000E+00  0.00000000000E+00 -0.40163106610E+03  0.40163106611E+03  0.25500000920E-02 0. -1.
    10030    2    1    2    0    0  0.00000000000E+00  0.00000000000E+00  0.21651554587E+03  0.10197776781E+04  0.99652773726E+03 0.  0.
        3    1    3    3  502    0  0.15183149064E+03  0.14980549733E+03 -0.35255076137E+03  0.41205162071E+03  0.10100000352E+00 0. -1.
       -3    1    3    3    0  502 -0.15183149064E+03 -0.14980549733E+03  0.56906630725E+03  0.60772605738E+03  0.10100000352E+00 0.  1.
</event>
<event>
 5   0  0.3640180E-03  0.9896893E+03  0.7818609E-02  0.9319926E-01
       -1   -1    0    0    0  501  0.00000000000E+00  0.00000000000E+00  0.75244619865E+03  0.75244619867E+03  0.50400001928E-02 0.  1.
        1   -1    0    0  501    0  0.00000000000E+00  0.00000000000E+00 -0.32543352582E+03  0.32543352586E+03  0.50400001928E-02 0. -1.
    10030    2    1    2    0    0  0.00000000000E+00  0.00000000000E+00  0.42701267283E+03  0.10778797245E+04  0.98968928346E+03 0.  0.
        5    1    3    3  502    0  0.37140284920E+03 -0.28286773417E+03  0.39211658954E+03  0.60969807382E+03  0.46999998093E+01 0.  1.
       -5    1    3    3    0  502 -0.37140284920E+03  0.28286773417E+03  0.34896083286E+02  0.46818165070E+03  0.46999998093E+01 0. -1.
</event>
<event>
 5   0  0.6376961E-03  0.1018409E+04  0.7818609E-02  0.9288582E-01
       -2   -1    0    0    0  501  0.00000000000E+00  0.00000000000E+00  0.40031031289E+03  0.40031031290E+03  0.25500000920E-02 0.  1.
        2   -1    0    0  501    0  0.00000000000E+00  0.00000000000E+00 -0.64772028457E+03  0.64772028458E+03  0.25500000920E-02 0. -1.
    10030    2    1    2    0    0  0.00000000000E+00  0.00000000000E+00 -0.24740997168E+03  0.10480305975E+04  0.10184087780E+04 0.  0.
        3    1    3    3  502    0  0.48986203344E+03  0.29910731783E+02 -0.26340942492E+03  0.55699551077E+03  0.10100000352E+00 0. -1.
       -3    1    3    3    0  502 -0.48986203344E+03 -0.29910731783E+02  0.15999453237E+02  0.49103508671E+03  0.10100000352E+00 0.  1.
</event>
<event>
 5   0  0.6022787E-03  0.9871982E+03  0.7818609E-02  0.9322698E-01
       -2   -1    0    0    0  501  0.00000000000E+00  0.00000000000E+00  0.57339156475E+03  0.57339156476E+03  0.25500000920E-02 0. -1.
        2   -1    0    0  501    0  0.00000000000E+00  0.00000000000E+00 -0.42491043975E+03  0.42491043976E+03  0.25500000920E-02 0.  1.
    10030    2    1    2    0    0  0.00000000000E+00  0.00000000000E+00  0.14848112500E+03  0.99830200451E+03  0.98719818058E+03 0.  0.
        5    1    3    3  502    0 -0.45409274055E+02 -0.17069364570E+03  0.54031463114E+03  0.56847191089E+03  0.46999998093E+01 0. -1.
       -5    1    3    3    0  502  0.45409274055E+02  0.17069364570E+03 -0.39183350614E+03  0.42983009362E+03  0.46999998093E+01 0.  1.
</event>
<event>
 5   0  0.3643002E-03  0.1030457E+04  0.7818609E-02  0.9275757E-01
        1   -1    0    0  501    0  0.00000000000E+00  0.00000000000E+00  0.77676618888E+03  0.77676618889E+03  0.50400001928E-02 0.  1.
       -1   -1    0    0    0  501  0.00000000000E+00  0.00000000000E+00 -0.34175062735E+03  0.34175062739E+03  0.50400001928E-02 0. -1.
    10030    2    1    2    0    0  0.00000000000E+00  0.00000000000E+00  0.43501556153E+03  0.11185168163E+04  0.10304568548E+04 0.  0.
        2    1    3    3  502    0  0.31077445601E+03  0.30379360216E+03 -0.82889469846E+02  0.44242737194E+03  0.25500000920E-02 0. -1.
       -2    1    3    3    0  502 -0.31077445601E+03 -0.30379360216E+03  0.51790503137E+03  0.67608944434E+03  0.25500000920E-02 0.  1.
</event>
<event>
 5   0  0.3569359E-03  0.9873262E+03  0.7818609E-02  0.9322555E-01
        1   -1    0    0  501    0  0.00000000000E+00  0.00000000000E+00  0.11917953984E+04  0.11917953984E+04  0.50400001928E-02 0. -1.
       -1   -1    0    0    0  501  0.00000000000E+00  0.00000000000E+00 -0.20448415216E+03  0.20448415222E+03  0.50400001928E-02 0.  1.
    10030    2    1    2    0    0  0.00000000000E+00  0.00000000000E+00  0.98731124626E+03  0.13962795507E+04  0.98732623108E+03 0.  0.
        4    1    3    3  502    0 -0.15107988619E+02 -0.17974560173E+03 -0.15620854917E+03  0.23861989941E+03  0.12699999809E+01 0.  1.
       -4    1    3    3    0  502  0.15107988619E+02  0.17974560173E+03  0.11435197954E+04  0.11576596512E+04  0.12699999809E+01 0. -1.
</event>
<event>
 5   0  0.6199539E-03  0.1000461E+04  0.7818609E-02  0.9308039E-01
        2   -1    0    0  501    0  0.00000000000E+00  0.00000000000E+00  0.31338946096E+03  0.31338946097E+03  0.25500000920E-02 0.  1.
       -2   -1    0    0    0  501  0.00000000000E+00  0.00000000000E+00 -0.79846529807E+03  0.79846529807E+03  0.25500000920E-02 0. -1.
    10030    2    1    2    0    0  0.00000000000E+00  0.00000000000E+00 -0.48507583711E+03  0.11118547590E+04  0.10004611124E+04 0.  0.
        2    1    3    3  502    0  0.40923679396E+03 -0.89267307367E+02 -0.54645946781E+03  0.68852113668E+03  0.25500000920E-02 0. -1.
       -2    1    3    3    0  502 -0.40923679396E+03  0.89267307367E+02  0.61383630702E+02  0.42333362236E+03  0.25500000920E-02 0.  1.
</event>
<event>
 5   0  0.6376961E-03  0.9937129E+03  0.7818609E-02  0.9315467E-01
       -2   -1    0    0    0  501  0.00000000000E+00  0.00000000000E+00  0.22268973578E+03  0.22268973580E+03  0.25500000920E-02 0.  1.
        2   -1    0    0  501    0  0.00000000000E+00  0.00000000000E+00 -0.11085663056E+04  0.11085663056E+04  0.25500000920E-02 0. -1.
    10030    2    1    2    0    0  0.00000000000E+00  0.00000000000E+00 -0.88587656980E+03  0.13312560414E+04  0.99371291166E+03 0.  0.
        3    1    3    3  502    0 -0.98850307494E+02  0.60882372903E+02  0.20426420793E+03  0.23495089586E+03  0.10100000352E+00 0.  1.
       -3    1    3    3    0  502  0.98850307494E+02 -0.60882372903E+02 -0.10901407777E+04  0.10963051455E+04  0.10100000352E+00 0. -1.
</event>
<event>
 5   0  0.3608845E-03  0.9952794E+03  0.7818609E-02  0.9313737E-01
        1   -1    0    0  501    0  0.00000000000E+00  0.00000000000E+00  0.55006199141E+03  0.55006199143E+03  0.50400001928E-02 0.  1.
       -1   -1    0    0    0  501  0.00000000000E+00  0.00000000000E+00 -0.45021339608E+03  0.45021339610E+03  0.50400001928E-02 0. -1.
    10030    2    1    2    0    0  0.00000000000E+00  0.00000000000E+00  0.99848595335E+02  0.10002753875E+04  0.99527941249E+03 0.  0.
        1    1    3    3  502    0 -0.95606268555E+02  0.41639587903E+02  0.53895788841E+03  0.54895356759E+03  0.50400001928E-02 0.  1.
       -1    1    3    3    0  502  0.95606268555E+02 -0.41639587903E+02 -0.43910929308E+03  0.45132181994E+03  0.50400001928E-02 0. -1.
</event>
<event>
 5   0  0.6022787E-03  0.9946954E+03  0.7818609E-02  0.9314382E-01
        2   -1    0    0  501    0  0.00000000000E+00  0.00000000000E+00  0.54266246583E+03  0.54266246584E+03  0.25500000920E-02 0. -1.
       -2   -1    0    0    0  501  0.00000000000E+00  0.00000000000E+00 -0.45581692963E+03  0.45581692963E+03  0.25500000920E-02 0.  1.
    10030    2    1    2    0    0  0.00000000000E+00  0.00000000000E+00  0.86845536207E+02  0.99847939547E+03  0.99469540867E+03 0.  0.
        5    1    3    3  502    0  0.61965087268E+01 -0.26259819323E+03 -0.38048272255E+03  0.46236933286E+03  0.46999998093E+01 0.  1.
       -5    1    3    3    0  502 -0.61965087268E+01  0.26259819323E+03  0.46732825876E+03  0.53611006262E+03  0.46999998093E+01 0. -1.
</event>
<event>
 5   0  0.3569359E-03  0.9841178E+03  0.7818609E-02  0.9326138E-01
       -1   -1    0    0    0  501  0.00000000000E+00  0.00000000000E+00  0.21090107754E+03  0.21090107760E+03  0.50400001928E-02 0. -1.
        1   -1    0    0  501    0  0.00000000000E+00  0.00000000000E+00 -0.11480356610E+04  0.11480356610E+04  0.50400001928E-02 0.  1.
    10030    2    1    2    0    0  0.00000000000E+00  0.00000000000E+00 -0.93713458347E+03  0.13589367386E+04  0.98411779377E+03 0.  0.
        4    1    3    3  502    0 -0.25848902603E+03 -0.24565772605E+03 -0.93675291351E+03  0.10023332424E+04  0.12699999809E+01 0.  1.
       -4    1    3    3    0  502  0.25848902603E+03  0.24565772605E+03 -0.38166996124E+00  0.35660349622E+03  0.12699999809E+01 0. -1.
</event>
<event>
 5   0  0.3640180E-03  0.1009384E+04  0.7818609E-02  0.9298312E-01
        1   -1    0    0  501    0  0.00000000000E+00  0.00000000000E+00  0.16699473962E+04  0.16699473962E+04  0.50400001928E-02 0. -1.
       -1   -1    0    0    0  501  0.00000000000E+00  0.00000000000E+00 -0.15252819106E+03  0.15252819114E+03  0.50400001928E-02 0.  1.
    10030    2    1    2    0    0  0.00000000000E+00  0.00000000000E+00  0.15174192051E+04  0.18224755874E+04  0.10093840807E+04 0.  0.
        5    1    3    3  502    0  0.18913292764E+03  0.56844426764E+02 -0.79822477272E+02  0.21306400693E+03  0.46999998093E+01 0.  1.
       -5    1    3    3    0  502 -0.18913292764E+03 -0.56844426764E+02  0.15972416824E+04  0.16094115804E+04  0.46999998093E+01 0. -1.
</event>
<event>
 5   0  0.6199539E-03  0.9997057E+03  0.7818609E-02  0.9308868E-01
       -2   -1    0    0    0  501  0.00000000000E+00  0.00000000000E+00  0.15774245392E+03  0.15774245394E+03  0.25500000920E-02 0. -1.
        2   -1    0    0  501    0  0.00000000000E+00  0.00000000000E+00 -0.15839292748E+04  0.15839292748E+04  0.25500000920E-02 0.  1.
    10030    2    1    2    0    0  0.00000000000E+00  0.00000000000E+00 -0.14261868209E+04  0.17416717288E+04  0.99970573803E+03 0.  0.
        2    1    3    3  502    0  0.22083082072E+03 -0.37068306705E+03 -0.11527342640E+04  0.12308405546E+04  0.25500000920E-02 0.  1.
       -2    1    3    3    0  502 -0.22083082072E+03  0.37068306705E+03 -0.27345255696E+03  0.51083117416E+03  0.25500000920E-02 0. -1.
</event>
<event>
 5   0  0.3608845E-03  0.1012053E+04  0.7818609E-02  0.9295423E-01
        1   -1    0    0  501    0  0.00000000000E+00  0.00000000000E+00  0.20946174258E+04  0.20946174258E+04  0.50400001928E-02 0. -1.
       -1   -1    0    0    0  501  0.00000000000E+00  0.00000000000E+00 -0.12224800066E+03  0.12224800076E+03  0.50400001928E-02 0.  1.
    10030    2    1    2    0    0  0.00000000000E+00  0.00000000000E+00  0.19723694252E+04  0.22168654266E+04  0.10120529484E+04 0.  0.
        1    1    3    3  502    0  0.14002281560E+03  0.30014322150E+03  0.14814847132E+03  0.36282270034E+03  0.50400001928E-02 0.  1.
       -1    1    3    3    0  502 -0.14002281560E+03 -0.30014322150E+03  0.18242209538E+04  0.18540427263E+04  0.50400001928E-02 0. -1.
</event>
<event>
 5   0  0.3643002E-03  0.1000219E+04  0.7818609E-02  0.9308304E-01
        1   -1    0    0  501    0  0.00000000000E+00  0.00000000000E+00  0.94645432424E+03  0.94645432425E+03  0.50400001928E-02 0.  1.
       -1   -1    0    0    0  501  0.00000000000E+00  0.00000000000E+00 -0.26425957603E+03  0.26425957607E+03  0.50400001928E-02 0. -1.
    10030    2    1    2    0    0  0.00000000000E+00  0.00000000000E+00  0.68219474821E+03  0.12107139003E+04  0.10002192129E+04 0.  0.
        2    1    3    3  502    0 -0.17939796872E+03  0.18070682738E+03  0.86211221463E+03  0.89893050858E+03  0.25500000920E-02 0.  1.
       -2    1    3    3    0  502  0.17939796872E+03 -0.18070682738E+03 -0.17991746642E+03  0.31178339174E+03  0.25500000920E-02 0. -1.
</event>
<event>
 5   0  0.6022787E-03  0.9999081E+03  0.7818609E-02  0.9308646E-01
        2   -1    0    0  501    0  0.00000000000E+00  0.00000000000E+00  0.38064132108E+03  0.38064132109E+03  0.25500000920E-02 0.  1.
       -2   -1    0    0    0  501  0.00000000000E+00  0.00000000000E+00 -0.65666553521E+03  0.65666553521E+03  0.25500000920E-02 0. -1.
    10030    2    1    2    0    0  0.00000000000E+00  0.00000000000E+00 -0.27602421413E+03  0.10373068563E+04  0.99990806945E+03 0.  0.
        5    1    3    3  502    0  0.46181977126E+03  0.15713056583E+03 -0.24538933861E+02  0.48845856029E+03  0.46999998093E+01 0.  1.
       -5    1    3    3    0  502 -0.46181977126E+03 -0.15713056583E+03 -0.25148528027E+03  0.54884829601E+03  0.46999998093E+01 0. -1.
</event>
<event>
 5   0  0.6360455E-03  0.9757248E+03  0.7818609E-02  0.9335578E-01
        2   -1    0    0  501    0  0.00000000000E+00  0.00000000000E+00  0.64531821949E+03  0.64531821949E+03  0.25500000920E-02 0.  1.
       -2   -1    0    0    0  501  0.00000000000E+00  0.00000000000E+00 -0.36882534504E+03  0.36882534504E+03  0.25500000920E-02 0. -1.
    10030    2    1    2    0    0  0.00000000000E+00  0.00000000000E+00  0.27649287445E+03  0.10141435645E+04  0.97572478695E+03 0.  0.
        4    1    3    3  502    0  0.43448112830E+03 -0.13615579351E+03 -0.43854399441E+02  0.45742438960E+03  0.12699999809E+01 0.  1.
       -4    1    3    3    0  502 -0.43448112830E+03  0.13615579351E+03  0.32034727389E+03  0.55671917493E+03  0.12699999809E+01 0. -1.
</event>
<event>
 5   0  0.3643002E-03  0.1005301E+04  0.7818609E-02  0.9302750E-01
        1   -1    0    0  501    0  0.00000000000E+00  0.00000000000E+00  0.15764522998E+04  0.15764522998E+04  0.50400001928E-02 0. -1.
       -1   -1    0    0    0  501  0.00000000000E+00  0.00000000000E+00 -0.16026965825E+03  0.16026965833E+03  0.50400001928E-02 0.  1.
    10030    2    1    2    0    0  0.00000000000E+00  0.00000000000E+00  0.14161826416E+04  0.17367219582E+04  0.10053008931E+04 0.  0.
        2    1    3    3  502    0 -0.29385533448E+03 -0.35307138102E+02  0.62239679166E+01  0.29603427063E+03  0.25500000920E-02 0. -1.
       -2    1    3    3    0  502  0.29385533448E+03  0.35307138102E+02  0.14099586737E+04  0.14406876875E+04  0.25500000920E-02 0.  1.
</event>
<event>
 5   0  0.3466598E-03  0.9988615E+03  0.7818609E-02  0.9309794E-01
       -1   -1    0    0    0  501  0.00000000000E+00  0.00000000000E+00  0.72167664051E+03  0.72167664053E+03  0.50400001928E-02 0. -1.
        1   -1    0    0  501    0  0.00000000000E+00  0.00000000000E+00 -0.34562718061E+03  0.34562718065E+03  0.50400001928E-02 0.  1.
    10030    2    1    2    0    0  0.00000000000E+00  0.00000000000E+00  0.37604945990E+03  0.10673038212E+04  0.99886147709E+03 0.  0.
        3    1    3    3  502    0  0.21311923330E+03  0.23005672458E+03 -0.22730563890E+03  0.38731610837E+03  0.10100000352E+00 0.  1.
       -3    1    3    3    0  502 -0.21311923330E+03 -0.23005672458E+03  0.60335509880E+03  0.67998771281E+03  0.10100000352E+00 0. -1.
</event>
<event>
 5   0  0.3643002E-03  0.9626273E+03  0.7818609E-02  0.9350512E-01
        1   -1    0    0  501    0  0.00000000000E+00  0.00000000000E+00  0.86642632598E+03  0.86642632600E+03  0.50400001928E-02 0.  1.
       -1   -1    0    0    0  501  0.00000000000E+00  0.00000000000E+00 -0.26737739825E+03  0.26737739830E+03  0.50400001928E-02 0. -1.
    10030    2    1    2    0    0  0.00000000000E+00  0.00000000000E+00  0.59904892773E+03  0.11338037243E+04  0.96262727336E+03 0.  0.
        2    1    3    3  502    0  0.35366088046E+03  0.31703856406E+03  0.39131412751E+03  0.61539923291E+03  0.25500000920E-02 0.  1.
       -2    1    3    3    0  502 -0.35366088046E+03 -0.31703856406E+03  0.20773480022E+03  0.51840449140E+03  0.25500000920E-02 0. -1.
</event>
<event>
 5   0  0.6376961E-03  0.1001952E+04  0.7818609E-02  0.9306406E-01
        2   -1    0    0  501    0  0.00000000000E+00  0.00000000000E+00  0.64533897509E+03  0.64533897509E+03  0.25500000920E-02 0. -1.
       -2   -1    0    0    0  501  0.00000000000E+00  0.00000000000E+00 -0.38890721021E+03  0.38890721022E+03  0.25500000920E-02 0.  1.
    10030    2    1    2    0    0  0.00000000000E+00  0.00000000000E+00  0.25643176488E+03  0.10342461853E+04  0.10019520556E+04 0.  0.
        3    1    3    3  502    0 -0.32109991235E+03  0.70834060313E+02  0.51835879834E+03  0.61385541606E+03  0.10100000352E+00 0. -1.
       -3    1    3    3    0  502  0.32109991235E+03 -0.70834060313E+02 -0.26192703346E+03  0.42039076925E+03  0.10100000352E+00 0.  1.
</event>
<event>
 5   0  0.3640180E-03  0.9976108E+03  0.7818609E-02  0.9311169E-01
        1   -1    0    0  501    0  0.00000000000E+00  0.00000000000E+00  0.94956921492E+03  0.94956921494E+03  0.50400001928E-02 0. -1.
       -1   -1    0    0    0  501  0.00000000000E+00  0.00000000000E+00 -0.26202074720E+03  0.26202074725E+03  0.50400001928E-02 0.  1.
    10030    2    1    2    0    0  0.00000000000E+00  0.00000000000E+00  0.68754846773E+03  0.12115899622E+04  0.99761081640E+03 0.  0.
        5    1    3    3  502    0  0.42444700267E+03  0.14368627423E+03  0.60981094668E+03  0.75676448395E+03  0.46999998093E+01 0.  1.
       -5    1    3    3    0  502 -0.42444700267E+03 -0.14368627423E+03  0.77737521045E+02  0.45482547824E+03  0.46999998093E+01 0. -1.
</event>
<event>
 5   0  0.3569359E-03  0.9976779E+03  0.7818609E-02  0.9311095E-01
        1   -1    0    0  501    0  0.00000000000E+00  0.00000000000E+00  0.25358379828E+03  0.25358379833E+03  0.50400001928E-02 0.  1.
       -1   -1    0    0    0  501  0.00000000000E+00  0.00000000000E+00 -0.98129423140E+03  0.98129423141E+03  0.50400001928E-02 0. -1.
    10030    2    1    2    0    0  0.00000000000E+00  0.00000000000E+00 -0.72771043312E+03  0.12348780297E+04  0.99767794095E+03 0.  0.
        4    1    3    3  502    0  0.73053279388E+02  0.11751129465E+03  0.22935359385E+03  0.26786259521E+03  0.12699999809E+01 0.  1.
       -4    1    3    3    0  502 -0.73053279388E+02 -0.11751129465E+03 -0.95706402697E+03  0.96701543453E+03  0.12699999809E+01 0. -1.
</event>
<event>
 5   0  0.3466598E-03  0.9260067E+03  0.7818609E-02  0.9393643E-01
       -1   -1    0    0    0  501  0.00000000000E+00  0.00000000000E+00  0.54971251374E+03  0.54971251377E+03  0.50400001928E-02 0. -1.
        1   -1    0    0  501    0  0.00000000000E+00  0.00000000000E+00 -0.38997125846E+03  0.38997125849E+03  0.50400001928E-02 0.  1.
    10030    2    1    2    0    0  0.00000000000E+00  0.00000000000E+00  0.15974125528E+03  0.93968377226E+03  0.92600665398E+03 0.  0.
        3    1    3    3  502    0 -0.38927068364E+03  0.95652131429E+02  0.31500638086E+03  0.50981371654E+03  0.10100000352E+00 0. -1.
       -3    1    3    3    0  502  0.38927068364E+03 -0.95652131429E+02 -0.15526512558E+03  0.42987005572E+03  0.10100000352E+00 0.  1.
</event>
<event>
 5   0  0.6606947E-03  0.1005708E+04  0.7818609E-02  0.9302306E-01
        2   -1    0    0  501    0  0.00000000000E+00  0.00000000000E+00  0.12179658995E+04  0.12179658995E+04  0.25500000920E-02 0. -1.
       -2   -1    0    0    0  501  0.00000000000E+00  0.00000000000E+00 -0.20761039620E+03  0.20761039622E+03  0.25500000920E-02 0.  1.
    10030    2    1    2    0    0  0.00000000000E+00  0.00000000000E+00  0.10103555033E+04  0.14255762957E+04  0.10057084726E+04 0.  0.
        1    1    3    3  502    0 -0.21439285687E+03  0.15982458919E+02  0.11495373981E+04  0.11694682405E+04  0.50400001928E-02 0. -1.
       -1    1    3    3    0  502  0.21439285687E+03 -0.15982458919E+02 -0.13918189477E+03  0.25610805518E+03  0.50400001928E-02 0.  1.
</event>
<event>
 5   0  0.3608845E-03  0.9970174E+03  0.7818609E-02  0.9311822E-01
       -1   -1    0    0    0  501  0.00000000000E+00  0.00000000000E+00  0.21620202699E+03  0.21620202705E+03  0.50400001928E-02 0.  1.
        1   -1    0    0  501    0  0.00000000000E+00  0.00000000000E+00 -0.11494385627E+04  0.11494385627E+04  0.50400001928E-02 0. -1.
    10030    2    1    2    0    0  0.00000000000E+00  0.00000000000E+00 -0.93323653569E+03  0.13656405897E+04  0.99701744658E+03 0.  0.
        1    1    3    3  502    0 -0.11125634552E+03 -0.23661804660E+03  0.11474101494E+03  0.28553734419E+03  0.50400001928E-02 0.  1.
       -1    1    3    3    0  502  0.11125634552E+03  0.23661804660E+03 -0.10479775506E+04  0.10801032455E+04  0.50400001928E-02 0. -1.
</event>
<event>
 5   0  0.6376961E-03  0.1005153E+04  0.7818609E-02  0.9302911E-01
       -2   -1    0    0    0  501  0.00000000000E+00  0.00000000000E+00  0.15299555161E+03  0.15299555163E+03  0.25500000920E-02 0. -1.
        2   -1    0    0  501    0  0.00000000000E+00  0.00000000000E+00 -0.16509176121E+04  0.16509176121E+04  0.25500000920E-02 0.  1.
    10030    2    1    2    0    0  0.00000000000E+00  0.00000000000E+00 -0.14979220605E+04  0.18039131637E+04  0.10051528257E+04 0.  0.
        3    1    3    3  502    0 -0.33578862795E+03  0.37392851623E+03 -0.74438458730E+03  0.89815642397E+03  0.10100000352E+00 0. -1.
       -3    1    3    3    0  502  0.33578862795E+03 -0.37392851623E+03 -0.75353747316E+03  0.90575673973E+03  0.10100000352E+00 0.  1.
</event>
<event>
 5   0  0.6376961E-03  0.9566222E+03  0.7818609E-02  0.9357444E-01
       -2   -1    0    0    0  501  0.00000000000E+00  0.00000000000E+00  0.32804788867E+03  0.32804788868E+03  0.25500000920E-02 0. -1.
        2   -1    0    0  501    0  0.00000000000E+00  0.00000000000E+00 -0.69740274782E+03  0.69740274783E+03  0.25500000920E-02 0.  1.
    10030    2    1    2    0    0  0.00000000000E+00  0.00000000000E+00 -0.36935485915E+03  0.10254506365E+04  0.95662218035E+03 0.  0.
        3    1    3    3  502    0  0.83865605257E+02 -0.37904851861E+03 -0.48419144686E+03  0.62060662792E+03  0.10100000352E+00 0.  1.
       -3    1    3    3    0  502 -0.83865605257E+02  0.37904851861E+03  0.11483658771E+03  0.40484400859E+03  0.10100000352E+00 0. -1.
</event>
<event>
 5   0  0.6360455E-03  0.1001633E+04  0.7818609E-02  0.9306756E-01
       -2   -1    0    0    0  501  0.00000000000E+00  0.00000000000E+00  0.31896933145E+03  0.31896933146E+03  0.25500000920E-02 0. -1.
        2   -1    0    0  501    0  0.00000000000E+00  0.00000000000E+00 -0.78633563129E+03  0.78633563130E+03  0.25500000920E-02 0.  1.
    10030    2    1    2    0    0  0.00000000000E+00  0.00000000000E+00 -0.46736629984E+03  0.11053049628E+04  0.10016325686E+04 0.  0.
        4    1    3    3  502    0  0.23464756880E+03  0.39410564793E+03 -0.45558502330E+03  0.64648129875E+03  0.12699999809E+01 0.  1.
       -4    1    3    3    0  502 -0.23464756880E+03 -0.39410564793E+03 -0.11781276543E+02  0.45882366401E+03  0.12699999809E+01 0. -1.
</event>
<event>
 5   0  0.3466598E-03  0.1005669E+04  0.7818609E-02  0.9302349E-01
        1   -1    0    0  501    0  0.00000000000E+00  0.00000000000E+00  0.10549686375E+04  0.10549686375E+04  0.50400001928E-02 0.  1.
       -1   -1    0    0    0  501  0.00000000000E+00  0.00000000000E+00 -0.23966813762E+03  0.23966813767E+03  0.50400001928E-02 0. -1.
    10030    2    1    2    0    0  0.00000000000E+00  0.00000000000E+00  0.81530049990E+03  0.12946367752E+04  0.10056686704E+04 0.  0.
        3    1    3    3  502    0 -0.36603359528E+02 -0.43273376401E+03  0.73394451994E+03  0.85280295789E+03  0.10100000352E+00 0.  1.
       -3    1    3    3    0  502  0.36603359528E+02  0.43273376401E+03  0.81355979959E+02  0.44183381731E+03  0.10100000352E+00 0. -1.
</event>
<event>
 5   0  0.6360455E-03  0.9854385E+03  0.7818609E-02  0.9324661E-01
       -2   -1    0    0    0  501  0.00000000000E+00  0.00000000000E+00  0.30211785175E+03  0.30211785176E+03  0.25500000920E-02 0. -1.
        2   -1    0    0  501    0  0.00000000000E+00  0.00000000000E+00 -0.80356808424E+03  0.80356808425E+03  0.25500000920E-02 0.  1.
    10030    2    1    2    0    0  0.00000000000E+00  0.00000000000E+00 -0.50145023250E+03  0.11056859360E+04  0.98543850818E+03 0.  0.
        4    1    3    3  502    0 -0.30735373702E+03 -0.17005422624E+02 -0.68239856376E+03  0.74861533298E+03  0.12699999809E+01 0.  1.
       -4    1    3    3    0  502  0.30735373702E+03  0.17005422624E+02  0.18094833126E+03  0.35707060302E+03  0.12699999809E+01 0. -1.
</event>
<event>
 5   0  0.3640180E-03  0.1001358E+04  0.7818609E-02  0.9307056E-01
        1   -1    0    0  501    0  0.00000000000E+00  0.00000000000E+00  0.54903901030E+03  0.54903901032E+03  0.50400001928E-02 0.  1.
       -1   -1    0    0    0  501  0.00000000000E+00  0.00000000000E+00 -0.45657894744E+03  0.45657894747E+03  0.50400001928E-02 0. -1.
    10030    2    1    2    0    0  0.00000000000E+00  0.00000000000E+00  0.92460062857E+02  0.10056179578E+04  0.10013583843E+04 0.  0.
        5    1    3    3  502    0  0.19495422080E+03 -0.18963357162E+03  0.46836262080E+03  0.54162133845E+03  0.46999998093E+01 0.  1.
       -5    1    3    3    0  502 -0.19495422080E+03  0.18963357162E+03 -0.37590255795E+03  0.46399661935E+03  0.46999998093E+01 0. -1.
</event>
<event>
 5   0  0.6606947E-03  0.1000669E+04  0.7818609E-02  0.9307812E-01
        2   -1    0    0  501    0  0.00000000000E+00  0.00000000000E+00  0.46908609252E+03  0.46908609253E+03  0.25500000920E-02 0. -1.
       -2   -1    0    0    0  501  0.00000000000E+00  0.00000000000E+00 -0.53366404773E+03  0.53366404774E+03  0.25500000920E-02 0.  1.
    10030    2    1    2    0    0  0.00000000000E+00  0.00000000000E+00 -0.64577955212E+02  0.10027501403E+04  0.10006685423E+04 0.  0.
        1    1    3    3  502    0 -0.15421799954E+03  0.22050116199E+03 -0.45498445112E+03  0.52859701532E+03  0.50400001928E-02 0.  1.
       -1    1    3    3    0  502  0.15421799954E+03 -0.22050116199E+03  0.39040649591E+03  0.47415312494E+03  0.50400001928E-02 0. -1.
</event>
<event>
 5   0  0.3643002E-03  0.9739536E+03  0.7818609E-02  0.9337582E-01
       -1   -1    0    0    0  501  0.00000000000E+00  0.00000000000E+00  0.12520322768E+03  0.12520322779E+03  0.50400001928E-02 0. -1.
        1   -1    0    0  501    0  0.00000000000E+00  0.00000000000E+00 -0.18940919134E+04  0.18940919134E+04  0.50400001928E-02 0.  1.
    10030    2    1    2    0    0  0.00000000000E+00  0.00000000000E+00 -0.17688886857E+04  0.20192951411E+04  0.97395363584E+03 0.  0.
        2    1    3    3  502    0  0.40900193936E+03  0.10475712708E+03 -0.13875758096E+04  0.14503872826E+04  0.25500000920E-02 0.  1.
       -2    1    3    3    0  502 -0.40900193936E+03 -0.10475712708E+03 -0.38131287608E+03  0.56890785858E+03  0.25500000920E-02 0. -1.
</event>
<event>
 5   0  0.6022787E-03  0.1007012E+04  0.7818609E-02  0.9300887E-01
       -2   -1    0    0    0  501  0.00000000000E+00  0.00000000000E+00  0.82018655319E+03  0.82018655319E+03  0.25500000920E-02 0.  1.
        2   -1    0    0  501    0  0.00000000000E+00  0.00000000000E+00 -0.30909846163E+03  0.30909846164E+03  0.25500000920E-02 0. -1.
    10030    2    1    2    0    0  0.00000000000E+00  0.00000000000E+00  0.51108809155E+03  0.11292850148E+04  0.10070122181E+04 0.  0.
        5    1    3    3  502    0 -0.37915377785E+03  0.27184233630E+03  0.46784681846E+03  0.66072579684E+03  0.46999998093E+01 0. -1.
       -5    1    3    3    0  502  0.37915377785E+03 -0.27184233630E+03  0.43241273090E+02  0.46855921799E+03  0.46999998093E+01 0.  1.
</event>
<event>
 5   0  0.3466598E-03  0.1129966E+04  0.7818609E-02  0.9176467E-01
        1   -1    0    0  501    0  0.00000000000E+00  0.00000000000E+00  0.13457665453E+04  0.13457665453E+04  0.50400001928E-02 0.  1.
       -1   -1    0    0    0  501  0.00000000000E+00  0.00000000000E+00 -0.23719259252E+03  0.23719259257E+03  0.50400001928E-02 0. -1.
    10030    2    1    2    0    0  0.00000000000E+00  0.00000000000E+00  0.11085739528E+04  0.15829591379E+04  0.11299661160E+04 0.  0.
        3    1    3    3  502    0  0.28198432191E+03  0.48389426868E+03  0.65852892226E+03  0.86448202567E+03  0.10100000352E+00 0. -1.
       -3    1    3    3    0  502 -0.28198432191E+03 -0.48389426868E+03  0.45004503052E+03  0.71847711220E+03  0.10100000352E+00 0.  1.
</event>
<event>
 5   0  0.3466598E-03  0.9859952E+03  0.7818609E-02  0.9324040E-01
        1   -1    0    0  501    0  0.00000000000E+00  0.00000000000E+00  0.81212471075E+03  0.81212471077E+03  0.50400001928E-02 0. -1.
       -1   -1    0    0    0  501  0.00000000000E+00  0.00000000000E+00 -0.29927252519E+03  0.29927252524E+03  0.50400001928E-02 0.  1.
    10030    2    1    2    0    0  0.00000000000E+00  0.00000000000E+00  0.51285218556E+03  0.11113972360E+04  0.98599515818E+03 0.  0.
        3    1    3    3  502    0 -0.47476032377E+03 -0.73504907128E+02  0.38116340484E+03  0.61325841844E+03  0.10100000352E+00 0. -1.
       -3    1    3    3    0  502  0.47476032377E+03  0.73504907128E+02  0.13168878072E+03  0.49813881756E+03  0.10100000352E+00 0.  1.
</event>
<event>
 5   0  0.2417750E-03  0.9990746E+03  0.7818609E-02  0.9309560E-01
        3   -1    0    0  501    0  0.00000000000E+00  0.00000000000E+00  0.94633167884E+03  0.94633168423E+03  0.10100000352E+00 0. -1.
       -3   -1    0    0    0  501  0.00000000000E+00  0.00000000000E+00 -0.26368927860E+03  0.26368929795E+03  0.10100000352E+00 0.  1.
    10030    2    1    2    0    0  0.00000000000E+00  0.00000000000E+00  0.68264240023E+03  0.12100209822E+04  0.99907463720E+03 0.  0.
        2    1    3    3  502    0 -0.36549235969E+03 -0.14386823398E+03 -0.32478027369E+02  0.39412885712E+03  0.25500000920E-02 0. -1.
       -2    1    3    3    0  502  0.36549235969E+03  0.14386823398E+03  0.71512042760E+03  0.81589212505E+03  0.25500000920E-02 0.  1.
</event>
<event>
 5   0  0.3608845E-03  0.1002196E+04  0.7818609E-02  0.9306139E-01
       -1   -1    0    0    0  501  0.00000000000E+00  0.00000000000E+00  0.16435638469E+03  0.16435638477E+03  0.50400001928E-02 0. -1.
        1   -1    0    0  501    0  0.00000000000E+00  0.00000000000E+00 -0.15277730651E+04  0.15277730651E+04  0.50400001928E-02 0.  1.
    10030    2    1    2    0    0  0.00000000000E+00  0.00000000000E+00 -0.13634166804E+04  0.16921294498E+04  0.10021961039E+04 0.  0.
        1    1    3    3  502    0  0.57766296563E+01 -0.38778951855E+03 -0.12174601465E+04  0.12777414795E+04  0.50400001928E-02 0.  1.
       -1    1    3    3    0  502 -0.57766296563E+01  0.38778951855E+03 -0.14595653388E+03  0.41438797033E+03  0.50400001928E-02 0. -1.
</event>
<event>
 5   0  0.3643002E-03  0.9948837E+03  0.7818609E-02  0.9314174E-01
       -1   -1    0    0    0  501  0.00000000000E+00  0.00000000000E+00  0.26389740714E+03  0.26389740719E+03  0.50400001928E-02 0. -1.
        1   -1    0    0  501    0  0.00000000000E+00  0.00000000000E+00 -0.93766894712E+03  0.93766894713E+03  0.50400001928E-02 0.  1.
    10030    2    1    2    0    0  0.00000000000E+00  0.00000000000E+00 -0.67377153998E+03  0.12015663543E+04  0.99488371971E+03 0.  0.
        2    1    3    3  502    0  0.17984134187E+03 -0.24342567429E+03 -0.81367677481E+03  0.86814103752E+03  0.25500000920E-02 0.  1.
       -2    1    3    3    0  502 -0.17984134187E+03  0.24342567429E+03  0.13990523483E+03  0.33342531681E+03  0.25500000920E-02 0. -1.
</event>
<event>
 5   0  0.3640180E-03  0.9947673E+03  0.7818609E-02  0.9314303E-01
        1   -1    0    0  501    0  0.00000000000E+00  0.00000000000E+00  0.11021664775E+04  0.11021664775E+04  0.50400001928E-02 0. -1.
       -1   -1    0    0    0  501  0.00000000000E+00  0.00000000000E+00 -0.22445836740E+03  0.22445836745E+03  0.50400001928E-02 0.  1.
    10030    2    1    2    0    0  0.00000000000E+00  0.00000000000E+00  0.87770811009E+03  0.13266248450E+04  0.99476728571E+03 0.  0.
        5    1    3    3  502    0 -0.45691135335E+03 -0.45959514250E+02  0.69359718082E+03  0.83185299243E+03  0.46999998093E+01 0. -1.
       -5    1    3    3    0  502  0.45691135335E+03  0.45959514250E+02  0.18411092927E+03  0.49477185252E+03  0.46999998093E+01 0.  1.
</event>
<event>
 5   0  0.6022787E-03  0.9969622E+03  0.7818609E-02  0.9311883E-01
       -2   -1    0    0    0  501  0.00000000000E+00  0.00000000000E+00  0.77586084423E+03  0.77586084423E+03  0.25500000920E-02 0.  1.
        2   -1    0    0  501    0  0.00000000000E+00  0.00000000000E+00 -0.32026799340E+03  0.32026799341E+03  0.25500000920E-02 0. -1.
    10030    2    1    2    0    0  0.00000000000E+00  0.00000000000E+00  0.45559285083E+03  0.10961288376E+04  0.99696217731E+03 0.  0.
        5    1    3    3  502    0  0.38648322300E+03  0.65213037554E+02 -0.11079585633E+03  0.40733258365E+03  0.46999998093E+01 0. -1.
       -5    1    3    3    0  502 -0.38648322300E+03 -0.65213037554E+02  0.56638870715E+03  0.68879625399E+03  0.46999998093E+01 0.  1.
</event>
<event>
 5   0  0.3640180E-03  0.1005402E+04  0.7818609E-02  0.9302640E-01
        1   -1    0    0  501    0  0.00000000000E+00  0.00000000000E+00  0.29522270848E+03  0.29522270852E+03  0.50400001928E-02 0. -1.
       -1   -1    0    0    0  501  0.00000000000E+00  0.00000000000E+00 -0.85599151369E+03  0.85599151371E+03  0.50400001928E-02 0.  1.
    10030    2    1    2    0    0  0.00000000000E+00  0.00000000000E+00 -0.56076880521E+03  0.11512142222E+04  0.10054016772E+04 0.  0.
        5    1    3    3  502    0 -0.19621507551E+03 -0.24831733179E+03 -0.72756804040E+03  0.79343506132E+03  0.46999998093E+01 0.  1.
       -5    1    3    3    0  502  0.19621507551E+03  0.24831733179E+03  0.16679923518E+03  0.35777916091E+03  0.46999998093E+01 0. -1.
</event>
<event>
 5   0  0.6606947E-03  0.9935977E+03  0.7818609E-02  0.9315595E-01
       -2   -1    0    0    0  501  0.00000000000E+00  0.00000000000E+00  0.96658138404E+03  0.96658138405E+03  0.25500000920E-02 0. -1.
        2   -1    0    0  501    0  0.00000000000E+00  0.00000000000E+00 -0.25534230844E+03  0.25534230846E+03  0.25500000920E-02 0.  1.
    10030    2    1    2    0    0  0.00000000000E+00  0.00000000000E+00  0.71123907560E+03  0.12219236925E+04  0.99359774942E+03 0.  0.
        1    1    3    3  502    0  0.40403323054E+03  0.28907377675E+03  0.35362813818E+03  0.60980272213E+03  0.50400001928E-02 0. -1.
       -1    1    3    3    0  502 -0.40403323054E+03 -0.28907377675E+03  0.35761093742E+03  0.61212097037E+03  0.50400001928E-02 0.  1.
</event>
<event>
 5   0  0.3608845E-03  0.9986531E+03  0.7818609E-02  0.9310023E-01
        1   -1    0    0  501    0  0.00000000000E+00  0.00000000000E+00  0.24446514615E+03  0.24446514620E+03  0.50400001928E-02 0. -1.
       -1   -1    0    0    0  501  0.00000000000E+00  0.00000000000E+00 -0.10198877412E+04  0.10198877412E+04  0.50400001928E-02 0.  1.
    10030    2    1    2    0    0  0.00000000000E+00  0.00000000000E+00 -0.77542259507E+03  0.12643528874E+04  0.99865310444E+03 0.  0.
        1    1    3    3  502    0  0.17997083352E+03  0.42815915563E+03 -0.15557947017E+03  0.48981091763E+03  0.50400001928E-02 0. -1.
       -1    1    3    3    0  502 -0.17997083352E+03 -0.42815915563E+03 -0.61984312490E+03  0.77454196980E+03  0.50400001928E-02 0.  1.
</event>
<event>
 5   0  0.6360455E-03  0.9998386E+03  0.7818609E-02  0.9308722E-01
        2   -1    0    0  501    0  0.00000000000E+00  0.00000000000E+00  0.24130329947E+04  0.24130329947E+04  0.25500000920E-02 0. -1.
       -2   -1    0    0    0  501  0.00000000000E+00  0.00000000000E+00 -0.10357061849E+03  0.10357061852E+03  0.25500000920E-02 0.  1.
    10030    2    1    2    0    0  0.00000000000E+00  0.00000000000E+00  0.23094623762E+04  0.25166036132E+04  0.99983862644E+03 0.  0.
        4    1    3    3  502    0 -0.47955611035E+03  0.68545839253E+02  0.14655091481E+04  0.15434996829E+04  0.12699999809E+01 0. -1.
       -4    1    3    3    0  502  0.47955611035E+03 -0.68545839253E+02  0.84395322808E+03  0.97310393029E+03  0.12699999809E+01 0.  1.
</event>
<event>
 5   0  0.6376961E-03  0.9940728E+03  0.7818609E-02  0.9315070E-01
        2   -1    0    0  501    0  0.00000000000E+00  0.00000000000E+00  0.84351851291E+03  0.84351851291E+03  0.25500000920E-02 0. -1.
       -2   -1    0    0    0  501  0.00000000000E+00  0.00000000000E+00 -0.29287464352E+03  0.29287464353E+03  0.25500000920E-02 0.  1.
    10030    2    1    2    0    0  0.00000000000E+00  0.00000000000E+00  0.55064386939E+03  0.11363931564E+04  0.99407280172E+03 0.  0.
        3    1    3    3  502    0 -0.16362538087E+03  0.36356818797E+03  0.61461417152E+03  0.73260199468E+03  0.10100000352E+00 0. -1.
       -3    1    3    3    0  502  0.16362538087E+03 -0.36356818797E+03 -0.63970302129E+02  0.40379116177E+03  0.10100000352E+00 0.  1.
</event>
<event>
 5   0  0.3466598E-03  0.9866207E+03  0.7818609E-02  0.9323342E-01
       -1   -1    0    0    0  501  0.00000000000E+00  0.00000000000E+00  0.28854712298E+03  0.28854712302E+03  0.50400001928E-02 0.  1.
        1   -1    0    0  501    0  0.00000000000E+00  0.00000000000E+00 -0.84338086851E+03  0.84338086853E+03  0.50400001928E-02 0. -1.
    10030    2    1    2    0    0  0.00000000000E+00  0.00000000000E+00 -0.55483374553E+03  0.11319279915E+04  0.98662074419E+03 0.  0.
        3    1    3    3  502    0  0.76566734614E+02 -0.44439973587E+03 -0.47956962055E+02  0.45349032018E+03  0.10100000352E+00 0.  1.
       -3    1    3    3    0  502 -0.76566734614E+02  0.44439973587E+03 -0.50687678348E+03  0.67843767136E+03  0.10100000352E+00 0. -1.
</event>
<event>
 5   0  0.3640180E-03  0.1016388E+04  0.7818609E-02  0.9290752E-01
       -1   -1    0    0    0  501  0.00000000000E+00  0.00000000000E+00  0.54235861644E+03  0.54235861646E+03  0.50400001928E-02 0.  1.
        1   -1    0    0  501    0  0.00000000000E+00  0.00000000000E+00 -0.47618108588E+03  0.47618108591E+03  0.50400001928E-02 0. -1.
    10030    2    1    2    0    0  0.00000000000E+00  0.00000000000E+00  0.66177530558E+02  0.10185397024E+04  0.10163875539E+04 0.  0.
        5    1    3    3  502    0  0.28595100651E+03  0.20291846829E+03  0.40169222272E+03  0.53321910570E+03  0.46999998093E+01 0.  1.
       -5    1    3    3    0  502 -0.28595100651E+03 -0.20291846829E+03 -0.33551469216E+03  0.48532059667E+03  0.46999998093E+01 0. -1.
</event>
<event>
 5   0  0.2417750E-03  0.1006942E+04  0.7818609E-02  0.9300963E-01
        3   -1    0    0  501    0  0.00000000000E+00  0.00000000000E+00  0.36256352024E+03  0.36256353431E+03  0.10100000352E+00 0. -1.
       -3   -1    0    0    0  501  0.00000000000E+00  0.00000000000E+00 -0.69914111616E+03  0.69914112345E+03  0.10100000352E+00 0.  1.
    10030    2    1    2    0    0  0.00000000000E+00  0.00000000000E+00 -0.33657759591E+03  0.10617046578E+04  0.10069420551E+04 0.  0.
        4    1    3    3  502    0 -0.44719777616E+03  0.84456856521E+02  0.58741267126E+02  0.45888011613E+03  0.12699999809E+01 0. -1.
       -4    1    3    3    0  502  0.44719777616E+03 -0.84456856521E+02 -0.39531886304E+03  0.60282454163E+03  0.12699999809E+01 0.  1.
</event>
<event>
 5   0  0.3643002E-03  0.8889133E+03  0.7818609E-02  0.9439547E-01
       -1   -1    0    0    0  501  0.00000000000E+00  0.00000000000E+00  0.19856149408E+03  0.19856149414E+03  0.50400001928E-02 0. -1.
        1   -1    0    0  501    0  0.00000000000E+00  0.00000000000E+00 -0.99486408643E+03  0.99486408645E+03  0.50400001928E-02 0.  1.
    10030    2    1    2    0    0  0.00000000000E+00  0.00000000000E+00 -0.79630259236E+03  0.11934255806E+04  0.88891326788E+03 0.  0.
        2    1    3    3  502    0  0.13344274166E+03  0.34994616650E+03 -0.71944979842E+03  0.81109635506E+03  0.25500000920E-02 0.  1.
       -2    1    3    3    0  502 -0.13344274166E+03 -0.34994616650E+03 -0.76852793940E+02  0.38232922553E+03  0.25500000920E-02 0. -1.
</event>
<event>
 5   0  0.6022787E-03  0.1001365E+04  0.7818609E-02  0.9307049E-01
       -2   -1    0    0    0  501  0.00000000000E+00  0.00000000000E+00  0.26770337715E+03  0.26770337717E+03  0.25500000920E-02 0. -1.
        2   -1    0    0  501    0  0.00000000000E+00  0.00000000000E+00 -0.93642084775E+03  0.93642084775E+03  0.25500000920E-02 0.  1.
    10030    2    1    2    0    0  0.00000000000E+00  0.00000000000E+00 -0.66871747059E+03  0.12041242249E+04  0.10013651150E+04 0.  0.
        5    1    3    3  502    0  0.42991251940E+02 -0.40977634954E+03  0.76541260505E+01  0.41212325829E+03  0.46999998093E+01 0. -1.
       -5    1    3    3    0  502 -0.42991251940E+02  0.40977634954E+03 -0.67637159664E+03  0.79200096662E+03  0.46999998093E+01 0.  1.
</event>
<event>
 5   0  0.6199539E-03  0.9941859E+03  0.7818609E-02  0.9314945E-01
        2   -1    0    0  501    0  0.00000000000E+00  0.00000000000E+00  0.71413802253E+03  0.71413802253E+03  0.25500000920E-02 0.  1.
       -2   -1    0    0    0  501  0.00000000000E+00  0.00000000000E+00 -0.34601348247E+03  0.34601348248E+03  0.25500000920E-02 0. -1.
    10030    2    1    2    0    0  0.00000000000E+00  0.00000000000E+00  0.36812454006E+03  0.10601515050E+04  0.99418586621E+03 0.  0.
        2    1    3    3  502    0  0.30837865439E+03 -0.34285788142E+03  0.38199175098E+03  0.59880432459E+03  0.25500000920E-02 0.  1.
       -2    1    3    3    0  502 -0.30837865439E+03  0.34285788142E+03 -0.13867210915E+02  0.46134718041E+03  0.25500000920E-02 0. -1.
</event>
<event>
 5   0  0.6376961E-03  0.9972537E+03  0.7818609E-02  0.9311562E-01
       -2   -1    0    0    0  501  0.00000000000E+00  0.00000000000E+00  0.15905074937E+03  0.15905074939E+03  0.25500000920E-02 0. -1.
        2   -1    0    0  501    0  0.00000000000E+00  0.00000000000E+00 -0.15632037886E+04  0.15632037886E+04  0.25500000920E-02 0.  1.
    10030    2    1    2    0    0  0.00000000000E+00  0.00000000000E+00 -0.14041530392E+04  0.17222545380E+04  0.99725369694E+03 0.  0.
        3    1    3    3  502    0 -0.34426808840E+03  0.29940138625E+03 -0.10494864905E+04  0.11443703993E+04  0.10100000352E+00 0.  1.
       -3    1    3    3    0  502  0.34426808840E+03 -0.29940138625E+03 -0.35466654867E+03  0.57788413867E+03  0.10100000352E+00 0. -1.
</event>
<event>
 5   0  0.6199539E-03  0.9810175E+03  0.7818609E-02  0.9329613E-01
        2   -1    0    0  501    0  0.00000000000E+00  0.00000000000E+00  0.16337561615E+04  0.16337561615E+04  0.25500000920E-02 0. -1.
       -2   -1    0    0    0  501  0.00000000000E+00  0.00000000000E+00 -0.14726727663E+03  0.14726727665E+03  0.25500000920E-02 0.  1.
    10030    2    1    2    0    0  0.00000000000E+00  0.00000000000E+00  0.14864888849E+04  0.17810234382E+04  0.98101747304E+03 0.  0.
        2    1    3    3  502    0  0.40910928605E+03  0.26764318553E+03  0.67072633622E+03  0.82998620519E+03  0.25500000920E-02 0. -1.
       -2    1    3    3    0  502 -0.40910928605E+03 -0.26764318553E+03  0.81576254865E+03  0.95103723296E+03  0.25500000920E-02 0.  1.
</event>
<event>
 5   0  0.6376961E-03  0.9605609E+03  0.7818609E-02  0.9352891E-01
        2   -1    0    0  501    0  0.00000000000E+00  0.00000000000E+00  0.31168947208E+03  0.31168947209E+03  0.25500000920E-02 0.  1.
       -2   -1    0    0    0  501  0.00000000000E+00  0.00000000000E+00 -0.74006126447E+03  0.74006126447E+03  0.25500000920E-02 0. -1.
    10030    2    1    2    0    0  0.00000000000E+00  0.00000000000E+00 -0.42837179238E+03  0.10517507366E+04  0.96056088789E+03 0.  0.
        3    1    3    3  502    0  0.42610378884E+03  0.14006754728E+03 -0.40220215188E+03  0.60245326611E+03  0.10100000352E+00 0.  1.
       -3    1    3    3    0  502 -0.42610378884E+03 -0.14006754728E+03 -0.26169640502E+02  0.44929747045E+03  0.10100000352E+00 0. -1.
</event>
<event>
 5   0  0.6022787E-03  0.1013021E+04  0.7818609E-02  0.9294378E-01
        2   -1    0    0  501    0  0.00000000000E+00  0.00000000000E+00  0.96443328495E+03  0.96443328495E+03  0.25500000920E-02 0. -1.
       -2   -1    0    0    0  501  0.00000000000E+00  0.00000000000E+00 -0.26601397569E+03  0.26601397571E+03  0.25500000920E-02 0.  1.
    10030    2    1    2    0    0  0.00000000000E+00  0.00000000000E+00  0.69841930926E+03  0.12304472607E+04  0.10130206956E+04 0.  0.
        5    1    3    3  502    0 -0.60650966360E+02 -0.22565898024E+03  0.89502437650E+03  0.92503580451E+03  0.46999998093E+01 0. -1.
       -5    1    3    3    0  502  0.60650966360E+02  0.22565898024E+03 -0.19660506725E+03  0.30541145615E+03  0.46999998093E+01 0.  1.
</event>
<event>
 5   0  0.6360455E-03  0.9968256E+03  0.7818609E-02  0.9312033E-01
        2   -1    0    0  501    0  0.00000000000E+00  0.00000000000E+00  0.17008113968E+04  0.17008113968E+04  0.25500000920E-02 0. -1.
       -2   -1    0    0    0  501  0.00000000000E+00  0.00000000000E+00 -0.14605694369E+03  0.14605694371E+03  0.25500000920E-02 0.  1.
    10030    2    1    2    0    0  0.00000000000E+00  0.00000000000E+00  0.15547544531E+04  0.18468683405E+04  0.99682559043E+03 0.  0.
        4    1    3    3  502    0 -0.20680056563E+03  0.45145167690E+03  0.69793311984E+03  0.85655551086E+03  0.12699999809E+01 0.  1.
       -4    1    3    3    0  502  0.20680056563E+03 -0.45145167690E+03  0.85682133330E+03  0.99031282967E+03  0.12699999809E+01 0. -1.
</event>
<event>
 5   0  0.6360455E-03  0.9963201E+03  0.7818609E-02  0.9312590E-01
        2   -1    0    0  501    0  0.00000000000E+00  0.00000000000E+00  0.29652289238E+03  0.29652289239E+03  0.25500000920E-02 0. -1.
       -2   -1    0    0    0  501  0.00000000000E+00  0.00000000000E+00 -0.83691159669E+03  0.83691159669E+03  0.25500000920E-02 0.  1.
    10030    2    1    2    0    0  0.00000000000E+00  0.00000000000E+00 -0.54038870431E+03  0.11334344891E+04  0.99632012390E+03 0.  0.
        4    1    3    3  502    0 -0.78424385208E+02 -0.49185260133E+03 -0.25925491152E+03  0.56150163640E+03  0.12699999809E+01 0. -1.
       -4    1    3    3    0  502  0.78424385208E+02  0.49185260133E+03 -0.28113379280E+03  0.57193285269E+03  0.12699999809E+01 0.  1.
</event>
<event>
 5   0  0.3608845E-03  0.1016420E+04  0.7818609E-02  0.9290717E-01
       -1   -1    0    0    0  501  0.00000000000E+00  0.00000000000E+00  0.29423731450E+03  0.29423731454E+03  0.50400001928E-02 0.  1.
        1   -1    0    0  501    0  0.00000000000E+00  0.00000000000E+00 -0.87778606169E+03  0.87778606171E+03  0.50400001928E-02 0. -1.
    10030    2    1    2    0    0  0.00000000000E+00  0.00000000000E+00 -0.58354874719E+03  0.11720233763E+04  0.10164200186E+04 0.  0.
        1    1    3    3  502    0 -0.15214200474E+03 -0.31558319246E+03 -0.71628909491E+03  0.79737695507E+03  0.50400001928E-02 0. -1.
       -1    1    3    3    0  502  0.15214200474E+03  0.31558319246E+03  0.13274034772E+03  0.37464642118E+03  0.50400001928E-02 0.  1.
</event>
<event>
 5   0  0.6199539E-03  0.9919285E+03  0.7818609E-02  0.9317442E-01
        2   -1    0    0  501    0  0.00000000000E+00  0.00000000000E+00  0.11474865329E+04  0.11474865329E+04  0.25500000920E-02 0. -1.
       -2   -1    0    0    0  501  0.00000000000E+00  0.00000000000E+00 -0.21436465453E+03  0.21436465454E+03  0.25500000920E-02 0.  1.
    10030    2    1    2    0    0  0.00000000000E+00  0.00000000000E+00  0.93312187835E+03  0.13618511874E+04  0.99192853413E+03 0.  0.
        2    1    3    3  502    0  0.12966154489E+03 -0.13499860529E+03 -0.16400813597E+03  0.24886825495E+03  0.25500000920E-02 0.  1.
       -2    1    3    3    0  502 -0.12966154489E+03  0.13499860529E+03  0.10971300143E+04  0.11129829325E+04  0.25500000920E-02 0. -1.
</event>
<event>
 5   0  0.3640180E-03  0.9976774E+03  0.7818609E-02  0.9311096E-01
        1   -1    0    0  501    0  0.00000000000E+00  0.00000000000E+00  0.64044732045E+03  0.64044732047E+03  0.50400001928E-02 0. -1.
       -1   -1    0    0    0  501  0.00000000000E+00  0.00000000000E+00 -0.38854101736E+03  0.38854101739E+03  0.50400001928E-02 0.  1.
    10030    2    1    2    0    0  0.00000000000E+00  0.00000000000E+00  0.25190630309E+03  0.10289883379E+04  0.99767740974E+03 0.  0.
        5    1    3    3  502    0 -0.39820197272E+03 -0.10261741185E+03 -0.16526043829E+03  0.44320226393E+03  0.46999998093E+01 0.  1.
       -5    1    3    3    0  502  0.39820197272E+03  0.10261741185E+03  0.41716674138E+03  0.58578607393E+03  0.46999998093E+01 0. -1.
</event>
<event>
 5   0  0.3569359E-03  0.9706698E+03  0.7818609E-02  0.9341312E-01
       -1   -1    0    0    0  501  0.00000000000E+00  0.00000000000E+00  0.41413309449E+03  0.41413309452E+03  0.50400001928E-02 0.  1.
        1   -1    0    0  501    0  0.00000000000E+00  0.00000000000E+00 -0.56877846859E+03  0.56877846861E+03  0.50400001928E-02 0. -1.
    10030    2    1    2    0    0  0.00000000000E+00  0.00000000000E+00 -0.15464537410E+03  0.98291156313E+03  0.97066984562E+03 0.  0.
        4    1    3    3  502    0 -0.41409395871E+02  0.12022473643E+03  0.39696415318E+03  0.41683435214E+03  0.12699999809E+01 0.  1.
       -4    1    3    3    0  502  0.41409395871E+02 -0.12022473643E+03 -0.55160952728E+03  0.56607721099E+03  0.12699999809E+01 0. -1.
</event>
<event>
 5   0  0.3640180E-03  0.9952133E+03  0.7818609E-02  0.9313810E-01
        1   -1    0    0  501    0  0.00000000000E+00  0.00000000000E+00  0.72561626443E+03  0.72561626445E+03  0.50400001928E-02 0.  1.
       -1   -1    0    0    0  501  0.00000000000E+00  0.00000000000E+00 -0.34124427585E+03  0.34124427589E+03  0.50400001928E-02 0. -1.
    10030    2    1    2    0    0  0.00000000000E+00  0.00000000000E+00  0.38437198858E+03  0.10668605403E+04  0.99521333739E+03 0.  0.
        5    1    3    3  502    0  0.31813448791E+03 -0.35393302290E+03  0.34794669708E+03  0.58954824324E+03  0.46999998093E+01 0.  1.
       -5    1    3    3    0  502 -0.31813448791E+03  0.35393302290E+03  0.36425291505E+02  0.47731229710E+03  0.46999998093E+01 0. -1.
</event>
<event>
 5   0  0.6606947E-03  0.9895537E+03  0.7818609E-02  0.9320077E-01
       -2   -1    0    0    0  501  0.00000000000E+00  0.00000000000E+00  0.25434808745E+03  0.25434808746E+03  0.25500000920E-02 0.  1.
        2   -1    0    0  501    0  0.00000000000E+00  0.00000000000E+00 -0.96247685643E+03  0.96247685643E+03  0.25500000920E-02 0. -1.
    10030    2    1    2    0    0  0.00000000000E+00  0.00000000000E+00 -0.70812876898E+03  0.12168249439E+04  0.98955373306E+03 0.  0.
        1    1    3    3  502    0  0.37715542044E+03  0.30037595237E+03 -0.49061995446E+03  0.68788070454E+03  0.50400001928E-02 0. -1.
       -1    1    3    3    0  502 -0.37715542044E+03 -0.30037595237E+03 -0.21750881452E+03  0.52894423936E+03  0.50400001928E-02 0.  1.
</event>
<event>
 5   0  0.6376961E-03  0.1032204E+04  0.7818609E-02  0.9273913E-01
        2   -1    0    0  501    0  0.00000000000E+00  0.00000000000E+00  0.60528322531E+03  0.60528322532E+03  0.25500000920E-02 0. -1.
       -2   -1    0    0    0  501  0.00000000000E+00  0.00000000000E+00 -0.44006047776E+03  0.44006047776E+03  0.25500000920E-02 0.  1.
    10030    2    1    2    0    0  0.00000000000E+00  0.00000000000E+00  0.16522274755E+03  0.10453437031E+04  0.10322039049E+04 0.  0.
        3    1    3    3  502    0  0.23506081981E+03 -0.37993576340E+02 -0.38110844948E+03  0.44937819409E+03  0.10100000352E+00 0.  1.
       -3    1    3    3    0  502 -0.23506081981E+03  0.37993576340E+02  0.54633119704E+03  0.59596550899E+03  0.10100000352E+00 0. -1.
</event>
<event>
 5   0  0.6022787E-03  0.1032919E+04  0.7818609E-02  0.9273159E-01
        2   -1    0    0  501    0  0.00000000000E+00  0.00000000000E+00  0.17397025502E+04  0.17397025502E+04  0.25500000920E-02 0.  1.
       -2   -1    0    0    0  501  0.00000000000E+00  0.00000000000E+00 -0.15331954672E+03  0.15331954674E+03  0.25500000920E-02 0. -1.
    10030    2    1    2    0    0  0.00000000000E+00  0.00000000000E+00  0.15863830035E+04  0.18930220969E+04  0.10329189832E+04 0.  0.
        5    1    3    3  502    0  0.31059760105E+03  0.23702079097E+03  0.14121384502E+04  0.14651985592E+04  0.46999998093E+01 0.  1.
       -5    1    3    3    0  502 -0.31059760105E+03 -0.23702079097E+03  0.17424455322E+03  0.42782353776E+03  0.46999998093E+01 0. -1.
</event>
<event>
 5   0  0.3640180E-03  0.1007923E+04  0.7818609E-02  0.9299897E-01
        1   -1    0    0  501    0  0.00000000000E+00  0.00000000000E+00  0.16696684997E+04  0.16696684997E+04  0.50400001928E-02 0. -1.
       -1   -1    0    0    0  501  0.00000000000E+00  0.00000000000E+00 -0.15211249324E+03  0.15211249333E+03  0.50400001928E-02 0.  1.
    10030    2    1    2    0    0  0.00000000000E+00  0.00000000000E+00  0.15175560064E+04  0.18217809930E+04  0.10079234861E+04 0.  0.
        5    1    3    3  502    0  0.36312477642E+03  0.34710733077E+03  0.83135254023E+03  0.97134558138E+03  0.46999998093E+01 0. -1.
       -5    1    3    3    0  502 -0.36312477642E+03 -0.34710733077E+03  0.68620346620E+03  0.85043541163E+03  0.46999998093E+01 0.  1.
</event>
<event>
 5   0  0.6376961E-03  0.1002559E+04  0.7818609E-02  0.9305742E-01
        2   -1    0    0  501    0  0.00000000000E+00  0.00000000000E+00  0.14616477982E+04  0.14616477982E+04  0.25500000920E-02 0. -1.
       -2   -1    0    0    0  501  0.00000000000E+00  0.00000000000E+00 -0.17191647358E+03  0.17191647360E+03  0.25500000920E-02 0.  1.
    10030    2    1    2    0    0  0.00000000000E+00  0.00000000000E+00  0.12897313246E+04  0.16335642718E+04  0.10025593949E+04 0.  0.
        3    1    3    3  502    0  0.25655602646E+03 -0.27812130827E+03  0.10912232927E+03  0.39380217086E+03  0.10100000352E+00 0.  1.
       -3    1    3    3    0  502 -0.25655602646E+03  0.27812130827E+03  0.11806089953E+04  0.12397621009E+04  0.10100000352E+00 0. -1.
</event>
<event>
 5   0  0.6360455E-03  0.1005758E+04  0.7818609E-02  0.9302252E-01
       -2   -1    0    0    0  501  0.00000000000E+00  0.00000000000E+00  0.24670519893E+03  0.24670519894E+03  0.25500000920E-02 0. -1.
        2   -1    0    0  501    0  0.00000000000E+00  0.00000000000E+00 -0.10250585949E+04  0.10250585949E+04  0.25500000920E-02 0.  1.
    10030    2    1    2    0    0  0.00000000000E+00  0.00000000000E+00 -0.77835339594E+03  0.12717637938E+04  0.10057579919E+04 0.  0.
        4    1    3    3  502    0 -0.37404995055E+03  0.91267429431E+02  0.19864590383E+02  0.38553770766E+03  0.12699999809E+01 0. -1.
       -4    1    3    3    0  502  0.37404995055E+03 -0.91267429431E+02 -0.79821798632E+03  0.88622608615E+03  0.12699999809E+01 0.  1.
</event>
<event>
 5   0  0.6022787E-03  0.1175114E+04  0.7818609E-02  0.9134922E-01
       -2   -1    0    0    0  501  0.00000000000E+00  0.00000000000E+00  0.35308946270E+03  0.35308946271E+03  0.25500000920E-02 0. -1.
        2   -1    0    0  501    0  0.00000000000E+00  0.00000000000E+00 -0.97772170268E+03  0.97772170268E+03  0.25500000920E-02 0.  1.
    10030    2    1    2    0    0  0.00000000000E+00  0.00000000000E+00 -0.62463223998E+03  0.13308111654E+04  0.11751140041E+04 0.  0.
        5    1    3    3  502    0 -0.11443308435E+03 -0.25426528608E+03 -0.89799841881E+03  0.94030261974E+03  0.46999998093E+01 0.  1.
       -5    1    3    3    0  502  0.11443308435E+03  0.25426528608E+03  0.27336617883E+03  0.39050854565E+03  0.46999998093E+01 0. -1.
</event>
<event>
 5   0  0.3640180E-03  0.9809985E+03  0.7818609E-02  0.9329634E-01
       -1   -1    0    0    0  501  0.00000000000E+00  0.00000000000E+00  0.85421157503E+03  0.85421157504E+03  0.50400001928E-02 0.  1.
        1   -1    0    0  501    0  0.00000000000E+00  0.00000000000E+00 -0.28165097504E+03  0.28165097508E+03  0.50400001928E-02 0. -1.
    10030    2    1    2    0    0  0.00000000000E+00  0.00000000000E+00  0.57256059999E+03  0.11358625501E+04  0.98099851790E+03 0.  0.
        5    1    3    3  502    0  0.45828994559E+00 -0.37251899488E+03 -0.83143216905E+02  0.38171389298E+03  0.46999998093E+01 0. -1.
       -5    1    3    3    0  502 -0.45828994559E+00  0.37251899488E+03  0.65570381690E+03  0.75414865714E+03  0.46999998093E+01 0.  1.
</event>
<event>
 5   0  0.6376961E-03  0.8794772E+03  0.7818609E-02  0.9451606E-01
       -2   -1    0    0    0  501  0.00000000000E+00  0.00000000000E+00  0.14090080527E+03  0.14090080529E+03  0.25500000920E-02 0. -1.
        2   -1    0    0  501    0  0.00000000000E+00  0.00000000000E+00 -0.13723841091E+04  0.13723841091E+04  0.25500000920E-02 0.  1.
    10030    2    1    2    0    0  0.00000000000E+00  0.00000000000E+00 -0.12314833038E+04  0.15132849143E+04  0.87947717678E+03 0.  0.
        3    1    3    3  502    0  0.29850335602E+03 -0.26129366415E+02 -0.61957643422E+02  0.30598326281E+03  0.10100000352E+00 0. -1.
       -3    1    3    3    0  502 -0.29850335602E+03  0.26129366415E+02 -0.11695256604E+04  0.12073016515E+04  0.10100000352E+00 0.  1.
</event>
<event>
 5   0  0.6606947E-03  0.1001078E+04  0.7818609E-02  0.9307363E-01
       -2   -1    0    0    0  501  0.00000000000E+00  0.00000000000E+00  0.29255557370E+03  0.29255557371E+03  0.25500000920E-02 0. -1.
        2   -1    0    0  501    0  0.00000000000E+00  0.00000000000E+00 -0.85638165293E+03  0.85638165293E+03  0.25500000920E-02 0.  1.
    10030    2    1    2    0    0  0.00000000000E+00  0.00000000000E+00 -0.56382607923E+03  0.11489372266E+04  0.10010778707E+04 0.  0.
        1    1    3    3  502    0 -0.66280955802E+02  0.48522823333E+03 -0.40062997101E+03  0.63272741146E+03  0.50400001928E-02 0.  1.
       -1    1    3    3    0  502  0.66280955802E+02 -0.48522823333E+03 -0.16319610822E+03  0.51620981518E+03  0.50400001928E-02 0. -1.
</event>
<event>
 5   0  0.6360455E-03  0.1004829E+04  0.7818609E-02  0.9303265E-01
        2   -1    0    0  501    0  0.00000000000E+00  0.00000000000E+00  0.22134585795E+04  0.22134585795E+04  0.25500000920E-02 0.  1.
       -2   -1    0    0    0  501  0.00000000000E+00  0.00000000000E+00 -0.11403880754E+03  0.11403880757E+03  0.25500000920E-02 0. -1.
    10030    2    1    2    0    0  0.00000000000E+00  0.00000000000E+00  0.20994197720E+04  0.23274973871E+04  0.10048286958E+04 0.  0.
        4    1    3    3  502    0  0.69657785806E+02  0.45121506784E+03  0.56399443143E+03  0.72562977899E+03  0.12699999809E+01 0. -1.
       -4    1    3    3    0  502 -0.69657785806E+02 -0.45121506784E+03  0.15354253406E+04  0.16018676081E+04  0.12699999809E+01 0.  1.
</event>
<event>
 5   0  0.6606947E-03  0.1012602E+04  0.7818609E-02  0.9294830E-01
        2   -1    0    0  501    0  0.00000000000E+00  0.00000000000E+00  0.75467351940E+03  0.75467351940E+03  0.25500000920E-02 0.  1.
       -2   -1    0    0    0  501  0.00000000000E+00  0.00000000000E+00 -0.33967091599E+03  0.33967091599E+03  0.25500000920E-02 0. -1.
    10030    2    1    2    0    0  0.00000000000E+00  0.00000000000E+00  0.41500260341E+03  0.10943444354E+04  0.10126018874E+04 0.  0.
        1    1    3    3  502    0  0.59027759629E+02 -0.48818119270E+03  0.77205574648E+02  0.49776084026E+03  0.50400001928E-02 0. -1.
       -1    1    3    3    0  502 -0.59027759629E+02  0.48818119270E+03  0.33779702877E+03  0.59658359514E+03  0.50400001928E-02 0.  1.
</event>
<event>
 5   0  0.6376961E-03  0.1022047E+04  0.7818609E-02  0.9284689E-01
        2   -1    0    0  501    0  0.00000000000E+00  0.00000000000E+00  0.17093441990E+04  0.17093441990E+04  0.25500000920E-02 0. -1.
       -2   -1    0    0    0  501  0.00000000000E+00  0.00000000000E+00 -0.15277490924E+03  0.15277490926E+03  0.25500000920E-02 0.  1.
    10030    2    1    2    0    0  0.00000000000E+00  0.00000000000E+00  0.15565692898E+04  0.18621191083E+04  0.10220467795E+04 0.  0.
        3    1    3    3  502    0 -0.21126694279E+03  0.14820337537E+03  0.15819012038E+04  0.16028129617E+04  0.10100000352E+00 0. -1.
       -3    1    3    3    0  502  0.21126694279E+03 -0.14820337537E+03 -0.25331913969E+02  0.25930614658E+03  0.10100000352E+00 0.  1.
</event>
<event>
 5   0  0.6199539E-03  0.9998980E+03  0.7818609E-02  0.9308657E-01
        2   -1    0    0  501    0  0.00000000000E+00  0.00000000000E+00  0.89519833656E+03  0.89519833657E+03  0.25500000920E-02 0.  1.
       -2   -1    0    0    0  501  0.00000000000E+00  0.00000000000E+00 -0.27921075521E+03  0.27921075522E+03  0.25500000920E-02 0. -1.
    10030    2    1    2    0    0  0.00000000000E+00  0.00000000000E+00  0.61598758136E+03  0.11744090918E+04  0.99989800204E+03 0.  0.
        2    1    3    3  502    0  0.99508468880E+02  0.20265007683E+03 -0.21593037843E+03  0.31240185235E+03  0.25500000920E-02 0. -1.
       -2    1    3    3    0  502 -0.99508468880E+02 -0.20265007683E+03  0.83191795979E+03  0.86200723944E+03  0.25500000920E-02 0.  1.
</event>
<event>
 5   0  0.6606947E-03  0.9841278E+03  0.7818609E-02  0.9326126E-01
        2   -1    0    0  501    0  0.00000000000E+00  0.00000000000E+00  0.27040371055E+03  0.27040371056E+03  0.25500000920E-02 0. -1.
       -2   -1    0    0    0  501  0.00000000000E+00  0.00000000000E+00 -0.89542736155E+03  0.89542736155E+03  0.25500000920E-02 0.  1.
    10030    2    1    2    0    0  0.00000000000E+00  0.00000000000E+00 -0.62502365100E+03  0.11658310721E+04  0.98412779881E+03 0.  0.
        1    1    3    3  502    0 -0.35853546749E+03  0.18570701702E+03  0.20646514440E+02  0.40430317362E+03  0.50400001928E-02 0. -1.
       -1    1    3    3    0  502  0.35853546749E+03 -0.18570701702E+03 -0.64567016544E+03  0.76152789849E+03  0.50400001928E-02 0.  1.
</event>
<event>
 5   0  0.6199539E-03  0.1084926E+04  0.7818609E-02  0.9220010E-01
        2   -1    0    0  501    0  0.00000000000E+00  0.00000000000E+00  0.94133099684E+03  0.94133099684E+03  0.25500000920E-02 0. -1.
       -2   -1    0    0    0  501  0.00000000000E+00  0.00000000000E+00 -0.31260637130E+03  0.31260637131E+03  0.25500000920E-02 0.  1.
    10030    2    1    2    0    0  0.00000000000E+00  0.00000000000E+00  0.62872462554E+03  0.12539373682E+04  0.10849259277E+04 0.  0.
        2    1    3    3  502    0 -0.11375841059E+03  0.26526707243E+03 -0.21649064525E+03  0.36079882925E+03  0.25500000920E-02 0.  1.
       -2    1    3    3    0  502  0.11375841059E+03 -0.26526707243E+03  0.84521527079E+03  0.89313853891E+03  0.25500000920E-02 0. -1.
</event>
<event>
 5   0  0.3608845E-03  0.1005154E+04  0.7818609E-02  0.9302910E-01
       -1   -1    0    0    0  501  0.00000000000E+00  0.00000000000E+00  0.24494200700E+03  0.24494200705E+03  0.50400001928E-02 0.  1.
        1   -1    0    0  501    0  0.00000000000E+00  0.00000000000E+00 -0.10311984926E+04  0.10311984926E+04  0.50400001928E-02 0. -1.
    10030    2    1    2    0    0  0.00000000000E+00  0.00000000000E+00 -0.78625648561E+03  0.12761404997E+04  0.10051543731E+04 0.  0.
        1    1    3    3  502    0 -0.14110043851E+03 -0.46641673798E+03 -0.23696311603E+03  0.54185369391E+03  0.50400001928E-02 0.  1.
       -1    1    3    3    0  502  0.14110043851E+03  0.46641673798E+03 -0.54929336959E+03  0.73428680576E+03  0.50400001928E-02 0. -1.
</event>
<event>
 5   0  0.3643002E-03  0.1012747E+04  0.7818609E-02  0.9294674E-01
       -1   -1    0    0    0  501  0.00000000000E+00  0.00000000000E+00  0.27723483947E+03  0.27723483952E+03  0.50400001928E-02 0.  1.
        1   -1    0    0  501    0  0.00000000000E+00  0.00000000000E+00 -0.92489828552E+03  0.92489828554E+03  0.50400001928E-02 0. -1.
    10030    2    1    2    0    0  0.00000000000E+00  0.00000000000E+00 -0.64766344605E+03  0.12021331251E+04  0.10127468149E+04 0.  0.
        2    1    3    3  502    0  0.20031968656E+03  0.46454187794E+03 -0.35002375189E+03  0.61517782801E+03  0.25500000920E-02 0. -1.
       -2    1    3    3    0  502 -0.20031968656E+03 -0.46454187794E+03 -0.29763969416E+03  0.58695529704E+03  0.25500000920E-02 0.  1.
</event>
<event>
 5   0  0.3569359E-03  0.9884704E+03  0.7818609E-02  0.9321281E-01
       -1   -1    0    0    0  501  0.00000000000E+00  0.00000000000E+00  0.29371702783E+03  0.29371702788E+03  0.50400001928E-02 0. -1.
        1   -1    0    0  501    0  0.00000000000E+00  0.00000000000E+00 -0.83164547779E+03  0.83164547781E+03  0.50400001928E-02 0.  1.
    10030    2    1    2    0    0  0.00000000000E+00  0.00000000000E+00 -0.53792844996E+03  0.11253625057E+04  0.98847041024E+03 0.  0.
        4    1    3    3  502    0  0.12707456366E+03 -0.46559319825E+03 -0.14771728234E+03  0.50472465700E+03  0.12699999809E+01 0. -1.
       -4    1    3    3    0  502 -0.12707456366E+03  0.46559319825E+03 -0.39021116762E+03  0.62063784868E+03  0.12699999809E+01 0.  1.
</event>
<event>
 5   0  0.3640180E-03  0.1004228E+04  0.7818609E-02  0.9303920E-01
        1   -1    0    0  501    0  0.00000000000E+00  0.00000000000E+00  0.75852493904E+03  0.75852493905E+03  0.50400001928E-02 0. -1.
       -1   -1    0    0    0  501  0.00000000000E+00  0.00000000000E+00 -0.33237974314E+03  0.33237974318E+03  0.50400001928E-02 0.  1.
    10030    2    1    2    0    0  0.00000000000E+00  0.00000000000E+00  0.42614519590E+03  0.10909046822E+04  0.10042277121E+04 0.  0.
        5    1    3    3  502    0 -0.25593023931E+03 -0.38375055573E+03 -0.23665520946E+01  0.46129433878E+03  0.46999998093E+01 0.  1.
       -5    1    3    3    0  502  0.25593023931E+03  0.38375055573E+03  0.42851174799E+03  0.62961034345E+03  0.46999998093E+01 0. -1.
</event>
<event>
 5   0  0.6376961E-03  0.9999825E+03  0.7818609E-02  0.9308564E-01
        2   -1    0    0  501    0  0.00000000000E+00  0.00000000000E+00  0.11848986736E+04  0.11848986736E+04  0.25500000920E-02 0. -1.
       -2   -1    0    0    0  501  0.00000000000E+00  0.00000000000E+00 -0.21098113147E+03  0.21098113149E+03  0.25500000920E-02 0.  1.
    10030    2    1    2    0    0  0.00000000000E+00  0.00000000000E+00  0.97391754210E+03  0.13958798051E+04  0.99998252553E+03 0.  0.
        3    1    3    3  502    0 -0.21458525926E+03  0.44390924179E+00 -0.14343413343E+03  0.25810926249E+03  0.10100000352E+00 0.  1.
       -3    1    3    3    0  502  0.21458525926E+03 -0.44390924179E+00  0.11173516755E+04  0.11377705426E+04  0.10100000352E+00 0. -1.
</event>
<event>
 5   0  0.2417750E-03  0.9983788E+03  0.7818609E-02  0.9310325E-01
        3   -1    0    0  501    0  0.00000000000E+00  0.00000000000E+00  0.19564231083E+03  0.19564233690E+03  0.10100000352E+00 0. -1.
       -3   -1    0    0    0  501  0.00000000000E+00  0.00000000000E+00 -0.12737020506E+04  0.12737020546E+04  0.10100000352E+00 0.  1.
    10030    2    1    2    0    0  0.00000000000E+00  0.00000000000E+00 -0.10780597398E+04  0.14693443915E+04  0.99837875494E+03 0.  0.
        4    1    3    3  502    0  0.12540086672E+03 -0.48249755990E+03 -0.57681492543E+03  0.76239513626E+03  0.12699999809E+01 0.  1.
       -4    1    3    3    0  502 -0.12540086672E+03  0.48249755990E+03 -0.50124481434E+03  0.70694925524E+03  0.12699999809E+01 0. -1.
</event>
<event>
 5   0  0.6376961E-03  0.1015888E+04  0.7818609E-02  0.9291289E-01
       -2   -1    0    0    0  501  0.00000000000E+00  0.00000000000E+00  0.14835691108E+03  0.14835691111E+03  0.25500000920E-02 0. -1.
        2   -1    0    0  501    0  0.00000000000E+00  0.00000000000E+00 -0.17390961401E+04  0.17390961401E+04  0.25500000920E-02 0.  1.
    10030    2    1    2    0    0  0.00000000000E+00  0.00000000000E+00 -0.15907392290E+04  0.18874530512E+04  0.10158876541E+04 0.  0.
        3    1    3    3  502    0  0.11237182802E+03  0.39565286475E+02 -0.17127720056E+04  0.17169102460E+04  0.10100000352E+00 0.  1.
       -3    1    3    3    0  502 -0.11237182802E+03 -0.39565286475E+02  0.12203277659E+03  0.17054280515E+03  0.10100000352E+00 0. -1.
</event>
<event>
 5   0  0.3466598E-03  0.9974746E+03  0.7818609E-02  0.9311319E-01
       -1   -1    0    0    0  501  0.00000000000E+00  0.00000000000E+00  0.45912482740E+03  0.45912482742E+03  0.50400001928E-02 0. -1.
        1   -1    0    0  501    0  0.00000000000E+00  0.00000000000E+00 -0.54176750648E+03  0.54176750650E+03  0.50400001928E-02 0.  1.
    10030    2    1    2    0    0  0.00000000000E+00  0.00000000000E+00 -0.82642679084E+02  0.10008923339E+04  0.99747463713E+03 0.  0.
        3    1    3    3  502    0  0.45205073638E+03 -0.12882221092E+03  0.12596482779E+03  0.48663351542E+03  0.10100000352E+00 0. -1.
       -3    1    3    3    0  502 -0.45205073638E+03  0.12882221092E+03 -0.20860750687E+03  0.51425881851E+03  0.10100000352E+00 0.  1.
</event>
<event>
 5   0  0.3569359E-03  0.9736869E+03  0.7818609E-02  0.9337885E-01
        1   -1    0    0  501    0  0.00000000000E+00  0.00000000000E+00  0.39803410372E+03  0.39803410375E+03  0.50400001928E-02 0. -1.
       -1   -1    0    0    0  501  0.00000000000E+00  0.00000000000E+00 -0.59546792417E+03  0.59546792419E+03  0.50400001928E-02 0.  1.
    10030    2    1    2    0    0  0.00000000000E+00  0.00000000000E+00 -0.19743382045E+03  0.99350202794E+03  0.97368689324E+03 0.  0.
        4    1    3    3  502    0 -0.18372732674E+03 -0.23853617854E+03 -0.48907229418E+03  0.57432443871E+03  0.12699999809E+01 0.  1.
       -4    1    3    3    0  502  0.18372732674E+03  0.23853617854E+03  0.29163847372E+03  0.41917758924E+03  0.12699999809E+01 0. -1.
</event>
<event>
 5   0  0.3640180E-03  0.1002605E+04  0.7818609E-02  0.9305692E-01
        1   -1    0    0  501    0  0.00000000000E+00  0.00000000000E+00  0.47319955654E+03  0.47319955657E+03  0.50400001928E-02 0. -1.
       -1   -1    0    0    0  501  0.00000000000E+00  0.00000000000E+00 -0.53107467199E+03  0.53107467201E+03  0.50400001928E-02 0.  1.
    10030    2    1    2    0    0  0.00000000000E+00  0.00000000000E+00 -0.57875115445E+02  0.10042742286E+04  0.10026052051E+04 0.  0.
        5    1    3    3  502    0  0.39278318349E+03  0.27777776311E+03  0.11216245806E+03  0.49400569015E+03  0.46999998093E+01 0. -1.
       -5    1    3    3    0  502 -0.39278318349E+03 -0.27777776311E+03 -0.17003757351E+03  0.51026853843E+03  0.46999998093E+01 0.  1.
</event>
<event>
 5   0  0.6360455E-03  0.9975750E+03  0.7818609E-02  0.9311209E-01
       -2   -1    0    0    0  501  0.00000000000E+00  0.00000000000E+00  0.32508130751E+03  0.32508130752E+03  0.25500000920E-02 0. -1.
        2   -1    0    0  501    0  0.00000000000E+00  0.00000000000E+00 -0.76531305609E+03  0.76531305610E+03  0.25500000920E-02 0.  1.
    10030    2    1    2    0    0  0.00000000000E+00  0.00000000000E+00 -0.44023174858E+03  0.10903943636E+04  0.99757499756E+03 0.  0.
        4    1    3    3  502    0  0.49315740323E+01  0.18114790626E+03 -0.72805668700E+03  0.75027130877E+03  0.12699999809E+01 0.  1.
       -4    1    3    3    0  502 -0.49315740323E+01 -0.18114790626E+03  0.28782493842E+03  0.34012305485E+03  0.12699999809E+01 0. -1.
</event>
<event>
 5   0  0.6360455E-03  0.9984991E+03  0.7818609E-02  0.9310193E-01
       -2   -1    0    0    0  501  0.00000000000E+00  0.00000000000E+00  0.60709114619E+03  0.60709114620E+03  0.25500000920E-02 0. -1.
        2   -1    0    0  501    0  0.00000000000E+00  0.00000000000E+00 -0.41056454413E+03  0.41056454414E+03  0.25500000920E-02 0.  1.
    10030    2    1    2    0    0  0.00000000000E+00  0.00000000000E+00  0.19652660206E+03  0.10176556903E+04  0.99849907298E+03 0.  0.
        4    1    3    3  502    0 -0.30422716826E+03 -0.15258042362E+03 -0.27400249854E+03  0.43693699510E+03  0.12699999809E+01 0.  1.
       -4    1    3    3    0  502  0.30422716826E+03  0.15258042362E+03  0.47052910060E+03  0.58071869523E+03  0.12699999809E+01 0. -1.
</event>
<event>
 5   0  0.6376961E-03  0.1004633E+04  0.7818609E-02  0.9303478E-01
        2   -1    0    0  501    0  0.00000000000E+00  0.00000000000E+00  0.39122604117E+03  0.39122604118E+03  0.25500000920E-02 0.  1.
       -2   -1    0    0    0  501  0.00000000000E+00  0.00000000000E+00 -0.64495207299E+03  0.64495207299E+03  0.25500000920E-02 0. -1.
    10030    2    1    2    0    0  0.00000000000E+00  0.00000000000E+00 -0.25372603181E+03  0.10361781142E+04  0.10046333585E+04 0.  0.
        3    1    3    3  502    0  0.19066997975E+02 -0.10782971069E+03  0.37876593582E+03  0.39427711227E+03  0.10100000352E+00 0.  1.
       -3    1    3    3    0  502 -0.19066997975E+02  0.10782971069E+03 -0.63249196764E+03  0.64190100190E+03  0.10100000352E+00 0. -1.
</event>
<event>
 5   0  0.3608845E-03  0.1025739E+04  0.7818609E-02  0.9280757E-01
       -1   -1    0    0    0  501  0.00000000000E+00  0.00000000000E+00  0.43211468565E+03  0.43211468567E+03  0.50400001928E-02 0. -1.
        1   -1    0    0  501    0  0.00000000000E+00  0.00000000000E+00 -0.60871567640E+03  0.60871567642E+03  0.50400001928E-02 0.  1.
    10030    2    1    2    0    0  0.00000000000E+00  0.00000000000E+00 -0.17660099076E+03  0.10408303621E+04  0.10257387254E+04 0.  0.
        1    1    3    3  502    0 -0.30641548349E+03  0.58426422446E+02  0.32478973970E+03  0.45032484986E+03  0.50400001928E-02 0. -1.
       -1    1    3    3    0  502  0.30641548349E+03 -0.58426422446E+02 -0.50139073046E+03  0.59050551224E+03  0.50400001928E-02 0.  1.
</event>
<event>
 5   0  0.6360455E-03  0.1008255E+04  0.7818609E-02  0.9299536E-01
       -2   -1    0    0    0  501  0.00000000000E+00  0.00000000000E+00  0.16466517827E+04  0.16466517827E+04  0.25500000920E-02 0. -1.
        2   -1    0    0  501    0  0.00000000000E+00  0.00000000000E+00 -0.15434030375E+03  0.15434030377E+03  0.25500000920E-02 0.  1.
    10030    2    1    2    0    0  0.00000000000E+00  0.00000000000E+00  0.14923114790E+04  0.18009920865E+04  0.10082553969E+04 0.  0.
        4    1    3    3  502    0 -0.31795554715E+03 -0.38979232117E+03  0.68666168711E+03  0.85119895973E+03  0.12699999809E+01 0. -1.
       -4    1    3    3    0  502  0.31795554715E+03  0.38979232117E+03  0.80564979188E+03  0.94979312677E+03  0.12699999809E+01 0.  1.
</event>
<event>
 5   0  0.3569359E-03  0.1028011E+04  0.7818609E-02  0.9278345E-01
       -1   -1    0    0    0  501  0.00000000000E+00  0.00000000000E+00  0.23786401261E+03  0.23786401266E+03  0.50400001928E-02 0.  1.
        1   -1    0    0  501    0  0.00000000000E+00  0.00000000000E+00 -0.11107266067E+04  0.11107266067E+04  0.50400001928E-02 0. -1.
    10030    2    1    2    0    0  0.00000000000E+00  0.00000000000E+00 -0.87286259412E+03  0.13485906194E+04  0.10280114545E+04 0.  0.
        4    1    3    3  502    0 -0.12088687409E+03 -0.41976431378E+03 -0.79180437673E+03  0.90430719303E+03  0.12699999809E+01 0. -1.
       -4    1    3    3    0  502  0.12088687409E+03  0.41976431378E+03 -0.81058217386E+02  0.44428342638E+03  0.12699999809E+01 0.  1.
</event>
<event>
 5   0  0.6606947E-03  0.9999767E+03  0.7818609E-02  0.9308570E-01
       -2   -1    0    0    0  501  0.00000000000E+00  0.00000000000E+00  0.31770743086E+03  0.31770743087E+03  0.25500000920E-02 0.  1.
        2   -1    0    0  501    0  0.00000000000E+00  0.00000000000E+00 -0.78685074432E+03  0.78685074433E+03  0.25500000920E-02 0. -1.
    10030    2    1    2    0    0  0.00000000000E+00  0.00000000000E+00 -0.46914331346E+03  0.11045581752E+04  0.99997665664E+03 0.  0.
        1    1    3    3  502    0  0.11320491124E+03 -0.41089503854E+03  0.54184092076E+02  0.42963472914E+03  0.50400001928E-02 0.  1.
       -1    1    3    3    0  502 -0.11320491124E+03  0.41089503854E+03 -0.52332740554E+03  0.67492344606E+03  0.50400001928E-02 0. -1.
</event>
<event>
 5   0  0.6022787E-03  0.1001797E+04  0.7818609E-02  0.9306576E-01
        2   -1    0    0  501    0  0.00000000000E+00  0.00000000000E+00  0.12088660127E+04  0.12088660127E+04  0.25500000920E-02 0.  1.
       -2   -1    0    0    0  501  0.00000000000E+00  0.00000000000E+00 -0.20754939434E+03  0.20754939436E+03  0.25500000920E-02 0. -1.
    10030    2    1    2    0    0  0.00000000000E+00  0.00000000000E+00  0.10013166183E+04  0.14164154070E+04  0.10017972026E+04 0.  0.
        5    1    3    3  502    0 -0.10460694382E+03 -0.26071881384E+03  0.10869652813E+04  0.11226898616E+04  0.46999998093E+01 0.  1.
       -5    1    3    3    0  502  0.10460694382E+03  0.26071881384E+03 -0.85648662948E+02  0.29372554545E+03  0.46999998093E+01 0. -1.
</event>
<event>
 5   0  0.3569359E-03  0.9903000E+03  0.7818609E-02  0.9319248E-01
       -1   -1    0    0    0  501  0.00000000000E+00  0.00000000000E+00  0.58564337693E+03  0.58564337695E+03  0.50400001928E-02 0. -1.
        1   -1    0    0  501    0  0.00000000000E+00  0.00000000000E+00 -0.41863964624E+03  0.41863964627E+03  0.50400001928E-02 0.  1.
    10030    2    1    2    0    0  0.00000000000E+00  0.00000000000E+00  0.16700373069E+03  0.10042830232E+04  0.99030002760E+03 0.  0.
        4    1    3    3  502    0  0.36887442602E+02  0.11189470076E+03 -0.40421584254E+03  0.42103820223E+03  0.12699999809E+01 0.  1.
       -4    1    3    3    0  502 -0.36887442602E+02 -0.11189470076E+03  0.57121957322E+03  0.58324482099E+03  0.12699999809E+01 0. -1.
</event>
<event>
 5   0  0.3608845E-03  0.1036852E+04  0.7818609E-02  0.9269025E-01
       -1   -1    0    0    0  501  0.00000000000E+00  0.00000000000E+00  0.36984490817E+03  0.36984490820E+03  0.50400001928E-02 0. -1.
        1   -1    0    0  501    0  0.00000000000E+00  0.00000000000E+00 -0.72669778024E+03  0.72669778026E+03  0.50400001928E-02 0.  1.
    10030    2    1    2    0    0  0.00000000000E+00  0.00000000000E+00 -0.35685287207E+03  0.10965426885E+04  0.10368519158E+04 0.  0.
        1    1    3    3  502    0  0.23437098073E+03 -0.14874243147E+03 -0.64148165721E+03  0.69896550994E+03  0.50400001928E-02 0.  1.
       -1    1    3    3    0  502 -0.23437098073E+03  0.14874243147E+03  0.28462878513E+03  0.39757717852E+03  0.50400001928E-02 0. -1.
</event>
<event>
 5   0  0.3569359E-03  0.9703925E+03  0.7818609E-02  0.9341627E-01
       -1   -1    0    0    0  501  0.00000000000E+00  0.00000000000E+00  0.15311921229E+03  0.15311921238E+03  0.50400001928E-02 0. -1.
        1   -1    0    0  501    0  0.00000000000E+00  0.00000000000E+00 -0.15374647848E+04  0.15374647848E+04  0.50400001928E-02 0.  1.
    10030    2    1    2    0    0  0.00000000000E+00  0.00000000000E+00 -0.13843455725E+04  0.16905839972E+04  0.97039249142E+03 0.  0.
        4    1    3    3  502    0 -0.14726378435E+03  0.27633370173E+03 -0.13378720501E+04  0.13740269911E+04  0.12699999809E+01 0.  1.
       -4    1    3    3    0  502  0.14726378435E+03 -0.27633370173E+03 -0.46473522341E+02  0.31655700604E+03  0.12699999809E+01 0. -1.
</event>
<event>
 5   0  0.6360455E-03  0.9851270E+03  0.7818609E-02  0.9325009E-01
        2   -1    0    0  501    0  0.00000000000E+00  0.00000000000E+00  0.90399071632E+03  0.90399071633E+03  0.25500000920E-02 0. -1.
       -2   -1    0    0    0  501  0.00000000000E+00  0.00000000000E+00 -0.26838640739E+03  0.26838640741E+03  0.25500000920E-02 0.  1.
    10030    2    1    2    0    0  0.00000000000E+00  0.00000000000E+00  0.63560430893E+03  0.11723771237E+04  0.98512703888E+03 0.  0.
        4    1    3    3  502    0 -0.79044480031E+02  0.47336573241E+03  0.44975622260E+03  0.65772746568E+03  0.12699999809E+01 0. -1.
       -4    1    3    3    0  502  0.79044480031E+02 -0.47336573241E+03  0.18584808633E+03  0.51464965806E+03  0.12699999809E+01 0.  1.
</event>
<event>
 5   0  0.3608845E-03  0.9940958E+03  0.7818609E-02  0.9315044E-01
       -1   -1    0    0    0  501  0.00000000000E+00  0.00000000000E+00  0.38952737223E+03  0.38952737227E+03  0.50400001928E-02 0. -1.
        1   -1    0    0  501    0  0.00000000000E+00  0.00000000000E+00 -0.63424717841E+03  0.63424717843E+03  0.50400001928E-02 0.  1.
    10030    2    1    2    0    0  0.00000000000E+00  0.00000000000E+00 -0.24471980617E+03  0.10237745507E+04  0.99409584403E+03 0.  0.
        1    1    3    3  502    0  0.14049997342E+03  0.33300259763E+03  0.22903902587E+03  0.42788999516E+03  0.50400001928E-02 0. -1.
       -1    1    3    3    0  502 -0.14049997342E+03 -0.33300259763E+03 -0.47375883204E+03  0.59588455554E+03  0.50400001928E-02 0.  1.
</event>
<event>
 5   0  0.6606947E-03  0.1064523E+04  0.7818609E-02  0.9240477E-01
       -2   -1    0    0    0  501  0.00000000000E+00  0.00000000000E+00  0.45824829776E+03  0.45824829776E+03  0.25500000920E-02 0. -1.
        2   -1    0    0  501    0  0.00000000000E+00  0.00000000000E+00 -0.61822918916E+03  0.61822918916E+03  0.25500000920E-02 0.  1.
    10030    2    1    2    0    0  0.00000000000E+00  0.00000000000E+00 -0.15998089140E+03  0.10764774869E+04  0.10645233179E+04 0.  0.
        1    1    3    3  502    0 -0.10838823953E+03 -0.46622253522E+03 -0.31539420727E+03  0.57322331497E+03  0.50400001928E-02 0.  1.
       -1    1    3    3    0  502  0.10838823953E+03  0.46622253522E+03  0.15541331587E+03  0.50325417196E+03  0.50400001928E-02 0. -1.
</event>
<event>
 5   0  0.2417750E-03  0.1011108E+04  0.7818609E-02  0.9296445E-01
       -3   -1    0    0    0  501  0.00000000000E+00  0.00000000000E+00  0.83378360570E+03  0.83378361182E+03  0.10100000352E+00 0. -1.
        3   -1    0    0  501    0  0.00000000000E+00  0.00000000000E+00 -0.30653610367E+03  0.30653612031E+03  0.10100000352E+00 0.  1.
    10030    2    1    2    0    0  0.00000000000E+00  0.00000000000E+00  0.52724750203E+03  0.11403197321E+04  0.10111078889E+04 0.  0.
        4    1    3    3  502    0 -0.27684777922E+03 -0.29576315487E+03  0.60469963225E+03  0.72786248342E+03  0.12699999809E+01 0. -1.
       -4    1    3    3    0  502  0.27684777922E+03  0.29576315487E+03 -0.77452130219E+02  0.41245724871E+03  0.12699999809E+01 0.  1.
</event>
<event>
 5   0  0.3640180E-03  0.1001976E+04  0.7818609E-02  0.9306381E-01
       -1   -1    0    0    0  501  0.00000000000E+00  0.00000000000E+00  0.31608123917E+03  0.31608123921E+03  0.50400001928E-02 0.  1.
        1   -1    0    0  501    0  0.00000000000E+00  0.00000000000E+00 -0.79406420005E+03  0.79406420006E+03  0.50400001928E-02 0. -1.
    10030    2    1    2    0    0  0.00000000000E+00  0.00000000000E+00 -0.47798296088E+03  0.11101454393E+04  0.10019756411E+04 0.  0.
        5    1    3    3  502    0  0.43957456184E+03  0.23947787560E+03 -0.26090713034E+03  0.56450869699E+03  0.46999998093E+01 0. -1.
       -5    1    3    3    0  502 -0.43957456184E+03 -0.23947787560E+03 -0.21707583054E+03  0.54563674228E+03  0.46999998093E+01 0.  1.
</event>
<event>
 5   0  0.6376961E-03  0.1005553E+04  0.7818609E-02  0.9302475E-01
        2   -1    0    0  501    0  0.00000000000E+00  0.00000000000E+00  0.11780152033E+04  0.11780152033E+04  0.25500000920E-02 0.  1.
       -2   -1    0    0    0  501  0.00000000000E+00  0.00000000000E+00 -0.21458493080E+03  0.21458493081E+03  0.25500000920E-02 0. -1.
    10030    2    1    2    0    0  0.00000000000E+00  0.00000000000E+00  0.96343027255E+03  0.13926001342E+04  0.10055532028E+04 0.  0.
        3    1    3    3  502    0 -0.30584611727E+03  0.23987811692E+03  0.40059408173E+02  0.39075327869E+03  0.10100000352E+00 0. -1.
       -3    1    3    3    0  502  0.30584611727E+03 -0.23987811692E+03  0.92337086437E+03  0.10018468555E+04  0.10100000352E+00 0.  1.
</event>
<event>
 5   0  0.3608845E-03  0.1008841E+04  0.7818609E-02  0.9298901E-01
       -1   -1    0    0    0  501  0.00000000000E+00  0.00000000000E+00  0.39801776755E+03  0.39801776758E+03  0.50400001928E-02 0. -1.
        1   -1    0    0  501    0  0.00000000000E+00  0.00000000000E+00 -0.63926750987E+03  0.63926750989E+03  0.50400001928E-02 0.  1.
    10030    2    1    2    0    0  0.00000000000E+00  0.00000000000E+00 -0.24124974233E+03  0.10372852775E+04  0.10088405764E+04 0.  0.
        1    1    3    3  502    0  0.16532060573E+03 -0.11321604388E+03  0.35534305769E+03  0.40794296654E+03  0.50400001928E-02 0. -1.
       -1    1    3    3    0  502 -0.16532060573E+03  0.11321604388E+03 -0.59659280002E+03  0.62934231093E+03  0.50400001928E-02 0.  1.
</event>
<event>
 5   0  0.3640180E-03  0.1006920E+04  0.7818609E-02  0.9300988E-01
        1   -1    0    0  501    0  0.00000000000E+00  0.00000000000E+00  0.53509432958E+03  0.53509432960E+03  0.50400001928E-02 0. -1.
       -1   -1    0    0    0  501  0.00000000000E+00  0.00000000000E+00 -0.47369561418E+03  0.47369561421E+03  0.50400001928E-02 0.  1.
    10030    2    1    2    0    0  0.00000000000E+00  0.00000000000E+00  0.61398715398E+02  0.10087899438E+04  0.10069197329E+04 0.  0.
        5    1    3    3  502    0  0.26000324682E+02 -0.30807885612E+03 -0.36735604388E+03  0.48016783675E+03  0.46999998093E+01 0.  1.
       -5    1    3    3    0  502 -0.26000324682E+02  0.30807885612E+03  0.42875475928E+03  0.52862210707E+03  0.46999998093E+01 0. -1.
</event>
<event>
 5   0  0.2417750E-03  0.9996121E+03  0.7818609E-02  0.9308970E-01
       -3   -1    0    0    0  501  0.00000000000E+00  0.00000000000E+00  0.19071038866E+03  0.19071041540E+03  0.10100000352E+00 0. -1.
        3   -1    0    0  501    0  0.00000000000E+00  0.00000000000E+00 -0.13098713889E+04  0.13098713928E+04  0.10100000352E+00 0.  1.
    10030    2    1    2    0    0  0.00000000000E+00  0.00000000000E+00 -0.11191610002E+04  0.15005818082E+04  0.99961213408E+03 0.  0.
        1    1    3    3  502    0  0.21198057985E+03  0.31858240307E+03 -0.10422358898E+04  0.11102640063E+04  0.50400001928E-02 0.  1.
       -1    1    3    3    0  502 -0.21198057985E+03 -0.31858240307E+03 -0.76925110405E+02  0.39031780181E+03  0.50400001928E-02 0. -1.
</event>
<event>
 5   0  0.6022787E-03  0.1005640E+04  0.7818609E-02  0.9302380E-01
        2   -1    0    0  501    0  0.00000000000E+00  0.00000000000E+00  0.18949914661E+04  0.18949914661E+04  0.25500000920E-02 0. -1.
       -2   -1    0    0    0  501  0.00000000000E+00  0.00000000000E+00 -0.13341904483E+03  0.13341904485E+03  0.25500000920E-02 0.  1.
    10030    2    1    2    0    0  0.00000000000E+00  0.00000000000E+00  0.17615724213E+04  0.20284105110E+04  0.10056399980E+04 0.  0.
        5    1    3    3  502    0  0.33965442629E+03 -0.62739814863E+02  0.14379691315E+03  0.37416714968E+03  0.46999998093E+01 0.  1.
       -5    1    3    3    0  502 -0.33965442629E+03  0.62739814863E+02  0.16177755081E+04  0.16542433613E+04  0.46999998093E+01 0. -1.
</event>
<event>
 5   0  0.3608845E-03  0.9992883E+03  0.7818609E-02  0.9309326E-01
       -1   -1    0    0    0  501  0.00000000000E+00  0.00000000000E+00  0.10294727592E+04  0.10294727592E+04  0.50400001928E-02 0.  1.
        1   -1    0    0  501    0  0.00000000000E+00  0.00000000000E+00 -0.24249722823E+03  0.24249722829E+03  0.50400001928E-02 0. -1.
    10030    2    1    2    0    0  0.00000000000E+00  0.00000000000E+00  0.78697553098E+03  0.12719699875E+04  0.99928832815E+03 0.  0.
        1    1    3    3  502    0 -0.22149218716E+03  0.23039149342E+03 -0.95378202406E+02  0.33352066013E+03  0.50400001928E-02 0. -1.
       -1    1    3    3    0  502  0.22149218716E+03 -0.23039149342E+03  0.88235373339E+03  0.93844932738E+03  0.50400001928E-02 0.  1.
</event>
<event>
 5   0  0.3640180E-03  0.1003756E+04  0.7818609E-02  0.9304435E-01
        1   -1    0    0  501    0  0.00000000000E+00  0.00000000000E+00  0.60159023769E+03  0.60159023771E+03  0.50400001928E-02 0. -1.
       -1   -1    0    0    0  501  0.00000000000E+00  0.00000000000E+00 -0.41869309473E+03  0.41869309476E+03  0.50400001928E-02 0.  1.
    10030    2    1    2    0    0  0.00000000000E+00  0.00000000000E+00  0.18289714296E+03  0.10202833325E+04  0.10037563019E+04 0.  0.
        5    1    3    3  502    0  0.48805443027E+03 -0.14424373371E+02  0.20935151774E+03  0.53127708160E+03  0.46999998093E+01 0. -1.
       -5    1    3    3    0  502 -0.48805443027E+03  0.14424373371E+02 -0.26454374779E+02  0.48900625088E+03  0.46999998093E+01 0.  1.
</event>
<event>
 5   0  0.3466598E-03  0.1002454E+04  0.7818609E-02  0.9305858E-01
        1   -1    0    0  501    0  0.00000000000E+00  0.00000000000E+00  0.58151739586E+03  0.58151739588E+03  0.50400001928E-02 0.  1.
       -1   -1    0    0    0  501  0.00000000000E+00  0.00000000000E+00 -0.43202224308E+03  0.43202224311E+03  0.50400001928E-02 0. -1.
    10030    2    1    2    0    0  0.00000000000E+00  0.00000000000E+00  0.14949515278E+03  0.10135396390E+04  0.10024538888E+04 0.  0.
        3    1    3    3  502    0 -0.94367561281E+02 -0.48766970677E+03  0.14258245212E+03  0.51677533356E+03  0.10100000352E+00 0.  1.
       -3    1    3    3    0  502  0.94367561281E+02  0.48766970677E+03  0.69127006536E+01  0.49676430543E+03  0.10100000352E+00 0. -1.
</event>
<event>
 5   0  0.6360455E-03  0.9973243E+03  0.7818609E-02  0.9311484E-01
        2   -1    0    0  501    0  0.00000000000E+00  0.00000000000E+00  0.93504539554E+03  0.93504539554E+03  0.25500000920E-02 0.  1.
       -2   -1    0    0    0  501  0.00000000000E+00  0.00000000000E+00 -0.26593784056E+03  0.26593784057E+03  0.25500000920E-02 0. -1.
    10030    2    1    2    0    0  0.00000000000E+00  0.00000000000E+00  0.66910755498E+03  0.12009832361E+04  0.99732432703E+03 0.  0.
        4    1    3    3  502    0  0.13785966795E+03  0.30008292605E+03 -0.11538619866E+03  0.34981514875E+03  0.12699999809E+01 0. -1.
       -4    1    3    3    0  502 -0.13785966795E+03 -0.30008292605E+03  0.78449375363E+03  0.85116808736E+03  0.12699999809E+01 0.  1.
</event>
<event>
 5   0  0.3643002E-03  0.9009813E+03  0.7818609E-02  0.9424356E-01
        1   -1    0    0  501    0  0.00000000000E+00  0.00000000000E+00  0.42503638709E+03  0.42503638712E+03  0.50400001928E-02 0.  1.
       -1   -1    0    0    0  501  0.00000000000E+00  0.00000000000E+00 -0.47746934833E+03  0.47746934836E+03  0.50400001928E-02 0. -1.
    10030    2    1    2    0    0  0.00000000000E+00  0.00000000000E+00 -0.52432961241E+02  0.90250573548E+03  0.90098134672E+03 0.  0.
        2    1    3    3  502    0 -0.27200963274E+03  0.20711432504E+03  0.26763332776E+03  0.43418104757E+03  0.25500000920E-02 0.  1.
       -2    1    3    3    0  502  0.27200963274E+03 -0.20711432504E+03 -0.32006628900E+03  0.46832468790E+03  0.25500000920E-02 0. -1.
</event>
<event>
 5   0  0.2417750E-03  0.1027999E+04  0.7818609E-02  0.9278358E-01
       -3   -1    0    0    0  501  0.00000000000E+00  0.00000000000E+00  0.73649990674E+03  0.73649991367E+03  0.10100000352E+00 0.  1.
        3   -1    0    0  501    0  0.00000000000E+00  0.00000000000E+00 -0.35871778413E+03  0.35871779835E+03  0.10100000352E+00 0. -1.
    10030    2    1    2    0    0  0.00000000000E+00  0.00000000000E+00  0.37778212261E+03  0.10952177120E+04  0.10279992726E+04 0.  0.
        2    1    3    3  502    0  0.60094090819E+01 -0.31168001601E+03 -0.24650600176E+03  0.39742389748E+03  0.25500000920E-02 0. -1.
       -2    1    3    3    0  502 -0.60094090819E+01  0.31168001601E+03  0.62428812437E+03  0.69779381454E+03  0.25500000920E-02 0.  1.
</event>
<event>
 5   0  0.6606947E-03  0.9165494E+03  0.7818609E-02  0.9405127E-01
       -2   -1    0    0    0  501  0.00000000000E+00  0.00000000000E+00  0.19580270824E+03  0.19580270825E+03  0.25500000920E-02 0.  1.
        2   -1    0    0  501    0  0.00000000000E+00  0.00000000000E+00 -0.10725882526E+04  0.10725882526E+04  0.25500000920E-02 0. -1.
    10030    2    1    2    0    0  0.00000000000E+00  0.00000000000E+00 -0.87678554433E+03  0.12683909608E+04  0.91654936515E+03 0.  0.
        1    1    3    3  502    0 -0.38791183998E+03  0.22891041119E+03 -0.55532919687E+03  0.71502873290E+03  0.50400001928E-02 0. -1.
       -1    1    3    3    0  502  0.38791183998E+03 -0.22891041119E+03 -0.32145634746E+03  0.55336222793E+03  0.50400001928E-02 0.  1.
</event>
<event>
 5   0  0.6360455E-03  0.1013632E+04  0.7818609E-02  0.9293718E-01
       -2   -1    0    0    0  501  0.00000000000E+00  0.00000000000E+00  0.12034971560E+03  0.12034971563E+03  0.25500000920E-02 0. -1.
        2   -1    0    0  501    0  0.00000000000E+00  0.00000000000E+00 -0.21343009659E+04  0.21343009659E+04  0.25500000920E-02 0.  1.
    10030    2    1    2    0    0  0.00000000000E+00  0.00000000000E+00 -0.20139512503E+04  0.22546506815E+04  0.10136321113E+04 0.  0.
        4    1    3    3  502    0  0.13768189721E+03 -0.27041290981E+03 -0.10404772832E+03  0.32079119265E+03  0.12699999809E+01 0. -1.
       -4    1    3    3    0  502 -0.13768189721E+03  0.27041290981E+03 -0.19099035220E+04  0.19338594889E+04  0.12699999809E+01 0.  1.
</event>
<event>
 5   0  0.6360455E-03  0.1002316E+04  0.7818609E-02  0.9306008E-01
        2   -1    0    0  501    0  0.00000000000E+00  0.00000000000E+00  0.16639705047E+03  0.16639705049E+03  0.25500000920E-02 0.  1.
       -2   -1    0    0    0  501  0.00000000000E+00  0.00000000000E+00 -0.15093976081E+04  0.15093976081E+04  0.25500000920E-02 0. -1.
    10030    2    1    2    0    0  0.00000000000E+00  0.00000000000E+00 -0.13430005576E+04  0.16757946585E+04  0.10023159382E+04 0.  0.
        4    1    3    3  502    0  0.37650450138E+03  0.25139436281E+03 -0.10308778201E+04  0.11259065050E+04  0.12699999809E+01 0. -1.
       -4    1    3    3    0  502 -0.37650450138E+03 -0.25139436281E+03 -0.31212273748E+03  0.54988815350E+03  0.12699999809E+01 0.  1.
</event>
<event>
 5   0  0.6199539E-03  0.8961749E+03  0.7818609E-02  0.9430376E-01
        2   -1    0    0  501    0  0.00000000000E+00  0.00000000000E+00  0.24844041208E+03  0.24844041209E+03  0.25500000920E-02 0. -1.
       -2   -1    0    0    0  501  0.00000000000E+00  0.00000000000E+00 -0.80817114824E+03  0.80817114824E+03  0.25500000920E-02 0.  1.
    10030    2    1    2    0    0  0.00000000000E+00  0.00000000000E+00 -0.55973073616E+03  0.10566115603E+04  0.89617492290E+03 0.  0.
        2    1    3    3  502    0 -0.13891185730E+03 -0.41718922801E+03 -0.38155585982E+03  0.58217542909E+03  0.25500000920E-02 0.  1.
       -2    1    3    3    0  502  0.13891185730E+03  0.41718922801E+03 -0.17817487634E+03  0.47443613125E+03  0.25500000920E-02 0. -1.
</event>
<event>
 5   0  0.6376961E-03  0.1009602E+04  0.7818609E-02  0.9298076E-01
        2   -1    0    0  501    0  0.00000000000E+00  0.00000000000E+00  0.61707233002E+03  0.61707233003E+03  0.25500000920E-02 0.  1.
       -2   -1    0    0    0  501  0.00000000000E+00  0.00000000000E+00 -0.41295659198E+03  0.41295659199E+03  0.25500000920E-02 0. -1.
    10030    2    1    2    0    0  0.00000000000E+00  0.00000000000E+00  0.20411573804E+03  0.10300289220E+04  0.10096020729E+04 0.  0.
        3    1    3    3  502    0  0.37090333020E+03  0.30030331271E+03 -0.65809042952E+02  0.48174910515E+03  0.10100000352E+00 0. -1.
       -3    1    3    3    0  502 -0.37090333020E+03 -0.30030331271E+03  0.26992478099E+03  0.54827981686E+03  0.10100000352E+00 0.  1.
</event>
<event>
 5   0  0.3466598E-03  0.1044429E+04  0.7818609E-02  0.9261114E-01
       -1   -1    0    0    0  501  0.00000000000E+00  0.00000000000E+00  0.24180595890E+03  0.24180595896E+03  0.50400001928E-02 0. -1.
        1   -1    0    0  501    0  0.00000000000E+00  0.00000000000E+00 -0.11277972108E+04  0.11277972108E+04  0.50400001928E-02 0.  1.
    10030    2    1    2    0    0  0.00000000000E+00  0.00000000000E+00 -0.88599125188E+03  0.13696031698E+04  0.10444291954E+04 0.  0.
        3    1    3    3  502    0  0.15775422468E+03 -0.49766703531E+03 -0.42697779641E+03  0.67443970988E+03  0.10100000352E+00 0. -1.
       -3    1    3    3    0  502 -0.15775422468E+03  0.49766703531E+03 -0.45901345547E+03  0.69516345987E+03  0.10100000352E+00 0.  1.
</event>
<event>
 5   0  0.3569359E-03  0.9440248E+03  0.7818609E-02  0.9372162E-01
       -1   -1    0    0    0  501  0.00000000000E+00  0.00000000000E+00  0.50791890866E+03  0.50791890869E+03  0.50400001928E-02 0.  1.
        1   -1    0    0  501    0  0.00000000000E+00  0.00000000000E+00 -0.43864421905E+03  0.43864421907E+03  0.50400001928E-02 0. -1.
    10030    2    1    2    0    0  0.00000000000E+00  0.00000000000E+00  0.69274689617E+02  0.94656312776E+03  0.94402477310E+03 0.  0.
        4    1    3    3  502    0 -0.35464746491E+03 -0.16723762571E+03  0.29811916246E+03  0.49256461073E+03  0.12699999809E+01 0.  1.
       -4    1    3    3    0  502  0.35464746491E+03  0.16723762571E+03 -0.22884447284E+03  0.45399851703E+03  0.12699999809E+01 0. -1.
</event>
<event>
 5   0  0.6376961E-03  0.1009355E+04  0.7818609E-02  0.9298343E-01
        2   -1    0    0  501    0  0.00000000000E+00  0.00000000000E+00  0.94350441027E+03  0.94350441027E+03  0.25500000920E-02 0.  1.
       -2   -1    0    0    0  501  0.00000000000E+00  0.00000000000E+00 -0.26995053561E+03  0.26995053563E+03  0.25500000920E-02 0. -1.
    10030    2    1    2    0    0  0.00000000000E+00  0.00000000000E+00  0.67355387465E+03  0.12134549459E+04  0.10093552812E+04 0.  0.
        3    1    3    3  502    0  0.21605445145E+03 -0.68230194975E+02 -0.20537036585E+03  0.30579712698E+03  0.10100000352E+00 0. -1.
       -3    1    3    3    0  502 -0.21605445145E+03  0.68230194975E+02  0.87892424051E+03  0.90765781892E+03  0.10100000352E+00 0.  1.
</event>
<event>
 5   0  0.6199539E-03  0.9968212E+03  0.7818609E-02  0.9312038E-01
       -2   -1    0    0    0  501  0.00000000000E+00  0.00000000000E+00  0.24914913198E+03  0.24914913199E+03  0.25500000920E-02 0.  1.
        2   -1    0    0  501    0  0.00000000000E+00  0.00000000000E+00 -0.99704591647E+03  0.99704591647E+03  0.25500000920E-02 0. -1.
    10030    2    1    2    0    0  0.00000000000E+00  0.00000000000E+00 -0.74789678449E+03  0.12461950485E+04  0.99682119689E+03 0.  0.
        2    1    3    3  502    0  0.13014563801E+03 -0.27469822306E+03  0.11985435152E+03  0.32674465019E+03  0.25500000920E-02 0.  1.
       -2    1    3    3    0  502 -0.13014563801E+03  0.27469822306E+03 -0.86775113600E+03  0.91945039828E+03  0.25500000920E-02 0. -1.
</event>
<event>
 5   0  0.3608845E-03  0.1015433E+04  0.7818609E-02  0.9291778E-01
       -1   -1    0    0    0  501  0.00000000000E+00  0.00000000000E+00  0.76049973867E+03  0.76049973869E+03  0.50400001928E-02 0. -1.
        1   -1    0    0  501    0  0.00000000000E+00  0.00000000000E+00 -0.33895633729E+03  0.33895633733E+03  0.50400001928E-02 0.  1.
    10030    2    1    2    0    0  0.00000000000E+00  0.00000000000E+00  0.42154340138E+03  0.10994560760E+04  0.10154333183E+04 0.  0.
        1    1    3    3  502    0 -0.74370332329E+02 -0.28634662056E+03  0.65752847597E+03  0.72101943814E+03  0.50400001928E-02 0. -1.
       -1    1    3    3    0  502  0.74370332329E+02  0.28634662056E+03 -0.23598507459E+03  0.37843663788E+03  0.50400001928E-02 0.  1.
</event>
<event>
 5   0  0.6606947E-03  0.1001404E+04  0.7818609E-02  0.9307007E-01
        2   -1    0    0  501    0  0.00000000000E+00  0.00000000000E+00  0.13585023106E+04  0.13585023106E+04  0.25500000920E-02 0.  1.
       -2   -1    0    0    0  501  0.00000000000E+00  0.00000000000E+00 -0.18454317600E+03  0.18454317602E+03  0.25500000920E-02 0. -1.
    10030    2    1    2    0    0  0.00000000000E+00  0.00000000000E+00  0.11739591346E+04  0.15430454866E+04  0.10014036769E+04 0.  0.
        1    1    3    3  502    0  0.23411972434E+03 -0.23774486394E+03  0.11737604671E+02  0.33387488232E+03  0.50400001928E-02 0. -1.
       -1    1    3    3    0  502 -0.23411972434E+03  0.23774486394E+03  0.11622215299E+04  0.12091706043E+04  0.50400001928E-02 0.  1.
</event>
<event>
 5   0  0.3643002E-03  0.9985652E+03  0.7818609E-02  0.9310120E-01
       -1   -1    0    0    0  501  0.00000000000E+00  0.00000000000E+00  0.29416700952E+03  0.29416700956E+03  0.50400001928E-02 0.  1.
        1   -1    0    0  501    0  0.00000000000E+00  0.00000000000E+00 -0.84742042248E+03  0.84742042250E+03  0.50400001928E-02 0. -1.
    10030    2    1    2    0    0  0.00000000000E+00  0.00000000000E+00 -0.55325341296E+03  0.11415874321E+04  0.99856523376E+03 0.  0.
        2    1    3    3  502    0 -0.65242710172E+02 -0.41801684304E+03  0.26465442727E+02  0.42390460243E+03  0.25500000920E-02 0. -1.
       -2    1    3    3    0  502  0.65242710172E+02  0.41801684304E+03 -0.57971885569E+03  0.71768282963E+03  0.25500000920E-02 0.  1.
</event>
<event>
 5   0  0.6022787E-03  0.9981039E+03  0.7818609E-02  0.9310627E-01
        2   -1    0    0  501    0  0.00000000000E+00  0.00000000000E+00  0.75536468731E+03  0.75536468732E+03  0.25500000920E-02 0. -1.
       -2   -1    0    0    0  501  0.00000000000E+00  0.00000000000E+00 -0.32971206189E+03  0.32971206190E+03  0.25500000920E-02 0.  1.
    10030    2    1    2    0    0  0.00000000000E+00  0.00000000000E+00  0.42565262542E+03  0.10850767492E+04  0.99810389949E+03 0.  0.
        5    1    3    3  502    0 -0.39077235562E+03 -0.28892563384E+03  0.33606051146E+03  0.59088054053E+03  0.46999998093E+01 0. -1.
       -5    1    3    3    0  502  0.39077235562E+03  0.28892563384E+03  0.89592113955E+02  0.49419620870E+03  0.46999998093E+01 0.  1.
</event>
<event>
 5   0  0.3643002E-03  0.9951839E+03  0.7818609E-02  0.9313843E-01
        1   -1    0    0  501    0  0.00000000000E+00  0.00000000000E+00  0.19621913770E+04  0.19621913770E+04  0.50400001928E-02 0. -1.
       -1   -1    0    0    0  501  0.00000000000E+00  0.00000000000E+00 -0.12618430113E+03  0.12618430123E+03  0.50400001928E-02 0.  1.
    10030    2    1    2    0    0  0.00000000000E+00  0.00000000000E+00  0.18360070759E+04  0.20883756783E+04  0.99518389800E+03 0.  0.
        2    1    3    3  502    0 -0.46742872054E+03  0.16694237305E+03  0.84415655158E+03  0.97926485094E+03  0.25500000920E-02 0.  1.
       -2    1    3    3    0  502  0.46742872054E+03 -0.16694237305E+03  0.99185052431E+03  0.11091108273E+04  0.25500000920E-02 0. -1.
</event>
<event>
 5   0  0.3466598E-03  0.1001566E+04  0.7818609E-02  0.9306829E-01
       -1   -1    0    0    0  501  0.00000000000E+00  0.00000000000E+00  0.25257154324E+03  0.25257154329E+03  0.50400001928E-02 0. -1.
        1   -1    0    0  501    0  0.00000000000E+00  0.00000000000E+00 -0.99292095072E+03  0.99292095073E+03  0.50400001928E-02 0.  1.
    10030    2    1    2    0    0  0.00000000000E+00  0.00000000000E+00 -0.74034940748E+03  0.12454924940E+04  0.10015659277E+04 0.  0.
        3    1    3    3  502    0 -0.11759380364E+03  0.48616691862E+03 -0.40055874652E+03  0.64080722143E+03  0.10100000352E+00 0.  1.
       -3    1    3    3    0  502  0.11759380364E+03 -0.48616691862E+03 -0.33979066096E+03  0.60468527260E+03  0.10100000352E+00 0. -1.
</event>
<event>
 5   0  0.3640180E-03  0.9886660E+03  0.7818609E-02  0.9321064E-01
        1   -1    0    0  501    0  0.00000000000E+00  0.00000000000E+00  0.16841537489E+04  0.16841537489E+04  0.50400001928E-02 0. -1.
       -1   -1    0    0    0  501  0.00000000000E+00  0.00000000000E+00 -0.14509666440E+03  0.14509666449E+03  0.50400001928E-02 0.  1.
    10030    2    1    2    0    0  0.00000000000E+00  0.00000000000E+00  0.15390570845E+04  0.18292504134E+04  0.98866595247E+03 0.  0.
        5    1    3    3  502    0 -0.14869002325E+03 -0.25811513955E+03  0.39661882704E+02  0.30054501030E+03  0.46999998093E+01 0.  1.
       -5    1    3    3    0  502  0.14869002325E+03  0.25811513955E+03  0.14993952018E+04  0.15287054031E+04  0.46999998093E+01 0. -1.
</event>
<event>
 5   0  0.6606947E-03  0.1016671E+04  0.7818609E-02  0.9290447E-01
        2   -1    0    0  501    0  0.00000000000E+00  0.00000000000E+00  0.65455095393E+03  0.65455095393E+03  0.25500000920E-02 0.  1.
       -2   -1    0    0    0  501  0.00000000000E+00  0.00000000000E+00 -0.39478193271E+03  0.39478193272E+03  0.25500000920E-02 0. -1.
    10030    2    1    2    0    0  0.00000000000E+00  0.00000000000E+00  0.25976902122E+03  0.10493328867E+04  0.10166708231E+04 0.  0.
        1    1    3    3  502    0 -0.43541726753E+03 -0.21447801573E+03 -0.26017416640E+02  0.48607193098E+03  0.50400001928E-02 0. -1.
       -1    1    3    3    0  502  0.43541726753E+03  0.21447801573E+03  0.28578643786E+03  0.56326095567E+03  0.50400001928E-02 0.  1.
</event>
<event>
 5   0  0.3466598E-03  0.1005325E+04  0.7818609E-02  0.9302724E-01
        1   -1    0    0  501    0  0.00000000000E+00  0.00000000000E+00  0.66166228645E+03  0.66166228647E+03  0.50400001928E-02 0.  1.
       -1   -1    0    0    0  501  0.00000000000E+00  0.00000000000E+00 -0.38187076801E+03  0.38187076805E+03  0.50400001928E-02 0. -1.
    10030    2    1    2    0    0  0.00000000000E+00  0.00000000000E+00  0.27979151844E+03  0.10435330545E+04  0.10053247943E+04 0.  0.
        3    1    3    3  502    0 -0.81323763506E+02 -0.45613829475E+03 -0.62432269577E+02  0.46751844556E+03  0.10100000352E+00 0. -1.
       -3    1    3    3    0  502  0.81323763506E+02  0.45613829475E+03  0.34222378802E+03  0.57601460896E+03  0.10100000352E+00 0.  1.
</event>
<event>
 5   0  0.6199539E-03  0.1010906E+04  0.7818609E-02  0.9296664E-01
        2   -1    0    0  501    0  0.00000000000E+00  0.00000000000E+00  0.86265195281E+03  0.86265195281E+03  0.25500000920E-02 0. -1.
       -2   -1    0    0    0  501  0.00000000000E+00  0.00000000000E+00 -0.29615955499E+03  0.29615955500E+03  0.25500000920E-02 0.  1.
    10030    2    1    2    0    0  0.00000000000E+00  0.00000000000E+00  0.56649239781E+03  0.11588115078E+04  0.10109057690E+04 0.  0.
        2    1    3    3  502    0 -0.16010278603E+03  0.55491790487E+01  0.83278076742E+03  0.84804923328E+03  0.25500000920E-02 0. -1.
       -2    1    3    3    0  502  0.16010278603E+03 -0.55491790487E+01 -0.26628836960E+03  0.31076227453E+03  0.25500000920E-02 0.  1.
</event>
<event>
 5   0  0.3569359E-03  0.1025894E+04  0.7818609E-02  0.9280592E-01
       -1   -1    0    0    0  501  0.00000000000E+00  0.00000000000E+00  0.43420508033E+03  0.43420508036E+03  0.50400001928E-02 0.  1.
        1   -1    0    0  501    0  0.00000000000E+00  0.00000000000E+00 -0.60596830491E+03  0.60596830493E+03  0.50400001928E-02 0. -1.
    10030    2    1    2    0    0  0.00000000000E+00  0.00000000000E+00 -0.17176322459E+03  0.10401733853E+04  0.10258937889E+04 0.  0.
        4    1    3    3  502    0  0.13638928657E+03  0.18911559363E+03 -0.54912857742E+03  0.59658239388E+03  0.12699999809E+01 0. -1.
       -4    1    3    3    0  502 -0.13638928657E+03 -0.18911559363E+03  0.37736535283E+03  0.44359099141E+03  0.12699999809E+01 0.  1.
</event>
<event>
 5   0  0.3640180E-03  0.1008681E+04  0.7818609E-02  0.9299074E-01
        1   -1    0    0  501    0  0.00000000000E+00  0.00000000000E+00  0.10384494915E+04  0.10384494915E+04  0.50400001928E-02 0.  1.
       -1   -1    0    0    0  501  0.00000000000E+00  0.00000000000E+00 -0.24494158841E+03  0.24494158846E+03  0.50400001928E-02 0. -1.
    10030    2    1    2    0    0  0.00000000000E+00  0.00000000000E+00  0.79350790305E+03  0.12833910799E+04  0.10086812538E+04 0.  0.
        5    1    3    3  502    0  0.14097077948E+03  0.48329333882E+03  0.35875007580E+03  0.61819812269E+03  0.46999998093E+01 0. -1.
       -5    1    3    3    0  502 -0.14097077948E+03 -0.48329333882E+03  0.43475782726E+03  0.66519295724E+03  0.46999998093E+01 0.  1.
</event>
<event>
 5   0  0.6022787E-03  0.1001369E+04  0.7818609E-02  0.9307045E-01
        2   -1    0    0  501    0  0.00000000000E+00  0.00000000000E+00  0.72068288626E+03  0.72068288626E+03  0.25500000920E-02 0. -1.
       -2   -1    0    0    0  501  0.00000000000E+00  0.00000000000E+00 -0.34784337560E+03  0.34784337561E+03  0.25500000920E-02 0.  1.
    10030    2    1    2    0    0  0.00000000000E+00  0.00000000000E+00  0.37283951065E+03  0.10685262619E+04  0.10013685993E+04 0.  0.
        5    1    3    3  502    0  0.56638580312E+02 -0.24888650892E+03  0.64601464685E+03  0.69462899237E+03  0.46999998093E+01 0. -1.
       -5    1    3    3    0  502 -0.56638580312E+02  0.24888650892E+03 -0.27317513620E+03  0.37389726950E+03  0.46999998093E+01 0.  1.
</event>
<event>
 5   0  0.3640180E-03  0.1033095E+04  0.7818609E-02  0.9272974E-01
       -1   -1    0    0    0  501  0.00000000000E+00  0.00000000000E+00  0.32964866345E+03  0.32964866349E+03  0.50400001928E-02 0.  1.
        1   -1    0    0  501    0  0.00000000000E+00  0.00000000000E+00 -0.80941072409E+03  0.80941072410E+03  0.50400001928E-02 0. -1.
    10030    2    1    2    0    0  0.00000000000E+00  0.00000000000E+00 -0.47976206064E+03  0.11390593876E+04  0.10330946973E+04 0.  0.
        5    1    3    3  502    0 -0.47226826403E+03 -0.13772834361E+03 -0.41348826874E+03  0.64265157607E+03  0.46999998093E+01 0.  1.
       -5    1    3    3    0  502  0.47226826403E+03  0.13772834361E+03 -0.66273791899E+02  0.49640781152E+03  0.46999998093E+01 0. -1.
</event>
<event>
 5   0  0.3643002E-03  0.9966641E+03  0.7818609E-02  0.9312211E-01
        1   -1    0    0  501    0  0.00000000000E+00  0.00000000000E+00  0.17211654345E+04  0.17211654345E+04  0.50400001928E-02 0.  1.
       -1   -1    0    0    0  501  0.00000000000E+00  0.00000000000E+00 -0.14428295623E+03  0.14428295632E+03  0.50400001928E-02 0. -1.
    10030    2    1    2    0    0  0.00000000000E+00  0.00000000000E+00  0.15768824783E+04  0.18654483908E+04  0.99666411019E+03 0.  0.
        2    1    3    3  502    0 -0.19496593451E+03  0.68320431193E+02  0.16372395761E+04  0.16502220537E+04  0.25500000920E-02 0.  1.
       -2    1    3    3    0  502  0.19496593451E+03 -0.68320431193E+02 -0.60357097813E+02  0.21522633715E+03  0.25500000920E-02 0. -1.
</event>
<event>
 5   0  0.6606947E-03  0.1004603E+04  0.7818609E-02  0.9303511E-01
       -2   -1    0    0    0  501  0.00000000000E+00  0.00000000000E+00  0.99467125878E+02  0.99467125910E+02  0.25500000920E-02 0. -1.
        2   -1    0    0  501    0  0.00000000000E+00  0.00000000000E+00 -0.25365841799E+04  0.25365841799E+04  0.25500000920E-02 0.  1.
    10030    2    1    2    0    0  0.00000000000E+00  0.00000000000E+00 -0.24371170540E+04  0.26360513058E+04  0.10046028827E+04 0.  0.
        1    1    3    3  502    0 -0.45862612262E+03 -0.18406969909E+03 -0.14545289382E+04  0.15361881417E+04  0.50400001928E-02 0. -1.
       -1    1    3    3    0  502  0.45862612262E+03  0.18406969909E+03 -0.98258811577E+03  0.10998631641E+04  0.50400001928E-02 0.  1.
</event>
<event>
 5   0  0.3569359E-03  0.1003800E+04  0.7818609E-02  0.9304386E-01
        1   -1    0    0  501    0  0.00000000000E+00  0.00000000000E+00  0.66551848975E+03  0.66551848977E+03  0.50400001928E-02 0. -1.
       -1   -1    0    0    0  501  0.00000000000E+00  0.00000000000E+00 -0.37850757515E+03  0.37850757519E+03  0.50400001928E-02 0.  1.
    10030    2    1    2    0    0  0.00000000000E+00  0.00000000000E+00  0.28701091459E+03  0.10440260650E+04  0.10038003582E+04 0.  0.
        4    1    3    3  502    0 -0.26486317659E+03  0.25729847493E+03  0.49704960314E+03  0.61920507782E+03  0.12699999809E+01 0. -1.
       -4    1    3    3    0  502  0.26486317659E+03 -0.25729847493E+03 -0.21003868855E+03  0.42482098713E+03  0.12699999809E+01 0.  1.
</event>
<event>
 5   0  0.6606947E-03  0.8175352E+03  0.7818609E-02  0.9534977E-01
       -2   -1    0    0    0  501  0.00000000000E+00  0.00000000000E+00  0.36149856864E+03  0.36149856865E+03  0.25500000920E-02 0.  1.
        2   -1    0    0  501    0  0.00000000000E+00  0.00000000000E+00 -0.46221744836E+03  0.46221744836E+03  0.25500000920E-02 0. -1.
    10030    2    1    2    0    0  0.00000000000E+00  0.00000000000E+00 -0.10071887972E+03  0.82371601701E+03  0.81753518820E+03 0.  0.
        1    1    3    3  502    0 -0.25023610467E+02  0.40187876270E+03  0.20587582101E+02  0.40318304720E+03  0.50400001928E-02 0.  1.
       -1    1    3    3    0  502  0.25023610467E+02 -0.40187876270E+03 -0.12130646182E+03  0.42053296981E+03  0.50400001928E-02 0. -1.
</event>
<event>
 5   0  0.6606947E-03  0.9957436E+03  0.7818609E-02  0.9313226E-01
        2   -1    0    0  501    0  0.00000000000E+00  0.00000000000E+00  0.11743428881E+04  0.11743428881E+04  0.25500000920E-02 0.  1.
       -2   -1    0    0    0  501  0.00000000000E+00  0.00000000000E+00 -0.21107661176E+03  0.21107661178E+03  0.25500000920E-02 0. -1.
    10030    2    1    2    0    0  0.00000000000E+00  0.00000000000E+00  0.96326627629E+03  0.13854194998E+04  0.99574357717E+03 0.  0.
        1    1    3    3  502    0 -0.15365883183E+03 -0.32538499922E+02 -0.17570257407E+03  0.23567177416E+03  0.50400001928E-02 0. -1.
       -1    1    3    3    0  502  0.15365883183E+03  0.32538499922E+02  0.11389688504E+04  0.11497477257E+04  0.50400001928E-02 0.  1.
</event>
<event>
 5   0  0.3569359E-03  0.1030975E+04  0.7818609E-02  0.9275210E-01
       -1   -1    0    0    0  501  0.00000000000E+00  0.00000000000E+00  0.34874353913E+03  0.34874353916E+03  0.50400001928E-02 0.  1.
        1   -1    0    0  501    0  0.00000000000E+00  0.00000000000E+00 -0.76195619250E+03  0.76195619252E+03  0.50400001928E-02 0. -1.
    10030    2    1    2    0    0  0.00000000000E+00  0.00000000000E+00 -0.41321265338E+03  0.11106997317E+04  0.10309748770E+04 0.  0.
        4    1    3    3  502    0  0.66484444499E+02 -0.50227016571E+03 -0.30898203600E+03  0.59343661177E+03  0.12699999809E+01 0. -1.
       -4    1    3    3    0  502 -0.66484444499E+02  0.50227016571E+03 -0.10423061737E+03  0.51726311991E+03  0.12699999809E+01 0.  1.
</event>
<event>
 5   0  0.3466598E-03  0.1005931E+04  0.7818609E-02  0.9302064E-01
       -1   -1    0    0    0  501  0.00000000000E+00  0.00000000000E+00  0.14125123025E+03  0.14125123034E+03  0.50400001928E-02 0.  1.
        1   -1    0    0  501    0  0.00000000000E+00  0.00000000000E+00 -0.17909527606E+04  0.17909527606E+04  0.50400001928E-02 0. -1.
    10030    2    1    2    0    0  0.00000000000E+00  0.00000000000E+00 -0.16497015304E+04  0.19322039910E+04  0.10059309735E+04 0.  0.
        3    1    3    3  502    0 -0.29354880095E+03 -0.27104104254E+03 -0.14116897864E+04  0.14671408278E+04  0.10100000352E+00 0. -1.
       -3    1    3    3    0  502  0.29354880095E+03  0.27104104254E+03 -0.23801174395E+03  0.46506316317E+03  0.10100000352E+00 0.  1.
</event>
<event>
 5   0  0.2417750E-03  0.9984285E+03  0.7818609E-02  0.9310270E-01
       -3   -1    0    0    0  501  0.00000000000E+00  0.00000000000E+00  0.84900665896E+03  0.84900666497E+03  0.10100000352E+00 0. -1.
        3   -1    0    0  501    0  0.00000000000E+00  0.00000000000E+00 -0.29353698997E+03  0.29353700735E+03  0.10100000352E+00 0.  1.
    10030    2    1    2    0    0  0.00000000000E+00  0.00000000000E+00  0.55546966899E+03  0.11425436723E+04  0.99842851020E+03 0.  0.
        5    1    3    3  502    0 -0.42519142009E+03 -0.10215423943E+03  0.55325652896E+03  0.70522202829E+03  0.46999998093E+01 0. -1.
       -5    1    3    3    0  502  0.42519142009E+03  0.10215423943E+03  0.22131400273E+01  0.43732164403E+03  0.46999998093E+01 0.  1.
</event>
<event>
 5   0  0.6360455E-03  0.1013240E+04  0.7818609E-02  0.9294141E-01
       -2   -1    0    0    0  501  0.00000000000E+00  0.00000000000E+00  0.38819842438E+03  0.38819842439E+03  0.25500000920E-02 0.  1.
        2   -1    0    0  501    0  0.00000000000E+00  0.00000000000E+00 -0.66116712583E+03  0.66116712584E+03  0.25500000920E-02 0. -1.
    10030    2    1    2    0    0  0.00000000000E+00  0.00000000000E+00 -0.27296870145E+03  0.10493655502E+04  0.10132404187E+04 0.  0.
        4    1    3    3  502    0 -0.40842554822E+03 -0.24064092273E+03 -0.32158236078E+03  0.57283183379E+03  0.12699999809E+01 0. -1.
       -4    1    3    3    0  502  0.40842554822E+03  0.24064092273E+03  0.48613659330E+02  0.47653371644E+03  0.12699999809E+01 0.  1.
</event>
<event>
 5   0  0.3569359E-03  0.9457353E+03  0.7818609E-02  0.9370149E-01
       -1   -1    0    0    0  501  0.00000000000E+00  0.00000000000E+00  0.61977428959E+03  0.61977428961E+03  0.50400001928E-02 0. -1.
        1   -1    0    0  501    0  0.00000000000E+00  0.00000000000E+00 -0.36078265432E+03  0.36078265435E+03  0.50400001928E-02 0.  1.
    10030    2    1    2    0    0  0.00000000000E+00  0.00000000000E+00  0.25899163528E+03  0.98055694397E+03  0.94573529765E+03 0.  0.
        4    1    3    3  502    0  0.45955268706E+02 -0.44327395046E+03  0.29342654170E+03  0.53357701426E+03  0.12699999809E+01 0. -1.
       -4    1    3    3    0  502 -0.45955268706E+02  0.44327395046E+03 -0.34434906424E+02  0.44697992970E+03  0.12699999809E+01 0.  1.
</event>
<event>
 5   0  0.3608845E-03  0.1005592E+04  0.7818609E-02  0.9302433E-01
       -1   -1    0    0    0  501  0.00000000000E+00  0.00000000000E+00  0.97716803418E+03  0.97716803419E+03  0.50400001928E-02 0.  1.
        1   -1    0    0  501    0  0.00000000000E+00  0.00000000000E+00 -0.25871059583E+03  0.25871059588E+03  0.50400001928E-02 0. -1.
    10030    2    1    2    0    0  0.00000000000E+00  0.00000000000E+00  0.71845743835E+03  0.12358786301E+04  0.10055918146E+04 0.  0.
        1    1    3    3  502    0  0.24006469515E+02  0.25927534067E+03 -0.16939216142E+03  0.31063437871E+03  0.50400001928E-02 0. -1.
       -1    1    3    3    0  502 -0.24006469515E+02 -0.25927534067E+03  0.88784959977E+03  0.92524425137E+03  0.50400001928E-02 0.  1.
</event>
<event>
 5   0  0.3640180E-03  0.1000349E+04  0.7818609E-02  0.9308162E-01
        1   -1    0    0  501    0  0.00000000000E+00  0.00000000000E+00  0.12155163728E+04  0.12155163728E+04  0.50400001928E-02 0.  1.
       -1   -1    0    0    0  501  0.00000000000E+00  0.00000000000E+00 -0.20581757512E+03  0.20581757518E+03  0.50400001928E-02 0. -1.
    10030    2    1    2    0    0  0.00000000000E+00  0.00000000000E+00  0.10096987977E+04  0.14213339480E+04  0.10003492039E+04 0.  0.
        5    1    3    3  502    0  0.18141877038E+02 -0.45026529730E+03  0.81315671718E+03  0.92968484033E+03  0.46999998093E+01 0.  1.
       -5    1    3    3    0  502 -0.18141877038E+02  0.45026529730E+03  0.19654208052E+03  0.49164910767E+03  0.46999998093E+01 0. -1.
</event>
<event>
 5   0  0.6360455E-03  0.9960625E+03  0.7818609E-02  0.9312874E-01
        2   -1    0    0  501    0  0.00000000000E+00  0.00000000000E+00  0.71655903654E+03  0.71655903655E+03  0.25500000920E-02 0. -1.
       -2   -1    0    0    0  501  0.00000000000E+00  0.00000000000E+00 -0.34614753395E+03  0.34614753396E+03  0.25500000920E-02 0.  1.
    10030    2    1    2    0    0  0.00000000000E+00  0.00000000000E+00  0.37041150259E+03  0.10627065705E+04  0.99606253506E+03 0.  0.
        4    1    3    3  502    0  0.35954306807E+03 -0.11099858796E+03  0.53328850899E+03  0.65267920991E+03  0.12699999809E+01 0. -1.
       -4    1    3    3    0  502 -0.35954306807E+03  0.11099858796E+03 -0.16287700640E+03  0.41002736060E+03  0.12699999809E+01 0.  1.
</event>
<event>
 5   0  0.6199539E-03  0.1013047E+04  0.7818609E-02  0.9294349E-01
       -2   -1    0    0    0  501  0.00000000000E+00  0.00000000000E+00  0.17472849823E+03  0.17472849825E+03  0.25500000920E-02 0. -1.
        2   -1    0    0  501    0  0.00000000000E+00  0.00000000000E+00 -0.14683712317E+04  0.14683712317E+04  0.25500000920E-02 0.  1.
    10030    2    1    2    0    0  0.00000000000E+00  0.00000000000E+00 -0.12936427335E+04  0.16430997299E+04  0.10130474820E+04 0.  0.
        2    1    3    3  502    0 -0.15979927668E+03  0.25980130061E+03  0.90789711549E+01  0.30514742724E+03  0.25500000920E-02 0. -1.
       -2    1    3    3    0  502  0.15979927668E+03 -0.25980130061E+03 -0.13027217046E+04  0.13379523027E+04  0.25500000920E-02 0.  1.
</event>
<event>
 5   0  0.3640180E-03  0.9208819E+03  0.7818609E-02  0.9399848E-01
        1   -1    0    0  501    0  0.00000000000E+00  0.00000000000E+00  0.16415918706E+04  0.16415918706E+04  0.50400001928E-02 0. -1.
       -1   -1    0    0    0  501  0.00000000000E+00  0.00000000000E+00 -0.12914650978E+03  0.12914650988E+03  0.50400001928E-02 0.  1.
    10030    2    1    2    0    0  0.00000000000E+00  0.00000000000E+00  0.15124453609E+04  0.17707383805E+04  0.92088188313E+03 0.  0.
        5    1    3    3  502    0 -0.18259131563E+03  0.41835724573E+03  0.64050797758E+03  0.78653349131E+03  0.46999998093E+01 0. -1.
       -5    1    3    3    0  502  0.18259131563E+03 -0.41835724573E+03  0.87193738327E+03  0.98420488921E+03  0.46999998093E+01 0.  1.
</event>
<event>
 5   0  0.3608845E-03  0.1000149E+04  0.7818609E-02  0.9308381E-01
        1   -1    0    0  501    0  0.00000000000E+00  0.00000000000E+00  0.81911740263E+03  0.81911740265E+03  0.50400001928E-02 0.  1.
       -1   -1    0    0    0  501  0.00000000000E+00  0.00000000000E+00 -0.30529772934E+03  0.30529772938E+03  0.50400001928E-02 0. -1.
    10030    2    1    2    0    0  0.00000000000E+00  0.00000000000E+00  0.51381967329E+03  0.11244151320E+04  0.10001493551E+04 0.  0.
        1    1    3    3  502    0  0.37934016945E+03 -0.27610894830E+03  0.45143893967E+03  0.65110078464E+03  0.50400001928E-02 0.  1.
       -1    1    3    3    0  502 -0.37934016945E+03  0.27610894830E+03  0.62380733621E+02  0.47331434738E+03  0.50400001928E-02 0. -1.
</event>
<event>
 5   0  0.6376961E-03  0.9975119E+03  0.7818609E-02  0.9311278E-01
       -2   -1    0    0    0  501  0.00000000000E+00  0.00000000000E+00  0.23531954803E+03  0.23531954805E+03  0.25500000920E-02 0.  1.
        2   -1    0    0  501    0  0.00000000000E+00  0.00000000000E+00 -0.10571051458E+04  0.10571051458E+04  0.25500000920E-02 0. -1.
    10030    2    1    2    0    0  0.00000000000E+00  0.00000000000E+00 -0.82178559773E+03  0.12924246938E+04  0.99751191498E+03 0.  0.
        3    1    3    3  502    0  0.49209838294E+03 -0.77590545261E+02 -0.44199871596E+03  0.66599098066E+03  0.10100000352E+00 0. -1.
       -3    1    3    3    0  502 -0.49209838294E+03  0.77590545261E+02 -0.37978688177E+03  0.62643371315E+03  0.10100000352E+00 0.  1.
</event>
<event>
 5   0  0.6360455E-03  0.9912039E+03  0.7818609E-02  0.9318245E-01
        2   -1    0    0  501    0  0.00000000000E+00  0.00000000000E+00  0.30728695915E+04  0.30728695915E+04  0.25500000920E-02 0. -1.
       -2   -1    0    0    0  501  0.00000000000E+00  0.00000000000E+00 -0.79932216779E+02  0.79932216820E+02  0.25500000920E-02 0.  1.
    10030    2    1    2    0    0  0.00000000000E+00  0.00000000000E+00  0.29929373747E+04  0.31528018083E+04  0.99120387083E+03 0.  0.
        4    1    3    3  502    0 -0.16374281312E+03  0.46692236170E+03  0.15859535300E+04  0.16613483719E+04  0.12699999809E+01 0. -1.
       -4    1    3    3    0  502  0.16374281312E+03 -0.46692236170E+03  0.14069838447E+04  0.14914534364E+04  0.12699999809E+01 0.  1.
</event>
<event>
 5   0  0.6360455E-03  0.1004162E+04  0.7818609E-02  0.9303992E-01
        2   -1    0    0  501    0  0.00000000000E+00  0.00000000000E+00  0.28014785587E+04  0.28014785587E+04  0.25500000920E-02 0. -1.
       -2   -1    0    0    0  501  0.00000000000E+00  0.00000000000E+00 -0.89982975704E+02  0.89982975740E+02  0.25500000920E-02 0.  1.
    10030    2    1    2    0    0  0.00000000000E+00  0.00000000000E+00  0.27114955830E+04  0.28914615344E+04  0.10041620928E+04 0.  0.
        4    1    3    3  502    0  0.28335789747E+03  0.13298700609E+03  0.24861268589E+04  0.25057544998E+04  0.12699999809E+01 0. -1.
       -4    1    3    3    0  502 -0.28335789747E+03 -0.13298700609E+03  0.22536872403E+03  0.38570703457E+03  0.12699999809E+01 0.  1.
</event>
<event>
 5   0  0.3466598E-03  0.1002872E+04  0.7818609E-02  0.9305401E-01
       -1   -1    0    0    0  501  0.00000000000E+00  0.00000000000E+00  0.22029302507E+03  0.22029302513E+03  0.50400001928E-02 0. -1.
        1   -1    0    0  501    0  0.00000000000E+00  0.00000000000E+00 -0.11413797345E+04  0.11413797346E+04  0.50400001928E-02 0.  1.
    10030    2    1    2    0    0  0.00000000000E+00  0.00000000000E+00 -0.92108670947E+03  0.13616727597E+04  0.10028718652E+04 0.  0.
        3    1    3    3  502    0  0.38458175270E+02 -0.49501064193E+03 -0.55581433464E+03  0.74528125675E+03  0.10100000352E+00 0.  1.
       -3    1    3    3    0  502 -0.38458175270E+02  0.49501064193E+03 -0.36527237484E+03  0.61639150293E+03  0.10100000352E+00 0. -1.
</event>
<event>
 5   0  0.3466598E-03  0.1002447E+04  0.7818609E-02  0.9305865E-01
        1   -1    0    0  501    0  0.00000000000E+00  0.00000000000E+00  0.10684791879E+04  0.10684791879E+04  0.50400001928E-02 0. -1.
       -1   -1    0    0    0  501  0.00000000000E+00  0.00000000000E+00 -0.23512389593E+03  0.23512389599E+03  0.50400001928E-02 0.  1.
    10030    2    1    2    0    0  0.00000000000E+00  0.00000000000E+00  0.83335529192E+03  0.13036030839E+04  0.10024469850E+04 0.  0.
        3    1    3    3  502    0  0.30927867446E+01 -0.35102818018E+03  0.88192063885E+03  0.94921776851E+03  0.10100000352E+00 0. -1.
       -3    1    3    3    0  502 -0.30927867446E+01  0.35102818018E+03 -0.48565346931E+02  0.35438531535E+03  0.10100000352E+00 0.  1.
</event>
<event>
 5   0  0.3608845E-03  0.1003812E+04  0.7818609E-02  0.9304373E-01
       -1   -1    0    0    0  501  0.00000000000E+00  0.00000000000E+00  0.11350190896E+04  0.11350190896E+04  0.50400001928E-02 0.  1.
        1   -1    0    0  501    0  0.00000000000E+00  0.00000000000E+00 -0.22194328864E+03  0.22194328869E+03  0.50400001928E-02 0. -1.
    10030    2    1    2    0    0  0.00000000000E+00  0.00000000000E+00  0.91307580099E+03  0.13569623783E+04  0.10038124715E+04 0.  0.
        1    1    3    3  502    0 -0.20974222312E+03 -0.29704977069E+03  0.92419239057E+03  0.99315756113E+03  0.50400001928E-02 0.  1.
       -1    1    3    3    0  502  0.20974222312E+03  0.29704977069E+03 -0.11116589579E+02  0.36380481720E+03  0.50400001928E-02 0. -1.
</event>
<event>
 5   0  0.3643002E-03  0.9998070E+03  0.7818609E-02  0.9308756E-01
       -1   -1    0    0    0  501  0.00000000000E+00  0.00000000000E+00  0.70884668321E+03  0.70884668323E+03  0.50400001928E-02 0. -1.
        1   -1    0    0  501    0  0.00000000000E+00  0.00000000000E+00 -0.35254947064E+03  0.35254947068E+03  0.50400001928E-02 0.  1.
    10030    2    1    2    0    0  0.00000000000E+00  0.00000000000E+00  0.35629721257E+03  0.10613961539E+04  0.99980702730E+03 0.  0.
        2    1    3    3  502    0 -0.11432838896E+03  0.39249794612E+03  0.48358342177E+03  0.63322866648E+03  0.25500000920E-02 0. -1.
       -2    1    3    3    0  502  0.11432838896E+03 -0.39249794612E+03 -0.12728620920E+03  0.42816748743E+03  0.25500000920E-02 0.  1.
</event>
<event>
 5   0  0.6376961E-03  0.1154169E+04  0.7818609E-02  0.9153946E-01
       -2   -1    0    0    0  501  0.00000000000E+00  0.00000000000E+00  0.45299416653E+03  0.45299416654E+03  0.25500000920E-02 0.  1.
        2   -1    0    0  501    0  0.00000000000E+00  0.00000000000E+00 -0.73516696415E+03  0.73516696416E+03  0.25500000920E-02 0. -1.
    10030    2    1    2    0    0  0.00000000000E+00  0.00000000000E+00 -0.28217279762E+03  0.11881611307E+04  0.11541686986E+04 0.  0.
        3    1    3    3  502    0  0.19831700812E+03  0.35705396874E+03 -0.56078114342E+03  0.69375260239E+03  0.10100000352E+00 0. -1.
       -3    1    3    3    0  502 -0.19831700812E+03 -0.35705396874E+03  0.27860834581E+03  0.49440852830E+03  0.10100000352E+00 0.  1.
</event>
<event>
 5   0  0.6376961E-03  0.9821321E+03  0.7818609E-02  0.9328362E-01
       -2   -1    0    0    0  501  0.00000000000E+00  0.00000000000E+00  0.19835575685E+03  0.19835575687E+03  0.25500000920E-02 0.  1.
        2   -1    0    0  501    0  0.00000000000E+00  0.00000000000E+00 -0.12157241383E+04  0.12157241383E+04  0.25500000920E-02 0. -1.
    10030    2    1    2    0    0  0.00000000000E+00  0.00000000000E+00 -0.10173683815E+04  0.14140798952E+04  0.98213213284E+03 0.  0.
        3    1    3    3  502    0 -0.30410367601E+03  0.36193925632E+03 -0.31731017147E+03  0.56935474544E+03  0.10100000352E+00 0.  1.
       -3    1    3    3    0  502  0.30410367601E+03 -0.36193925632E+03 -0.70005820999E+03  0.84472514975E+03  0.10100000352E+00 0. -1.
</event>
<event>
 5   0  0.3466598E-03  0.1000765E+04  0.7818609E-02  0.9307706E-01
       -1   -1    0    0    0  501  0.00000000000E+00  0.00000000000E+00  0.54670435210E+03  0.54670435212E+03  0.50400001928E-02 0.  1.
        1   -1    0    0  501    0  0.00000000000E+00  0.00000000000E+00 -0.45798573650E+03  0.45798573653E+03  0.50400001928E-02 0. -1.
    10030    2    1    2    0    0  0.00000000000E+00  0.00000000000E+00  0.88718615599E+02  0.10046900887E+04  0.10007652979E+04 0.  0.
        3    1    3    3  502    0 -0.33773269718E+03  0.18103366459E+03  0.36740727367E+03  0.53087162046E+03  0.10100000352E+00 0.  1.
       -3    1    3    3    0  502  0.33773269718E+03 -0.18103366459E+03 -0.27868865807E+03  0.47381846819E+03  0.10100000352E+00 0. -1.
</event>
<event>
 5   0  0.6199539E-03  0.9976594E+03  0.7818609E-02  0.9311116E-01
        2   -1    0    0  501    0  0.00000000000E+00  0.00000000000E+00  0.70011501084E+03  0.70011501084E+03  0.25500000920E-02 0.  1.
       -2   -1    0    0    0  501  0.00000000000E+00  0.00000000000E+00 -0.35541453163E+03  0.35541453164E+03  0.25500000920E-02 0. -1.
    10030    2    1    2    0    0  0.00000000000E+00  0.00000000000E+00  0.34470047921E+03  0.10555295425E+04  0.99765935804E+03 0.  0.
        2    1    3    3  502    0  0.38484649931E+03 -0.22232784837E+03 -0.67270121332E+02  0.44951281342E+03  0.25500000920E-02 0. -1.
       -2    1    3    3    0  502 -0.38484649931E+03  0.22232784837E+03  0.41197060054E+03  0.60601672907E+03  0.25500000920E-02 0.  1.
</event>
<event>
 5   0  0.6606947E-03  0.1002395E+04  0.7818609E-02  0.9305922E-01
        2   -1    0    0  501    0  0.00000000000E+00  0.00000000000E+00  0.40836272719E+03  0.40836272720E+03  0.25500000920E-02 0. -1.
       -2   -1    0    0    0  501  0.00000000000E+00  0.00000000000E+00 -0.61513675874E+03  0.61513675875E+03  0.25500000920E-02 0.  1.
    10030    2    1    2    0    0  0.00000000000E+00  0.00000000000E+00 -0.20677403155E+03  0.10234994859E+04  0.10023949808E+04 0.  0.
        1    1    3    3  502    0 -0.40080753731E+03 -0.18289518303E+03 -0.34737748546E+03  0.56104228661E+03  0.50400001928E-02 0. -1.
       -1    1    3    3    0  502  0.40080753731E+03  0.18289518303E+03  0.14060345391E+03  0.46245719934E+03  0.50400001928E-02 0.  1.
</event>
<event>
 5   0  0.6360455E-03  0.1008345E+04  0.7818609E-02  0.9299439E-01
        2   -1    0    0  501    0  0.00000000000E+00  0.00000000000E+00  0.15289826053E+04  0.15289826053E+04  0.25500000920E-02 0.  1.
       -2   -1    0    0    0  501  0.00000000000E+00  0.00000000000E+00 -0.16624774944E+03  0.16624774946E+03  0.25500000920E-02 0. -1.
    10030    2    1    2    0    0  0.00000000000E+00  0.00000000000E+00  0.13627348559E+04  0.16952303548E+04  0.10083450145E+04 0.  0.
        4    1    3    3  502    0  0.10038276777E+03 -0.26798493884E+02  0.15107864734E+04  0.15143553877E+04  0.12699999809E+01 0.  1.
       -4    1    3    3    0  502 -0.10038276777E+03  0.26798493884E+02 -0.14805161753E+03  0.18087496701E+03  0.12699999809E+01 0. -1.
</event>
<event>
 5   0  0.3640180E-03  0.9928750E+03  0.7818609E-02  0.9316394E-01
        1   -1    0    0  501    0  0.00000000000E+00  0.00000000000E+00  0.15108565517E+04  0.15108565517E+04  0.50400001928E-02 0. -1.
       -1   -1    0    0    0  501  0.00000000000E+00  0.00000000000E+00 -0.16311952172E+03  0.16311952180E+03  0.50400001928E-02 0.  1.
    10030    2    1    2    0    0  0.00000000000E+00  0.00000000000E+00  0.13477370300E+04  0.16739760735E+04  0.99287501364E+03 0.  0.
        5    1    3    3  502    0  0.16592748462E+03  0.32835190733E+03  0.11194791720E+03  0.38457942140E+03  0.46999998093E+01 0.  1.
       -5    1    3    3    0  502 -0.16592748462E+03 -0.32835190733E+03  0.12357891128E+04  0.12893966521E+04  0.46999998093E+01 0. -1.
</event>
<event>
 5   0  0.6606947E-03  0.1011674E+04  0.7818609E-02  0.9295833E-01
        2   -1    0    0  501    0  0.00000000000E+00  0.00000000000E+00  0.16136780775E+04  0.16136780775E+04  0.25500000920E-02 0.  1.
       -2   -1    0    0    0  501  0.00000000000E+00  0.00000000000E+00 -0.15856386992E+03  0.15856386994E+03  0.25500000920E-02 0. -1.
    10030    2    1    2    0    0  0.00000000000E+00  0.00000000000E+00  0.14551142075E+04  0.17722419474E+04  0.10116739411E+04 0.  0.
        1    1    3    3  502    0 -0.37781616260E+03 -0.11619974289E+03  0.17463547218E+03  0.43214000178E+03  0.50400001928E-02 0. -1.
       -1    1    3    3    0  502  0.37781616260E+03  0.11619974289E+03  0.12804787353E+04  0.13401019456E+04  0.50400001928E-02 0.  1.
</event>
<event>
 5   0  0.6022787E-03  0.1013368E+04  0.7818609E-02  0.9294003E-01
        2   -1    0    0  501    0  0.00000000000E+00  0.00000000000E+00  0.15392780408E+04  0.15392780408E+04  0.25500000920E-02 0. -1.
       -2   -1    0    0    0  501  0.00000000000E+00  0.00000000000E+00 -0.16678509338E+03  0.16678509340E+03  0.25500000920E-02 0.  1.
    10030    2    1    2    0    0  0.00000000000E+00  0.00000000000E+00  0.13724929475E+04  0.17060631342E+04  0.10133679130E+04 0.  0.
        5    1    3    3  502    0  0.17550801465E+03  0.33468855323E+01 -0.11391685013E+03  0.20931651533E+03  0.46999998093E+01 0.  1.
       -5    1    3    3    0  502 -0.17550801465E+03 -0.33468855323E+01  0.14864097976E+04  0.14967466189E+04  0.46999998093E+01 0. -1.
</event>
<event>
 5   0  0.3569359E-03  0.1001011E+04  0.7818609E-02  0.9307437E-01
        1   -1    0    0  501    0  0.00000000000E+00  0.00000000000E+00  0.13515337832E+04  0.13515337832E+04  0.50400001928E-02 0.  1.
       -1   -1    0    0    0  501  0.00000000000E+00  0.00000000000E+00 -0.18534910649E+03  0.18534910655E+03  0.50400001928E-02 0. -1.
    10030    2    1    2    0    0  0.00000000000E+00  0.00000000000E+00  0.11661846767E+04  0.15368828897E+04  0.10010106476E+04 0.  0.
        4    1    3    3  502    0  0.36144390010E+03 -0.10824725695E+02  0.51803182503E+02  0.36529994556E+03  0.12699999809E+01 0. -1.
       -4    1    3    3    0  502 -0.36144390010E+03  0.10824725695E+02  0.11143814942E+04  0.11715829442E+04  0.12699999809E+01 0.  1.
</event>
<event>
 5   0  0.6022787E-03  0.1015436E+04  0.7818609E-02  0.9291776E-01
        2   -1    0    0  501    0  0.00000000000E+00  0.00000000000E+00  0.75812106318E+03  0.75812106318E+03  0.25500000920E-02 0. -1.
       -2   -1    0    0    0  501  0.00000000000E+00  0.00000000000E+00 -0.34002131097E+03  0.34002131098E+03  0.25500000920E-02 0.  1.
    10030    2    1    2    0    0  0.00000000000E+00  0.00000000000E+00  0.41809975221E+03  0.10981423742E+04  0.10154355081E+04 0.  0.
        5    1    3    3  502    0 -0.36110009491E+03  0.19249162678E+03  0.53404110144E+03  0.67280628189E+03  0.46999998093E+01 0. -1.
       -5    1    3    3    0  502  0.36110009491E+03 -0.19249162678E+03 -0.11594134924E+03  0.42533609227E+03  0.46999998093E+01 0.  1.
</event>
<event>
 5   0  0.6199539E-03  0.1028246E+04  0.7818609E-02  0.9278096E-01
        2   -1    0    0  501    0  0.00000000000E+00  0.00000000000E+00  0.13259499678E+04  0.13259499678E+04  0.25500000920E-02 0. -1.
       -2   -1    0    0    0  501  0.00000000000E+00  0.00000000000E+00 -0.19934575715E+03  0.19934575717E+03  0.25500000920E-02 0.  1.
    10030    2    1    2    0    0  0.00000000000E+00  0.00000000000E+00  0.11266042107E+04  0.15252957250E+04  0.10282460801E+04 0.  0.
        2    1    3    3  502    0  0.36208025347E+03 -0.29727093341E+03  0.24914993379E+03  0.53061078703E+03  0.25500000920E-02 0.  1.
       -2    1    3    3    0  502 -0.36208025347E+03  0.29727093341E+03  0.87745427688E+03  0.99468493797E+03  0.25500000920E-02 0. -1.
</event>
<event>
 5   0  0.6199539E-03  0.1001914E+04  0.7818609E-02  0.9306448E-01
       -2   -1    0    0    0  501  0.00000000000E+00  0.00000000000E+00  0.45021308124E+03  0.45021308125E+03  0.25500000920E-02 0. -1.
        2   -1    0    0  501    0  0.00000000000E+00  0.00000000000E+00 -0.55742080620E+03  0.55742080621E+03  0.25500000920E-02 0.  1.
    10030    2    1    2    0    0  0.00000000000E+00  0.00000000000E+00 -0.10720772496E+03  0.10076338875E+04  0.10019144449E+04 0.  0.
        2    1    3    3  502    0 -0.31914720557E+02 -0.48222315888E+03  0.79059781371E+02  0.48970212720E+03  0.25500000920E-02 0. -1.
       -2    1    3    3    0  502  0.31914720557E+02  0.48222315888E+03 -0.18626750633E+03  0.51793176025E+03  0.25500000920E-02 0.  1.
</event>
<event>
 5   0  0.3466598E-03  0.9942747E+03  0.7818609E-02  0.9314847E-01
       -1   -1    0    0    0  501  0.00000000000E+00  0.00000000000E+00  0.42941120175E+03  0.42941120178E+03  0.50400001928E-02 0.  1.
        1   -1    0    0  501    0  0.00000000000E+00  0.00000000000E+00 -0.57554520524E+03  0.57554520526E+03  0.50400001928E-02 0. -1.
    10030    2    1    2    0    0  0.00000000000E+00  0.00000000000E+00 -0.14613400348E+03  0.10049564070E+04  0.99427472717E+03 0.  0.
        3    1    3    3  502    0  0.31792084375E+03 -0.27226654777E+03  0.19803612577E+03  0.46305620959E+03  0.10100000352E+00 0.  1.
       -3    1    3    3    0  502 -0.31792084375E+03  0.27226654777E+03 -0.34417012925E+03  0.54190019745E+03  0.10100000352E+00 0. -1.
</event>
<event>
 5   0  0.3643002E-03  0.1027414E+04  0.7818609E-02  0.9278978E-01
       -1   -1    0    0    0  501  0.00000000000E+00  0.00000000000E+00  0.44207570276E+03  0.44207570279E+03  0.50400001928E-02 0. -1.
        1   -1    0    0  501    0  0.00000000000E+00  0.00000000000E+00 -0.59694508931E+03  0.59694508933E+03  0.50400001928E-02 0.  1.
    10030    2    1    2    0    0  0.00000000000E+00  0.00000000000E+00 -0.15486938655E+03  0.10390207921E+04  0.10274140741E+04 0.  0.
        2    1    3    3  502    0  0.46700934109E+02 -0.38593326129E+03 -0.41704000870E+03  0.57012965918E+03  0.25500000920E-02 0.  1.
       -2    1    3    3    0  502 -0.46700934109E+02  0.38593326129E+03  0.26217062215E+03  0.46889113294E+03  0.25500000920E-02 0. -1.
</event>
<event>
 5   0  0.6606947E-03  0.1017138E+04  0.7818609E-02  0.9289946E-01
       -2   -1    0    0    0  501  0.00000000000E+00  0.00000000000E+00  0.14100420384E+03  0.14100420386E+03  0.25500000920E-02 0. -1.
        2   -1    0    0  501    0  0.00000000000E+00  0.00000000000E+00 -0.18342873342E+04  0.18342873342E+04  0.25500000920E-02 0.  1.
    10030    2    1    2    0    0  0.00000000000E+00  0.00000000000E+00 -0.16932831304E+04  0.19752915381E+04  0.10171376017E+04 0.  0.
        1    1    3    3  502    0  0.34693457468E+03 -0.35869854584E+03 -0.10370574102E+04  0.11508763261E+04  0.50400001928E-02 0.  1.
       -1    1    3    3    0  502 -0.34693457468E+03  0.35869854584E+03 -0.65622572014E+03  0.82441521195E+03  0.50400001928E-02 0. -1.
</event>
<event>
 5   0  0.2417750E-03  0.9999775E+03  0.7818609E-02  0.9308569E-01
        4   -1    0    0  501    0  0.00000000000E+00  0.00000000000E+00  0.56514639436E+03  0.56514782133E+03  0.12699999809E+01 0.  1.
       -4   -1    0    0    0  501  0.00000000000E+00  0.00000000000E+00 -0.44234048297E+03  0.44234230611E+03  0.12699999809E+01 0. -1.
    10030    2    1    2    0    0  0.00000000000E+00  0.00000000000E+00  0.12280591139E+03  0.10074901274E+04  0.99997753226E+03 0.  0.
        5    1    3    3  502    0 -0.45015366661E+03 -0.51375562339E+02 -0.15158272690E+03  0.47778361740E+03  0.46999998093E+01 0. -1.
       -5    1    3    3    0  502  0.45015366661E+03  0.51375562339E+02  0.27438863829E+03  0.52970651004E+03  0.46999998093E+01 0.  1.
</event>
<event>
 5   0  0.3640180E-03  0.1005336E+04  0.7818609E-02  0.9302712E-01
        1   -1    0    0  501    0  0.00000000000E+00  0.00000000000E+00  0.26949431534E+03  0.26949431539E+03  0.50400001928E-02 0.  1.
       -1   -1    0    0    0  501  0.00000000000E+00  0.00000000000E+00 -0.93758977069E+03  0.93758977070E+03  0.50400001928E-02 0. -1.
    10030    2    1    2    0    0  0.00000000000E+00  0.00000000000E+00 -0.66809545535E+03  0.12070840861E+04  0.10053359903E+04 0.  0.
        5    1    3    3  502    0 -0.23910604958E+03 -0.22896779275E+03 -0.78817535306E+03  0.85489205765E+03  0.46999998093E+01 0. -1.
       -5    1    3    3    0  502  0.23910604958E+03  0.22896779275E+03  0.12007989771E+03  0.35219202844E+03  0.46999998093E+01 0.  1.
</event>
<event>
 5   0  0.6022787E-03  0.1002033E+04  0.7818609E-02  0.9306318E-01
        2   -1    0    0  501    0  0.00000000000E+00  0.00000000000E+00  0.19167337531E+04  0.19167337531E+04  0.25500000920E-02 0.  1.
       -2   -1    0    0    0  501  0.00000000000E+00  0.00000000000E+00 -0.13096116218E+03  0.13096116221E+03  0.25500000920E-02 0. -1.
    10030    2    1    2    0    0  0.00000000000E+00  0.00000000000E+00  0.17857725909E+04  0.20476949153E+04  0.10020332927E+04 0.  0.
        5    1    3    3  502    0  0.11932884835E+03  0.36510404960E+03  0.15501798377E+04  0.15970660475E+04  0.46999998093E+01 0.  1.
       -5    1    3    3    0  502 -0.11932884835E+03 -0.36510404960E+03  0.23559275323E+03  0.45062886775E+03  0.46999998093E+01 0. -1.
</event>
<event>
 5   0  0.3643002E-03  0.9926025E+03  0.7818609E-02  0.9316696E-01
       -1   -1    0    0    0  501  0.00000000000E+00  0.00000000000E+00  0.50131767864E+03  0.50131767867E+03  0.50400001928E-02 0. -1.
        1   -1    0    0  501    0  0.00000000000E+00  0.00000000000E+00 -0.49133496877E+03  0.49133496880E+03  0.50400001928E-02 0.  1.
    10030    2    1    2    0    0  0.00000000000E+00  0.00000000000E+00  0.99827098707E+01  0.99265264746E+03  0.99260245014E+03 0.  0.
        2    1    3    3  502    0 -0.37533387472E+03  0.29167828609E+03  0.14769813666E+03  0.49776146865E+03  0.25500000920E-02 0.  1.
       -2    1    3    3    0  502  0.37533387472E+03 -0.29167828609E+03 -0.13771542679E+03  0.49489117882E+03  0.25500000920E-02 0. -1.
</event>
<event>
 5   0  0.3466598E-03  0.1009467E+04  0.7818609E-02  0.9298222E-01
        1   -1    0    0  501    0  0.00000000000E+00  0.00000000000E+00  0.89406365694E+03  0.89406365696E+03  0.50400001928E-02 0.  1.
       -1   -1    0    0    0  501  0.00000000000E+00  0.00000000000E+00 -0.28494151158E+03  0.28494151163E+03  0.50400001928E-02 0. -1.
    10030    2    1    2    0    0  0.00000000000E+00  0.00000000000E+00  0.60912214536E+03  0.11790051686E+04  0.10094668888E+04 0.  0.
        3    1    3    3  502    0  0.44586423553E+03 -0.16897331050E+03  0.49792247119E+03  0.68940096729E+03  0.10100000352E+00 0. -1.
       -3    1    3    3    0  502 -0.44586423553E+03  0.16897331050E+03  0.11119967417E+03  0.48960420129E+03  0.10100000352E+00 0.  1.
</event>
<event>
 5   0  0.3466598E-03  0.1043061E+04  0.7818609E-02  0.9262538E-01
        1   -1    0    0  501    0  0.00000000000E+00  0.00000000000E+00  0.84699973247E+03  0.84699973249E+03  0.50400001928E-02 0.  1.
       -1   -1    0    0    0  501  0.00000000000E+00  0.00000000000E+00 -0.32112629709E+03  0.32112629713E+03  0.50400001928E-02 0. -1.
    10030    2    1    2    0    0  0.00000000000E+00  0.00000000000E+00  0.52587343538E+03  0.11681260296E+04  0.10430606651E+04 0.  0.
        3    1    3    3  502    0 -0.50723122853E+02  0.28936927121E+03 -0.21964432824E+03  0.36681201104E+03  0.10100000352E+00 0. -1.
       -3    1    3    3    0  502  0.50723122853E+02 -0.28936927121E+03  0.74551776362E+03  0.80131401859E+03  0.10100000352E+00 0.  1.
</event>
<event>
 5   0  0.6199539E-03  0.9963815E+03  0.7818609E-02  0.9312522E-01
        2   -1    0    0  501    0  0.00000000000E+00  0.00000000000E+00  0.25334786097E+03  0.25334786099E+03  0.25500000920E-02 0. -1.
       -2   -1    0    0    0  501  0.00000000000E+00  0.00000000000E+00 -0.97965715355E+03  0.97965715356E+03  0.25500000920E-02 0.  1.
    10030    2    1    2    0    0  0.00000000000E+00  0.00000000000E+00 -0.72630929258E+03  0.12330050145E+04  0.99638154208E+03 0.  0.
        2    1    3    3  502    0 -0.99748967721E+02  0.47999787308E+03 -0.25353972510E+03  0.55193315441E+03  0.25500000920E-02 0.  1.
       -2    1    3    3    0  502  0.99748967721E+02 -0.47999787308E+03 -0.47276956748E+03  0.68107186013E+03  0.25500000920E-02 0. -1.
</event>
<event>
 5   0  0.6376961E-03  0.9978260E+03  0.7818609E-02  0.9310932E-01
        2   -1    0    0  501    0  0.00000000000E+00  0.00000000000E+00  0.10302458410E+04  0.10302458410E+04  0.25500000920E-02 0.  1.
       -2   -1    0    0    0  501  0.00000000000E+00  0.00000000000E+00 -0.24160656731E+03  0.24160656733E+03  0.25500000920E-02 0. -1.
    10030    2    1    2    0    0  0.00000000000E+00  0.00000000000E+00  0.78863927371E+03  0.12718524084E+04  0.99782595907E+03 0.  0.
        3    1    3    3  502    0  0.40004679890E+00 -0.11084691495E+03  0.10143515219E+04  0.10203902287E+04  0.10100000352E+00 0.  1.
       -3    1    3    3    0  502 -0.40004679890E+00  0.11084691495E+03 -0.22571224823E+03  0.25146217964E+03  0.10100000352E+00 0. -1.
</event>
<event>
 5   0  0.3466598E-03  0.9862465E+03  0.7818609E-02  0.9323759E-01
       -1   -1    0    0    0  501  0.00000000000E+00  0.00000000000E+00  0.22760329612E+03  0.22760329618E+03  0.50400001928E-02 0. -1.
        1   -1    0    0  501    0  0.00000000000E+00  0.00000000000E+00 -0.10683963992E+04  0.10683963992E+04  0.50400001928E-02 0.  1.
    10030    2    1    2    0    0  0.00000000000E+00  0.00000000000E+00 -0.84079310308E+03  0.12959996954E+04  0.98624650482E+03 0.  0.
        3    1    3    3  502    0 -0.48372417931E+03  0.32941225355E+02 -0.30215682603E+03  0.57129061230E+03  0.10100000352E+00 0.  1.
       -3    1    3    3    0  502  0.48372417931E+03 -0.32941225355E+02 -0.53863627704E+03  0.72470908310E+03  0.10100000352E+00 0. -1.
</event>
<event>
 5   0  0.6606947E-03  0.9898394E+03  0.7818609E-02  0.9319760E-01
       -2   -1    0    0    0  501  0.00000000000E+00  0.00000000000E+00  0.22448893950E+03  0.22448893951E+03  0.25500000920E-02 0.  1.
        2   -1    0    0  501    0  0.00000000000E+00  0.00000000000E+00 -0.10911250341E+04  0.10911250341E+04  0.25500000920E-02 0. -1.
    10030    2    1    2    0    0  0.00000000000E+00  0.00000000000E+00 -0.86663609458E+03  0.13156139736E+04  0.98983938448E+03 0.  0.
        1    1    3    3  502    0  0.45292923777E+03 -0.11188377179E+03 -0.65285460783E+03  0.80242258929E+03  0.50400001928E-02 0. -1.
       -1    1    3    3    0  502 -0.45292923777E+03  0.11188377179E+03 -0.21378148675E+03  0.51319138430E+03  0.50400001928E-02 0.  1.
</event>
<event>
 5   0  0.6606947E-03  0.1010484E+04  0.7818609E-02  0.9297120E-01
       -2   -1    0    0    0  501  0.00000000000E+00  0.00000000000E+00  0.66954583948E+03  0.66954583949E+03  0.25500000920E-02 0. -1.
        2   -1    0    0  501    0  0.00000000000E+00  0.00000000000E+00 -0.38125795346E+03  0.38125795346E+03  0.25500000920E-02 0.  1.
    10030    2    1    2    0    0  0.00000000000E+00  0.00000000000E+00  0.28828788603E+03  0.10508037930E+04  0.10104843918E+04 0.  0.
        1    1    3    3  502    0  0.14919233671E+03 -0.36760350561E+03  0.46948341121E+03  0.61465873791E+03  0.50400001928E-02 0. -1.
       -1    1    3    3    0  502 -0.14919233671E+03  0.36760350561E+03 -0.18119552518E+03  0.43614505504E+03  0.50400001928E-02 0.  1.
</event>
<event>
 5   0  0.6022787E-03  0.9990491E+03  0.7818609E-02  0.9309588E-01
        2   -1    0    0  501    0  0.00000000000E+00  0.00000000000E+00  0.11144784931E+04  0.11144784931E+04  0.25500000920E-02 0. -1.
       -2   -1    0    0    0  501  0.00000000000E+00  0.00000000000E+00 -0.22389374903E+03  0.22389374904E+03  0.25500000920E-02 0.  1.
    10030    2    1    2    0    0  0.00000000000E+00  0.00000000000E+00  0.89058474406E+03  0.13383722421E+04  0.99904908396E+03 0.  0.
        5    1    3    3  502    0  0.21642110479E+03  0.70028529699E+02 -0.15045202664E+03  0.27276361908E+03  0.46999998093E+01 0.  1.
       -5    1    3    3    0  502 -0.21642110479E+03 -0.70028529699E+02  0.10410367707E+04  0.10656086231E+04  0.46999998093E+01 0. -1.
</event>
<event>
 5   0  0.6376961E-03  0.1063035E+04  0.7818609E-02  0.9241989E-01
       -2   -1    0    0    0  501  0.00000000000E+00  0.00000000000E+00  0.36766456753E+03  0.36766456754E+03  0.25500000920E-02 0.  1.
        2   -1    0    0  501    0  0.00000000000E+00  0.00000000000E+00 -0.76839316898E+03  0.76839316898E+03  0.25500000920E-02 0. -1.
    10030    2    1    2    0    0  0.00000000000E+00  0.00000000000E+00 -0.40072860145E+03  0.11360577365E+04  0.10630351681E+04 0.  0.
        3    1    3    3  502    0 -0.48493109697E+03  0.14188622509E+03 -0.37668581453E+03  0.63022383543E+03  0.10100000352E+00 0. -1.
       -3    1    3    3    0  502  0.48493109697E+03 -0.14188622509E+03 -0.24042786924E+02  0.50583390108E+03  0.10100000352E+00 0.  1.
</event>
<event>
 5   0  0.3608845E-03  0.1021322E+04  0.7818609E-02  0.9285464E-01
        1   -1    0    0  501    0  0.00000000000E+00  0.00000000000E+00  0.38378935707E+03  0.38378935710E+03  0.50400001928E-02 0. -1.
       -1   -1    0    0    0  501  0.00000000000E+00  0.00000000000E+00 -0.67947335469E+03  0.67947335471E+03  0.50400001928E-02 0.  1.
    10030    2    1    2    0    0  0.00000000000E+00  0.00000000000E+00 -0.29568399763E+03  0.10632627118E+04  0.10213219707E+04 0.  0.
        1    1    3    3  502    0  0.61190302930E+02 -0.42084939552E+03  0.14646138385E+03  0.44978817666E+03  0.50400001928E-02 0. -1.
       -1    1    3    3    0  502 -0.61190302930E+02  0.42084939552E+03 -0.44214538148E+03  0.61347453515E+03  0.50400001928E-02 0.  1.
</event>
<event>
 5   0  0.3608845E-03  0.9644064E+03  0.7818609E-02  0.9348468E-01
       -1   -1    0    0    0  501  0.00000000000E+00  0.00000000000E+00  0.43001373178E+03  0.43001373181E+03  0.50400001928E-02 0. -1.
        1   -1    0    0  501    0  0.00000000000E+00  0.00000000000E+00 -0.54072672512E+03  0.54072672514E+03  0.50400001928E-02 0.  1.
    10030    2    1    2    0    0  0.00000000000E+00  0.00000000000E+00 -0.11071299333E+03  0.97074045695E+03  0.96440638108E+03 0.  0.
        1    1    3    3  502    0  0.42183298878E+03  0.29106702973E+02 -0.28867546403E+03  0.51198026733E+03  0.50400001928E-02 0. -1.
       -1    1    3    3    0  502 -0.42183298878E+03 -0.29106702973E+02  0.17796247070E+03  0.45876018962E+03  0.50400001928E-02 0.  1.
</event>
<event>
 5   0  0.3608845E-03  0.9966137E+03  0.7818609E-02  0.9312267E-01
        1   -1    0    0  501    0  0.00000000000E+00  0.00000000000E+00  0.78276096105E+03  0.78276096107E+03  0.50400001928E-02 0. -1.
       -1   -1    0    0    0  501  0.00000000000E+00  0.00000000000E+00 -0.31722288891E+03  0.31722288895E+03  0.50400001928E-02 0.  1.
    10030    2    1    2    0    0  0.00000000000E+00  0.00000000000E+00  0.46553807214E+03  0.10999838500E+04  0.99661365316E+03 0.  0.
        1    1    3    3  502    0  0.29524046157E+03  0.10677946533E+03  0.65986917136E+03  0.73075037304E+03  0.50400001928E-02 0. -1.
       -1    1    3    3    0  502 -0.29524046157E+03 -0.10677946533E+03 -0.19433109922E+03  0.36923347697E+03  0.50400001928E-02 0.  1.
</event>
<event>
 5   0  0.6022787E-03  0.1015153E+04  0.7818609E-02  0.9292080E-01
       -2   -1    0    0    0  501  0.00000000000E+00  0.00000000000E+00  0.10246821006E+03  0.10246821009E+03  0.25500000920E-02 0.  1.
        2   -1    0    0  501    0  0.00000000000E+00  0.00000000000E+00 -0.25142794422E+04  0.25142794422E+04  0.25500000920E-02 0. -1.
    10030    2    1    2    0    0  0.00000000000E+00  0.00000000000E+00 -0.24118112321E+04  0.26167476523E+04  0.10151526271E+04 0.  0.
        5    1    3    3  502    0 -0.29974216086E+03  0.30831734750E+02 -0.15309824686E+03  0.33801941077E+03  0.46999998093E+01 0.  1.
       -5    1    3    3    0  502  0.29974216086E+03 -0.30831734750E+02 -0.22587129853E+04  0.22787282415E+04  0.46999998093E+01 0. -1.
</event>
<event>
 5   0  0.6606947E-03  0.9783259E+03  0.7818609E-02  0.9332641E-01
       -2   -1    0    0    0  501  0.00000000000E+00  0.00000000000E+00  0.23212621137E+03  0.23212621138E+03  0.25500000920E-02 0. -1.
        2   -1    0    0  501    0  0.00000000000E+00  0.00000000000E+00 -0.10308202955E+04  0.10308202955E+04  0.25500000920E-02 0.  1.
    10030    2    1    2    0    0  0.00000000000E+00  0.00000000000E+00 -0.79869408415E+03  0.12629465069E+04  0.97832593712E+03 0.  0.
        1    1    3    3  502    0  0.32368312130E+03 -0.12687483965E+03 -0.84356899830E+03  0.91240157983E+03  0.50400001928E-02 0.  1.
       -1    1    3    3    0  502 -0.32368312130E+03  0.12687483965E+03  0.44874914157E+02  0.35054492707E+03  0.50400001928E-02 0. -1.
</event>
<event>
 5   0  0.3640180E-03  0.9978139E+03  0.7818609E-02  0.9310946E-01
        1   -1    0    0  501    0  0.00000000000E+00  0.00000000000E+00  0.60944100075E+03  0.60944100078E+03  0.50400001928E-02 0.  1.
       -1   -1    0    0    0  501  0.00000000000E+00  0.00000000000E+00 -0.40842037466E+03  0.40842037469E+03  0.50400001928E-02 0. -1.
    10030    2    1    2    0    0  0.00000000000E+00  0.00000000000E+00  0.20102062610E+03  0.10178613755E+04  0.99781385416E+03 0.  0.
        5    1    3    3  502    0  0.18163530789E+03  0.26227797789E+03  0.49175881532E+03  0.58619957796E+03  0.46999998093E+01 0.  1.
       -5    1    3    3    0  502 -0.18163530789E+03 -0.26227797789E+03 -0.29073818922E+03  0.43166179751E+03  0.46999998093E+01 0. -1.
</event>
<event>
 5   0  0.3466598E-03  0.1002241E+04  0.7818609E-02  0.9306090E-01
       -1   -1    0    0    0  501  0.00000000000E+00  0.00000000000E+00  0.85232866839E+03  0.85232866841E+03  0.50400001928E-02 0.  1.
        1   -1    0    0  501    0  0.00000000000E+00  0.00000000000E+00 -0.29463023943E+03  0.29463023947E+03  0.50400001928E-02 0. -1.
    10030    2    1    2    0    0  0.00000000000E+00  0.00000000000E+00  0.55769842897E+03  0.11469589079E+04  0.10022410881E+04 0.  0.
        3    1    3    3  502    0  0.11147571458E+02  0.31869892179E+03  0.72122607345E+03  0.78858121353E+03  0.10100000352E+00 0.  1.
       -3    1    3    3    0  502 -0.11147571458E+02 -0.31869892179E+03 -0.16352764448E+03  0.35837769436E+03  0.10100000352E+00 0. -1.
</event>
<event>
 5   0  0.6606947E-03  0.1000257E+04  0.7818609E-02  0.9308263E-01
        2   -1    0    0  501    0  0.00000000000E+00  0.00000000000E+00  0.10271402511E+04  0.10271402511E+04  0.25500000920E-02 0.  1.
       -2   -1    0    0    0  501  0.00000000000E+00  0.00000000000E+00 -0.24351952187E+03  0.24351952188E+03  0.25500000920E-02 0. -1.
    10030    2    1    2    0    0  0.00000000000E+00  0.00000000000E+00  0.78362072927E+03  0.12706597730E+04  0.10002573726E+04 0.  0.
        1    1    3    3  502    0 -0.14959200907E+03  0.43147887087E+03  0.13278418236E+03  0.47558745178E+03  0.50400001928E-02 0. -1.
       -1    1    3    3    0  502  0.14959200907E+03 -0.43147887087E+03  0.65083654691E+03  0.79507232124E+03  0.50400001928E-02 0.  1.
</event>
<event>
 5   0  0.3608845E-03  0.1018511E+04  0.7818609E-02  0.9288472E-01
       -1   -1    0    0    0  501  0.00000000000E+00  0.00000000000E+00  0.38242126953E+03  0.38242126956E+03  0.50400001928E-02 0. -1.
        1   -1    0    0  501    0  0.00000000000E+00  0.00000000000E+00 -0.67815581478E+03  0.67815581479E+03  0.50400001928E-02 0.  1.
    10030    2    1    2    0    0  0.00000000000E+00  0.00000000000E+00 -0.29573454525E+03  0.10605770844E+04  0.10185110852E+04 0.  0.
        1    1    3    3  502    0 -0.31803397337E+03 -0.34725009551E+03 -0.34981794163E+03  0.58660108197E+03  0.50400001928E-02 0.  1.
       -1    1    3    3    0  502  0.31803397337E+03  0.34725009551E+03  0.54083396387E+02  0.47397600239E+03  0.50400001928E-02 0. -1.
</event>
<event>
 5   0  0.3643002E-03  0.9998643E+03  0.7818609E-02  0.9308694E-01
        1   -1    0    0  501    0  0.00000000000E+00  0.00000000000E+00  0.47305851539E+03  0.47305851542E+03  0.50400001928E-02 0. -1.
       -1   -1    0    0    0  501  0.00000000000E+00  0.00000000000E+00 -0.52833244259E+03  0.52833244261E+03  0.50400001928E-02 0.  1.
    10030    2    1    2    0    0  0.00000000000E+00  0.00000000000E+00 -0.55273927195E+02  0.10013909580E+04  0.99986431269E+03 0.  0.
        2    1    3    3  502    0  0.24707460089E+02  0.47949130776E+03  0.11189477171E+03  0.49299372485E+03  0.25500000920E-02 0. -1.
       -2    1    3    3    0  502 -0.24707460089E+02 -0.47949130776E+03 -0.16716869890E+03  0.50839723318E+03  0.25500000920E-02 0.  1.
</event>
<event>
 5   0  0.3569359E-03  0.9813837E+03  0.7818609E-02  0.9329202E-01
        1   -1    0    0  501    0  0.00000000000E+00  0.00000000000E+00  0.45378464834E+03  0.45378464837E+03  0.50400001928E-02 0.  1.
       -1   -1    0    0    0  501  0.00000000000E+00  0.00000000000E+00 -0.53060076175E+03  0.53060076177E+03  0.50400001928E-02 0. -1.
    10030    2    1    2    0    0  0.00000000000E+00  0.00000000000E+00 -0.76816113406E+02  0.98438541014E+03  0.98138367646E+03 0.  0.
        4    1    3    3  502    0  0.21553477397E+03 -0.33311859860E+03 -0.32800141091E+03  0.51479100418E+03  0.12699999809E+01 0.  1.
       -4    1    3    3    0  502 -0.21553477397E+03  0.33311859860E+03  0.25118529751E+03  0.46959440596E+03  0.12699999809E+01 0. -1.
</event>
<event>
 5   0  0.3569359E-03  0.1022572E+04  0.7818609E-02  0.9284128E-01
        1   -1    0    0  501    0  0.00000000000E+00  0.00000000000E+00  0.60356518020E+03  0.60356518023E+03  0.50400001928E-02 0. -1.
       -1   -1    0    0    0  501  0.00000000000E+00  0.00000000000E+00 -0.43311580947E+03  0.43311580950E+03  0.50400001928E-02 0.  1.
    10030    2    1    2    0    0  0.00000000000E+00  0.00000000000E+00  0.17044937074E+03  0.10366809897E+04  0.10225724847E+04 0.  0.
        4    1    3    3  502    0 -0.39265752686E+03 -0.22614776778E+03  0.32532398692E+03  0.55781722422E+03  0.12699999809E+01 0. -1.
       -4    1    3    3    0  502  0.39265752686E+03  0.22614776778E+03 -0.15487461618E+03  0.47886376550E+03  0.12699999809E+01 0.  1.
</event>
<event>
 5   0  0.3608845E-03  0.8823558E+03  0.7818609E-02  0.9447910E-01
       -1   -1    0    0    0  501  0.00000000000E+00  0.00000000000E+00  0.28676005800E+03  0.28676005805E+03  0.50400001928E-02 0. -1.
        1   -1    0    0  501    0  0.00000000000E+00  0.00000000000E+00 -0.67874845126E+03  0.67874845128E+03  0.50400001928E-02 0.  1.
    10030    2    1    2    0    0  0.00000000000E+00  0.00000000000E+00 -0.39198839326E+03  0.96550850933E+03  0.88235581322E+03 0.  0.
        1    1    3    3  502    0 -0.16071519346E+03 -0.15121361676E+03 -0.61402088521E+03  0.65246959991E+03  0.50400001928E-02 0.  1.
       -1    1    3    3    0  502  0.16071519346E+03  0.15121361676E+03  0.22203249195E+03  0.31303890942E+03  0.50400001928E-02 0. -1.
</event>
<event>
 5   0  0.3466598E-03  0.9874151E+03  0.7818609E-02  0.9322456E-01
       -1   -1    0    0    0  501  0.00000000000E+00  0.00000000000E+00  0.30380069409E+03  0.30380069413E+03  0.50400001928E-02 0. -1.
        1   -1    0    0  501    0  0.00000000000E+00  0.00000000000E+00 -0.80232584727E+03  0.80232584728E+03  0.50400001928E-02 0.  1.
    10030    2    1    2    0    0  0.00000000000E+00  0.00000000000E+00 -0.49852515318E+03  0.11061265414E+04  0.98741510889E+03 0.  0.
        3    1    3    3  502    0  0.28128263930E+03  0.32581400030E+02 -0.70231777851E+03  0.75725276032E+03  0.10100000352E+00 0.  1.
       -3    1    3    3    0  502 -0.28128263930E+03 -0.32581400030E+02  0.20379262532E+03  0.34887378110E+03  0.10100000352E+00 0. -1.
</event>
<event>
 5   0  0.3569359E-03  0.1051770E+04  0.7818609E-02  0.9253518E-01
        1   -1    0    0  501    0  0.00000000000E+00  0.00000000000E+00  0.13051351338E+04  0.13051351338E+04  0.50400001928E-02 0.  1.
       -1   -1    0    0    0  501  0.00000000000E+00  0.00000000000E+00 -0.21189763748E+03  0.21189763754E+03  0.50400001928E-02 0. -1.
    10030    2    1    2    0    0  0.00000000000E+00  0.00000000000E+00  0.10932374963E+04  0.15170327713E+04  0.10517700347E+04 0.  0.
        4    1    3    3  502    0  0.14513950787E+03  0.14214751462E+03 -0.15301147656E+03  0.25433347699E+03  0.12699999809E+01 0. -1.
       -4    1    3    3    0  502 -0.14513950787E+03 -0.14214751462E+03  0.12462489729E+04  0.12626992943E+04  0.12699999809E+01 0.  1.
</event>
<event>
 5   0  0.6022787E-03  0.9928742E+03  0.7818609E-02  0.9316395E-01
       -2   -1    0    0    0  501  0.00000000000E+00  0.00000000000E+00  0.33831462869E+03  0.33831462870E+03  0.25500000920E-02 0. -1.
        2   -1    0    0  501    0  0.00000000000E+00  0.00000000000E+00 -0.72846333937E+03  0.72846333937E+03  0.25500000920E-02 0.  1.
    10030    2    1    2    0    0  0.00000000000E+00  0.00000000000E+00 -0.39014871068E+03  0.10667779681E+04  0.99287421998E+03 0.  0.
        5    1    3    3  502    0  0.12360695636E+03  0.30097115653E+03  0.20775305631E+03  0.38606442355E+03  0.46999998093E+01 0. -1.
       -5    1    3    3    0  502 -0.12360695636E+03 -0.30097115653E+03 -0.59790176699E+03  0.68071354452E+03  0.46999998093E+01 0.  1.
</event>
<event>
 5   0  0.3643002E-03  0.9627069E+03  0.7818609E-02  0.9350420E-01
        1   -1    0    0  501    0  0.00000000000E+00  0.00000000000E+00  0.35520244772E+03  0.35520244776E+03  0.50400001928E-02 0. -1.
       -1   -1    0    0    0  501  0.00000000000E+00  0.00000000000E+00 -0.65230732580E+03  0.65230732582E+03  0.50400001928E-02 0.  1.
    10030    2    1    2    0    0  0.00000000000E+00  0.00000000000E+00 -0.29710487807E+03  0.10075097736E+04  0.96270693115E+03 0.  0.
        2    1    3    3  502    0 -0.77782224766E+02 -0.38182255159E+03 -0.44430393863E+03  0.59096914071E+03  0.25500000920E-02 0.  1.
       -2    1    3    3    0  502  0.77782224766E+02  0.38182255159E+03  0.14719906055E+03  0.41654063286E+03  0.25500000920E-02 0. -1.
</event>
<event>
 5   0  0.3466598E-03  0.9997123E+03  0.7818609E-02  0.9308860E-01
        1   -1    0    0  501    0  0.00000000000E+00  0.00000000000E+00  0.10492324779E+04  0.10492324779E+04  0.50400001928E-02 0.  1.
       -1   -1    0    0    0  501  0.00000000000E+00  0.00000000000E+00 -0.23813232347E+03  0.23813232352E+03  0.50400001928E-02 0. -1.
    10030    2    1    2    0    0  0.00000000000E+00  0.00000000000E+00  0.81110015441E+03  0.12873648014E+04  0.99971229433E+03 0.  0.
        3    1    3    3  502    0  0.45262593731E+03  0.20246202998E+02  0.67743003431E+03  0.81497951474E+03  0.10100000352E+00 0.  1.
       -3    1    3    3    0  502 -0.45262593731E+03 -0.20246202998E+02  0.13367012011E+03  0.47238528668E+03  0.10100000352E+00 0. -1.
</event>
<event>
 5   0  0.3643002E-03  0.9972163E+03  0.7818609E-02  0.9311603E-01
        1   -1    0    0  501    0  0.00000000000E+00  0.00000000000E+00  0.50660466054E+03  0.50660466057E+03  0.50400001928E-02 0.  1.
       -1   -1    0    0    0  501  0.00000000000E+00  0.00000000000E+00 -0.49073783124E+03  0.49073783126E+03  0.50400001928E-02 0. -1.
    10030    2    1    2    0    0  0.00000000000E+00  0.00000000000E+00  0.15866829306E+02  0.99734249183E+03  0.99721627029E+03 0.  0.
        2    1    3    3  502    0 -0.47271304709E+03  0.14330478433E+03 -0.60017707332E+02  0.49759020418E+03  0.25500000920E-02 0.  1.
       -2    1    3    3    0  502  0.47271304709E+03 -0.14330478433E+03  0.75884536638E+02  0.49975228765E+03  0.25500000920E-02 0. -1.
</event>
<event>
 5   0  0.6606947E-03  0.9968071E+03  0.7818609E-02  0.9312054E-01
        2   -1    0    0  501    0  0.00000000000E+00  0.00000000000E+00  0.97015320920E+03  0.97015320921E+03  0.25500000920E-02 0.  1.
       -2   -1    0    0    0  501  0.00000000000E+00  0.00000000000E+00 -0.25604833198E+03  0.25604833200E+03  0.25500000920E-02 0. -1.
    10030    2    1    2    0    0  0.00000000000E+00  0.00000000000E+00  0.71410487722E+03  0.12262015412E+04  0.99680712477E+03 0.  0.
        1    1    3    3  502    0  0.10379116948E+03  0.30744189029E+03  0.82241372266E+03  0.88411393723E+03  0.50400001928E-02 0.  1.
       -1    1    3    3    0  502 -0.10379116948E+03 -0.30744189029E+03 -0.10830884544E+03  0.34208760397E+03  0.50400001928E-02 0. -1.
</event>
<event>
 5   0  0.2417750E-03  0.9984146E+03  0.7818609E-02  0.9310285E-01
       -3   -1    0    0    0  501  0.00000000000E+00  0.00000000000E+00  0.10772043149E+04  0.10772043196E+04  0.10100000352E+00 0.  1.
        3   -1    0    0  501    0  0.00000000000E+00  0.00000000000E+00 -0.23134694305E+03  0.23134696510E+03  0.10100000352E+00 0. -1.
    10030    2    1    2    0    0  0.00000000000E+00  0.00000000000E+00  0.84585737182E+03  0.13085512847E+04  0.99841462893E+03 0.  0.
        5    1    3    3  502    0  0.16612464463E+03 -0.76557085327E+02  0.10316696608E+04  0.10477703774E+04  0.46999998093E+01 0.  1.
       -5    1    3    3    0  502 -0.16612464463E+03  0.76557085327E+02 -0.18581228896E+03  0.26078090727E+03  0.46999998093E+01 0. -1.
</event>
<event>
 5   0  0.3608845E-03  0.1020563E+04  0.7818609E-02  0.9286275E-01
        1   -1    0    0  501    0  0.00000000000E+00  0.00000000000E+00  0.49082416673E+03  0.49082416676E+03  0.50400001928E-02 0. -1.
       -1   -1    0    0    0  501  0.00000000000E+00  0.00000000000E+00 -0.53050998813E+03  0.53050998815E+03  0.50400001928E-02 0.  1.
    10030    2    1    2    0    0  0.00000000000E+00  0.00000000000E+00 -0.39685821394E+02  0.10213341549E+04  0.10205628308E+04 0.  0.
        1    1    3    3  502    0 -0.12693416419E+03 -0.10243423144E+03 -0.50371849353E+03  0.52946895524E+03  0.50400001928E-02 0.  1.
       -1    1    3    3    0  502  0.12693416419E+03  0.10243423144E+03  0.46403267214E+03  0.49186519967E+03  0.50400001928E-02 0. -1.
</event>
<event>
 5   0  0.6199539E-03  0.9884430E+03  0.7818609E-02  0.9321312E-01
       -2   -1    0    0    0  501  0.00000000000E+00  0.00000000000E+00  0.22086906181E+03  0.22086906183E+03  0.25500000920E-02 0. -1.
        2   -1    0    0  501    0  0.00000000000E+00  0.00000000000E+00 -0.11058810216E+04  0.11058810216E+04  0.25500000920E-02 0.  1.
    10030    2    1    2    0    0  0.00000000000E+00  0.00000000000E+00 -0.88501195979E+03  0.13267500834E+04  0.98844302563E+03 0.  0.
        2    1    3    3  502    0  0.11193879058E+03  0.88083115726E+02 -0.10777323306E+04  0.10871043669E+04  0.25500000920E-02 0.  1.
       -2    1    3    3    0  502 -0.11193879058E+03 -0.88083115726E+02  0.19272037082E+03  0.23964571652E+03  0.25500000920E-02 0. -1.
</event>
<event>
 5   0  0.3640180E-03  0.1003005E+04  0.7818609E-02  0.9305255E-01
       -1   -1    0    0    0  501  0.00000000000E+00  0.00000000000E+00  0.13963273575E+03  0.13963273584E+03  0.50400001928E-02 0.  1.
        1   -1    0    0  501    0  0.00000000000E+00  0.00000000000E+00 -0.18011869929E+04  0.18011869929E+04  0.50400001928E-02 0. -1.
    10030    2    1    2    0    0  0.00000000000E+00  0.00000000000E+00 -0.16615542571E+04  0.19408197287E+04  0.10030048205E+04 0.  0.
        5    1    3    3  502    0 -0.43080462103E+03  0.10352696954E+03 -0.12852856438E+04  0.13595189337E+04  0.46999998093E+01 0. -1.
       -5    1    3    3    0  502  0.43080462103E+03 -0.10352696954E+03 -0.37626861331E+03  0.58130079501E+03  0.46999998093E+01 0.  1.
</event>
<event>
 5   0  0.3569359E-03  0.1029347E+04  0.7818609E-02  0.9276930E-01
        1   -1    0    0  501    0  0.00000000000E+00  0.00000000000E+00  0.99565275309E+03  0.99565275311E+03  0.50400001928E-02 0.  1.
       -1   -1    0    0    0  501  0.00000000000E+00  0.00000000000E+00 -0.26604557126E+03  0.26604557131E+03  0.50400001928E-02 0. -1.
    10030    2    1    2    0    0  0.00000000000E+00  0.00000000000E+00  0.72960718183E+03  0.12616983244E+04  0.10293473768E+04 0.  0.
        4    1    3    3  502    0  0.39678975861E+03 -0.32221234598E+03  0.43859684603E+03  0.67352187395E+03  0.12699999809E+01 0.  1.
       -4    1    3    3    0  502 -0.39678975861E+03  0.32221234598E+03  0.29101033581E+03  0.58817645047E+03  0.12699999809E+01 0. -1.
</event>
<event>
 5   0  0.3466598E-03  0.1054907E+04  0.7818609E-02  0.9250293E-01
        1   -1    0    0  501    0  0.00000000000E+00  0.00000000000E+00  0.79914222961E+03  0.79914222963E+03  0.50400001928E-02 0.  1.
       -1   -1    0    0    0  501  0.00000000000E+00  0.00000000000E+00 -0.34813221163E+03  0.34813221167E+03  0.50400001928E-02 0. -1.
    10030    2    1    2    0    0  0.00000000000E+00  0.00000000000E+00  0.45101001798E+03  0.11472744413E+04  0.10549069188E+04 0.  0.
        3    1    3    3  502    0  0.29547325032E+03  0.39376535998E+03  0.43142906947E+03  0.65458891876E+03  0.10100000352E+00 0.  1.
       -3    1    3    3    0  502 -0.29547325032E+03 -0.39376535998E+03  0.19580948513E+02  0.49268552254E+03  0.10100000352E+00 0. -1.
</event>
<event>
 5   0  0.2417750E-03  0.9986227E+03  0.7818609E-02  0.9310057E-01
        3   -1    0    0  501    0  0.00000000000E+00  0.00000000000E+00  0.33504766558E+03  0.33504768080E+03  0.10100000352E+00 0.  1.
       -3   -1    0    0    0  501  0.00000000000E+00  0.00000000000E+00 -0.74410854611E+03  0.74410855297E+03  0.10100000352E+00 0. -1.
    10030    2    1    2    0    0  0.00000000000E+00  0.00000000000E+00 -0.40906088053E+03  0.10791562338E+04  0.99862273803E+03 0.  0.
        1    1    3    3  502    0 -0.36704901972E+03 -0.20247249313E+03  0.88624649049E+02  0.42845585746E+03  0.50400001928E-02 0.  1.
       -1    1    3    3    0  502  0.36704901972E+03  0.20247249313E+03 -0.49768552958E+03  0.65070037631E+03  0.50400001928E-02 0. -1.
</event>
<event>
 5   0  0.6376961E-03  0.1033667E+04  0.7818609E-02  0.9272371E-01
       -2   -1    0    0    0  501  0.00000000000E+00  0.00000000000E+00  0.39087557942E+03  0.39087557943E+03  0.25500000920E-02 0.  1.
        2   -1    0    0  501    0  0.00000000000E+00  0.00000000000E+00 -0.68338100596E+03  0.68338100596E+03  0.25500000920E-02 0. -1.
    10030    2    1    2    0    0  0.00000000000E+00  0.00000000000E+00 -0.29250542654E+03  0.10742565854E+04  0.10336671547E+04 0.  0.
        3    1    3    3  502    0  0.34154366384E+03 -0.18417024110E+03 -0.50104677153E+03  0.63373387907E+03  0.10100000352E+00 0. -1.
       -3    1    3    3    0  502 -0.34154366384E+03  0.18417024110E+03  0.20854134499E+03  0.44052270633E+03  0.10100000352E+00 0.  1.
</event>
<event>
 5   0  0.6360455E-03  0.9995122E+03  0.7818609E-02  0.9309080E-01
       -2   -1    0    0    0  501  0.00000000000E+00  0.00000000000E+00  0.24212138257E+03  0.24212138258E+03  0.25500000920E-02 0. -1.
        2   -1    0    0  501    0  0.00000000000E+00  0.00000000000E+00 -0.10315329390E+04  0.10315329390E+04  0.25500000920E-02 0.  1.
    10030    2    1    2    0    0  0.00000000000E+00  0.00000000000E+00 -0.78941155642E+03  0.12736543216E+04  0.99951224377E+03 0.  0.
        4    1    3    3  502    0 -0.28177415253E+03 -0.12244869420E+02 -0.92042443129E+03  0.96266783289E+03  0.12699999809E+01 0.  1.
       -4    1    3    3    0  502  0.28177415253E+03  0.12244869420E+02  0.13101287487E+03  0.31098648868E+03  0.12699999809E+01 0. -1.
</event>
<event>
 5   0  0.3569359E-03  0.9627403E+03  0.7818609E-02  0.9350382E-01
        1   -1    0    0  501    0  0.00000000000E+00  0.00000000000E+00  0.11034183538E+04  0.11034183538E+04  0.50400001928E-02 0. -1.
       -1   -1    0    0    0  501  0.00000000000E+00  0.00000000000E+00 -0.20999944461E+03  0.20999944467E+03  0.50400001928E-02 0.  1.
    10030    2    1    2    0    0  0.00000000000E+00  0.00000000000E+00  0.89341890922E+03  0.13134177985E+04  0.96274034199E+03 0.  0.
        4    1    3    3  502    0 -0.34306228393E+03  0.18695178853E+00 -0.13962317938E+02  0.34334869277E+03  0.12699999809E+01 0.  1.
       -4    1    3    3    0  502  0.34306228393E+03 -0.18695178853E+00  0.90738122716E+03  0.97006910574E+03  0.12699999809E+01 0. -1.
</event>
<event>
 5   0  0.3640180E-03  0.9994689E+03  0.7818609E-02  0.9309127E-01
       -1   -1    0    0    0  501  0.00000000000E+00  0.00000000000E+00  0.36019971000E+03  0.36019971004E+03  0.50400001928E-02 0.  1.
        1   -1    0    0  501    0  0.00000000000E+00  0.00000000000E+00 -0.69332243020E+03  0.69332243021E+03  0.50400001928E-02 0. -1.
    10030    2    1    2    0    0  0.00000000000E+00  0.00000000000E+00 -0.33312272019E+03  0.10535221403E+04  0.99946893563E+03 0.  0.
        5    1    3    3  502    0  0.39772759797E+03 -0.22919193611E+02  0.15141502218E+03  0.42621723400E+03  0.46999998093E+01 0.  1.
       -5    1    3    3    0  502 -0.39772759797E+03  0.22919193611E+02 -0.48453774237E+03  0.62730490625E+03  0.46999998093E+01 0. -1.
</event>
<event>
 5   0  0.6376961E-03  0.1141602E+04  0.7818609E-02  0.9165567E-01
       -2   -1    0    0    0  501  0.00000000000E+00  0.00000000000E+00  0.41253890729E+03  0.41253890730E+03  0.25500000920E-02 0.  1.
        2   -1    0    0  501    0  0.00000000000E+00  0.00000000000E+00 -0.78977657128E+03  0.78977657128E+03  0.25500000920E-02 0. -1.
    10030    2    1    2    0    0  0.00000000000E+00  0.00000000000E+00 -0.37723766398E+03  0.12023154786E+04  0.11416016183E+04 0.  0.
        3    1    3    3  502    0 -0.64100349336E+02 -0.42482993268E+03  0.20716537970E+03  0.47697676174E+03  0.10100000352E+00 0.  1.
       -3    1    3    3    0  502  0.64100349336E+02  0.42482993268E+03 -0.58440304369E+03  0.72533871685E+03  0.10100000352E+00 0. -1.
</event>
<event>
 5   0  0.3569359E-03  0.9962249E+03  0.7818609E-02  0.9312695E-01
        1   -1    0    0  501    0  0.00000000000E+00  0.00000000000E+00  0.44609659381E+03  0.44609659384E+03  0.50400001928E-02 0.  1.
       -1   -1    0    0    0  501  0.00000000000E+00  0.00000000000E+00 -0.55619351837E+03  0.55619351840E+03  0.50400001928E-02 0. -1.
    10030    2    1    2    0    0  0.00000000000E+00  0.00000000000E+00 -0.11009692456E+03  0.10022901122E+04  0.99622494262E+03 0.  0.
        4    1    3    3  502    0 -0.34008430823E+03  0.83297804955E+02 -0.41149139588E+03  0.54029866074E+03  0.12699999809E+01 0. -1.
       -4    1    3    3    0  502  0.34008430823E+03 -0.83297804955E+02  0.30139447132E+03  0.46199145150E+03  0.12699999809E+01 0.  1.
</event>
<event>
 5   0  0.6376961E-03  0.1002051E+04  0.7818609E-02  0.9306298E-01
       -2   -1    0    0    0  501  0.00000000000E+00  0.00000000000E+00  0.23624575288E+03  0.23624575290E+03  0.25500000920E-02 0. -1.
        2   -1    0    0  501    0  0.00000000000E+00  0.00000000000E+00 -0.10625656086E+04  0.10625656086E+04  0.25500000920E-02 0.  1.
    10030    2    1    2    0    0  0.00000000000E+00  0.00000000000E+00 -0.82631985574E+03  0.12988113615E+04  0.10020511209E+04 0.  0.
        3    1    3    3  502    0  0.16906289078E+03  0.16458404967E+03 -0.98604836624E+03  0.10138843924E+04  0.10100000352E+00 0.  1.
       -3    1    3    3    0  502 -0.16906289078E+03 -0.16458404967E+03  0.15972851051E+03  0.28492696909E+03  0.10100000352E+00 0. -1.
</event>
<event>
 5   0  0.3640180E-03  0.9695522E+03  0.7818609E-02  0.9342585E-01
       -1   -1    0    0    0  501  0.00000000000E+00  0.00000000000E+00  0.73209206417E+03  0.73209206419E+03  0.50400001928E-02 0.  1.
        1   -1    0    0  501    0  0.00000000000E+00  0.00000000000E+00 -0.32100863153E+03  0.32100863157E+03  0.50400001928E-02 0. -1.
    10030    2    1    2    0    0  0.00000000000E+00  0.00000000000E+00  0.41108343264E+03  0.10531006958E+04  0.96955220943E+03 0.  0.
        5    1    3    3  502    0 -0.48412907428E+03  0.52975920106E+01  0.17945646609E+03  0.51636783233E+03  0.46999998093E+01 0.  1.
       -5    1    3    3    0  502  0.48412907428E+03 -0.52975920106E+01  0.23162696655E+03  0.53673286342E+03  0.46999998093E+01 0. -1.
</event>
<event>
 5   0  0.3643002E-03  0.1005487E+04  0.7818609E-02  0.9302547E-01
       -1   -1    0    0    0  501  0.00000000000E+00  0.00000000000E+00  0.44014115151E+03  0.44014115154E+03  0.50400001928E-02 0.  1.
        1   -1    0    0  501    0  0.00000000000E+00  0.00000000000E+00 -0.57425047385E+03  0.57425047388E+03  0.50400001928E-02 0. -1.
    10030    2    1    2    0    0  0.00000000000E+00  0.00000000000E+00 -0.13410932235E+03  0.10143916254E+04  0.10054874735E+04 0.  0.
        2    1    3    3  502    0  0.26763605581E+03 -0.48708488377E+02 -0.49358668056E+03  0.56358618369E+03  0.25500000920E-02 0. -1.
       -2    1    3    3    0  502 -0.26763605581E+03  0.48708488377E+02  0.35947735822E+03  0.45080544172E+03  0.25500000920E-02 0.  1.
</event>
<event>
 5   0  0.6022787E-03  0.1044446E+04  0.7818609E-02  0.9261097E-01
        2   -1    0    0  501    0  0.00000000000E+00  0.00000000000E+00  0.53520817731E+03  0.53520817732E+03  0.25500000920E-02 0. -1.
       -2   -1    0    0    0  501  0.00000000000E+00  0.00000000000E+00 -0.50955297343E+03  0.50955297344E+03  0.25500000920E-02 0.  1.
    10030    2    1    2    0    0  0.00000000000E+00  0.00000000000E+00  0.25655203884E+02  0.10447611508E+04  0.10444461081E+04 0.  0.
        5    1    3    3  502    0  0.32007413201E+03 -0.37328668184E+03 -0.16302198704E+03  0.51806240461E+03  0.46999998093E+01 0.  1.
       -5    1    3    3    0  502 -0.32007413201E+03  0.37328668184E+03  0.18867719092E+03  0.52669874614E+03  0.46999998093E+01 0. -1.
</event>
<event>
 5   0  0.3608845E-03  0.1008994E+04  0.7818609E-02  0.9298735E-01
       -1   -1    0    0    0  501  0.00000000000E+00  0.00000000000E+00  0.59918338865E+03  0.59918338867E+03  0.50400001928E-02 0. -1.
        1   -1    0    0  501    0  0.00000000000E+00  0.00000000000E+00 -0.42477352628E+03  0.42477352631E+03  0.50400001928E-02 0.  1.
    10030    2    1    2    0    0  0.00000000000E+00  0.00000000000E+00  0.17440986237E+03  0.10239569150E+04  0.10089940355E+04 0.  0.
        1    1    3    3  502    0 -0.13159170271E+03 -0.83278616091E+02  0.57418092863E+03  0.59492473721E+03  0.50400001928E-02 0. -1.
       -1    1    3    3    0  502  0.13159170271E+03  0.83278616091E+02 -0.39977106626E+03  0.42903217777E+03  0.50400001928E-02 0.  1.
</event>
<event>
 5   0  0.3608845E-03  0.9617897E+03  0.7818609E-02  0.9351475E-01
        1   -1    0    0  501    0  0.00000000000E+00  0.00000000000E+00  0.48825344955E+03  0.48825344957E+03  0.50400001928E-02 0.  1.
       -1   -1    0    0    0  501  0.00000000000E+00  0.00000000000E+00 -0.47364719550E+03  0.47364719552E+03  0.50400001928E-02 0. -1.
    10030    2    1    2    0    0  0.00000000000E+00  0.00000000000E+00  0.14606254051E+02  0.96190064510E+03  0.96178974229E+03 0.  0.
        1    1    3    3  502    0  0.38518459630E+02 -0.47453072038E+03  0.75110655494E+02  0.48197996526E+03  0.50400001928E-02 0.  1.
       -1    1    3    3    0  502 -0.38518459630E+02  0.47453072038E+03 -0.60504401443E+02  0.47992067984E+03  0.50400001928E-02 0. -1.
</event>
<event>
 5   0  0.6022787E-03  0.1014715E+04  0.7818609E-02  0.9292551E-01
       -2   -1    0    0    0  501  0.00000000000E+00  0.00000000000E+00  0.29534582195E+03  0.29534582196E+03  0.25500000920E-02 0. -1.
        2   -1    0    0  501    0  0.00000000000E+00  0.00000000000E+00 -0.87156008010E+03  0.87156008011E+03  0.25500000920E-02 0.  1.
    10030    2    1    2    0    0  0.00000000000E+00  0.00000000000E+00 -0.57621425816E+03  0.11669059021E+04  0.10147149910E+04 0.  0.
        5    1    3    3  502    0 -0.11542185729E+03 -0.44331299108E+03 -0.53884825627E+03  0.70726808671E+03  0.46999998093E+01 0.  1.
       -5    1    3    3    0  502  0.11542185729E+03  0.44331299108E+03 -0.37366001890E+02  0.45963781535E+03  0.46999998093E+01 0. -1.
</event>
<event>
 5   0  0.3569359E-03  0.9932139E+03  0.7818609E-02  0.9316019E-01
       -1   -1    0    0    0  501  0.00000000000E+00  0.00000000000E+00  0.18119269100E+03  0.18119269107E+03  0.50400001928E-02 0.  1.
        1   -1    0    0  501    0  0.00000000000E+00  0.00000000000E+00 -0.13610840728E+04  0.13610840728E+04  0.50400001928E-02 0. -1.
    10030    2    1    2    0    0  0.00000000000E+00  0.00000000000E+00 -0.11798913818E+04  0.15422767639E+04  0.99321394653E+03 0.  0.
        4    1    3    3  502    0 -0.34109571238E+03  0.74565611507E+02 -0.11383124449E+04  0.11906566048E+04  0.12699999809E+01 0. -1.
       -4    1    3    3    0  502  0.34109571238E+03 -0.74565611507E+02 -0.41578936964E+02  0.35162015915E+03  0.12699999809E+01 0.  1.
</event>
<event>
 5   0  0.3608845E-03  0.1001823E+04  0.7818609E-02  0.9306548E-01
        1   -1    0    0  501    0  0.00000000000E+00  0.00000000000E+00  0.92955515386E+03  0.92955515388E+03  0.50400001928E-02 0. -1.
       -1   -1    0    0    0  501  0.00000000000E+00  0.00000000000E+00 -0.26992735958E+03  0.26992735963E+03  0.50400001928E-02 0.  1.
    10030    2    1    2    0    0  0.00000000000E+00  0.00000000000E+00  0.65962779428E+03  0.11994825135E+04  0.10018230748E+04 0.  0.
        1    1    3    3  502    0 -0.19207574002E+03 -0.16784082579E+03 -0.18634414207E+03  0.31589202588E+03  0.50400001928E-02 0.  1.
       -1    1    3    3    0  502  0.19207574002E+03  0.16784082579E+03  0.84597193635E+03  0.88359048762E+03  0.50400001928E-02 0. -1.
</event>
<event>
 5   0  0.6022787E-03  0.9845082E+03  0.7818609E-02  0.9325701E-01
       -2   -1    0    0    0  501  0.00000000000E+00  0.00000000000E+00  0.67115119966E+03  0.67115119966E+03  0.25500000920E-02 0. -1.
        2   -1    0    0  501    0  0.00000000000E+00  0.00000000000E+00 -0.36104249410E+03  0.36104249411E+03  0.25500000920E-02 0.  1.
    10030    2    1    2    0    0  0.00000000000E+00  0.00000000000E+00  0.31010870556E+03  0.10321936938E+04  0.98450820829E+03 0.  0.
        5    1    3    3  502    0 -0.41263803045E+03  0.21503497383E+03  0.32339877096E+03  0.56667366200E+03  0.46999998093E+01 0. -1.
       -5    1    3    3    0  502  0.41263803045E+03 -0.21503497383E+03 -0.13290065402E+02  0.46552003177E+03  0.46999998093E+01 0.  1.
</event>
<event>
 5   0  0.3640180E-03  0.9987033E+03  0.7818609E-02  0.9309968E-01
       -1   -1    0    0    0  501  0.00000000000E+00  0.00000000000E+00  0.37057857292E+03  0.37057857296E+03  0.50400001928E-02 0.  1.
        1   -1    0    0  501    0  0.00000000000E+00  0.00000000000E+00 -0.67287236474E+03  0.67287236475E+03  0.50400001928E-02 0. -1.
    10030    2    1    2    0    0  0.00000000000E+00  0.00000000000E+00 -0.30229379181E+03  0.10434509377E+04  0.99870332073E+03 0.  0.
        5    1    3    3  502    0 -0.90036318095E+02  0.48486734820E+03 -0.69363853171E+02  0.49803244679E+03  0.46999998093E+01 0. -1.
       -5    1    3    3    0  502  0.90036318095E+02 -0.48486734820E+03 -0.23292993864E+03  0.54541849092E+03  0.46999998093E+01 0.  1.
</event>
<event>
 5   0  0.6376961E-03  0.9979620E+03  0.7818609E-02  0.9310783E-01
       -2   -1    0    0    0  501  0.00000000000E+00  0.00000000000E+00  0.21123465451E+03  0.21123465452E+03  0.25500000920E-02 0. -1.
        2   -1    0    0  501    0  0.00000000000E+00  0.00000000000E+00 -0.11786987598E+04  0.11786987598E+04  0.25500000920E-02 0.  1.
    10030    2    1    2    0    0  0.00000000000E+00  0.00000000000E+00 -0.96746410527E+03  0.13899334143E+04  0.99796197383E+03 0.  0.
        3    1    3    3  502    0 -0.12891013250E+03  0.28440002811E+03  0.58342252079E+02  0.31765551598E+03  0.10100000352E+00 0. -1.
       -3    1    3    3    0  502  0.12891013250E+03 -0.28440002811E+03 -0.10258063573E+04  0.10722778983E+04  0.10100000352E+00 0.  1.
</event>
<event>
 5   0  0.3643002E-03  0.1004854E+04  0.7818609E-02  0.9303237E-01
        1   -1    0    0  501    0  0.00000000000E+00  0.00000000000E+00  0.40893610617E+03  0.40893610620E+03  0.50400001928E-02 0.  1.
       -1   -1    0    0    0  501  0.00000000000E+00  0.00000000000E+00 -0.61729149598E+03  0.61729149600E+03  0.50400001928E-02 0. -1.
    10030    2    1    2    0    0  0.00000000000E+00  0.00000000000E+00 -0.20835538981E+03  0.10262276022E+04  0.10048537819E+04 0.  0.
        2    1    3    3  502    0 -0.47546657525E+03  0.11513857871E+03  0.12745183640E+02  0.48937490353E+03  0.25500000920E-02 0.  1.
       -2    1    3    3    0  502  0.47546657525E+03 -0.11513857871E+03 -0.22110057345E+03  0.53685269868E+03  0.25500000920E-02 0. -1.
</event>
<event>
 5   0  0.3569359E-03  0.9771670E+03  0.7818609E-02  0.9333948E-01
       -1   -1    0    0    0  501  0.00000000000E+00  0.00000000000E+00  0.66225423189E+03  0.66225423191E+03  0.50400001928E-02 0.  1.
        1   -1    0    0  501    0  0.00000000000E+00  0.00000000000E+00 -0.36045650270E+03  0.36045650274E+03  0.50400001928E-02 0. -1.
    10030    2    1    2    0    0  0.00000000000E+00  0.00000000000E+00  0.30179772919E+03  0.10227107347E+04  0.97716701614E+03 0.  0.
        4    1    3    3  502    0  0.31528554537E+03  0.24601307638E+03  0.44466741214E+03  0.59804525681E+03  0.12699999809E+01 0.  1.
       -4    1    3    3    0  502 -0.31528554537E+03 -0.24601307638E+03 -0.14286968296E+03  0.42466547785E+03  0.12699999809E+01 0. -1.
</event>
<event>
 5   0  0.3608845E-03  0.1004855E+04  0.7818609E-02  0.9303236E-01
        1   -1    0    0  501    0  0.00000000000E+00  0.00000000000E+00  0.92717838001E+03  0.92717838002E+03  0.50400001928E-02 0. -1.
       -1   -1    0    0    0  501  0.00000000000E+00  0.00000000000E+00 -0.27225964948E+03  0.27225964953E+03  0.50400001928E-02 0.  1.
    10030    2    1    2    0    0  0.00000000000E+00  0.00000000000E+00  0.65491873053E+03  0.11994380295E+04  0.10048547373E+04 0.  0.
        1    1    3    3  502    0 -0.15318808569E+03  0.47031171153E+03  0.43270028908E+03  0.65718280242E+03  0.50400001928E-02 0. -1.
       -1    1    3    3    0  502  0.15318808569E+03 -0.47031171153E+03  0.22221844144E+03  0.54225522712E+03  0.50400001928E-02 0.  1.
</event>
<event>
 5   0  0.3569359E-03  0.9994187E+03  0.7818609E-02  0.9309183E-01
        1   -1    0    0  501    0  0.00000000000E+00  0.00000000000E+00  0.87570275190E+03  0.87570275191E+03  0.50400001928E-02 0. -1.
       -1   -1    0    0    0  501  0.00000000000E+00  0.00000000000E+00 -0.28515318255E+03  0.28515318259E+03  0.50400001928E-02 0.  1.
    10030    2    1    2    0    0  0.00000000000E+00  0.00000000000E+00  0.59054956935E+03  0.11608559345E+04  0.99941868444E+03 0.  0.
        4    1    3    3  502    0  0.11246723173E+03 -0.46021502058E+03  0.47988542824E+03  0.67434292501E+03  0.12699999809E+01 0. -1.
       -4    1    3    3    0  502 -0.11246723173E+03  0.46021502058E+03  0.11066414112E+03  0.48651300949E+03  0.12699999809E+01 0.  1.
</event>
<event>
 5   0  0.6199539E-03  0.9910834E+03  0.7818609E-02  0.9318379E-01
       -2   -1    0    0    0  501  0.00000000000E+00  0.00000000000E+00  0.63778559533E+03  0.63778559534E+03  0.25500000920E-02 0. -1.
        2   -1    0    0  501    0  0.00000000000E+00  0.00000000000E+00 -0.38502213762E+03  0.38502213763E+03  0.25500000920E-02 0.  1.
    10030    2    1    2    0    0  0.00000000000E+00  0.00000000000E+00  0.25276345772E+03  0.10228077330E+04  0.99108339359E+03 0.  0.
        2    1    3    3  502    0  0.40680564119E+03 -0.27785511039E+03  0.18164275509E+03  0.52506036087E+03  0.25500000920E-02 0. -1.
       -2    1    3    3    0  502 -0.40680564119E+03  0.27785511039E+03  0.71120702630E+02  0.49774737209E+03  0.25500000920E-02 0.  1.
</event>
<event>
 5   0  0.6606947E-03  0.9991214E+03  0.7818609E-02  0.9309509E-01
        2   -1    0    0  501    0  0.00000000000E+00  0.00000000000E+00  0.93461256163E+03  0.93461256164E+03  0.25500000920E-02 0.  1.
       -2   -1    0    0    0  501  0.00000000000E+00  0.00000000000E+00 -0.26702070585E+03  0.26702070587E+03  0.25500000920E-02 0. -1.
    10030    2    1    2    0    0  0.00000000000E+00  0.00000000000E+00  0.66759185578E+03  0.12016332675E+04  0.99912142589E+03 0.  0.
        1    1    3    3  502    0  0.24238520533E+03 -0.43561041537E+03  0.29475230521E+03  0.57912515331E+03  0.50400001928E-02 0. -1.
       -1    1    3    3    0  502 -0.24238520533E+03  0.43561041537E+03  0.37283955057E+03  0.62250811419E+03  0.50400001928E-02 0.  1.
</event>
<event>
 5   0  0.6376961E-03  0.1003567E+04  0.7818609E-02  0.9304641E-01
        2   -1    0    0  501    0  0.00000000000E+00  0.00000000000E+00  0.12247371914E+04  0.12247371914E+04  0.25500000920E-02 0. -1.
       -2   -1    0    0    0  501  0.00000000000E+00  0.00000000000E+00 -0.20558437065E+03  0.20558437067E+03  0.25500000920E-02 0.  1.
    10030    2    1    2    0    0  0.00000000000E+00  0.00000000000E+00  0.10191528207E+04  0.14303215620E+04  0.10035672867E+04 0.  0.
        3    1    3    3  502    0 -0.18474680475E+03 -0.44234081925E+03  0.72092537414E+03  0.86575411493E+03  0.10100000352E+00 0.  1.
       -3    1    3    3    0  502  0.18474680475E+03  0.44234081925E+03  0.29822744656E+03  0.56456744710E+03  0.10100000352E+00 0. -1.
</event>
<event>
 5   0  0.6606947E-03  0.9949590E+03  0.7818609E-02  0.9314091E-01
        2   -1    0    0  501    0  0.00000000000E+00  0.00000000000E+00  0.11614113022E+04  0.11614113022E+04  0.25500000920E-02 0.  1.
       -2   -1    0    0    0  501  0.00000000000E+00  0.00000000000E+00 -0.21309060121E+03  0.21309060122E+03  0.25500000920E-02 0. -1.
    10030    2    1    2    0    0  0.00000000000E+00  0.00000000000E+00  0.94832070104E+03  0.13745019035E+04  0.99495895926E+03 0.  0.
        1    1    3    3  502    0 -0.41173810059E+03  0.26404590028E+03  0.34877885212E+03  0.60074552736E+03  0.50400001928E-02 0.  1.
       -1    1    3    3    0  502  0.41173810059E+03 -0.26404590028E+03  0.59954184892E+03  0.77375637611E+03  0.50400001928E-02 0. -1.
</event>
<event>
 5   0  0.6360455E-03  0.9955485E+03  0.7818609E-02  0.9313441E-01
        2   -1    0    0  501    0  0.00000000000E+00  0.00000000000E+00  0.19804186976E+03  0.19804186977E+03  0.25500000920E-02 0.  1.
       -2   -1    0    0    0  501  0.00000000000E+00  0.00000000000E+00 -0.12511455427E+04  0.12511455427E+04  0.25500000920E-02 0. -1.
    10030    2    1    2    0    0  0.00000000000E+00  0.00000000000E+00 -0.10531036729E+04  0.14491874124E+04  0.99554849730E+03 0.  0.
        4    1    3    3  502    0  0.45903265530E+03  0.16968425203E+03 -0.39414318402E+03  0.62837424074E+03  0.12699999809E+01 0. -1.
       -4    1    3    3    0  502 -0.45903265530E+03 -0.16968425203E+03 -0.65896048889E+03  0.82081317170E+03  0.12699999809E+01 0.  1.
</event>
<event>
 5   0  0.3466598E-03  0.9900897E+03  0.7818609E-02  0.9319481E-01
        1   -1    0    0  501    0  0.00000000000E+00  0.00000000000E+00  0.93546772884E+03  0.93546772886E+03  0.50400001928E-02 0. -1.
       -1   -1    0    0    0  501  0.00000000000E+00  0.00000000000E+00 -0.26197526997E+03  0.26197527002E+03  0.50400001928E-02 0.  1.
    10030    2    1    2    0    0  0.00000000000E+00  0.00000000000E+00  0.67349245887E+03  0.11974429989E+04  0.99008971482E+03 0.  0.
        3    1    3    3  502    0 -0.16656281969E+03  0.30155170479E+03  0.76671950417E+03  0.84055660835E+03  0.10100000352E+00 0. -1.
       -3    1    3    3    0  502  0.16656281969E+03 -0.30155170479E+03 -0.93227045297E+02  0.35688639053E+03  0.10100000352E+00 0.  1.
</event>
<event>
 5   0  0.3608845E-03  0.1001642E+04  0.7818609E-02  0.9306745E-01
        1   -1    0    0  501    0  0.00000000000E+00  0.00000000000E+00  0.16818228681E+04  0.16818228681E+04  0.50400001928E-02 0. -1.
       -1   -1    0    0    0  501  0.00000000000E+00  0.00000000000E+00 -0.14913693121E+03  0.14913693130E+03  0.50400001928E-02 0.  1.
    10030    2    1    2    0    0  0.00000000000E+00  0.00000000000E+00  0.15326859369E+04  0.18309597994E+04  0.10016424541E+04 0.  0.
        1    1    3    3  502    0 -0.43770198186E+03 -0.24329898972E+03  0.75415196918E+03  0.90527488420E+03  0.50400001928E-02 0. -1.
       -1    1    3    3    0  502  0.43770198186E+03  0.24329898972E+03  0.77853396772E+03  0.92568491521E+03  0.50400001928E-02 0.  1.
</event>
<event>
 5   0  0.3640180E-03  0.1022806E+04  0.7818609E-02  0.9283879E-01
        1   -1    0    0  501    0  0.00000000000E+00  0.00000000000E+00  0.51824436467E+03  0.51824436470E+03  0.50400001928E-02 0. -1.
       -1   -1    0    0    0  501  0.00000000000E+00  0.00000000000E+00 -0.50465187637E+03  0.50465187640E+03  0.50400001928E-02 0.  1.
    10030    2    1    2    0    0  0.00000000000E+00  0.00000000000E+00  0.13592488304E+02  0.10228962411E+04  0.10228059270E+04 0.  0.
        5    1    3    3  502    0  0.96044107188E+02 -0.29447190611E+03 -0.40014597362E+03  0.50604057566E+03  0.46999998093E+01 0.  1.
       -5    1    3    3    0  502 -0.96044107188E+02  0.29447190611E+03  0.41373846193E+03  0.51685566543E+03  0.46999998093E+01 0. -1.
</event>
<event>
 5   0  0.3608845E-03  0.1002504E+04  0.7818609E-02  0.9305802E-01
        1   -1    0    0  501    0  0.00000000000E+00  0.00000000000E+00  0.32140328659E+03  0.32140328663E+03  0.50400001928E-02 0.  1.
       -1   -1    0    0    0  501  0.00000000000E+00  0.00000000000E+00 -0.78173960816E+03  0.78173960817E+03  0.50400001928E-02 0. -1.
    10030    2    1    2    0    0  0.00000000000E+00  0.00000000000E+00 -0.46033632157E+03  0.11031428948E+04  0.10025042231E+04 0.  0.
        1    1    3    3  502    0  0.27958189259E+03 -0.36577767093E+03 -0.44829573076E+03  0.64259505247E+03  0.50400001928E-02 0. -1.
       -1    1    3    3    0  502 -0.27958189259E+03  0.36577767093E+03 -0.12040590806E+02  0.46054784232E+03  0.50400001928E-02 0.  1.
</event>
<event>
 5   0  0.3569359E-03  0.9833136E+03  0.7818609E-02  0.9327038E-01
       -1   -1    0    0    0  501  0.00000000000E+00  0.00000000000E+00  0.64500926948E+03  0.64500926950E+03  0.50400001928E-02 0. -1.
        1   -1    0    0  501    0  0.00000000000E+00  0.00000000000E+00 -0.37476420670E+03  0.37476420673E+03  0.50400001928E-02 0.  1.
    10030    2    1    2    0    0  0.00000000000E+00  0.00000000000E+00  0.27024506278E+03  0.10197734762E+04  0.98331355572E+03 0.  0.
        4    1    3    3  502    0  0.33445580779E+03  0.70542137905E+02  0.50162074009E+03  0.60701059330E+03  0.12699999809E+01 0. -1.
       -4    1    3    3    0  502 -0.33445580779E+03 -0.70542137905E+02 -0.23137567731E+03  0.41276288294E+03  0.12699999809E+01 0.  1.
</event>
<event>
 5   0  0.3466598E-03  0.9973195E+03  0.7818609E-02  0.9311490E-01
       -1   -1    0    0    0  501  0.00000000000E+00  0.00000000000E+00  0.15183847310E+03  0.15183847318E+03  0.50400001928E-02 0.  1.
        1   -1    0    0  501    0  0.00000000000E+00  0.00000000000E+00 -0.16376714658E+04  0.16376714659E+04  0.50400001928E-02 0. -1.
    10030    2    1    2    0    0  0.00000000000E+00  0.00000000000E+00 -0.14858329927E+04  0.17895099390E+04  0.99731947719E+03 0.  0.
        3    1    3    3  502    0  0.22429139584E+03 -0.97654922169E+01 -0.15418614351E+04  0.15581202426E+04  0.10100000352E+00 0. -1.
       -3    1    3    3    0  502 -0.22429139584E+03  0.97654922169E+01  0.56028442334E+02  0.23138969648E+03  0.10100000352E+00 0.  1.
</event>
<event>
 5   0  0.6360455E-03  0.9951646E+03  0.7818609E-02  0.9313864E-01
       -2   -1    0    0    0  501  0.00000000000E+00  0.00000000000E+00  0.48838566395E+03  0.48838566396E+03  0.25500000920E-02 0.  1.
        2   -1    0    0  501    0  0.00000000000E+00  0.00000000000E+00 -0.50695206984E+03  0.50695206984E+03  0.25500000920E-02 0. -1.
    10030    2    1    2    0    0  0.00000000000E+00  0.00000000000E+00 -0.18566405883E+02  0.99533773380E+03  0.99516455569E+03 0.  0.
        4    1    3    3  502    0  0.28895109592E+03 -0.16062251722E+03  0.36266076788E+03  0.49073085732E+03  0.12699999809E+01 0.  1.
       -4    1    3    3    0  502 -0.28895109592E+03  0.16062251722E+03 -0.38122717376E+03  0.50460687648E+03  0.12699999809E+01 0. -1.
</event>
<event>
 5   0  0.3643002E-03  0.9770533E+03  0.7818609E-02  0.9334077E-01
       -1   -1    0    0    0  501  0.00000000000E+00  0.00000000000E+00  0.22409102054E+03  0.22409102060E+03  0.50400001928E-02 0.  1.
        1   -1    0    0  501    0  0.00000000000E+00  0.00000000000E+00 -0.10650060526E+04  0.10650060526E+04  0.50400001928E-02 0. -1.
    10030    2    1    2    0    0  0.00000000000E+00  0.00000000000E+00 -0.84091503203E+03  0.12890970732E+04  0.97705331122E+03 0.  0.
        2    1    3    3  502    0  0.23588951411E+03 -0.31346952942E+03 -0.36360877805E+02  0.39399127171E+03  0.25500000920E-02 0.  1.
       -2    1    3    3    0  502 -0.23588951411E+03  0.31346952942E+03 -0.80455415422E+03  0.89510580147E+03  0.25500000920E-02 0. -1.
</event>
<event>
 5   0  0.3466598E-03  0.9945523E+03  0.7818609E-02  0.9314540E-01
       -1   -1    0    0    0  501  0.00000000000E+00  0.00000000000E+00  0.27495855361E+03  0.27495855366E+03  0.50400001928E-02 0.  1.
        1   -1    0    0  501    0  0.00000000000E+00  0.00000000000E+00 -0.89934849957E+03  0.89934849959E+03  0.50400001928E-02 0. -1.
    10030    2    1    2    0    0  0.00000000000E+00  0.00000000000E+00 -0.62438994596E+03  0.11743070532E+04  0.99455228655E+03 0.  0.
        3    1    3    3  502    0  0.45028490078E+03  0.20821984784E+03 -0.35260931333E+03  0.60864220602E+03  0.10100000352E+00 0. -1.
       -3    1    3    3    0  502 -0.45028490078E+03 -0.20821984784E+03 -0.27178063263E+03  0.56566484722E+03  0.10100000352E+00 0.  1.
</event>
<event>
 5   0  0.6022787E-03  0.1011367E+04  0.7818609E-02  0.9296165E-01
        2   -1    0    0  501    0  0.00000000000E+00  0.00000000000E+00  0.52177001878E+03  0.52177001878E+03  0.25500000920E-02 0. -1.
       -2   -1    0    0    0  501  0.00000000000E+00  0.00000000000E+00 -0.49009273337E+03  0.49009273338E+03  0.25500000920E-02 0.  1.
    10030    2    1    2    0    0  0.00000000000E+00  0.00000000000E+00  0.31677285407E+02  0.10118627522E+04  0.10113667875E+04 0.  0.
        5    1    3    3  502    0  0.36387491704E+03 -0.19228495079E+03  0.30977711274E+03  0.51513338770E+03  0.46999998093E+01 0. -1.
       -5    1    3    3    0  502 -0.36387491704E+03  0.19228495079E+03 -0.27809982733E+03  0.49672936445E+03  0.46999998093E+01 0.  1.
</event>
<event>
 5   0  0.3643002E-03  0.1073281E+04  0.7818609E-02  0.9231633E-01
        1   -1    0    0  501    0  0.00000000000E+00  0.00000000000E+00  0.18011836492E+04  0.18011836492E+04  0.50400001928E-02 0. -1.
       -1   -1    0    0    0  501  0.00000000000E+00  0.00000000000E+00 -0.15988533636E+03  0.15988533644E+03  0.50400001928E-02 0.  1.
    10030    2    1    2    0    0  0.00000000000E+00  0.00000000000E+00  0.16412983129E+04  0.19610689857E+04  0.10732806785E+04 0.  0.
        2    1    3    3  502    0 -0.39165134751E+03  0.23851368313E+03  0.31131912025E+03  0.55425549134E+03  0.25500000920E-02 0.  1.
       -2    1    3    3    0  502  0.39165134751E+03 -0.23851368313E+03  0.13299791926E+04  0.14068134943E+04  0.25500000920E-02 0. -1.
</event>
<event>
 5   0  0.3466598E-03  0.9980133E+03  0.7818609E-02  0.9310726E-01
       -1   -1    0    0    0  501  0.00000000000E+00  0.00000000000E+00  0.39033722377E+03  0.39033722380E+03  0.50400001928E-02 0. -1.
        1   -1    0    0  501    0  0.00000000000E+00  0.00000000000E+00 -0.63792950530E+03  0.63792950532E+03  0.50400001928E-02 0.  1.
    10030    2    1    2    0    0  0.00000000000E+00  0.00000000000E+00 -0.24759228154E+03  0.10282667291E+04  0.99801329067E+03 0.  0.
        3    1    3    3  502    0 -0.15209273793E+02 -0.13510767948E+03  0.37088556628E+03  0.39502091152E+03  0.10100000352E+00 0. -1.
       -3    1    3    3    0  502  0.15209273793E+02  0.13510767948E+03 -0.61847784782E+03  0.63324581760E+03  0.10100000352E+00 0.  1.
</event>
<event>
 5   0  0.3640180E-03  0.1006664E+04  0.7818609E-02  0.9301266E-01
       -1   -1    0    0    0  501  0.00000000000E+00  0.00000000000E+00  0.10786728835E+04  0.10786728835E+04  0.50400001928E-02 0.  1.
        1   -1    0    0  501    0  0.00000000000E+00  0.00000000000E+00 -0.23486562753E+03  0.23486562758E+03  0.50400001928E-02 0. -1.
    10030    2    1    2    0    0  0.00000000000E+00  0.00000000000E+00  0.84380725598E+03  0.13135385111E+04  0.10066641619E+04 0.  0.
        5    1    3    3  502    0 -0.45831638404E+03  0.55370058471E+02  0.16027908628E+03  0.48870361852E+03  0.46999998093E+01 0. -1.
       -5    1    3    3    0  502  0.45831638404E+03 -0.55370058471E+02  0.68352816970E+03  0.82483489259E+03  0.46999998093E+01 0.  1.
</event>
<event>
 5   0  0.6199539E-03  0.1016648E+04  0.7818609E-02  0.9290472E-01
        2   -1    0    0  501    0  0.00000000000E+00  0.00000000000E+00  0.48633703902E+03  0.48633703902E+03  0.25500000920E-02 0. -1.
       -2   -1    0    0    0  501  0.00000000000E+00  0.00000000000E+00 -0.53130446283E+03  0.53130446283E+03  0.25500000920E-02 0.  1.
    10030    2    1    2    0    0  0.00000000000E+00  0.00000000000E+00 -0.44967423809E+02  0.10176415019E+04  0.10166475088E+04 0.  0.
        2    1    3    3  502    0 -0.42682789931E+03 -0.12901843651E+03 -0.26678221668E+03  0.51961578472E+03  0.25500000920E-02 0.  1.
       -2    1    3    3    0  502  0.42682789931E+03  0.12901843651E+03  0.22181479287E+03  0.49802571714E+03  0.25500000920E-02 0. -1.
</event>
<event>
 5   0  0.6199539E-03  0.1043572E+04  0.7818609E-02  0.9262006E-01
       -2   -1    0    0    0  501  0.00000000000E+00  0.00000000000E+00  0.14243980363E+03  0.14243980366E+03  0.25500000920E-02 0.  1.
        2   -1    0    0  501    0  0.00000000000E+00  0.00000000000E+00 -0.19114088280E+04  0.19114088280E+04  0.25500000920E-02 0. -1.
    10030    2    1    2    0    0  0.00000000000E+00  0.00000000000E+00 -0.17689690243E+04  0.20538486316E+04  0.10435721310E+04 0.  0.
        2    1    3    3  502    0  0.38274873800E+03  0.33961617586E+03 -0.68353680715E+03  0.85384911435E+03  0.25500000920E-02 0. -1.
       -2    1    3    3    0  502 -0.38274873800E+03 -0.33961617586E+03 -0.10854322172E+04  0.11999995173E+04  0.25500000920E-02 0.  1.
</event>
<event>
 5   0  0.6022787E-03  0.9987861E+03  0.7818609E-02  0.9309877E-01
        2   -1    0    0  501    0  0.00000000000E+00  0.00000000000E+00  0.16316512430E+04  0.16316512430E+04  0.25500000920E-02 0. -1.
       -2   -1    0    0    0  501  0.00000000000E+00  0.00000000000E+00 -0.15284726522E+03  0.15284726524E+03  0.25500000920E-02 0.  1.
    10030    2    1    2    0    0  0.00000000000E+00  0.00000000000E+00  0.14788039778E+04  0.17844985083E+04  0.99878612387E+03 0.  0.
        5    1    3    3  502    0 -0.20507776719E+03 -0.14020368876E+03  0.15133762319E+04  0.15336373999E+04  0.46999998093E+01 0. -1.
       -5    1    3    3    0  502  0.20507776719E+03  0.14020368876E+03 -0.34572254146E+02  0.25086110837E+03  0.46999998093E+01 0.  1.
</event>
<event>
 5   0  0.6360455E-03  0.9919336E+03  0.7818609E-02  0.9317436E-01
        2   -1    0    0  501    0  0.00000000000E+00  0.00000000000E+00  0.15532724234E+04  0.15532724234E+04  0.25500000920E-02 0.  1.
       -2   -1    0    0    0  501  0.00000000000E+00  0.00000000000E+00 -0.15836440940E+03  0.15836440942E+03  0.25500000920E-02 0. -1.
    10030    2    1    2    0    0  0.00000000000E+00  0.00000000000E+00  0.13949080140E+04  0.17116368328E+04  0.99193360663E+03 0.  0.
        4    1    3    3  502    0  0.12632220835E+03 -0.84170241972E+02  0.15122006073E+04  0.15198007171E+04  0.12699999809E+01 0.  1.
       -4    1    3    3    0  502 -0.12632220835E+03  0.84170241972E+02 -0.11729259332E+03  0.19183611574E+03  0.12699999809E+01 0. -1.
</event>
<event>
 5   0  0.3608845E-03  0.1001318E+04  0.7818609E-02  0.9307100E-01
        1   -1    0    0  501    0  0.00000000000E+00  0.00000000000E+00  0.20667251089E+04  0.20667251089E+04  0.50400001928E-02 0.  1.
       -1   -1    0    0    0  501  0.00000000000E+00  0.00000000000E+00 -0.12128341903E+03  0.12128341914E+03  0.50400001928E-02 0. -1.
    10030    2    1    2    0    0  0.00000000000E+00  0.00000000000E+00  0.19454416898E+04  0.21880085280E+04  0.10013181063E+04 0.  0.
        1    1    3    3  502    0  0.48642721790E+03  0.14187406412E+02  0.12298498848E+04  0.13226274835E+04  0.50400001928E-02 0.  1.
       -1    1    3    3    0  502 -0.48642721790E+03 -0.14187406412E+02  0.71559180502E+03  0.86538104454E+03  0.50400001928E-02 0. -1.
</event>
<event>
 5   0  0.6360455E-03  0.1014526E+04  0.7818609E-02  0.9292755E-01
        2   -1    0    0  501    0  0.00000000000E+00  0.00000000000E+00  0.68110831523E+03  0.68110831524E+03  0.25500000920E-02 0.  1.
       -2   -1    0    0    0  501  0.00000000000E+00  0.00000000000E+00 -0.37778944457E+03  0.37778944458E+03  0.25500000920E-02 0. -1.
    10030    2    1    2    0    0  0.00000000000E+00  0.00000000000E+00  0.30331887066E+03  0.10588977598E+04  0.10145255682E+04 0.  0.
        4    1    3    3  502    0  0.37322986141E+03 -0.20668126219E+03 -0.13474365119E+03  0.44740936291E+03  0.12699999809E+01 0. -1.
       -4    1    3    3    0  502 -0.37322986141E+03  0.20668126219E+03  0.43806252186E+03  0.61148839690E+03  0.12699999809E+01 0.  1.
</event>
<event>
 5   0  0.3569359E-03  0.1011012E+04  0.7818609E-02  0.9296549E-01
        1   -1    0    0  501    0  0.00000000000E+00  0.00000000000E+00  0.10294478250E+04  0.10294478250E+04  0.50400001928E-02 0.  1.
       -1   -1    0    0    0  501  0.00000000000E+00  0.00000000000E+00 -0.24822662187E+03  0.24822662192E+03  0.50400001928E-02 0. -1.
    10030    2    1    2    0    0  0.00000000000E+00  0.00000000000E+00  0.78122120316E+03  0.12776744470E+04  0.10110120791E+04 0.  0.
        4    1    3    3  502    0 -0.19833286413E+03 -0.33811009095E+03 -0.12764560134E+02  0.39219753376E+03  0.12699999809E+01 0. -1.
       -4    1    3    3    0  502  0.19833286413E+03  0.33811009095E+03  0.79398576330E+03  0.88547691320E+03  0.12699999809E+01 0.  1.
</event>
<event>
 5   0  0.6606947E-03  0.9897989E+03  0.7818609E-02  0.9319804E-01
        2   -1    0    0  501    0  0.00000000000E+00  0.00000000000E+00  0.61378753570E+03  0.61378753570E+03  0.25500000920E-02 0. -1.
       -2   -1    0    0    0  501  0.00000000000E+00  0.00000000000E+00 -0.39903952082E+03  0.39903952082E+03  0.25500000920E-02 0.  1.
    10030    2    1    2    0    0  0.00000000000E+00  0.00000000000E+00  0.21474801488E+03  0.10128270565E+04  0.98979893743E+03 0.  0.
        1    1    3    3  502    0 -0.29749918680E+03  0.23273183388E+03 -0.21983999964E+03  0.43703489347E+03  0.50400001928E-02 0.  1.
       -1    1    3    3    0  502  0.29749918680E+03 -0.23273183388E+03  0.43458801452E+03  0.57579216305E+03  0.50400001928E-02 0. -1.
</event>
<event>
 5   0  0.3466598E-03  0.9909860E+03  0.7818609E-02  0.9318487E-01
        1   -1    0    0  501    0  0.00000000000E+00  0.00000000000E+00  0.14908580135E+04  0.14908580136E+04  0.50400001928E-02 0. -1.
       -1   -1    0    0    0  501  0.00000000000E+00  0.00000000000E+00 -0.16467919140E+03  0.16467919148E+03  0.50400001928E-02 0.  1.
    10030    2    1    2    0    0  0.00000000000E+00  0.00000000000E+00  0.13261788221E+04  0.16555372050E+04  0.99098595799E+03 0.  0.
        3    1    3    3  502    0  0.71434945926E+02  0.48838348216E+03  0.59042511120E+03  0.76956039353E+03  0.10100000352E+00 0. -1.
       -3    1    3    3    0  502 -0.71434945926E+02 -0.48838348216E+03  0.73575371095E+03  0.88597681150E+03  0.10100000352E+00 0.  1.
</event>
<event>
 5   0  0.6376961E-03  0.9963273E+03  0.7818609E-02  0.9312582E-01
        2   -1    0    0  501    0  0.00000000000E+00  0.00000000000E+00  0.16842924313E+04  0.16842924313E+04  0.25500000920E-02 0. -1.
       -2   -1    0    0    0  501  0.00000000000E+00  0.00000000000E+00 -0.14734200676E+03  0.14734200678E+03  0.25500000920E-02 0.  1.
    10030    2    1    2    0    0  0.00000000000E+00  0.00000000000E+00  0.15369504245E+04  0.18316344381E+04  0.99632730930E+03 0.  0.
        3    1    3    3  502    0  0.20238610531E+02  0.47941057076E+03  0.52235847564E+03  0.70929717608E+03  0.10100000352E+00 0. -1.
       -3    1    3    3    0  502 -0.20238610531E+02 -0.47941057076E+03  0.10145919489E+04  0.11223372620E+04  0.10100000352E+00 0.  1.
</event>
<event>
 5   0  0.3640180E-03  0.1021711E+04  0.7818609E-02  0.9285048E-01
        1   -1    0    0  501    0  0.00000000000E+00  0.00000000000E+00  0.37940659807E+03  0.37940659811E+03  0.50400001928E-02 0.  1.
       -1   -1    0    0    0  501  0.00000000000E+00  0.00000000000E+00 -0.68784556192E+03  0.68784556194E+03  0.50400001928E-02 0. -1.
    10030    2    1    2    0    0  0.00000000000E+00  0.00000000000E+00 -0.30843896384E+03  0.10672521600E+04  0.10217106140E+04 0.  0.
        5    1    3    3  502    0  0.50398181530E+03  0.54126759954E+02 -0.22047938056E+03  0.55277538254E+03  0.46999998093E+01 0. -1.
       -5    1    3    3    0  502 -0.50398181530E+03 -0.54126759954E+02 -0.87959583282E+02  0.51447677750E+03  0.46999998093E+01 0.  1.
</event>
<event>
 5   0  0.6606947E-03  0.1002458E+04  0.7818609E-02  0.9305853E-01
        2   -1    0    0  501    0  0.00000000000E+00  0.00000000000E+00  0.73515917195E+03  0.73515917196E+03  0.25500000920E-02 0. -1.
       -2   -1    0    0    0  501  0.00000000000E+00  0.00000000000E+00 -0.34173649734E+03  0.34173649735E+03  0.25500000920E-02 0.  1.
    10030    2    1    2    0    0  0.00000000000E+00  0.00000000000E+00  0.39342267461E+03  0.10768956693E+04  0.10024584189E+04 0.  0.
        1    1    3    3  502    0  0.21681281163E+03  0.41738497021E+03  0.10605548715E+02  0.47045774128E+03  0.50400001928E-02 0.  1.
       -1    1    3    3    0  502 -0.21681281163E+03 -0.41738497021E+03  0.38281712589E+03  0.60643792803E+03  0.50400001928E-02 0. -1.
</event>
<event>
 5   0  0.6376961E-03  0.9870466E+03  0.7818609E-02  0.9322867E-01
        2   -1    0    0  501    0  0.00000000000E+00  0.00000000000E+00  0.12531093892E+04  0.12531093892E+04  0.25500000920E-02 0.  1.
       -2   -1    0    0    0  501  0.00000000000E+00  0.00000000000E+00 -0.19436869341E+03  0.19436869343E+03  0.25500000920E-02 0. -1.
    10030    2    1    2    0    0  0.00000000000E+00  0.00000000000E+00  0.10587406958E+04  0.14474780827E+04  0.98704657379E+03 0.  0.
        3    1    3    3  502    0  0.19297819392E+03 -0.14416789066E+03 -0.10230427843E+03  0.26170811912E+03  0.10100000352E+00 0. -1.
       -3    1    3    3    0  502 -0.19297819392E+03  0.14416789066E+03  0.11610449743E+04  0.11857699636E+04  0.10100000352E+00 0.  1.
</event>
<event>
 5   0  0.3640180E-03  0.1066920E+04  0.7818609E-02  0.9238047E-01
        1   -1    0    0  501    0  0.00000000000E+00  0.00000000000E+00  0.46855086430E+03  0.46855086433E+03  0.50400001928E-02 0.  1.
       -1   -1    0    0    0  501  0.00000000000E+00  0.00000000000E+00 -0.60736125640E+03  0.60736125642E+03  0.50400001928E-02 0. -1.
    10030    2    1    2    0    0  0.00000000000E+00  0.00000000000E+00 -0.13881039210E+03  0.10759121207E+04  0.10669201313E+04 0.  0.
        5    1    3    3  502    0  0.15602241390E+03 -0.50964716422E+03 -0.91367776395E+02  0.54078959513E+03  0.46999998093E+01 0. -1.
       -5    1    3    3    0  502 -0.15602241390E+03  0.50964716422E+03 -0.47442615706E+02  0.53512252562E+03  0.46999998093E+01 0.  1.
</event>
<event>
 5   0  0.3569359E-03  0.9803503E+03  0.7818609E-02  0.9330363E-01
       -1   -1    0    0    0  501  0.00000000000E+00  0.00000000000E+00  0.36028980602E+03  0.36028980606E+03  0.50400001928E-02 0. -1.
        1   -1    0    0  501    0  0.00000000000E+00  0.00000000000E+00 -0.66688442485E+03  0.66688442487E+03  0.50400001928E-02 0.  1.
    10030    2    1    2    0    0  0.00000000000E+00  0.00000000000E+00 -0.30659461883E+03  0.10271742309E+04  0.98035026413E+03 0.  0.
        4    1    3    3  502    0 -0.38831935201E+02 -0.32868643274E+03  0.22553419242E+03  0.40051214102E+03  0.12699999809E+01 0. -1.
       -4    1    3    3    0  502  0.38831935201E+02  0.32868643274E+03 -0.53212881125E+03  0.62666208990E+03  0.12699999809E+01 0.  1.
</event>
<event>
 5   0  0.3643002E-03  0.9976202E+03  0.7818609E-02  0.9311159E-01
       -1   -1    0    0    0  501  0.00000000000E+00  0.00000000000E+00  0.20531228664E+03  0.20531228670E+03  0.50400001928E-02 0.  1.
        1   -1    0    0  501    0  0.00000000000E+00  0.00000000000E+00 -0.12118687288E+04  0.12118687288E+04  0.50400001928E-02 0. -1.
    10030    2    1    2    0    0  0.00000000000E+00  0.00000000000E+00 -0.10065564421E+04  0.14171810155E+04  0.99762024812E+03 0.  0.
        2    1    3    3  502    0 -0.19649239520E+03 -0.33667461563E+03 -0.61183379672E+02  0.39459151554E+03  0.25500000920E-02 0.  1.
       -2    1    3    3    0  502  0.19649239520E+03  0.33667461563E+03 -0.94537306246E+03  0.10225894999E+04  0.25500000920E-02 0. -1.
</event>
<event>
 5   0  0.6360455E-03  0.1000674E+04  0.7818609E-02  0.9307805E-01
        2   -1    0    0  501    0  0.00000000000E+00  0.00000000000E+00  0.18945658759E+04  0.18945658759E+04  0.25500000920E-02 0.  1.
       -2   -1    0    0    0  501  0.00000000000E+00  0.00000000000E+00 -0.13213439422E+03  0.13213439424E+03  0.25500000920E-02 0. -1.
    10030    2    1    2    0    0  0.00000000000E+00  0.00000000000E+00  0.17624314817E+04  0.20267002701E+04  0.10006744013E+04 0.  0.
        4    1    3    3  502    0  0.13080131627E+03 -0.82122072192E+02 -0.82644875770E+02  0.17517079514E+03  0.12699999809E+01 0. -1.
       -4    1    3    3    0  502 -0.13080131627E+03  0.82122072192E+02  0.18450763574E+04  0.18515294750E+04  0.12699999809E+01 0.  1.
</event>
<event>
 5   0  0.6606947E-03  0.9959960E+03  0.7818609E-02  0.9312947E-01
        2   -1    0    0  501    0  0.00000000000E+00  0.00000000000E+00  0.11370831667E+04  0.11370831667E+04  0.25500000920E-02 0. -1.
       -2   -1    0    0    0  501  0.00000000000E+00  0.00000000000E+00 -0.21810366853E+03  0.21810366854E+03  0.25500000920E-02 0.  1.
    10030    2    1    2    0    0  0.00000000000E+00  0.00000000000E+00  0.91897949818E+03  0.13551868353E+04  0.99599600420E+03 0.  0.
        1    1    3    3  502    0  0.13788769613E+03  0.47221435148E+03  0.35407260054E+03  0.60610792518E+03  0.50400001928E-02 0.  1.
       -1    1    3    3    0  502 -0.13788769613E+03 -0.47221435148E+03  0.56490689763E+03  0.74907891007E+03  0.50400001928E-02 0. -1.
</event>
<event>
 5   0  0.3608845E-03  0.1006809E+04  0.7818609E-02  0.9301109E-01
       -1   -1    0    0    0  501  0.00000000000E+00  0.00000000000E+00  0.58081711893E+03  0.58081711895E+03  0.50400001928E-02 0.  1.
        1   -1    0    0  501    0  0.00000000000E+00  0.00000000000E+00 -0.43630925484E+03  0.43630925487E+03  0.50400001928E-02 0. -1.
    10030    2    1    2    0    0  0.00000000000E+00  0.00000000000E+00  0.14450786408E+03  0.10171263738E+04  0.10068085903E+04 0.  0.
        1    1    3    3  502    0 -0.59730864250E+02  0.15242507073E+02  0.57698962393E+03  0.58027332897E+03  0.50400001928E-02 0.  1.
       -1    1    3    3    0  502  0.59730864250E+02 -0.15242507073E+02 -0.43248175985E+03  0.43685304485E+03  0.50400001928E-02 0. -1.
</event>
<event>
 5   0  0.6022787E-03  0.1001305E+04  0.7818609E-02  0.9307115E-01
        2   -1    0    0  501    0  0.00000000000E+00  0.00000000000E+00  0.70824068928E+03  0.70824068929E+03  0.25500000920E-02 0. -1.
       -2   -1    0    0    0  501  0.00000000000E+00  0.00000000000E+00 -0.35390896663E+03  0.35390896664E+03  0.25500000920E-02 0.  1.
    10030    2    1    2    0    0  0.00000000000E+00  0.00000000000E+00  0.35433172265E+03  0.10621496559E+04  0.10013046100E+04 0.  0.
        5    1    3    3  502    0 -0.10783445238E+03  0.22623855178E+03 -0.28254913211E+03  0.37771451321E+03  0.46999998093E+01 0.  1.
       -5    1    3    3    0  502  0.10783445238E+03 -0.22623855178E+03  0.63688085476E+03  0.68443514272E+03  0.46999998093E+01 0. -1.
</event>
<event>
 5   0  0.3569359E-03  0.9997040E+03  0.7818609E-02  0.9308870E-01
       -1   -1    0    0    0  501  0.00000000000E+00  0.00000000000E+00  0.29897945362E+03  0.29897945366E+03  0.50400001928E-02 0. -1.
        1   -1    0    0  501    0  0.00000000000E+00  0.00000000000E+00 -0.83568291808E+03  0.83568291809E+03  0.50400001928E-02 0.  1.
    10030    2    1    2    0    0  0.00000000000E+00  0.00000000000E+00 -0.53670346446E+03  0.11346623718E+04  0.99970400075E+03 0.  0.
        4    1    3    3  502    0  0.31871032979E+03  0.38392963850E+03 -0.23483240966E+03  0.55147630516E+03  0.12699999809E+01 0.  1.
       -4    1    3    3    0  502 -0.31871032979E+03 -0.38392963850E+03 -0.30187105480E+03  0.58318606659E+03  0.12699999809E+01 0. -1.
</event>
<event>
 5   0  0.3466598E-03  0.9968417E+03  0.7818609E-02  0.9312016E-01
        1   -1    0    0  501    0  0.00000000000E+00  0.00000000000E+00  0.58204010716E+03  0.58204010718E+03  0.50400001928E-02 0. -1.
       -1   -1    0    0    0  501  0.00000000000E+00  0.00000000000E+00 -0.42681485183E+03  0.42681485186E+03  0.50400001928E-02 0.  1.
    10030    2    1    2    0    0  0.00000000000E+00  0.00000000000E+00  0.15522525533E+03  0.10088549590E+04  0.99684173693E+03 0.  0.
        3    1    3    3  502    0 -0.31100194778E+03  0.36235099848E+03 -0.66947462230E+02  0.48218505838E+03  0.10100000352E+00 0.  1.
       -3    1    3    3    0  502  0.31100194778E+03 -0.36235099848E+03  0.22217271756E+03  0.52666990065E+03  0.10100000352E+00 0. -1.
</event>
<event>
 5   0  0.2417750E-03  0.9942158E+03  0.7818609E-02  0.9314912E-01
       -3   -1    0    0    0  501  0.00000000000E+00  0.00000000000E+00  0.33594345840E+03  0.33594347359E+03  0.10100000352E+00 0.  1.
        3   -1    0    0  501    0  0.00000000000E+00  0.00000000000E+00 -0.73558877403E+03  0.73558878096E+03  0.10100000352E+00 0. -1.
    10030    2    1    2    0    0  0.00000000000E+00  0.00000000000E+00 -0.39964531563E+03  0.10715322545E+04  0.99421576845E+03 0.  0.
        1    1    3    3  502    0 -0.87491222505E+02  0.13489036008E+03 -0.70679243165E+03  0.72484871850E+03  0.50400001928E-02 0. -1.
       -1    1    3    3    0  502  0.87491222505E+02 -0.13489036008E+03  0.30714711602E+03  0.34668353604E+03  0.50400001928E-02 0.  1.
</event>
<event>
 5   0  0.3643002E-03  0.9931236E+03  0.7818609E-02  0.9316119E-01
        1   -1    0    0  501    0  0.00000000000E+00  0.00000000000E+00  0.23502032974E+04  0.23502032974E+04  0.50400001928E-02 0.  1.
       -1   -1    0    0    0  501  0.00000000000E+00  0.00000000000E+00 -0.10491587382E+03  0.10491587394E+03  0.50400001928E-02 0. -1.
    10030    2    1    2    0    0  0.00000000000E+00  0.00000000000E+00  0.22452874235E+04  0.24551191713E+04  0.99312362322E+03 0.  0.
        2    1    3    3  502    0  0.20496390260E+03 -0.23963736816E+03  0.20709109569E+04  0.20947812442E+04  0.25500000920E-02 0.  1.
       -2    1    3    3    0  502 -0.20496390260E+03  0.23963736816E+03  0.17437646663E+03  0.36033792710E+03  0.25500000920E-02 0. -1.
</event>
<event>
 5   0  0.2417750E-03  0.1003218E+04  0.7818609E-02  0.9305023E-01
        3   -1    0    0  501    0  0.00000000000E+00  0.00000000000E+00  0.14956385514E+04  0.14956385548E+04  0.10100000352E+00 0.  1.
       -3   -1    0    0    0  501  0.00000000000E+00  0.00000000000E+00 -0.16823011794E+03  0.16823014826E+03  0.10100000352E+00 0. -1.
    10030    2    1    2    0    0  0.00000000000E+00  0.00000000000E+00  0.13274084335E+04  0.16638687031E+04  0.10032177789E+04 0.  0.
        5    1    3    3  502    0  0.21282276818E+03  0.36181006161E+03  0.20831914071E+03  0.46863525872E+03  0.46999998093E+01 0. -1.
       -5    1    3    3    0  502 -0.21282276818E+03 -0.36181006161E+03  0.11190892928E+04  0.11952334443E+04  0.46999998093E+01 0.  1.
</event>
<event>
 5   0  0.6360455E-03  0.9927427E+03  0.7818609E-02  0.9316541E-01
        2   -1    0    0  501    0  0.00000000000E+00  0.00000000000E+00  0.24787965986E+03  0.24787965987E+03  0.25500000920E-02 0. -1.
       -2   -1    0    0    0  501  0.00000000000E+00  0.00000000000E+00 -0.99396818339E+03  0.99396818339E+03  0.25500000920E-02 0.  1.
    10030    2    1    2    0    0  0.00000000000E+00  0.00000000000E+00 -0.74608852353E+03  0.12418478433E+04  0.99274265591E+03 0.  0.
        4    1    3    3  502    0  0.88955550550E+02  0.43379654953E+03 -0.65357084110E+03  0.78946120461E+03  0.12699999809E+01 0.  1.
       -4    1    3    3    0  502 -0.88955550550E+02 -0.43379654953E+03 -0.92517682434E+02  0.45238663865E+03  0.12699999809E+01 0. -1.
</event>
<event>
 5   0  0.3608845E-03  0.9904461E+03  0.7818609E-02  0.9319086E-01
       -1   -1    0    0    0  501  0.00000000000E+00  0.00000000000E+00  0.17846121810E+03  0.17846121817E+03  0.50400001928E-02 0.  1.
        1   -1    0    0  501    0  0.00000000000E+00  0.00000000000E+00 -0.13742251246E+04  0.13742251246E+04  0.50400001928E-02 0. -1.
    10030    2    1    2    0    0  0.00000000000E+00  0.00000000000E+00 -0.11957639065E+04  0.15526863428E+04  0.99044614137E+03 0.  0.
        1    1    3    3  502    0 -0.39546588007E+03 -0.29506286875E+03 -0.66421711290E+03  0.82742959332E+03  0.50400001928E-02 0. -1.
       -1    1    3    3    0  502  0.39546588007E+03  0.29506286875E+03 -0.53154679358E+03  0.72525674944E+03  0.50400001928E-02 0.  1.
</event>
<event>
 5   0  0.3466598E-03  0.9879022E+03  0.7818609E-02  0.9321914E-01
        1   -1    0    0  501    0  0.00000000000E+00  0.00000000000E+00  0.35709139145E+03  0.35709139149E+03  0.50400001928E-02 0. -1.
       -1   -1    0    0    0  501  0.00000000000E+00  0.00000000000E+00 -0.68326400821E+03  0.68326400822E+03  0.50400001928E-02 0.  1.
    10030    2    1    2    0    0  0.00000000000E+00  0.00000000000E+00 -0.32617261675E+03  0.10403553997E+04  0.98790221267E+03 0.  0.
        3    1    3    3  502    0 -0.48221012844E+03 -0.37242577537E+02 -0.26878514321E+03  0.55331643836E+03  0.10100000352E+00 0. -1.
       -3    1    3    3    0  502  0.48221012844E+03  0.37242577537E+02 -0.57387473538E+02  0.48703896135E+03  0.10100000352E+00 0.  1.
</event>
<event>
 5   0  0.6199539E-03  0.1013796E+04  0.7818609E-02  0.9293541E-01
       -2   -1    0    0    0  501  0.00000000000E+00  0.00000000000E+00  0.34935953824E+03  0.34935953825E+03  0.25500000920E-02 0.  1.
        2   -1    0    0  501    0  0.00000000000E+00  0.00000000000E+00 -0.73547661535E+03  0.73547661536E+03  0.25500000920E-02 0. -1.
    10030    2    1    2    0    0  0.00000000000E+00  0.00000000000E+00 -0.38611707711E+03  0.10848361536E+04  0.10137963715E+04 0.  0.
        2    1    3    3  502    0  0.45851779275E+03  0.14227666618E+03 -0.18979807082E+02  0.48045962275E+03  0.25500000920E-02 0.  1.
       -2    1    3    3    0  502 -0.45851779275E+03 -0.14227666618E+03 -0.36713727003E+03  0.60437653086E+03  0.25500000920E-02 0. -1.
</event>
<event>
 5   0  0.6360455E-03  0.9995687E+03  0.7818609E-02  0.9309018E-01
       -2   -1    0    0    0  501  0.00000000000E+00  0.00000000000E+00  0.34226422797E+03  0.34226422798E+03  0.25500000920E-02 0. -1.
        2   -1    0    0  501    0  0.00000000000E+00  0.00000000000E+00 -0.72979992456E+03  0.72979992457E+03  0.25500000920E-02 0.  1.
    10030    2    1    2    0    0  0.00000000000E+00  0.00000000000E+00 -0.38753569659E+03  0.10720641525E+04  0.99956872253E+03 0.  0.
        4    1    3    3  502    0  0.44666854679E+03  0.12870730232E+03  0.31348368782E+01  0.46485460142E+03  0.12699999809E+01 0. -1.
       -4    1    3    3    0  502 -0.44666854679E+03 -0.12870730232E+03 -0.39067053347E+03  0.60720955113E+03  0.12699999809E+01 0.  1.
</event>
<event>
 5   0  0.3640180E-03  0.9683744E+03  0.7818609E-02  0.9343928E-01
        1   -1    0    0  501    0  0.00000000000E+00  0.00000000000E+00  0.46097793792E+03  0.46097793795E+03  0.50400001928E-02 0. -1.
       -1   -1    0    0    0  501  0.00000000000E+00  0.00000000000E+00 -0.50856495072E+03  0.50856495074E+03  0.50400001928E-02 0.  1.
    10030    2    1    2    0    0  0.00000000000E+00  0.00000000000E+00 -0.47587012799E+02  0.96954288869E+03  0.96837435387E+03 0.  0.
        5    1    3    3  502    0  0.27213365699E+02 -0.34859045174E+03 -0.35909950082E+03  0.50122890160E+03  0.46999998093E+01 0.  1.
       -5    1    3    3    0  502 -0.27213365699E+02  0.34859045174E+03  0.31151248802E+03  0.46831398709E+03  0.46999998093E+01 0. -1.
</event>
<event>
 5   0  0.6360455E-03  0.9857602E+03  0.7818609E-02  0.9324302E-01
        2   -1    0    0  501    0  0.00000000000E+00  0.00000000000E+00  0.14001967074E+04  0.14001967075E+04  0.25500000920E-02 0. -1.
       -2   -1    0    0    0  501  0.00000000000E+00  0.00000000000E+00 -0.17349761689E+03  0.17349761690E+03  0.25500000920E-02 0.  1.
    10030    2    1    2    0    0  0.00000000000E+00  0.00000000000E+00  0.12266990906E+04  0.15736943244E+04  0.98576019788E+03 0.  0.
        4    1    3    3  502    0 -0.25019052918E+03  0.17921707025E+03 -0.12544154354E+01  0.30776167016E+03  0.12699999809E+01 0.  1.
       -4    1    3    3    0  502  0.25019052918E+03 -0.17921707025E+03  0.12279535060E+04  0.12659326542E+04  0.12699999809E+01 0. -1.
</event>
<event>
 5   0  0.3643002E-03  0.9963290E+03  0.7818609E-02  0.9312580E-01
       -1   -1    0    0    0  501  0.00000000000E+00  0.00000000000E+00  0.97476634667E+03  0.97476634668E+03  0.50400001928E-02 0. -1.
        1   -1    0    0  501    0  0.00000000000E+00  0.00000000000E+00 -0.25459215508E+03  0.25459215513E+03  0.50400001928E-02 0.  1.
    10030    2    1    2    0    0  0.00000000000E+00  0.00000000000E+00  0.72017419159E+03  0.12293585018E+04  0.99632899171E+03 0.  0.
        2    1    3    3  502    0 -0.45158528800E+03  0.20995589848E+03  0.34462094528E+03  0.60561897888E+03  0.25500000920E-02 0. -1.
       -2    1    3    3    0  502  0.45158528800E+03 -0.20995589848E+03  0.37555324631E+03  0.62373952293E+03  0.25500000920E-02 0.  1.
</event>
<event>
 5   0  0.6022787E-03  0.1020065E+04  0.7818609E-02  0.9286807E-01
        2   -1    0    0  501    0  0.00000000000E+00  0.00000000000E+00  0.47241573335E+03  0.47241573335E+03  0.25500000920E-02 0. -1.
       -2   -1    0    0    0  501  0.00000000000E+00  0.00000000000E+00 -0.55064503601E+03  0.55064503602E+03  0.25500000920E-02 0.  1.
    10030    2    1    2    0    0  0.00000000000E+00  0.00000000000E+00 -0.78229302669E+02  0.10230607694E+04  0.10200654460E+04 0.  0.
        5    1    3    3  502    0  0.50183604207E+03  0.51541072102E+01  0.51955677379E+02  0.50456660646E+03  0.46999998093E+01 0. -1.
       -5    1    3    3    0  502 -0.50183604207E+03 -0.51541072102E+01 -0.13018498005E+03  0.51849416291E+03  0.46999998093E+01 0.  1.
</event>
<event>
 5   0  0.3569359E-03  0.1000722E+04  0.7818609E-02  0.9307754E-01
        1   -1    0    0  501    0  0.00000000000E+00  0.00000000000E+00  0.65213984623E+03  0.65213984625E+03  0.50400001928E-02 0. -1.
       -1   -1    0    0    0  501  0.00000000000E+00  0.00000000000E+00 -0.38390675707E+03  0.38390675710E+03  0.50400001928E-02 0.  1.
    10030    2    1    2    0    0  0.00000000000E+00  0.00000000000E+00  0.26823308916E+03  0.10360466034E+04  0.10007215268E+04 0.  0.
        4    1    3    3  502    0 -0.23718949656E+03 -0.39017162814E+02  0.58844452086E+03  0.63564908818E+03  0.12699999809E+01 0. -1.
       -4    1    3    3    0  502  0.23718949656E+03  0.39017162814E+02 -0.32021143169E+03  0.40039751518E+03  0.12699999809E+01 0.  1.
</event>
<event>
 5   0  0.6376961E-03  0.9853975E+03  0.7818609E-02  0.9324707E-01
       -2   -1    0    0    0  501  0.00000000000E+00  0.00000000000E+00  0.34096280987E+03  0.34096280988E+03  0.25500000920E-02 0.  1.
        2   -1    0    0  501    0  0.00000000000E+00  0.00000000000E+00 -0.71196051687E+03  0.71196051688E+03  0.25500000920E-02 0. -1.
    10030    2    1    2    0    0  0.00000000000E+00  0.00000000000E+00 -0.37099770700E+03  0.10529233268E+04  0.98539750022E+03 0.  0.
        3    1    3    3  502    0 -0.40342833453E+03  0.12733538345E+03  0.84361370187E+02  0.43137636927E+03  0.10100000352E+00 0.  1.
       -3    1    3    3    0  502  0.40342833453E+03 -0.12733538345E+03 -0.45535907719E+03  0.62154695749E+03  0.10100000352E+00 0. -1.
</event>
<event>
 5   0  0.2417750E-03  0.1064644E+04  0.7818609E-02  0.9240354E-01
       -4   -1    0    0    0  501  0.00000000000E+00  0.00000000000E+00  0.49621339632E+03  0.49621502153E+03  0.12699999809E+01 0. -1.
        4   -1    0    0  501    0  0.00000000000E+00  0.00000000000E+00 -0.57105498280E+03  0.57105639501E+03  0.12699999809E+01 0.  1.
    10030    2    1    2    0    0  0.00000000000E+00  0.00000000000E+00 -0.74841586472E+02  0.10672714165E+04  0.10646440783E+04 0.  0.
        3    1    3    3  502    0 -0.46855969487E+03  0.11285568001E+03  0.18915057318E+03  0.51774756562E+03  0.10100000352E+00 0. -1.
       -3    1    3    3    0  502  0.46855969487E+03 -0.11285568001E+03 -0.26399215965E+03  0.54952385092E+03  0.10100000352E+00 0.  1.
</event>
<event>
 5   0  0.6199539E-03  0.1006396E+04  0.7818609E-02  0.9301558E-01
        2   -1    0    0  501    0  0.00000000000E+00  0.00000000000E+00  0.25570394263E+03  0.25570394264E+03  0.25500000920E-02 0.  1.
       -2   -1    0    0    0  501  0.00000000000E+00  0.00000000000E+00 -0.99023961719E+03  0.99023961719E+03  0.25500000920E-02 0. -1.
    10030    2    1    2    0    0  0.00000000000E+00  0.00000000000E+00 -0.73453567456E+03  0.12459435598E+04  0.10063958948E+04 0.  0.
        2    1    3    3  502    0 -0.44308906443E+03 -0.20251797661E+03 -0.52321344679E+03  0.71490821842E+03  0.25500000920E-02 0. -1.
       -2    1    3    3    0  502  0.44308906443E+03  0.20251797661E+03 -0.21132222778E+03  0.53103534141E+03  0.25500000920E-02 0.  1.
</event>
<event>
 5   0  0.2417750E-03  0.9857492E+03  0.7818609E-02  0.9324314E-01
        3   -1    0    0  501    0  0.00000000000E+00  0.00000000000E+00  0.21676463887E+03  0.21676466240E+03  0.10100000352E+00 0.  1.
       -3   -1    0    0    0  501  0.00000000000E+00  0.00000000000E+00 -0.11206871403E+04  0.11206871448E+04  0.10100000352E+00 0. -1.
    10030    2    1    2    0    0  0.00000000000E+00  0.00000000000E+00 -0.90392250140E+03  0.13374518072E+04  0.98574918112E+03 0.  0.
        2    1    3    3  502    0 -0.98327918338E+02  0.17702412979E+03 -0.10616396150E+04  0.10807796233E+04  0.25500000920E-02 0. -1.
       -2    1    3    3    0  502  0.98327918338E+02 -0.17702412979E+03  0.15771711360E+03  0.25667218389E+03  0.25500000920E-02 0.  1.
</event>
<event>
 5   0  0.6360455E-03  0.1002636E+04  0.7818609E-02  0.9305659E-01
        2   -1    0    0  501    0  0.00000000000E+00  0.00000000000E+00  0.78659599617E+03  0.78659599618E+03  0.25500000920E-02 0. -1.
       -2   -1    0    0    0  501  0.00000000000E+00  0.00000000000E+00 -0.31950276409E+03  0.31950276410E+03  0.25500000920E-02 0.  1.
    10030    2    1    2    0    0  0.00000000000E+00  0.00000000000E+00  0.46709323209E+03  0.11060987603E+04  0.10026357165E+04 0.  0.
        4    1    3    3  502    0  0.22153677567E+03 -0.27865675046E+03  0.62294314301E+03  0.71748721234E+03  0.12699999809E+01 0. -1.
       -4    1    3    3    0  502 -0.22153677567E+03  0.27865675046E+03 -0.15584991092E+03  0.38861154793E+03  0.12699999809E+01 0.  1.
</event>
<event>
 5   0  0.6022787E-03  0.1000250E+04  0.7818609E-02  0.9308271E-01
        2   -1    0    0  501    0  0.00000000000E+00  0.00000000000E+00  0.10377140264E+04  0.10377140264E+04  0.25500000920E-02 0.  1.
       -2   -1    0    0    0  501  0.00000000000E+00  0.00000000000E+00 -0.24103469328E+03  0.24103469329E+03  0.25500000920E-02 0. -1.
    10030    2    1    2    0    0  0.00000000000E+00  0.00000000000E+00  0.79667933308E+03  0.12787487197E+04  0.10002501329E+04 0.  0.
        5    1    3    3  502    0  0.21073682444E+03 -0.14779081823E+03  0.94650229455E+03  0.98088777071E+03  0.46999998093E+01 0.  1.
       -5    1    3    3    0  502 -0.21073682444E+03  0.14779081823E+03 -0.14982296147E+03  0.29786094895E+03  0.46999998093E+01 0. -1.
</event>
<event>
 5   0  0.3569359E-03  0.1010070E+04  0.7818609E-02  0.9297569E-01
       -1   -1    0    0    0  501  0.00000000000E+00  0.00000000000E+00  0.20491090365E+03  0.20491090371E+03  0.50400001928E-02 0.  1.
        1   -1    0    0  501    0  0.00000000000E+00  0.00000000000E+00 -0.12447367510E+04  0.12447367510E+04  0.50400001928E-02 0. -1.
    10030    2    1    2    0    0  0.00000000000E+00  0.00000000000E+00 -0.10398258474E+04  0.14496476547E+04  0.10100695669E+04 0.  0.
        4    1    3    3  502    0  0.17428002658E+03 -0.44317847232E+02  0.15740361047E+03  0.23898767486E+03  0.12699999809E+01 0.  1.
       -4    1    3    3    0  502 -0.17428002658E+03  0.44317847232E+02 -0.11972294578E+04  0.12106599799E+04  0.12699999809E+01 0. -1.
</event>
<event>
 5   0  0.2417750E-03  0.9932455E+03  0.7818609E-02  0.9315984E-01
        4   -1    0    0  501    0  0.00000000000E+00  0.00000000000E+00  0.19943924486E+03  0.19944328841E+03  0.12699999809E+01 0. -1.
       -4   -1    0    0    0  501  0.00000000000E+00  0.00000000000E+00 -0.12366210851E+04  0.12366217373E+04  0.12699999809E+01 0.  1.
    10030    2    1    2    0    0  0.00000000000E+00  0.00000000000E+00 -0.10371818403E+04  0.14360650257E+04  0.99324548234E+03 0.  0.
        5    1    3    3  502    0 -0.29203536539E+03 -0.39584389549E+03 -0.61702443126E+03  0.78912501101E+03  0.46999998093E+01 0.  1.
       -5    1    3    3    0  502  0.29203536539E+03  0.39584389549E+03 -0.42015740903E+03  0.64694001468E+03  0.46999998093E+01 0. -1.
</event>
<event>
 5   0  0.6022787E-03  0.9445504E+03  0.7818609E-02  0.9371543E-01
        2   -1    0    0  501    0  0.00000000000E+00  0.00000000000E+00  0.52684316993E+03  0.52684316993E+03  0.25500000920E-02 0.  1.
       -2   -1    0    0    0  501  0.00000000000E+00  0.00000000000E+00 -0.42335915961E+03  0.42335915961E+03  0.25500000920E-02 0. -1.
    10030    2    1    2    0    0  0.00000000000E+00  0.00000000000E+00  0.10348401032E+03  0.95020232955E+03  0.94455043629E+03 0.  0.
        5    1    3    3  502    0  0.30660841437E+03  0.13514513250E+03 -0.28303882353E+03  0.43864107448E+03  0.46999998093E+01 0. -1.
       -5    1    3    3    0  502 -0.30660841437E+03 -0.13514513250E+03  0.38652283385E+03  0.51156125507E+03  0.46999998093E+01 0.  1.
</event>
<event>
 5   0  0.3466598E-03  0.9915017E+03  0.7818609E-02  0.9317915E-01
       -1   -1    0    0    0  501  0.00000000000E+00  0.00000000000E+00  0.29907771142E+03  0.29907771146E+03  0.50400001928E-02 0. -1.
        1   -1    0    0  501    0  0.00000000000E+00  0.00000000000E+00 -0.82175597218E+03  0.82175597219E+03  0.50400001928E-02 0.  1.
    10030    2    1    2    0    0  0.00000000000E+00  0.00000000000E+00 -0.52267826076E+03  0.11208336837E+04  0.99150168035E+03 0.  0.
        3    1    3    3  502    0  0.14684342112E+03  0.44140121460E+03 -0.45507323123E+03  0.65076084590E+03  0.10100000352E+00 0.  1.
       -3    1    3    3    0  502 -0.14684342112E+03 -0.44140121460E+03 -0.67605029537E+02  0.47007283775E+03  0.10100000352E+00 0. -1.
</event>
<event>
 5   0  0.6606947E-03  0.1018172E+04  0.7818609E-02  0.9288835E-01
        2   -1    0    0  501    0  0.00000000000E+00  0.00000000000E+00  0.13718777717E+04  0.13718777717E+04  0.25500000920E-02 0.  1.
       -2   -1    0    0    0  501  0.00000000000E+00  0.00000000000E+00 -0.18891531463E+03  0.18891531465E+03  0.25500000920E-02 0. -1.
    10030    2    1    2    0    0  0.00000000000E+00  0.00000000000E+00  0.11829624571E+04  0.15607930863E+04  0.10181723251E+04 0.  0.
        1    1    3    3  502    0 -0.49191416750E+03  0.11033736191E+03  0.70003690864E+03  0.86267349276E+03  0.50400001928E-02 0.  1.
       -1    1    3    3    0  502  0.49191416750E+03 -0.11033736191E+03  0.48292554841E+03  0.69811959359E+03  0.50400001928E-02 0. -1.
</event>
<event>
 5   0  0.3608845E-03  0.9964736E+03  0.7818609E-02  0.9312421E-01
       -1   -1    0    0    0  501  0.00000000000E+00  0.00000000000E+00  0.50359204444E+03  0.50359204447E+03  0.50400001928E-02 0.  1.
        1   -1    0    0  501    0  0.00000000000E+00  0.00000000000E+00 -0.49293849948E+03  0.49293849951E+03  0.50400001928E-02 0. -1.
    10030    2    1    2    0    0  0.00000000000E+00  0.00000000000E+00  0.10653544965E+02  0.99653054397E+03  0.99647359576E+03 0.  0.
        1    1    3    3  502    0 -0.16368633650E+03 -0.30389516592E+03 -0.35399087801E+03  0.49442393790E+03  0.50400001928E-02 0. -1.
       -1    1    3    3    0  502  0.16368633650E+03  0.30389516592E+03  0.36464442298E+03  0.50210660607E+03  0.50400001928E-02 0.  1.
</event>
<event>
 5   0  0.6606947E-03  0.9869745E+03  0.7818609E-02  0.9322947E-01
       -2   -1    0    0    0  501  0.00000000000E+00  0.00000000000E+00  0.43743416667E+03  0.43743416668E+03  0.25500000920E-02 0.  1.
        2   -1    0    0  501    0  0.00000000000E+00  0.00000000000E+00 -0.55672305936E+03  0.55672305936E+03  0.25500000920E-02 0. -1.
    10030    2    1    2    0    0  0.00000000000E+00  0.00000000000E+00 -0.11928889268E+03  0.99415722604E+03  0.98697454383E+03 0.  0.
        1    1    3    3  502    0  0.20517604575E+03 -0.11559452494E+03  0.37718240606E+03  0.44466377344E+03  0.50400001928E-02 0.  1.
       -1    1    3    3    0  502 -0.20517604575E+03  0.11559452494E+03 -0.49647129875E+03  0.54949345260E+03  0.50400001928E-02 0. -1.
</event>
<event>
 5   0  0.6606947E-03  0.1003607E+04  0.7818609E-02  0.9304598E-01
        2   -1    0    0  501    0  0.00000000000E+00  0.00000000000E+00  0.36997704057E+03  0.36997704058E+03  0.25500000920E-02 0.  1.
       -2   -1    0    0    0  501  0.00000000000E+00  0.00000000000E+00 -0.68060081723E+03  0.68060081723E+03  0.25500000920E-02 0. -1.
    10030    2    1    2    0    0  0.00000000000E+00  0.00000000000E+00 -0.31062377666E+03  0.10505778578E+04  0.10036068477E+04 0.  0.
        1    1    3    3  502    0  0.43930253152E+03  0.17584107787E+03 -0.33016194358E+03  0.57698674845E+03  0.50400001928E-02 0. -1.
       -1    1    3    3    0  502 -0.43930253152E+03 -0.17584107787E+03  0.19538166925E+02  0.47359110936E+03  0.50400001928E-02 0.  1.
</event>
<event>
 5   0  0.6022787E-03  0.9967812E+03  0.7818609E-02  0.9312082E-01
        2   -1    0    0  501    0  0.00000000000E+00  0.00000000000E+00  0.32043452973E+03  0.32043452974E+03  0.25500000920E-02 0. -1.
       -2   -1    0    0    0  501  0.00000000000E+00  0.00000000000E+00 -0.77517614494E+03  0.77517614495E+03  0.25500000920E-02 0.  1.
    10030    2    1    2    0    0  0.00000000000E+00  0.00000000000E+00 -0.45474161521E+03  0.10956106747E+04  0.99678122669E+03 0.  0.
        5    1    3    3  502    0 -0.65527157704E+02 -0.48723751973E+03 -0.13755681862E+03  0.51052735223E+03  0.46999998093E+01 0.  1.
       -5    1    3    3    0  502  0.65527157704E+02  0.48723751973E+03 -0.31718479659E+03  0.58508332245E+03  0.46999998093E+01 0. -1.
</event>
<event>
 5   0  0.6376961E-03  0.9835628E+03  0.7818609E-02  0.9326759E-01
        2   -1    0    0  501    0  0.00000000000E+00  0.00000000000E+00  0.13646677618E+04  0.13646677618E+04  0.25500000920E-02 0. -1.
       -2   -1    0    0    0  501  0.00000000000E+00  0.00000000000E+00 -0.17722183419E+03  0.17722183421E+03  0.25500000920E-02 0.  1.
    10030    2    1    2    0    0  0.00000000000E+00  0.00000000000E+00  0.11874459276E+04  0.15418895960E+04  0.98356275616E+03 0.  0.
        3    1    3    3  502    0  0.23447809371E+03 -0.36457925191E+03  0.22959789898E+03  0.49052340695E+03  0.10100000352E+00 0.  1.
       -3    1    3    3    0  502 -0.23447809371E+03  0.36457925191E+03  0.95784802863E+03  0.10513661891E+04  0.10100000352E+00 0. -1.
</event>
<event>
 5   0  0.3643002E-03  0.9292985E+03  0.7818609E-02  0.9389680E-01
       -1   -1    0    0    0  501  0.00000000000E+00  0.00000000000E+00  0.47855118237E+03  0.47855118240E+03  0.50400001928E-02 0. -1.
        1   -1    0    0  501    0  0.00000000000E+00  0.00000000000E+00 -0.45115118990E+03  0.45115118992E+03  0.50400001928E-02 0.  1.
    10030    2    1    2    0    0  0.00000000000E+00  0.00000000000E+00  0.27399992476E+02  0.92970237232E+03  0.92929852121E+03 0.  0.
        2    1    3    3  502    0 -0.27286220279E+03 -0.19401236630E+03 -0.30862685157E+03  0.45535163720E+03  0.25500000920E-02 0.  1.
       -2    1    3    3    0  502  0.27286220279E+03  0.19401236630E+03  0.33602684404E+03  0.47435073512E+03  0.25500000920E-02 0. -1.
</event>
<event>
 5   0  0.3466598E-03  0.9982941E+03  0.7818609E-02  0.9310418E-01
       -1   -1    0    0    0  501  0.00000000000E+00  0.00000000000E+00  0.30493322397E+03  0.30493322402E+03  0.50400001928E-02 0.  1.
        1   -1    0    0  501    0  0.00000000000E+00  0.00000000000E+00 -0.81705685977E+03  0.81705685979E+03  0.50400001928E-02 0. -1.
    10030    2    1    2    0    0  0.00000000000E+00  0.00000000000E+00 -0.51212363580E+03  0.11219900838E+04  0.99829410987E+03 0.  0.
        3    1    3    3  502    0 -0.48017091246E+03  0.13023707833E+03 -0.30132571961E+03  0.58165539733E+03  0.10100000352E+00 0. -1.
       -3    1    3    3    0  502  0.48017091246E+03 -0.13023707833E+03 -0.21079791618E+03  0.54033468647E+03  0.10100000352E+00 0.  1.
</event>
<event>
 5   0  0.2417750E-03  0.9966160E+03  0.7818609E-02  0.9312264E-01
       -3   -1    0    0    0  501  0.00000000000E+00  0.00000000000E+00  0.26194425110E+03  0.26194427057E+03  0.10100000352E+00 0. -1.
        3   -1    0    0  501    0  0.00000000000E+00  0.00000000000E+00 -0.94795311319E+03  0.94795311857E+03  0.10100000352E+00 0.  1.
    10030    2    1    2    0    0  0.00000000000E+00  0.00000000000E+00 -0.68600886209E+03  0.12098973891E+04  0.99661604110E+03 0.  0.
        4    1    3    3  502    0  0.34276262949E+03 -0.17870141699E+03  0.38759011353E+02  0.38848975594E+03  0.12699999809E+01 0. -1.
       -4    1    3    3    0  502 -0.34276262949E+03  0.17870141699E+03 -0.72476787344E+03  0.82140763320E+03  0.12699999809E+01 0.  1.
</event>
<event>
 5   0  0.3643002E-03  0.1021542E+04  0.7818609E-02  0.9285229E-01
        1   -1    0    0  501    0  0.00000000000E+00  0.00000000000E+00  0.14069994144E+04  0.14069994144E+04  0.50400001928E-02 0. -1.
       -1   -1    0    0    0  501  0.00000000000E+00  0.00000000000E+00 -0.18542079706E+03  0.18542079713E+03  0.50400001928E-02 0.  1.
    10030    2    1    2    0    0  0.00000000000E+00  0.00000000000E+00  0.12215786173E+04  0.15924202115E+04  0.10215418796E+04 0.  0.
        2    1    3    3  502    0 -0.29624588456E+03 -0.17461797846E+02  0.12588251501E+04  0.12933318588E+04  0.25500000920E-02 0. -1.
       -2    1    3    3    0  502  0.29624588456E+03  0.17461797846E+02 -0.37246532803E+02  0.29908835269E+03  0.25500000920E-02 0.  1.
</event>
<event>
 5   0  0.3608845E-03  0.9780902E+03  0.7818609E-02  0.9332907E-01
        1   -1    0    0  501    0  0.00000000000E+00  0.00000000000E+00  0.38705873063E+03  0.38705873066E+03  0.50400001928E-02 0. -1.
       -1   -1    0    0    0  501  0.00000000000E+00  0.00000000000E+00 -0.61790388157E+03  0.61790388159E+03  0.50400001928E-02 0.  1.
    10030    2    1    2    0    0  0.00000000000E+00  0.00000000000E+00 -0.23084515094E+03  0.10049626123E+04  0.97809016369E+03 0.  0.
        1    1    3    3  502    0  0.23090080886E+03  0.22402212084E+02  0.32692639775E+03  0.40087144100E+03  0.50400001928E-02 0. -1.
       -1    1    3    3    0  502 -0.23090080886E+03 -0.22402212084E+02 -0.55777154869E+03  0.60409117126E+03  0.50400001928E-02 0.  1.
</event>
<event>
 5   0  0.6606947E-03  0.1003598E+04  0.7818609E-02  0.9304607E-01
       -2   -1    0    0    0  501  0.00000000000E+00  0.00000000000E+00  0.25992754882E+03  0.25992754883E+03  0.25500000920E-02 0.  1.
        2   -1    0    0  501    0  0.00000000000E+00  0.00000000000E+00 -0.96874009262E+03  0.96874009262E+03  0.25500000920E-02 0. -1.
    10030    2    1    2    0    0  0.00000000000E+00  0.00000000000E+00 -0.70881254379E+03  0.12286676415E+04  0.10035980026E+04 0.  0.
        1    1    3    3  502    0 -0.35772611425E+03 -0.84433561815E+02  0.63828182793E+02  0.37305634444E+03  0.50400001928E-02 0.  1.
       -1    1    3    3    0  502  0.35772611425E+03  0.84433561815E+02 -0.77264072659E+03  0.85561129702E+03  0.50400001928E-02 0. -1.
</event>
<event>
 5   0  0.3466598E-03  0.9889268E+03  0.7818609E-02  0.9320774E-01
       -1   -1    0    0    0  501  0.00000000000E+00  0.00000000000E+00  0.25067118425E+03  0.25067118430E+03  0.50400001928E-02 0.  1.
        1   -1    0    0  501    0  0.00000000000E+00  0.00000000000E+00 -0.97535772197E+03  0.97535772198E+03  0.50400001928E-02 0. -1.
    10030    2    1    2    0    0  0.00000000000E+00  0.00000000000E+00 -0.72468653772E+03  0.12260289063E+04  0.98892684315E+03 0.  0.
        3    1    3    3  502    0  0.25269820014E+01 -0.20317819420E+03  0.19651943723E+03  0.28267943619E+03  0.10100000352E+00 0.  1.
       -3    1    3    3    0  502 -0.25269820014E+01  0.20317819420E+03 -0.92120597495E+03  0.94334947009E+03  0.10100000352E+00 0. -1.
</event>
<event>
 5   0  0.6199539E-03  0.9902064E+03  0.7818609E-02  0.9319352E-01
        2   -1    0    0  501    0  0.00000000000E+00  0.00000000000E+00  0.21576704655E+04  0.21576704655E+04  0.25500000920E-02 0.  1.
       -2   -1    0    0    0  501  0.00000000000E+00  0.00000000000E+00 -0.11360732966E+03  0.11360732969E+03  0.25500000920E-02 0. -1.
    10030    2    1    2    0    0  0.00000000000E+00  0.00000000000E+00  0.20440631359E+04  0.22712777952E+04  0.99020640255E+03 0.  0.
        2    1    3    3  502    0  0.32713100563E+02 -0.28778222249E+03  0.19430722201E+04  0.19645402533E+04  0.25500000920E-02 0.  1.
       -2    1    3    3    0  502 -0.32713100563E+02  0.28778222249E+03  0.10099091581E+03  0.30673754190E+03  0.25500000920E-02 0. -1.
</event>
<event>
 5   0  0.3640180E-03  0.1005378E+04  0.7818609E-02  0.9302665E-01
        1   -1    0    0  501    0  0.00000000000E+00  0.00000000000E+00  0.43953335301E+03  0.43953335304E+03  0.50400001928E-02 0. -1.
       -1   -1    0    0    0  501  0.00000000000E+00  0.00000000000E+00 -0.57491986997E+03  0.57491987000E+03  0.50400001928E-02 0.  1.
    10030    2    1    2    0    0  0.00000000000E+00  0.00000000000E+00 -0.13538651696E+03  0.10144532230E+04  0.10053784525E+04 0.  0.
        5    1    3    3  502    0  0.43504461600E+03 -0.41504279169E+02  0.18291917002E+03  0.47378047223E+03  0.46999998093E+01 0. -1.
       -5    1    3    3    0  502 -0.43504461600E+03  0.41504279169E+02 -0.31830568698E+03  0.54067275081E+03  0.46999998093E+01 0.  1.
</event>
<event>
 5   0  0.6360455E-03  0.9978241E+03  0.7818609E-02  0.9310935E-01
        2   -1    0    0  501    0  0.00000000000E+00  0.00000000000E+00  0.13597801416E+04  0.13597801416E+04  0.25500000920E-02 0. -1.
       -2   -1    0    0    0  501  0.00000000000E+00  0.00000000000E+00 -0.18305401404E+03  0.18305401406E+03  0.25500000920E-02 0.  1.
    10030    2    1    2    0    0  0.00000000000E+00  0.00000000000E+00  0.11767261276E+04  0.15428341557E+04  0.99782405894E+03 0.  0.
        4    1    3    3  502    0 -0.46882547984E+03 -0.32726767145E+02  0.32943490784E+03  0.57393147956E+03  0.12699999809E+01 0.  1.
       -4    1    3    3    0  502  0.46882547984E+03  0.32726767145E+02  0.84729121974E+03  0.96890267611E+03  0.12699999809E+01 0. -1.
</event>
<event>
 5   0  0.6606947E-03  0.1004960E+04  0.7818609E-02  0.9303121E-01
       -2   -1    0    0    0  501  0.00000000000E+00  0.00000000000E+00  0.36528155801E+03  0.36528155802E+03  0.25500000920E-02 0. -1.
        2   -1    0    0  501    0  0.00000000000E+00  0.00000000000E+00 -0.69121030959E+03  0.69121030960E+03  0.25500000920E-02 0.  1.
    10030    2    1    2    0    0  0.00000000000E+00  0.00000000000E+00 -0.32592875158E+03  0.10564918676E+04  0.10049604546E+04 0.  0.
        1    1    3    3  502    0  0.49900131178E+01 -0.38029914972E+03 -0.50818371311E+03  0.63474642954E+03  0.50400001928E-02 0.  1.
       -1    1    3    3    0  502 -0.49900131178E+01  0.38029914972E+03  0.18225496153E+03  0.42174543808E+03  0.50400001928E-02 0. -1.
</event>
<event>
 5   0  0.6376961E-03  0.1007954E+04  0.7818609E-02  0.9299864E-01
       -2   -1    0    0    0  501  0.00000000000E+00  0.00000000000E+00  0.71639765188E+03  0.71639765188E+03  0.25500000920E-02 0. -1.
        2   -1    0    0  501    0  0.00000000000E+00  0.00000000000E+00 -0.35454158052E+03  0.35454158053E+03  0.25500000920E-02 0.  1.
    10030    2    1    2    0    0  0.00000000000E+00  0.00000000000E+00  0.36185607136E+03  0.10709392324E+04  0.10079538795E+04 0.  0.
        3    1    3    3  502    0  0.37895877150E+03  0.17087580191E+03  0.48366162410E+03  0.63775925474E+03  0.10100000352E+00 0. -1.
       -3    1    3    3    0  502 -0.37895877150E+03 -0.17087580191E+03 -0.12180555274E+03  0.43317997767E+03  0.10100000352E+00 0.  1.
</event>
<event>
 5   0  0.3569359E-03  0.9121114E+03  0.7818609E-02  0.9410567E-01
        1   -1    0    0  501    0  0.00000000000E+00  0.00000000000E+00  0.11488064764E+04  0.11488064764E+04  0.50400001928E-02 0. -1.
       -1   -1    0    0    0  501  0.00000000000E+00  0.00000000000E+00 -0.18104596816E+03  0.18104596823E+03  0.50400001928E-02 0.  1.
    10030    2    1    2    0    0  0.00000000000E+00  0.00000000000E+00  0.96776050826E+03  0.13298524447E+04  0.91211135462E+03 0.  0.
        4    1    3    3  502    0  0.23224582091E+03 -0.30850159984E+03  0.83764671987E+03  0.92236923119E+03  0.12699999809E+01 0. -1.
       -4    1    3    3    0  502 -0.23224582091E+03  0.30850159984E+03  0.13011378839E+03  0.40748321347E+03  0.12699999809E+01 0.  1.
</event>
<event>
 5   0  0.6360455E-03  0.1006649E+04  0.7818609E-02  0.9301282E-01
       -2   -1    0    0    0  501  0.00000000000E+00  0.00000000000E+00  0.11408848850E+04  0.11408848850E+04  0.25500000920E-02 0.  1.
        2   -1    0    0  501    0  0.00000000000E+00  0.00000000000E+00 -0.22205175527E+03  0.22205175528E+03  0.25500000920E-02 0. -1.
    10030    2    1    2    0    0  0.00000000000E+00  0.00000000000E+00  0.91883312972E+03  0.13629366403E+04  0.10066488788E+04 0.  0.
        4    1    3    3  502    0  0.21652006213E+03  0.41830256532E+03  0.21920895315E+03  0.51953070314E+03  0.12699999809E+01 0.  1.
       -4    1    3    3    0  502 -0.21652006213E+03 -0.41830256532E+03  0.69962417657E+03  0.84340593714E+03  0.12699999809E+01 0. -1.
</event>
<event>
 5   0  0.6360455E-03  0.1010037E+04  0.7818609E-02  0.9297605E-01
       -2   -1    0    0    0  501  0.00000000000E+00  0.00000000000E+00  0.25702041309E+03  0.25702041310E+03  0.25500000920E-02 0.  1.
        2   -1    0    0  501    0  0.00000000000E+00  0.00000000000E+00 -0.99230833912E+03  0.99230833912E+03  0.25500000920E-02 0. -1.
    10030    2    1    2    0    0  0.00000000000E+00  0.00000000000E+00 -0.73528792603E+03  0.12493287522E+04  0.10100366315E+04 0.  0.
        4    1    3    3  502    0 -0.90771355585E+02  0.41758460288E+03 -0.70052227576E+03  0.82057870512E+03  0.12699999809E+01 0. -1.
       -4    1    3    3    0  502  0.90771355585E+02 -0.41758460288E+03 -0.34765650266E+02  0.42875004710E+03  0.12699999809E+01 0.  1.
</event>
<event>
 5   0  0.3643002E-03  0.9957668E+03  0.7818609E-02  0.9313200E-01
        1   -1    0    0  501    0  0.00000000000E+00  0.00000000000E+00  0.27770170763E+03  0.27770170767E+03  0.50400001928E-02 0. -1.
       -1   -1    0    0    0  501  0.00000000000E+00  0.00000000000E+00 -0.89264079091E+03  0.89264079093E+03  0.50400001928E-02 0.  1.
    10030    2    1    2    0    0  0.00000000000E+00  0.00000000000E+00 -0.61493908329E+03  0.11703424986E+04  0.99576678388E+03 0.  0.
        2    1    3    3  502    0  0.47763464047E+03  0.86315113115E+02 -0.43783302942E+03  0.65366880772E+03  0.25500000920E-02 0.  1.
       -2    1    3    3    0  502 -0.47763464047E+03 -0.86315113115E+02 -0.17710605387E+03  0.51667369088E+03  0.25500000920E-02 0. -1.
</event>
<event>
 5   0  0.6606947E-03  0.1013128E+04  0.7818609E-02  0.9294262E-01
       -2   -1    0    0    0  501  0.00000000000E+00  0.00000000000E+00  0.28800590709E+03  0.28800590711E+03  0.25500000920E-02 0.  1.
        2   -1    0    0  501    0  0.00000000000E+00  0.00000000000E+00 -0.89097863748E+03  0.89097863748E+03  0.25500000920E-02 0. -1.
    10030    2    1    2    0    0  0.00000000000E+00  0.00000000000E+00 -0.60297273039E+03  0.11789845446E+04  0.10131280486E+04 0.  0.
        1    1    3    3  502    0  0.15544199834E+03  0.46830694421E+03 -0.16812376871E+03  0.52128611192E+03  0.50400001928E-02 0.  1.
       -1    1    3    3    0  502 -0.15544199834E+03 -0.46830694421E+03 -0.43484896167E+03  0.65769843267E+03  0.50400001928E-02 0. -1.
</event>
<event>
 5   0  0.3466598E-03  0.9980731E+03  0.7818609E-02  0.9310661E-01
        1   -1    0    0  501    0  0.00000000000E+00  0.00000000000E+00  0.20148716119E+03  0.20148716125E+03  0.50400001928E-02 0. -1.
       -1   -1    0    0    0  501  0.00000000000E+00  0.00000000000E+00 -0.12359967895E+04  0.12359967895E+04  0.50400001928E-02 0.  1.
    10030    2    1    2    0    0  0.00000000000E+00  0.00000000000E+00 -0.10345096283E+04  0.14374839507E+04  0.99807311236E+03 0.  0.
        3    1    3    3  502    0  0.42986847117E+03  0.16275874054E+03 -0.23738401693E+03  0.51732822446E+03  0.10100000352E+00 0. -1.
       -3    1    3    3    0  502 -0.42986847117E+03 -0.16275874054E+03 -0.79712561136E+03  0.92015572628E+03  0.10100000352E+00 0.  1.
</event>
<event>
 5   0  0.3640180E-03  0.1007860E+04  0.7818609E-02  0.9299966E-01
        1   -1    0    0  501    0  0.00000000000E+00  0.00000000000E+00  0.12785652201E+04  0.12785652201E+04  0.50400001928E-02 0.  1.
       -1   -1    0    0    0  501  0.00000000000E+00  0.00000000000E+00 -0.19861756267E+03  0.19861756274E+03  0.50400001928E-02 0. -1.
    10030    2    1    2    0    0  0.00000000000E+00  0.00000000000E+00  0.10799476574E+04  0.14771827829E+04  0.10078601248E+04 0.  0.
        5    1    3    3  502    0 -0.36629080122E+03 -0.74738160449E+02  0.44743250166E+02  0.37653524685E+03  0.46999998093E+01 0. -1.
       -5    1    3    3    0  502  0.36629080122E+03  0.74738160449E+02  0.10352044073E+04  0.11006475360E+04  0.46999998093E+01 0.  1.
</event>
<event>
 5   0  0.3640180E-03  0.9948079E+03  0.7818609E-02  0.9314258E-01
        1   -1    0    0  501    0  0.00000000000E+00  0.00000000000E+00  0.47993812726E+03  0.47993812729E+03  0.50400001928E-02 0. -1.
       -1   -1    0    0    0  501  0.00000000000E+00  0.00000000000E+00 -0.51550537978E+03  0.51550537981E+03  0.50400001928E-02 0.  1.
    10030    2    1    2    0    0  0.00000000000E+00  0.00000000000E+00 -0.35567252520E+02  0.99544350709E+03  0.99480789420E+03 0.  0.
        5    1    3    3  502    0  0.22852107470E+02  0.90685162392E+02 -0.50660632261E+03  0.51518741599E+03  0.46999998093E+01 0.  1.
       -5    1    3    3    0  502 -0.22852107470E+02 -0.90685162392E+02  0.47103907009E+03  0.48025609110E+03  0.46999998093E+01 0. -1.
</event>
<event>
 5   0  0.3643002E-03  0.1000987E+04  0.7818609E-02  0.9307463E-01
        1   -1    0    0  501    0  0.00000000000E+00  0.00000000000E+00  0.34754258180E+03  0.34754258184E+03  0.50400001928E-02 0.  1.
       -1   -1    0    0    0  501  0.00000000000E+00  0.00000000000E+00 -0.72075728000E+03  0.72075728002E+03  0.50400001928E-02 0. -1.
    10030    2    1    2    0    0  0.00000000000E+00  0.00000000000E+00 -0.37321469819E+03  0.10682998619E+04  0.10009872047E+04 0.  0.
        2    1    3    3  502    0  0.38199702099E+03  0.30735093306E+03 -0.29390422495E+03  0.57163451046E+03  0.25500000920E-02 0. -1.
       -2    1    3    3    0  502 -0.38199702099E+03 -0.30735093306E+03 -0.79310473240E+02  0.49666535139E+03  0.25500000920E-02 0.  1.
</event>
<event>
 5   0  0.6376961E-03  0.9548231E+03  0.7818609E-02  0.9359531E-01
       -2   -1    0    0    0  501  0.00000000000E+00  0.00000000000E+00  0.88052229711E+02  0.88052229748E+02  0.25500000920E-02 0.  1.
        2   -1    0    0  501    0  0.00000000000E+00  0.00000000000E+00 -0.25884841600E+04  0.25884841601E+04  0.25500000920E-02 0. -1.
    10030    2    1    2    0    0  0.00000000000E+00  0.00000000000E+00 -0.25004319303E+04  0.26765363898E+04  0.95482312899E+03 0.  0.
        3    1    3    3  502    0  0.40334153153E+02  0.10496408642E+03 -0.25508332782E+04  0.25533105426E+04  0.10100000352E+00 0. -1.
       -3    1    3    3    0  502 -0.40334153153E+02 -0.10496408642E+03  0.50401347898E+02  0.12322584721E+03  0.10100000352E+00 0.  1.
</event>
<event>
 5   0  0.6022787E-03  0.9934980E+03  0.7818609E-02  0.9315705E-01
       -2   -1    0    0    0  501  0.00000000000E+00  0.00000000000E+00  0.60456522786E+03  0.60456522786E+03  0.25500000920E-02 0. -1.
        2   -1    0    0  501    0  0.00000000000E+00  0.00000000000E+00 -0.40816036743E+03  0.40816036744E+03  0.25500000920E-02 0.  1.
    10030    2    1    2    0    0  0.00000000000E+00  0.00000000000E+00  0.19640486042E+03  0.10127255953E+04  0.99349799304E+03 0.  0.
        5    1    3    3  502    0 -0.22546205776E+03  0.41775301420E+03 -0.50869969004E+02  0.47745215898E+03  0.46999998093E+01 0.  1.
       -5    1    3    3    0  502  0.22546205776E+03 -0.41775301420E+03  0.24727482943E+03  0.53527343632E+03  0.46999998093E+01 0. -1.
</event>
<event>
 5   0  0.6199539E-03  0.9960502E+03  0.7818609E-02  0.9312888E-01
        2   -1    0    0  501    0  0.00000000000E+00  0.00000000000E+00  0.12308200027E+04  0.12308200027E+04  0.25500000920E-02 0.  1.
       -2   -1    0    0    0  501  0.00000000000E+00  0.00000000000E+00 -0.20151524836E+03  0.20151524838E+03  0.25500000920E-02 0. -1.
    10030    2    1    2    0    0  0.00000000000E+00  0.00000000000E+00  0.10293047544E+04  0.14323352511E+04  0.99605019663E+03 0.  0.
        2    1    3    3  502    0  0.16517789832E+03 -0.44195315765E+03  0.28536824056E+03  0.55139945990E+03  0.25500000920E-02 0. -1.
       -2    1    3    3    0  502 -0.16517789832E+03  0.44195315765E+03  0.74393651380E+03  0.88093579120E+03  0.25500000920E-02 0.  1.
</event>
<event>
 5   0  0.3643002E-03  0.9974008E+03  0.7818609E-02  0.9311400E-01
        1   -1    0    0  501    0  0.00000000000E+00  0.00000000000E+00  0.58375798925E+03  0.58375798927E+03  0.50400001928E-02 0. -1.
       -1   -1    0    0    0  501  0.00000000000E+00  0.00000000000E+00 -0.42603626629E+03  0.42603626632E+03  0.50400001928E-02 0.  1.
    10030    2    1    2    0    0  0.00000000000E+00  0.00000000000E+00  0.15772172296E+03  0.10097942556E+04  0.99740077036E+03 0.  0.
        2    1    3    3  502    0 -0.39179195729E+03 -0.30222620427E+03  0.15956232872E+02  0.49507193187E+03  0.25500000920E-02 0.  1.
       -2    1    3    3    0  502  0.39179195729E+03  0.30222620427E+03  0.14176549009E+03  0.51472232372E+03  0.25500000920E-02 0. -1.
</event>
<event>
 5   0  0.6606947E-03  0.9917385E+03  0.7818609E-02  0.9317653E-01
        2   -1    0    0  501    0  0.00000000000E+00  0.00000000000E+00  0.29450821638E+03  0.29450821639E+03  0.25500000920E-02 0.  1.
       -2   -1    0    0    0  501  0.00000000000E+00  0.00000000000E+00 -0.83490469255E+03  0.83490469255E+03  0.25500000920E-02 0. -1.
    10030    2    1    2    0    0  0.00000000000E+00  0.00000000000E+00 -0.54039647617E+03  0.11294129089E+04  0.99173845717E+03 0.  0.
        1    1    3    3  502    0 -0.24638751748E+03  0.35853363696E+03 -0.54121166940E+03  0.69437975829E+03  0.50400001928E-02 0. -1.
       -1    1    3    3    0  502  0.24638751748E+03 -0.35853363696E+03  0.81519322887E+00  0.43503315066E+03  0.50400001928E-02 0.  1.
</event>
<event>
 5   0  0.2417750E-03  0.1001731E+04  0.7818609E-02  0.9306648E-01
       -3   -1    0    0    0  501  0.00000000000E+00  0.00000000000E+00  0.10508843231E+04  0.10508843280E+04  0.10100000352E+00 0.  1.
        3   -1    0    0  501    0  0.00000000000E+00  0.00000000000E+00 -0.23871911361E+03  0.23871913497E+03  0.10100000352E+00 0. -1.
    10030    2    1    2    0    0  0.00000000000E+00  0.00000000000E+00  0.81216520953E+03  0.12896034630E+04  0.10017308841E+04 0.  0.
        4    1    3    3  502    0 -0.44599057472E+03  0.19537839873E+03  0.55722871004E+03  0.73999037806E+03  0.12699999809E+01 0.  1.
       -4    1    3    3    0  502  0.44599057472E+03 -0.19537839873E+03  0.25493649950E+03  0.54961308491E+03  0.12699999809E+01 0. -1.
</event>
<event>
 5   0  0.2417750E-03  0.9875516E+03  0.7818609E-02  0.9322304E-01
        4   -1    0    0  501    0  0.00000000000E+00  0.00000000000E+00  0.16105892761E+04  0.16105897769E+04  0.12699999809E+01 0. -1.
       -4   -1    0    0    0  501  0.00000000000E+00  0.00000000000E+00 -0.15137901824E+03  0.15138434550E+03  0.12699999809E+01 0.  1.
    10030    2    1    2    0    0  0.00000000000E+00  0.00000000000E+00  0.14592102579E+04  0.17619741224E+04  0.98755163465E+03 0.  0.
        5    1    3    3  502    0  0.23663126818E+03  0.41269469011E+03  0.96550373643E+03  0.10763506954E+04  0.46999998093E+01 0.  1.
       -5    1    3    3    0  502 -0.23663126818E+03 -0.41269469011E+03  0.49370652147E+03  0.68562342701E+03  0.46999998093E+01 0. -1.
</event>
<event>
 5   0  0.3608845E-03  0.1010624E+04  0.7818609E-02  0.9296969E-01
        1   -1    0    0  501    0  0.00000000000E+00  0.00000000000E+00  0.77109656556E+03  0.77109656558E+03  0.50400001928E-02 0.  1.
       -1   -1    0    0    0  501  0.00000000000E+00  0.00000000000E+00 -0.33113896671E+03  0.33113896675E+03  0.50400001928E-02 0. -1.
    10030    2    1    2    0    0  0.00000000000E+00  0.00000000000E+00  0.43995759885E+03  0.11022355323E+04  0.10106238073E+04 0.  0.
        1    1    3    3  502    0 -0.23256192617E+03  0.18893466579E+03 -0.22379429536E+03  0.37398562018E+03  0.50400001928E-02 0. -1.
       -1    1    3    3    0  502  0.23256192617E+03 -0.18893466579E+03  0.66375189422E+03  0.72824991215E+03  0.50400001928E-02 0.  1.
</event>
<event>
 5   0  0.3466598E-03  0.1001182E+04  0.7818609E-02  0.9307250E-01
        1   -1    0    0  501    0  0.00000000000E+00  0.00000000000E+00  0.82790900780E+03  0.82790900782E+03  0.50400001928E-02 0. -1.
       -1   -1    0    0    0  501  0.00000000000E+00  0.00000000000E+00 -0.30267967951E+03  0.30267967955E+03  0.50400001928E-02 0.  1.
    10030    2    1    2    0    0  0.00000000000E+00  0.00000000000E+00  0.52522932830E+03  0.11305886874E+04  0.10011817681E+04 0.  0.
        3    1    3    3  502    0 -0.34819351502E+03 -0.17610778403E+03  0.61673722639E+03  0.72980647580E+03  0.10100000352E+00 0. -1.
       -3    1    3    3    0  502  0.34819351502E+03  0.17610778403E+03 -0.91507898096E+02  0.40078221157E+03  0.10100000352E+00 0.  1.
</event>
<event>
 5   0  0.3643002E-03  0.1001880E+04  0.7818609E-02  0.9306486E-01
        1   -1    0    0  501    0  0.00000000000E+00  0.00000000000E+00  0.39238278475E+03  0.39238278478E+03  0.50400001928E-02 0. -1.
       -1   -1    0    0    0  501  0.00000000000E+00  0.00000000000E+00 -0.63953023151E+03  0.63953023153E+03  0.50400001928E-02 0.  1.
    10030    2    1    2    0    0  0.00000000000E+00  0.00000000000E+00 -0.24714744676E+03  0.10319130163E+04  0.10018795401E+04 0.  0.
        2    1    3    3  502    0  0.92364877516E+02  0.39113216153E+03  0.18443079900E+03  0.44218814775E+03  0.25500000920E-02 0. -1.
       -2    1    3    3    0  502 -0.92364877516E+02 -0.39113216153E+03 -0.43157824576E+03  0.58972486856E+03  0.25500000920E-02 0.  1.
</event>
<event>
 5   0  0.3466598E-03  0.9232962E+03  0.7818609E-02  0.9396920E-01
        1   -1    0    0  501    0  0.00000000000E+00  0.00000000000E+00  0.23725482567E+03  0.23725482573E+03  0.50400001928E-02 0.  1.
       -1   -1    0    0    0  501  0.00000000000E+00  0.00000000000E+00 -0.89827035603E+03  0.89827035604E+03  0.50400001928E-02 0. -1.
    10030    2    1    2    0    0  0.00000000000E+00  0.00000000000E+00 -0.66101553036E+03  0.11355251818E+04  0.92329621848E+03 0.  0.
        3    1    3    3  502    0 -0.40128280733E+03  0.10574901235E+03 -0.81758954921E+02  0.42296014231E+03  0.10100000352E+00 0.  1.
       -3    1    3    3    0  502  0.40128280733E+03 -0.10574901235E+03 -0.57925657544E+03  0.71256503946E+03  0.10100000352E+00 0. -1.
</event>
<event>
 5   0  0.3569359E-03  0.9930828E+03  0.7818609E-02  0.9316164E-01
       -1   -1    0    0    0  501  0.00000000000E+00  0.00000000000E+00  0.32577984747E+03  0.32577984751E+03  0.50400001928E-02 0. -1.
        1   -1    0    0  501    0  0.00000000000E+00  0.00000000000E+00 -0.75680969657E+03  0.75680969659E+03  0.50400001928E-02 0.  1.
    10030    2    1    2    0    0  0.00000000000E+00  0.00000000000E+00 -0.43102984910E+03  0.10825895441E+04  0.99308277106E+03 0.  0.
        4    1    3    3  502    0  0.33259754782E+03  0.33477997738E+03 -0.38387907965E+03  0.60832846618E+03  0.12699999809E+01 0.  1.
       -4    1    3    3    0  502 -0.33259754782E+03 -0.33477997738E+03 -0.47150769448E+02  0.47426107792E+03  0.12699999809E+01 0. -1.
</event>
<event>
 5   0  0.3643002E-03  0.9896180E+03  0.7818609E-02  0.9320005E-01
       -1   -1    0    0    0  501  0.00000000000E+00  0.00000000000E+00  0.30029602907E+03  0.30029602911E+03  0.50400001928E-02 0. -1.
        1   -1    0    0  501    0  0.00000000000E+00  0.00000000000E+00 -0.81531536564E+03  0.81531536566E+03  0.50400001928E-02 0.  1.
    10030    2    1    2    0    0  0.00000000000E+00  0.00000000000E+00 -0.51501933657E+03  0.11156113948E+04  0.98961804101E+03 0.  0.
        2    1    3    3  502    0  0.44302580617E+03 -0.16702042631E+02 -0.97947847867E+01  0.44344871290E+03  0.25500000920E-02 0. -1.
       -2    1    3    3    0  502 -0.44302580617E+03  0.16702042631E+02 -0.50522455178E+03  0.67216268187E+03  0.25500000920E-02 0.  1.
</event>
<event>
 5   0  0.6199539E-03  0.9994672E+03  0.7818609E-02  0.9309129E-01
        2   -1    0    0  501    0  0.00000000000E+00  0.00000000000E+00  0.73811328795E+03  0.73811328795E+03  0.25500000920E-02 0. -1.
       -2   -1    0    0    0  501  0.00000000000E+00  0.00000000000E+00 -0.33834056853E+03  0.33834056854E+03  0.25500000920E-02 0.  1.
    10030    2    1    2    0    0  0.00000000000E+00  0.00000000000E+00  0.39977271942E+03  0.10764538565E+04  0.99946719705E+03 0.  0.
        2    1    3    3  502    0 -0.29668959179E+03 -0.24034908811E+03 -0.14734655476E+03  0.40927179873E+03  0.25500000920E-02 0.  1.
       -2    1    3    3    0  502  0.29668959179E+03  0.24034908811E+03  0.54711927418E+03  0.66718205777E+03  0.25500000920E-02 0. -1.
</event>
<event>
 5   0  0.3643002E-03  0.9947955E+03  0.7818609E-02  0.9314272E-01
        1   -1    0    0  501    0  0.00000000000E+00  0.00000000000E+00  0.72383248131E+03  0.72383248133E+03  0.50400001928E-02 0. -1.
       -1   -1    0    0    0  501  0.00000000000E+00  0.00000000000E+00 -0.34179802619E+03  0.34179802623E+03  0.50400001928E-02 0.  1.
    10030    2    1    2    0    0  0.00000000000E+00  0.00000000000E+00  0.38203445512E+03  0.10656305076E+04  0.99479548337E+03 0.  0.
        2    1    3    3  502    0  0.70051312492E+02 -0.43881639949E+03  0.43039631953E+03  0.61863398768E+03  0.25500000920E-02 0. -1.
       -2    1    3    3    0  502 -0.70051312492E+02  0.43881639949E+03 -0.48361864407E+02  0.44699651987E+03  0.25500000920E-02 0.  1.
</event>
<event>
 5   0  0.3640180E-03  0.9981119E+03  0.7818609E-02  0.9310618E-01
        1   -1    0    0  501    0  0.00000000000E+00  0.00000000000E+00  0.53900937553E+03  0.53900937555E+03  0.50400001928E-02 0. -1.
       -1   -1    0    0    0  501  0.00000000000E+00  0.00000000000E+00 -0.46206405972E+03  0.46206405975E+03  0.50400001928E-02 0.  1.
    10030    2    1    2    0    0  0.00000000000E+00  0.00000000000E+00  0.76945315812E+02  0.10010734353E+04  0.99811193823E+03 0.  0.
        5    1    3    3  502    0  0.36478516331E+03  0.28359416814E+03  0.22755497435E+03  0.51507011554E+03  0.46999998093E+01 0. -1.
       -5    1    3    3    0  502 -0.36478516331E+03 -0.28359416814E+03 -0.15060965853E+03  0.48600331976E+03  0.46999998093E+01 0.  1.
</event>
<event>
 5   0  0.2417750E-03  0.1010107E+04  0.7818609E-02  0.9297528E-01
        3   -1    0    0  501    0  0.00000000000E+00  0.00000000000E+00  0.13904818336E+03  0.13904822004E+03  0.10100000352E+00 0.  1.
       -3   -1    0    0    0  501  0.00000000000E+00  0.00000000000E+00 -0.18344656213E+04  0.18344656240E+04  0.10100000352E+00 0. -1.
    10030    2    1    2    0    0  0.00000000000E+00  0.00000000000E+00 -0.16954174379E+04  0.19735138441E+04  0.10101072240E+04 0.  0.
        2    1    3    3  502    0  0.13777096273E+02 -0.46185211138E+03 -0.44930330661E+03  0.64449254651E+03  0.25500000920E-02 0.  1.
       -2    1    3    3    0  502 -0.13777096273E+02  0.46185211138E+03 -0.12461141313E+04  0.13290212976E+04  0.25500000920E-02 0. -1.
</event>
<event>
 5   0  0.6376961E-03  0.1015604E+04  0.7818609E-02  0.9291594E-01
       -2   -1    0    0    0  501  0.00000000000E+00  0.00000000000E+00  0.16568137626E+03  0.16568137628E+03  0.25500000920E-02 0. -1.
        2   -1    0    0  501    0  0.00000000000E+00  0.00000000000E+00 -0.15563789243E+04  0.15563789243E+04  0.25500000920E-02 0.  1.
    10030    2    1    2    0    0  0.00000000000E+00  0.00000000000E+00 -0.13906975480E+04  0.17220603006E+04  0.10156042579E+04 0.  0.
        3    1    3    3  502    0  0.13446796329E+03 -0.16940599387E+03 -0.14743720573E+04  0.14901520049E+04  0.10100000352E+00 0.  1.
       -3    1    3    3    0  502 -0.13446796329E+03  0.16940599387E+03  0.83674509313E+02  0.23190829572E+03  0.10100000352E+00 0. -1.
</event>
<event>
 5   0  0.6376961E-03  0.9890052E+03  0.7818609E-02  0.9320687E-01
       -2   -1    0    0    0  501  0.00000000000E+00  0.00000000000E+00  0.20599077070E+03  0.20599077071E+03  0.25500000920E-02 0.  1.
        2   -1    0    0  501    0  0.00000000000E+00  0.00000000000E+00 -0.11871056451E+04  0.11871056451E+04  0.25500000920E-02 0. -1.
    10030    2    1    2    0    0  0.00000000000E+00  0.00000000000E+00 -0.98111487437E+03  0.13930964158E+04  0.98900517034E+03 0.  0.
        3    1    3    3  502    0  0.21003198361E+03 -0.17757640108E+03 -0.10694252707E+04  0.11042269839E+04  0.10100000352E+00 0. -1.
       -3    1    3    3    0  502 -0.21003198361E+03  0.17757640108E+03  0.88310396281E+02  0.28886943184E+03  0.10100000352E+00 0.  1.
</event>
<event>
 5   0  0.6360455E-03  0.9850077E+03  0.7818609E-02  0.9325143E-01
        2   -1    0    0  501    0  0.00000000000E+00  0.00000000000E+00  0.53925094885E+03  0.53925094886E+03  0.25500000920E-02 0. -1.
       -2   -1    0    0    0  501  0.00000000000E+00  0.00000000000E+00 -0.44980924675E+03  0.44980924675E+03  0.25500000920E-02 0.  1.
    10030    2    1    2    0    0  0.00000000000E+00  0.00000000000E+00  0.89441702107E+02  0.98906019561E+03  0.98500774234E+03 0.  0.
        4    1    3    3  502    0  0.28376183130E+03 -0.98005453771E+02  0.43675329943E+03  0.52998198397E+03  0.12699999809E+01 0. -1.
       -4    1    3    3    0  502 -0.28376183130E+03  0.98005453771E+02 -0.34731159732E+03  0.45907821164E+03  0.12699999809E+01 0.  1.
</event>
<event>
 5   0  0.6376961E-03  0.9999348E+03  0.7818609E-02  0.9308616E-01
       -2   -1    0    0    0  501  0.00000000000E+00  0.00000000000E+00  0.26994251559E+03  0.26994251560E+03  0.25500000920E-02 0.  1.
        2   -1    0    0  501    0  0.00000000000E+00  0.00000000000E+00 -0.92600240821E+03  0.92600240821E+03  0.25500000920E-02 0. -1.
    10030    2    1    2    0    0  0.00000000000E+00  0.00000000000E+00 -0.65605989262E+03  0.11959449238E+04  0.99993483691E+03 0.  0.
        3    1    3    3  502    0 -0.49172629125E+03  0.90311432943E+02 -0.32317036999E+03  0.59530664256E+03  0.10100000352E+00 0.  1.
       -3    1    3    3    0  502  0.49172629125E+03 -0.90311432943E+02 -0.33288952263E+03  0.60063828125E+03  0.10100000352E+00 0. -1.
</event>
<event>
 5   0  0.6606947E-03  0.9996369E+03  0.7818609E-02  0.9308943E-01
        2   -1    0    0  501    0  0.00000000000E+00  0.00000000000E+00  0.14527388311E+04  0.14527388311E+04  0.25500000920E-02 0.  1.
       -2   -1    0    0    0  501  0.00000000000E+00  0.00000000000E+00 -0.17196379412E+03  0.17196379414E+03  0.25500000920E-02 0. -1.
    10030    2    1    2    0    0  0.00000000000E+00  0.00000000000E+00  0.12807750370E+04  0.16247026253E+04  0.99963689664E+03 0.  0.
        1    1    3    3  502    0 -0.59387540292E+02  0.15692345454E+03 -0.12482446872E+03  0.20912436143E+03  0.50400001928E-02 0. -1.
       -1    1    3    3    0  502  0.59387540292E+02 -0.15692345454E+03  0.14055995057E+04  0.14155782638E+04  0.50400001928E-02 0.  1.
</event>
<event>
 5   0  0.6022787E-03  0.1000224E+04  0.7818609E-02  0.9308299E-01
        2   -1    0    0  501    0  0.00000000000E+00  0.00000000000E+00  0.11288897158E+04  0.11288897158E+04  0.25500000920E-02 0.  1.
       -2   -1    0    0    0  501  0.00000000000E+00  0.00000000000E+00 -0.22155584626E+03  0.22155584627E+03  0.25500000920E-02 0. -1.
    10030    2    1    2    0    0  0.00000000000E+00  0.00000000000E+00  0.90733386957E+03  0.13504455621E+04  0.10002242075E+04 0.  0.
        5    1    3    3  502    0 -0.19296447966E+03 -0.33742491355E+03  0.87847767055E+03  0.96064351886E+03  0.46999998093E+01 0.  1.
       -5    1    3    3    0  502  0.19296447966E+03  0.33742491355E+03  0.28856199027E+02  0.38980204324E+03  0.46999998093E+01 0. -1.
</event>
<event>
 5   0  0.6022787E-03  0.9990083E+03  0.7818609E-02  0.9309633E-01
       -2   -1    0    0    0  501  0.00000000000E+00  0.00000000000E+00  0.16649533188E+03  0.16649533190E+03  0.25500000920E-02 0. -1.
        2   -1    0    0  501    0  0.00000000000E+00  0.00000000000E+00 -0.14985669145E+04  0.14985669145E+04  0.25500000920E-02 0.  1.
    10030    2    1    2    0    0  0.00000000000E+00  0.00000000000E+00 -0.13320715826E+04  0.16650622464E+04  0.99900829984E+03 0.  0.
        5    1    3    3  502    0 -0.45570260303E+03  0.78727338958E+02 -0.35147471742E+03  0.58087814840E+03  0.46999998093E+01 0. -1.
       -5    1    3    3    0  502  0.45570260303E+03 -0.78727338958E+02 -0.98059686517E+03  0.10841840980E+04  0.46999998093E+01 0.  1.
</event>
<event>
 5   0  0.3466598E-03  0.9905082E+03  0.7818609E-02  0.9319017E-01
       -1   -1    0    0    0  501  0.00000000000E+00  0.00000000000E+00  0.36074775563E+03  0.36074775567E+03  0.50400001928E-02 0. -1.
        1   -1    0    0  501    0  0.00000000000E+00  0.00000000000E+00 -0.67991165876E+03  0.67991165878E+03  0.50400001928E-02 0.  1.
    10030    2    1    2    0    0  0.00000000000E+00  0.00000000000E+00 -0.31916390312E+03  0.10406594144E+04  0.99050816242E+03 0.  0.
        3    1    3    3  502    0 -0.87409056408E+02 -0.46645731359E+02 -0.66939332819E+03  0.67668575087E+03  0.10100000352E+00 0.  1.
       -3    1    3    3    0  502  0.87409056408E+02  0.46645731359E+02  0.35022942507E+03  0.36397366358E+03  0.10100000352E+00 0. -1.
</event>
<event>
 5   0  0.3608845E-03  0.1012529E+04  0.7818609E-02  0.9294909E-01
       -1   -1    0    0    0  501  0.00000000000E+00  0.00000000000E+00  0.25494847639E+03  0.25494847643E+03  0.50400001928E-02 0.  1.
        1   -1    0    0  501    0  0.00000000000E+00  0.00000000000E+00 -0.10053163049E+04  0.10053163049E+04  0.50400001928E-02 0. -1.
    10030    2    1    2    0    0  0.00000000000E+00  0.00000000000E+00 -0.75036782848E+03  0.12602647813E+04  0.10125292297E+04 0.  0.
        1    1    3    3  502    0  0.50381045064E+03  0.32981773805E+02 -0.42160681331E+03  0.65777281232E+03  0.50400001928E-02 0. -1.
       -1    1    3    3    0  502 -0.50381045064E+03 -0.32981773805E+02 -0.32876101517E+03  0.60249196899E+03  0.50400001928E-02 0.  1.
</event>
<event>
 5   0  0.3466598E-03  0.1001582E+04  0.7818609E-02  0.9306811E-01
        1   -1    0    0  501    0  0.00000000000E+00  0.00000000000E+00  0.47280887544E+03  0.47280887547E+03  0.50400001928E-02 0.  1.
       -1   -1    0    0    0  501  0.00000000000E+00  0.00000000000E+00 -0.53042942046E+03  0.53042942048E+03  0.50400001928E-02 0. -1.
    10030    2    1    2    0    0  0.00000000000E+00  0.00000000000E+00 -0.57620545020E+02  0.10032382959E+04  0.10015822239E+04 0.  0.
        3    1    3    3  502    0 -0.28152265360E+03  0.30321124439E+03 -0.31141089368E+03  0.51785018888E+03  0.10100000352E+00 0. -1.
       -3    1    3    3    0  502  0.28152265360E+03 -0.30321124439E+03  0.25379034866E+03  0.48538810707E+03  0.10100000352E+00 0.  1.
</event>
<event>
 5   0  0.3608845E-03  0.1003514E+04  0.7818609E-02  0.9304700E-01
        1   -1    0    0  501    0  0.00000000000E+00  0.00000000000E+00  0.57427294842E+03  0.57427294845E+03  0.50400001928E-02 0. -1.
       -1   -1    0    0    0  501  0.00000000000E+00  0.00000000000E+00 -0.43839761719E+03  0.43839761722E+03  0.50400001928E-02 0.  1.
    10030    2    1    2    0    0  0.00000000000E+00  0.00000000000E+00  0.13587533124E+03  0.10126705657E+04  0.10035136117E+04 0.  0.
        1    1    3    3  502    0  0.27339354894E+03  0.20870474358E+03 -0.30071513191E+03  0.45687119977E+03  0.50400001928E-02 0.  1.
       -1    1    3    3    0  502 -0.27339354894E+03 -0.20870474358E+03  0.43659046314E+03  0.55579936589E+03  0.50400001928E-02 0. -1.
</event>
<event>
 5   0  0.3569359E-03  0.1001019E+04  0.7818609E-02  0.9307428E-01
        1   -1    0    0  501    0  0.00000000000E+00  0.00000000000E+00  0.10259353338E+04  0.10259353338E+04  0.50400001928E-02 0.  1.
       -1   -1    0    0    0  501  0.00000000000E+00  0.00000000000E+00 -0.24417689065E+03  0.24417689070E+03  0.50400001928E-02 0. -1.
    10030    2    1    2    0    0  0.00000000000E+00  0.00000000000E+00  0.78175844319E+03  0.12701122245E+04  0.10010188807E+04 0.  0.
        4    1    3    3  502    0  0.17902983612E+03  0.23023987513E+03  0.90697222205E+03  0.95271312933E+03  0.12699999809E+01 0.  1.
       -4    1    3    3    0  502 -0.17902983612E+03 -0.23023987513E+03 -0.12521377886E+03  0.31739909521E+03  0.12699999809E+01 0. -1.
</event>
<event>
 5   0  0.6360455E-03  0.1026802E+04  0.7818609E-02  0.9279628E-01
       -2   -1    0    0    0  501  0.00000000000E+00  0.00000000000E+00  0.23689810499E+03  0.23689810500E+03  0.25500000920E-02 0. -1.
        2   -1    0    0  501    0  0.00000000000E+00  0.00000000000E+00 -0.11126329383E+04  0.11126329383E+04  0.25500000920E-02 0.  1.
    10030    2    1    2    0    0  0.00000000000E+00  0.00000000000E+00 -0.87573483332E+03  0.13495310433E+04  0.10268020932E+04 0.  0.
        4    1    3    3  502    0 -0.34152046849E+03  0.36800059103E+03 -0.29681147355E+03  0.58323179708E+03  0.12699999809E+01 0.  1.
       -4    1    3    3    0  502  0.34152046849E+03 -0.36800059103E+03 -0.57892335977E+03  0.76629924624E+03  0.12699999809E+01 0. -1.
</event>
<event>
 5   0  0.6022787E-03  0.8372477E+03  0.7818609E-02  0.9507614E-01
        2   -1    0    0  501    0  0.00000000000E+00  0.00000000000E+00  0.13729676090E+04  0.13729676090E+04  0.25500000920E-02 0. -1.
       -2   -1    0    0    0  501  0.00000000000E+00  0.00000000000E+00 -0.12764023917E+03  0.12764023920E+03  0.25500000920E-02 0.  1.
    10030    2    1    2    0    0  0.00000000000E+00  0.00000000000E+00  0.12453273698E+04  0.15006078482E+04  0.83724766708E+03 0.  0.
        5    1    3    3  502    0  0.23587457926E+03  0.75437301507E+02  0.12275418723E+04  0.12522814148E+04  0.46999998093E+01 0. -1.
       -5    1    3    3    0  502 -0.23587457926E+03 -0.75437301507E+02  0.17785497516E+02  0.24832643339E+03  0.46999998093E+01 0.  1.
</event>
<event>
 5   0  0.3608845E-03  0.9952906E+03  0.7818609E-02  0.9313725E-01
       -1   -1    0    0    0  501  0.00000000000E+00  0.00000000000E+00  0.44511651861E+03  0.44511651864E+03  0.50400001928E-02 0. -1.
        1   -1    0    0  501    0  0.00000000000E+00  0.00000000000E+00 -0.55637312567E+03  0.55637312570E+03  0.50400001928E-02 0.  1.
    10030    2    1    2    0    0  0.00000000000E+00  0.00000000000E+00 -0.11125660706E+03  0.10014896443E+04  0.99529064855E+03 0.  0.
        1    1    3    3  502    0  0.24290418565E+03 -0.35934200766E+03 -0.30111862446E+03  0.52801661707E+03  0.50400001928E-02 0. -1.
       -1    1    3    3    0  502 -0.24290418565E+03  0.35934200766E+03  0.18986201740E+03  0.47347302727E+03  0.50400001928E-02 0.  1.
</event>
<event>
 5   0  0.6376961E-03  0.9983840E+03  0.7818609E-02  0.9310319E-01
       -2   -1    0    0    0  501  0.00000000000E+00  0.00000000000E+00  0.35321539006E+03  0.35321539007E+03  0.25500000920E-02 0.  1.
        2   -1    0    0  501    0  0.00000000000E+00  0.00000000000E+00 -0.70549774242E+03  0.70549774242E+03  0.25500000920E-02 0. -1.
    10030    2    1    2    0    0  0.00000000000E+00  0.00000000000E+00 -0.35228235235E+03  0.10587131325E+04  0.99838401487E+03 0.  0.
        3    1    3    3  502    0 -0.21400615176E+03  0.51978918728E+02  0.29891606029E+03  0.37128326421E+03  0.10100000352E+00 0.  1.
       -3    1    3    3    0  502  0.21400615176E+03 -0.51978918728E+02 -0.65119841264E+03  0.68742986829E+03  0.10100000352E+00 0. -1.
</event>
<event>
 5   0  0.6606947E-03  0.9289438E+03  0.7818609E-02  0.9390106E-01
        2   -1    0    0  501    0  0.00000000000E+00  0.00000000000E+00  0.14230137743E+04  0.14230137743E+04  0.25500000920E-02 0.  1.
       -2   -1    0    0    0  501  0.00000000000E+00  0.00000000000E+00 -0.15160369071E+03  0.15160369073E+03  0.25500000920E-02 0. -1.
    10030    2    1    2    0    0  0.00000000000E+00  0.00000000000E+00  0.12714100836E+04  0.15746174651E+04  0.92894378761E+03 0.  0.
        1    1    3    3  502    0  0.41426551877E+03 -0.51311435977E+02  0.29045555374E+03  0.50854027591E+03  0.50400001928E-02 0. -1.
       -1    1    3    3    0  502 -0.41426551877E+03  0.51311435977E+02  0.98095452988E+03  0.10660771891E+04  0.50400001928E-02 0.  1.
</event>
<event>
 5   0  0.6199539E-03  0.9830355E+03  0.7818609E-02  0.9327349E-01
        2   -1    0    0  501    0  0.00000000000E+00  0.00000000000E+00  0.21770720189E+03  0.21770720191E+03  0.25500000920E-02 0.  1.
       -2   -1    0    0    0  501  0.00000000000E+00  0.00000000000E+00 -0.11097000386E+04  0.11097000386E+04  0.25500000920E-02 0. -1.
    10030    2    1    2    0    0  0.00000000000E+00  0.00000000000E+00 -0.89199283667E+03  0.13274072405E+04  0.98303548328E+03 0.  0.
        2    1    3    3  502    0  0.89248134790E+02  0.32078427945E+03 -0.93420923352E+03  0.99177350010E+03  0.25500000920E-02 0. -1.
       -2    1    3    3    0  502 -0.89248134790E+02 -0.32078427945E+03  0.42216396844E+02  0.33563374037E+03  0.25500000920E-02 0.  1.
</event>
<event>
 5   0  0.2417750E-03  0.9921193E+03  0.7818609E-02  0.9317231E-01
        4   -1    0    0  501    0  0.00000000000E+00  0.00000000000E+00  0.39623578553E+03  0.39623782080E+03  0.12699999809E+01 0. -1.
       -4   -1    0    0    0  501  0.00000000000E+00  0.00000000000E+00 -0.62102786584E+03  0.62102916441E+03  0.12699999809E+01 0.  1.
    10030    2    1    2    0    0  0.00000000000E+00  0.00000000000E+00 -0.22479208031E+03  0.10172669852E+04  0.99211926694E+03 0.  0.
        5    1    3    3  502    0 -0.17859823573E+03 -0.75981450209E+02  0.35566419895E+03  0.40520318730E+03  0.46999998093E+01 0. -1.
       -5    1    3    3    0  502  0.17859823573E+03  0.75981450209E+02 -0.58045627927E+03  0.61206379791E+03  0.46999998093E+01 0.  1.
</event>
<event>
 5   0  0.3569359E-03  0.9993377E+03  0.7818609E-02  0.9309271E-01
        1   -1    0    0  501    0  0.00000000000E+00  0.00000000000E+00  0.76504743396E+03  0.76504743398E+03  0.50400001928E-02 0. -1.
       -1   -1    0    0    0  501  0.00000000000E+00  0.00000000000E+00 -0.32634443090E+03  0.32634443094E+03  0.50400001928E-02 0.  1.
    10030    2    1    2    0    0  0.00000000000E+00  0.00000000000E+00  0.43870300306E+03  0.10913918649E+04  0.99933771965E+03 0.  0.
        4    1    3    3  502    0  0.10360038427E+03 -0.83467400959E+02 -0.30664397893E+03  0.33426335330E+03  0.12699999809E+01 0.  1.
       -4    1    3    3    0  502 -0.10360038427E+03  0.83467400959E+02  0.74534698199E+03  0.75712851162E+03  0.12699999809E+01 0. -1.
</event>
<event>
 5   0  0.6022787E-03  0.9940977E+03  0.7818609E-02  0.9315042E-01
       -2   -1    0    0    0  501  0.00000000000E+00  0.00000000000E+00  0.17696592438E+03  0.17696592440E+03  0.25500000920E-02 0. -1.
        2   -1    0    0  501    0  0.00000000000E+00  0.00000000000E+00 -0.13960741970E+04  0.13960741970E+04  0.25500000920E-02 0.  1.
    10030    2    1    2    0    0  0.00000000000E+00  0.00000000000E+00 -0.12191082726E+04  0.15730401214E+04  0.99409770304E+03 0.  0.
        5    1    3    3  502    0  0.45157876296E+03 -0.97247618225E+02 -0.31926186209E+03  0.56154314615E+03  0.46999998093E+01 0. -1.
       -5    1    3    3    0  502 -0.45157876296E+03  0.97247618225E+02 -0.89984641054E+03  0.10114969753E+04  0.46999998093E+01 0.  1.
</event>
<event>
 5   0  0.2417750E-03  0.8520200E+03  0.7818609E-02  0.9487630E-01
       -4   -1    0    0    0  501  0.00000000000E+00  0.00000000000E+00  0.23017598320E+03  0.23017948680E+03  0.12699999809E+01 0. -1.
        4   -1    0    0  501    0  0.00000000000E+00  0.00000000000E+00 -0.78844978704E+03  0.78845080987E+03  0.12699999809E+01 0.  1.
    10030    2    1    2    0    0  0.00000000000E+00  0.00000000000E+00 -0.55827380384E+03  0.10186302967E+04  0.85201997702E+03 0.  0.
        1    1    3    3  502    0 -0.23603142440E+03  0.12858092750E+03 -0.67428408808E+03  0.72588078890E+03  0.50400001928E-02 0.  1.
       -1    1    3    3    0  502  0.23603142440E+03 -0.12858092750E+03  0.11601028425E+03  0.29274950777E+03  0.50400001928E-02 0. -1.
</event>
<event>
 5   0  0.3640180E-03  0.9981241E+03  0.7818609E-02  0.9310605E-01
        1   -1    0    0  501    0  0.00000000000E+00  0.00000000000E+00  0.32812127876E+03  0.32812127880E+03  0.50400001928E-02 0.  1.
       -1   -1    0    0    0  501  0.00000000000E+00  0.00000000000E+00 -0.75905751538E+03  0.75905751540E+03  0.50400001928E-02 0. -1.
    10030    2    1    2    0    0  0.00000000000E+00  0.00000000000E+00 -0.43093623662E+03  0.10871787942E+04  0.99812408573E+03 0.  0.
        5    1    3    3  502    0  0.24928855054E+03 -0.87819374977E+02  0.24560077059E+03  0.36083078107E+03  0.46999998093E+01 0.  1.
       -5    1    3    3    0  502 -0.24928855054E+03  0.87819374977E+02 -0.67653700721E+03  0.72634801313E+03  0.46999998093E+01 0. -1.
</event>
<event>
 5   0  0.3569359E-03  0.1006538E+04  0.7818609E-02  0.9301403E-01
       -1   -1    0    0    0  501  0.00000000000E+00  0.00000000000E+00  0.10129689832E+04  0.10129689832E+04  0.50400001928E-02 0.  1.
        1   -1    0    0  501    0  0.00000000000E+00  0.00000000000E+00 -0.25003690160E+03  0.25003690165E+03  0.50400001928E-02 0. -1.
    10030    2    1    2    0    0  0.00000000000E+00  0.00000000000E+00  0.76293208160E+03  0.12630058849E+04  0.10065378801E+04 0.  0.
        4    1    3    3  502    0  0.44166028526E+03  0.15854578069E+03  0.60967947260E+03  0.76935768299E+03  0.12699999809E+01 0.  1.
       -4    1    3    3    0  502 -0.44166028526E+03 -0.15854578069E+03  0.15325260900E+03  0.49364820188E+03  0.12699999809E+01 0. -1.
</event>
<event>
 5   0  0.3466598E-03  0.1002369E+04  0.7818609E-02  0.9305951E-01
       -1   -1    0    0    0  501  0.00000000000E+00  0.00000000000E+00  0.29854688834E+03  0.29854688839E+03  0.50400001928E-02 0.  1.
        1   -1    0    0  501    0  0.00000000000E+00  0.00000000000E+00 -0.84136091938E+03  0.84136091940E+03  0.50400001928E-02 0. -1.
    10030    2    1    2    0    0  0.00000000000E+00  0.00000000000E+00 -0.54281403104E+03  0.11399078078E+04  0.10023685639E+04 0.  0.
        3    1    3    3  502    0 -0.33859307285E+03  0.33715952247E+02 -0.68987039681E+03  0.76922247043E+03  0.10100000352E+00 0. -1.
       -3    1    3    3    0  502  0.33859307285E+03 -0.33715952247E+02  0.14705636577E+03  0.37068533736E+03  0.10100000352E+00 0.  1.
</event>
<event>
 5   0  0.2417750E-03  0.9636889E+03  0.7818609E-02  0.9349292E-01
       -3   -1    0    0    0  501  0.00000000000E+00  0.00000000000E+00  0.12474965123E+03  0.12474969212E+03  0.10100000352E+00 0.  1.
        3   -1    0    0  501    0  0.00000000000E+00  0.00000000000E+00 -0.18611197159E+04  0.18611197186E+04  0.10100000352E+00 0. -1.
    10030    2    1    2    0    0  0.00000000000E+00  0.00000000000E+00 -0.17363700646E+04  0.19858694107E+04  0.96368890991E+03 0.  0.
        3    1    3    3  502    0 -0.18732959259E+03  0.43467939300E+03 -0.68231626451E+03  0.83041799473E+03  0.10100000352E+00 0.  1.
       -3    1    3    3    0  502  0.18732959259E+03 -0.43467939300E+03 -0.10540538001E+04  0.11554514160E+04  0.10100000352E+00 0. -1.
</event>
<event>
 5   0  0.3640180E-03  0.9763640E+03  0.7818609E-02  0.9334855E-01
        1   -1    0    0  501    0  0.00000000000E+00  0.00000000000E+00  0.91971229174E+03  0.91971229175E+03  0.50400001928E-02 0.  1.
       -1   -1    0    0    0  501  0.00000000000E+00  0.00000000000E+00 -0.25912632003E+03  0.25912632008E+03  0.50400001928E-02 0. -1.
    10030    2    1    2    0    0  0.00000000000E+00  0.00000000000E+00  0.66058597171E+03  0.11788386118E+04  0.97636399294E+03 0.  0.
        5    1    3    3  502    0  0.25813226276E+03 -0.23835432311E+03 -0.78889135225E+02  0.36012585866E+03  0.46999998093E+01 0. -1.
       -5    1    3    3    0  502 -0.25813226276E+03  0.23835432311E+03  0.73947510693E+03  0.81871275316E+03  0.46999998093E+01 0.  1.
</event>
<event>
 5   0  0.3608845E-03  0.9731506E+03  0.7818609E-02  0.9338493E-01
       -1   -1    0    0    0  501  0.00000000000E+00  0.00000000000E+00  0.28727062946E+03  0.28727062950E+03  0.50400001928E-02 0. -1.
        1   -1    0    0  501    0  0.00000000000E+00  0.00000000000E+00 -0.82415494992E+03  0.82415494994E+03  0.50400001928E-02 0.  1.
    10030    2    1    2    0    0  0.00000000000E+00  0.00000000000E+00 -0.53688432046E+03  0.11114255794E+04  0.97315057677E+03 0.  0.
        1    1    3    3  502    0  0.12481493797E+03 -0.43515065868E+02  0.26637213273E+03  0.29736584003E+03  0.50400001928E-02 0. -1.
       -1    1    3    3    0  502 -0.12481493797E+03  0.43515065868E+02 -0.80325645319E+03  0.81405973941E+03  0.50400001928E-02 0.  1.
</event>
<event>
 5   0  0.2417750E-03  0.1003662E+04  0.7818609E-02  0.9304537E-01
       -3   -1    0    0    0  501  0.00000000000E+00  0.00000000000E+00  0.47326905863E+03  0.47326906941E+03  0.10100000352E+00 0. -1.
        3   -1    0    0  501    0  0.00000000000E+00  0.00000000000E+00 -0.53211708617E+03  0.53211709575E+03  0.10100000352E+00 0.  1.
    10030    2    1    2    0    0  0.00000000000E+00  0.00000000000E+00 -0.58848027533E+02  0.10053861652E+04  0.10036624187E+04 0.  0.
        2    1    3    3  502    0  0.45493941190E+03  0.42190299694E+02 -0.23734898093E+03  0.51486350487E+03  0.25500000920E-02 0.  1.
       -2    1    3    3    0  502 -0.45493941190E+03 -0.42190299694E+02  0.17850095339E+03  0.49052266029E+03  0.25500000920E-02 0. -1.
</event>
<event>
 5   0  0.6606947E-03  0.9909231E+03  0.7818609E-02  0.9318557E-01
       -2   -1    0    0    0  501  0.00000000000E+00  0.00000000000E+00  0.28962039236E+03  0.28962039237E+03  0.25500000920E-02 0. -1.
        2   -1    0    0  501    0  0.00000000000E+00  0.00000000000E+00 -0.84759968506E+03  0.84759968507E+03  0.25500000920E-02 0.  1.
    10030    2    1    2    0    0  0.00000000000E+00  0.00000000000E+00 -0.55797929270E+03  0.11372200774E+04  0.99092311177E+03 0.  0.
        1    1    3    3  502    0 -0.21015921080E+03 -0.44358120294E+03 -0.20156899403E+03  0.53062344168E+03  0.50400001928E-02 0.  1.
       -1    1    3    3    0  502  0.21015921080E+03  0.44358120294E+03 -0.35641029867E+03  0.60659663575E+03  0.50400001928E-02 0. -1.
</event>
<event>
 5   0  0.3608845E-03  0.1017223E+04  0.7818609E-02  0.9289854E-01
        1   -1    0    0  501    0  0.00000000000E+00  0.00000000000E+00  0.70704403805E+03  0.70704403807E+03  0.50400001928E-02 0. -1.
       -1   -1    0    0    0  501  0.00000000000E+00  0.00000000000E+00 -0.36586928682E+03  0.36586928685E+03  0.50400001928E-02 0.  1.
    10030    2    1    2    0    0  0.00000000000E+00  0.00000000000E+00  0.34117475123E+03  0.10729133249E+04  0.10172230787E+04 0.  0.
        1    1    3    3  502    0 -0.62828985586E+02  0.39056209707E+03 -0.16660111710E+03  0.42923439441E+03  0.50400001928E-02 0.  1.
       -1    1    3    3    0  502  0.62828985586E+02 -0.39056209707E+03  0.50777586833E+03  0.64367893051E+03  0.50400001928E-02 0. -1.
</event>
<event>
 5   0  0.6360455E-03  0.9961915E+03  0.7818609E-02  0.9312732E-01
        2   -1    0    0  501    0  0.00000000000E+00  0.00000000000E+00  0.28865434622E+03  0.28865434623E+03  0.25500000920E-02 0. -1.
       -2   -1    0    0    0  501  0.00000000000E+00  0.00000000000E+00 -0.85950329068E+03  0.85950329069E+03  0.25500000920E-02 0.  1.
    10030    2    1    2    0    0  0.00000000000E+00  0.00000000000E+00 -0.57084894446E+03  0.11481576369E+04  0.99619146846E+03 0.  0.
        4    1    3    3  502    0  0.35286912799E+02  0.16661025791E+03 -0.82490223749E+03  0.84230010006E+03  0.12699999809E+01 0.  1.
       -4    1    3    3    0  502 -0.35286912799E+02 -0.16661025791E+03  0.25405329303E+03  0.30585753686E+03  0.12699999809E+01 0. -1.
</event>
<event>
 5   0  0.6022787E-03  0.9940034E+03  0.7818609E-02  0.9315146E-01
        2   -1    0    0  501    0  0.00000000000E+00  0.00000000000E+00  0.14044496433E+04  0.14044496433E+04  0.25500000920E-02 0.  1.
       -2   -1    0    0    0  501  0.00000000000E+00  0.00000000000E+00 -0.17587720728E+03  0.17587720730E+03  0.25500000920E-02 0. -1.
    10030    2    1    2    0    0  0.00000000000E+00  0.00000000000E+00  0.12285724360E+04  0.15803268506E+04  0.99400338236E+03 0.  0.
        5    1    3    3  502    0  0.41176886199E+03  0.27257201451E+03  0.70336797290E+03  0.85941706645E+03  0.46999998093E+01 0.  1.
       -5    1    3    3    0  502 -0.41176886199E+03 -0.27257201451E+03  0.52520446310E+03  0.72090978413E+03  0.46999998093E+01 0. -1.
</event>
<event>
 5   0  0.3643002E-03  0.9768518E+03  0.7818609E-02  0.9334304E-01
       -1   -1    0    0    0  501  0.00000000000E+00  0.00000000000E+00  0.34428015199E+03  0.34428015203E+03  0.50400001928E-02 0. -1.
        1   -1    0    0  501    0  0.00000000000E+00  0.00000000000E+00 -0.69292364064E+03  0.69292364066E+03  0.50400001928E-02 0.  1.
    10030    2    1    2    0    0  0.00000000000E+00  0.00000000000E+00 -0.34864348865E+03  0.10372037927E+04  0.97685179295E+03 0.  0.
        2    1    3    3  502    0  0.28724914978E+03  0.88816848227E+02 -0.58301733277E+03  0.65597996684E+03  0.25500000920E-02 0.  1.
       -2    1    3    3    0  502 -0.28724914978E+03 -0.88816848227E+02  0.23437384412E+03  0.38122382585E+03  0.25500000920E-02 0. -1.
</event>
<event>
 5   0  0.3608845E-03  0.1060897E+04  0.7818609E-02  0.9244165E-01
       -1   -1    0    0    0  501  0.00000000000E+00  0.00000000000E+00  0.14853771457E+03  0.14853771466E+03  0.50400001928E-02 0.  1.
        1   -1    0    0  501    0  0.00000000000E+00  0.00000000000E+00 -0.18943048593E+04  0.18943048593E+04  0.50400001928E-02 0. -1.
    10030    2    1    2    0    0  0.00000000000E+00  0.00000000000E+00 -0.17457671447E+04  0.20428425739E+04  0.10608971950E+04 0.  0.
        1    1    3    3  502    0  0.15993021721E+03  0.47785548544E+03 -0.11919271305E+04  0.12940687091E+04  0.50400001928E-02 0. -1.
       -1    1    3    3    0  502 -0.15993021721E+03 -0.47785548544E+03 -0.55384001414E+03  0.74877386482E+03  0.50400001928E-02 0.  1.
</event>
<event>
 5   0  0.6199539E-03  0.1040403E+04  0.7818609E-02  0.9265309E-01
       -2   -1    0    0    0  501  0.00000000000E+00  0.00000000000E+00  0.24942456430E+03  0.24942456431E+03  0.25500000920E-02 0.  1.
        2   -1    0    0  501    0  0.00000000000E+00  0.00000000000E+00 -0.10849355171E+04  0.10849355171E+04  0.25500000920E-02 0. -1.
    10030    2    1    2    0    0  0.00000000000E+00  0.00000000000E+00 -0.83551095278E+03  0.13343600814E+04  0.10404029386E+04 0.  0.
        2    1    3    3  502    0  0.49074632967E+02  0.33667007558E+03  0.86944633286E+02  0.35116154211E+03  0.25500000920E-02 0.  1.
       -2    1    3    3    0  502 -0.49074632967E+02 -0.33667007558E+03 -0.92245558607E+03  0.98319853929E+03  0.25500000920E-02 0. -1.
</event>
<event>
 5   0  0.3466598E-03  0.9754069E+03  0.7818609E-02  0.9335937E-01
        1   -1    0    0  501    0  0.00000000000E+00  0.00000000000E+00  0.55705907322E+03  0.55705907324E+03  0.50400001928E-02 0. -1.
       -1   -1    0    0    0  501  0.00000000000E+00  0.00000000000E+00 -0.42698285198E+03  0.42698285201E+03  0.50400001928E-02 0.  1.
    10030    2    1    2    0    0  0.00000000000E+00  0.00000000000E+00  0.13007622124E+03  0.98404192524E+03  0.97540693421E+03 0.  0.
        3    1    3    3  502    0 -0.26370071598E+03 -0.38437186069E+03  0.20974735596E+03  0.51114944824E+03  0.10100000352E+00 0. -1.
       -3    1    3    3    0  502  0.26370071598E+03  0.38437186069E+03 -0.79671134723E+02  0.47289247701E+03  0.10100000352E+00 0.  1.
</event>
<event>
 5   0  0.3466598E-03  0.1002183E+04  0.7818609E-02  0.9306154E-01
       -1   -1    0    0    0  501  0.00000000000E+00  0.00000000000E+00  0.28136011040E+03  0.28136011045E+03  0.50400001928E-02 0. -1.
        1   -1    0    0  501    0  0.00000000000E+00  0.00000000000E+00 -0.89242433039E+03  0.89242433041E+03  0.50400001928E-02 0.  1.
    10030    2    1    2    0    0  0.00000000000E+00  0.00000000000E+00 -0.61106421999E+03  0.11737844409E+04  0.10021828339E+04 0.  0.
        3    1    3    3  502    0  0.45404443418E+03 -0.20897647143E+03 -0.26387385305E+03  0.56520521436E+03  0.10100000352E+00 0. -1.
       -3    1    3    3    0  502 -0.45404443418E+03  0.20897647143E+03 -0.34719036694E+03  0.60857922649E+03  0.10100000352E+00 0.  1.
</event>
<event>
 5   0  0.6199539E-03  0.1004115E+04  0.7818609E-02  0.9304043E-01
        2   -1    0    0  501    0  0.00000000000E+00  0.00000000000E+00  0.32269178894E+04  0.32269178894E+04  0.25500000920E-02 0.  1.
       -2   -1    0    0    0  501  0.00000000000E+00  0.00000000000E+00 -0.78112260698E+02  0.78112260739E+02  0.25500000920E-02 0. -1.
    10030    2    1    2    0    0  0.00000000000E+00  0.00000000000E+00  0.31488056287E+04  0.33050301502E+04  0.10041152354E+04 0.  0.
        2    1    3    3  502    0  0.39040763855E+03  0.16226821136E+03  0.24656160723E+04  0.25016018294E+04  0.25500000920E-02 0.  1.
       -2    1    3    3    0  502 -0.39040763855E+03 -0.16226821136E+03  0.68318955642E+03  0.80342832080E+03  0.25500000920E-02 0. -1.
</event>
<event>
 5   0  0.3640180E-03  0.1004605E+04  0.7818609E-02  0.9303508E-01
       -1   -1    0    0    0  501  0.00000000000E+00  0.00000000000E+00  0.66164377810E+03  0.66164377812E+03  0.50400001928E-02 0.  1.
        1   -1    0    0  501    0  0.00000000000E+00  0.00000000000E+00 -0.38133514653E+03  0.38133514657E+03  0.50400001928E-02 0. -1.
    10030    2    1    2    0    0  0.00000000000E+00  0.00000000000E+00  0.28030863157E+03  0.10429789247E+04  0.10046054491E+04 0.  0.
        5    1    3    3  502    0 -0.13835817171E+02 -0.40511262573E+03 -0.16778681953E+03  0.43872790676E+03  0.46999998093E+01 0. -1.
       -5    1    3    3    0  502  0.13835817171E+02  0.40511262573E+03  0.44809545110E+03  0.60425101792E+03  0.46999998093E+01 0.  1.
</event>
<event>
 5   0  0.6376961E-03  0.9927726E+03  0.7818609E-02  0.9316507E-01
        2   -1    0    0  501    0  0.00000000000E+00  0.00000000000E+00  0.17138281869E+04  0.17138281869E+04  0.25500000920E-02 0. -1.
       -2   -1    0    0    0  501  0.00000000000E+00  0.00000000000E+00 -0.14377132692E+03  0.14377132694E+03  0.25500000920E-02 0.  1.
    10030    2    1    2    0    0  0.00000000000E+00  0.00000000000E+00  0.15700568600E+04  0.18575995138E+04  0.99277258738E+03 0.  0.
        3    1    3    3  502    0  0.11365000667E+03 -0.34633615951E+03  0.15455640266E+03  0.39592013236E+03  0.10100000352E+00 0.  1.
       -3    1    3    3    0  502 -0.11365000667E+03  0.34633615951E+03  0.14155004573E+04  0.14616793815E+04  0.10100000352E+00 0. -1.
</event>
<event>
 5   0  0.6376961E-03  0.9935556E+03  0.7818609E-02  0.9315641E-01
       -2   -1    0    0    0  501  0.00000000000E+00  0.00000000000E+00  0.17447451009E+03  0.17447451011E+03  0.25500000920E-02 0.  1.
        2   -1    0    0  501    0  0.00000000000E+00  0.00000000000E+00 -0.14144655635E+04  0.14144655635E+04  0.25500000920E-02 0. -1.
    10030    2    1    2    0    0  0.00000000000E+00  0.00000000000E+00 -0.12399910534E+04  0.15889400736E+04  0.99355560741E+03 0.  0.
        3    1    3    3  502    0 -0.23889302246E+03 -0.37174830131E+03 -0.98299800517E+03  0.10777531091E+04  0.10100000352E+00 0. -1.
       -3    1    3    3    0  502  0.23889302246E+03  0.37174830131E+03 -0.25699304826E+03  0.51118696458E+03  0.10100000352E+00 0.  1.
</event>
<event>
 5   0  0.6199539E-03  0.1001644E+04  0.7818609E-02  0.9306744E-01
        2   -1    0    0  501    0  0.00000000000E+00  0.00000000000E+00  0.28386928582E+03  0.28386928584E+03  0.25500000920E-02 0.  1.
       -2   -1    0    0    0  501  0.00000000000E+00  0.00000000000E+00 -0.88358499631E+03  0.88358499632E+03  0.25500000920E-02 0. -1.
    10030    2    1    2    0    0  0.00000000000E+00  0.00000000000E+00 -0.59971571049E+03  0.11674542822E+04  0.10016439325E+04 0.  0.
        2    1    3    3  502    0 -0.11014330848E+02 -0.45058427110E+03 -0.45366806724E+02  0.45299630021E+03  0.25500000920E-02 0.  1.
       -2    1    3    3    0  502  0.11014330848E+02  0.45058427110E+03 -0.55434890376E+03  0.71445798194E+03  0.25500000920E-02 0. -1.
</event>
<event>
 5   0  0.3569359E-03  0.9994491E+03  0.7818609E-02  0.9309149E-01
       -1   -1    0    0    0  501  0.00000000000E+00  0.00000000000E+00  0.15894748247E+03  0.15894748255E+03  0.50400001928E-02 0.  1.
        1   -1    0    0  501    0  0.00000000000E+00  0.00000000000E+00 -0.15711140564E+04  0.15711140565E+04  0.50400001928E-02 0. -1.
    10030    2    1    2    0    0  0.00000000000E+00  0.00000000000E+00 -0.14121665740E+04  0.17300615390E+04  0.99944909630E+03 0.  0.
        4    1    3    3  502    0  0.52456615646E+02  0.47756538363E+03 -0.94407501466E+03  0.10592920458E+04  0.12699999809E+01 0. -1.
       -4    1    3    3    0  502 -0.52456615646E+02 -0.47756538363E+03 -0.46809155931E+03  0.67076949317E+03  0.12699999809E+01 0.  1.
</event>
<event>
 5   0  0.6606947E-03  0.1001050E+04  0.7818609E-02  0.9307394E-01
       -2   -1    0    0    0  501  0.00000000000E+00  0.00000000000E+00  0.26292529120E+03  0.26292529121E+03  0.25500000920E-02 0.  1.
        2   -1    0    0  501    0  0.00000000000E+00  0.00000000000E+00 -0.95283740752E+03  0.95283740753E+03  0.25500000920E-02 0. -1.
    10030    2    1    2    0    0  0.00000000000E+00  0.00000000000E+00 -0.68991211632E+03  0.12157626987E+04  0.10010495549E+04 0.  0.
        1    1    3    3  502    0 -0.13824552044E+03  0.20380846741E+03  0.18425330209E+03  0.30756949567E+03  0.50400001928E-02 0.  1.
       -1    1    3    3    0  502  0.13824552044E+03 -0.20380846741E+03 -0.87416541842E+03  0.90819320306E+03  0.50400001928E-02 0. -1.
</event>
<event>
 5   0  0.6199539E-03  0.1052881E+04  0.7818609E-02  0.9252374E-01
       -2   -1    0    0    0  501  0.00000000000E+00  0.00000000000E+00  0.31987533801E+03  0.31987533802E+03  0.25500000920E-02 0.  1.
        2   -1    0    0  501    0  0.00000000000E+00  0.00000000000E+00 -0.86639906087E+03  0.86639906087E+03  0.25500000920E-02 0. -1.
    10030    2    1    2    0    0  0.00000000000E+00  0.00000000000E+00 -0.54652372286E+03  0.11862743989E+04  0.10528811755E+04 0.  0.
        2    1    3    3  502    0 -0.42149628146E+03 -0.31494532979E+03 -0.29244930345E+03  0.60197696894E+03  0.25500000920E-02 0. -1.
       -2    1    3    3    0  502  0.42149628146E+03  0.31494532979E+03 -0.25407441941E+03  0.58429742995E+03  0.25500000920E-02 0.  1.
</event>
<event>
 5   0  0.6606947E-03  0.9965517E+03  0.7818609E-02  0.9312335E-01
        2   -1    0    0  501    0  0.00000000000E+00  0.00000000000E+00  0.85697202838E+03  0.85697202838E+03  0.25500000920E-02 0.  1.
       -2   -1    0    0    0  501  0.00000000000E+00  0.00000000000E+00 -0.28971635819E+03  0.28971635821E+03  0.25500000920E-02 0. -1.
    10030    2    1    2    0    0  0.00000000000E+00  0.00000000000E+00  0.56725567018E+03  0.11466883866E+04  0.99655168485E+03 0.  0.
        1    1    3    3  502    0 -0.41974392073E+03 -0.54788580267E+02  0.58608207778E+03  0.72296538606E+03  0.50400001928E-02 0.  1.
       -1    1    3    3    0  502  0.41974392073E+03  0.54788580267E+02 -0.18826407604E+02  0.42372300052E+03  0.50400001928E-02 0. -1.
</event>
<event>
 5   0  0.6376961E-03  0.1002592E+04  0.7818609E-02  0.9305706E-01
       -2   -1    0    0    0  501  0.00000000000E+00  0.00000000000E+00  0.17327447823E+03  0.17327447825E+03  0.25500000920E-02 0.  1.
        2   -1    0    0  501    0  0.00000000000E+00  0.00000000000E+00 -0.14502870383E+04  0.14502870383E+04  0.25500000920E-02 0. -1.
    10030    2    1    2    0    0  0.00000000000E+00  0.00000000000E+00 -0.12770125601E+04  0.16235615166E+04  0.10025921002E+04 0.  0.
        3    1    3    3  502    0  0.23230627890E+03 -0.44368731196E+03 -0.60328440059E+03  0.78407698360E+03  0.10100000352E+00 0.  1.
       -3    1    3    3    0  502 -0.23230627890E+03  0.44368731196E+03 -0.67372815948E+03  0.83948453297E+03  0.10100000352E+00 0. -1.
</event>
<event>
 5   0  0.3643002E-03  0.9983327E+03  0.7818609E-02  0.9310375E-01
        1   -1    0    0  501    0  0.00000000000E+00  0.00000000000E+00  0.35342669840E+03  0.35342669843E+03  0.50400001928E-02 0.  1.
       -1   -1    0    0    0  501  0.00000000000E+00  0.00000000000E+00 -0.70500344762E+03  0.70500344764E+03  0.50400001928E-02 0. -1.
    10030    2    1    2    0    0  0.00000000000E+00  0.00000000000E+00 -0.35157674922E+03  0.10584301461E+04  0.99833269180E+03 0.  0.
        2    1    3    3  502    0  0.11803703658E+03  0.19264566762E+02 -0.68958869656E+03  0.69988315880E+03  0.25500000920E-02 0. -1.
       -2    1    3    3    0  502 -0.11803703658E+03 -0.19264566762E+02  0.33801194734E+03  0.35854698728E+03  0.25500000920E-02 0.  1.
</event>
<event>
 5   0  0.6376961E-03  0.1000829E+04  0.7818609E-02  0.9307636E-01
       -2   -1    0    0    0  501  0.00000000000E+00  0.00000000000E+00  0.17262466837E+03  0.17262466839E+03  0.25500000920E-02 0. -1.
        2   -1    0    0  501    0  0.00000000000E+00  0.00000000000E+00 -0.14506299775E+04  0.14506299775E+04  0.25500000920E-02 0.  1.
    10030    2    1    2    0    0  0.00000000000E+00  0.00000000000E+00 -0.12780053091E+04  0.16232546459E+04  0.10008286943E+04 0.  0.
        3    1    3    3  502    0  0.23433702692E+03 -0.55611586009E+02 -0.13504429982E+04  0.13717517240E+04  0.10100000352E+00 0.  1.
       -3    1    3    3    0  502 -0.23433702692E+03  0.55611586009E+02  0.72437689140E+02  0.25150292184E+03  0.10100000352E+00 0. -1.
</event>
<event>
 5   0  0.6360455E-03  0.1003251E+04  0.7818609E-02  0.9304986E-01
        2   -1    0    0  501    0  0.00000000000E+00  0.00000000000E+00  0.13524793236E+04  0.13524793236E+04  0.25500000920E-02 0. -1.
       -2   -1    0    0    0  501  0.00000000000E+00  0.00000000000E+00 -0.18604966809E+03  0.18604966811E+03  0.25500000920E-02 0.  1.
    10030    2    1    2    0    0  0.00000000000E+00  0.00000000000E+00  0.11664296555E+04  0.15385289918E+04  0.10032513728E+04 0.  0.
        4    1    3    3  502    0  0.20576606524E+03  0.54999743295E+02  0.12796899508E+04  0.12972943492E+04  0.12699999809E+01 0. -1.
       -4    1    3    3    0  502 -0.20576606524E+03 -0.54999743295E+02 -0.11326029529E+03  0.24123464253E+03  0.12699999809E+01 0.  1.
</event>
<event>
 5   0  0.3608845E-03  0.9917458E+03  0.7818609E-02  0.9317644E-01
        1   -1    0    0  501    0  0.00000000000E+00  0.00000000000E+00  0.91915020430E+03  0.91915020431E+03  0.50400001928E-02 0.  1.
       -1   -1    0    0    0  501  0.00000000000E+00  0.00000000000E+00 -0.26751877798E+03  0.26751877803E+03  0.50400001928E-02 0. -1.
    10030    2    1    2    0    0  0.00000000000E+00  0.00000000000E+00  0.65163142632E+03  0.11866689823E+04  0.99174581314E+03 0.  0.
        1    1    3    3  502    0 -0.18488055089E+03  0.27466097677E+03 -0.11588702415E+03  0.35078379759E+03  0.50400001928E-02 0. -1.
       -1    1    3    3    0  502  0.18488055089E+03 -0.27466097677E+03  0.76751845047E+03  0.83588518476E+03  0.50400001928E-02 0.  1.
</event>
<event>
 5   0  0.3643002E-03  0.9655156E+03  0.7818609E-02  0.9347197E-01
        1   -1    0    0  501    0  0.00000000000E+00  0.00000000000E+00  0.94554868791E+03  0.94554868793E+03  0.50400001928E-02 0. -1.
       -1   -1    0    0    0  501  0.00000000000E+00  0.00000000000E+00 -0.24647605508E+03  0.24647605513E+03  0.50400001928E-02 0.  1.
    10030    2    1    2    0    0  0.00000000000E+00  0.00000000000E+00  0.69907263284E+03  0.11920247431E+04  0.96551563533E+03 0.  0.
        2    1    3    3  502    0 -0.12190344847E+02  0.68306114910E+02 -0.24028787531E+03  0.25010516362E+03  0.25500000920E-02 0.  1.
       -2    1    3    3    0  502  0.12190344847E+02 -0.68306114910E+02  0.93936050815E+03  0.94191957943E+03  0.25500000920E-02 0. -1.
</event>
<event>
 5   0  0.3640180E-03  0.9350085E+03  0.7818609E-02  0.9382847E-01
        1   -1    0    0  501    0  0.00000000000E+00  0.00000000000E+00  0.55971969723E+03  0.55971969725E+03  0.50400001928E-02 0. -1.
       -1   -1    0    0    0  501  0.00000000000E+00  0.00000000000E+00 -0.39048158395E+03  0.39048158398E+03  0.50400001928E-02 0.  1.
    10030    2    1    2    0    0  0.00000000000E+00  0.00000000000E+00  0.16923811328E+03  0.95020128123E+03  0.93500852182E+03 0.  0.
        5    1    3    3  502    0 -0.38100534280E+03  0.22258824480E+03 -0.72250872691E+02  0.44716090680E+03  0.46999998093E+01 0.  1.
       -5    1    3    3    0  502  0.38100534280E+03 -0.22258824480E+03  0.24148898597E+03  0.50304037443E+03  0.46999998093E+01 0. -1.
</event>
<event>
 5   0  0.2417750E-03  0.9797192E+03  0.7818609E-02  0.9331072E-01
       -3   -1    0    0    0  501  0.00000000000E+00  0.00000000000E+00  0.82569698012E+03  0.82569698630E+03  0.10100000352E+00 0. -1.
        3   -1    0    0  501    0  0.00000000000E+00  0.00000000000E+00 -0.29061804019E+03  0.29061805774E+03  0.10100000352E+00 0.  1.
    10030    2    1    2    0    0  0.00000000000E+00  0.00000000000E+00  0.53507893994E+03  0.11163150440E+04  0.97971924834E+03 0.  0.
        2    1    3    3  502    0  0.20060844875E+02  0.38303747972E+03 -0.79643240495E+02  0.39174378633E+03  0.25500000920E-02 0.  1.
       -2    1    3    3    0  502 -0.20060844875E+02 -0.38303747972E+03  0.61472218043E+03  0.72457125770E+03  0.25500000920E-02 0. -1.
</event>
<event>
 5   0  0.3466598E-03  0.1000200E+04  0.7818609E-02  0.9308326E-01
        1   -1    0    0  501    0  0.00000000000E+00  0.00000000000E+00  0.15695182413E+04  0.15695182413E+04  0.50400001928E-02 0.  1.
       -1   -1    0    0    0  501  0.00000000000E+00  0.00000000000E+00 -0.15934819194E+03  0.15934819202E+03  0.50400001928E-02 0. -1.
    10030    2    1    2    0    0  0.00000000000E+00  0.00000000000E+00  0.14101700494E+04  0.17288664333E+04  0.10001997681E+04 0.  0.
        3    1    3    3  502    0  0.11845817137E+03 -0.71735835273E+02  0.15357136471E+04  0.15419451302E+04  0.10100000352E+00 0.  1.
       -3    1    3    3    0  502 -0.11845817137E+03  0.71735835273E+02 -0.12554359775E+03  0.18692130313E+03  0.10100000352E+00 0. -1.
</event>
<event>
 5   0  0.6360455E-03  0.1019199E+04  0.7818609E-02  0.9287735E-01
       -2   -1    0    0    0  501  0.00000000000E+00  0.00000000000E+00  0.15815482491E+03  0.15815482493E+03  0.25500000920E-02 0. -1.
        2   -1    0    0  501    0  0.00000000000E+00  0.00000000000E+00 -0.16420078028E+04  0.16420078028E+04  0.25500000920E-02 0.  1.
    10030    2    1    2    0    0  0.00000000000E+00  0.00000000000E+00 -0.14838529779E+04  0.18001626277E+04  0.10191986197E+04 0.  0.
        4    1    3    3  502    0 -0.32416412788E+03  0.39130516763E+03 -0.67380021553E+03  0.84392562431E+03  0.12699999809E+01 0.  1.
       -4    1    3    3    0  502  0.32416412788E+03 -0.39130516763E+03 -0.81005276236E+03  0.95623700342E+03  0.12699999809E+01 0. -1.
</event>
<event>
 5   0  0.3608845E-03  0.1004207E+04  0.7818609E-02  0.9303942E-01
       -1   -1    0    0    0  501  0.00000000000E+00  0.00000000000E+00  0.81167529405E+03  0.81167529407E+03  0.50400001928E-02 0.  1.
        1   -1    0    0  501    0  0.00000000000E+00  0.00000000000E+00 -0.31060203865E+03  0.31060203869E+03  0.50400001928E-02 0. -1.
    10030    2    1    2    0    0  0.00000000000E+00  0.00000000000E+00  0.50107325540E+03  0.11222773328E+04  0.10042071521E+04 0.  0.
        1    1    3    3  502    0 -0.34060460226E+03  0.10891017072E+03  0.64444844010E+03  0.73701201642E+03  0.50400001928E-02 0.  1.
       -1    1    3    3    0  502  0.34060460226E+03 -0.10891017072E+03 -0.14337518470E+03  0.38526531634E+03  0.50400001928E-02 0. -1.
</event>
<event>
 5   0  0.6022787E-03  0.9907069E+03  0.7818609E-02  0.9318796E-01
        2   -1    0    0  501    0  0.00000000000E+00  0.00000000000E+00  0.65670873004E+03  0.65670873004E+03  0.25500000920E-02 0. -1.
       -2   -1    0    0    0  501  0.00000000000E+00  0.00000000000E+00 -0.37364362630E+03  0.37364362630E+03  0.25500000920E-02 0.  1.
    10030    2    1    2    0    0  0.00000000000E+00  0.00000000000E+00  0.28306510374E+03  0.10303523563E+04  0.99070688161E+03 0.  0.
        5    1    3    3  502    0  0.31922767625E+03  0.24122505831E+03  0.44520533894E+03  0.59860314221E+03  0.46999998093E+01 0. -1.
       -5    1    3    3    0  502 -0.31922767625E+03 -0.24122505831E+03 -0.16214023520E+03  0.43174921414E+03  0.46999998093E+01 0.  1.
</event>
<event>
 5   0  0.6022787E-03  0.9914711E+03  0.7818609E-02  0.9317949E-01
       -2   -1    0    0    0  501  0.00000000000E+00  0.00000000000E+00  0.17864658578E+03  0.17864658580E+03  0.25500000920E-02 0.  1.
        2   -1    0    0  501    0  0.00000000000E+00  0.00000000000E+00 -0.13756420651E+04  0.13756420651E+04  0.25500000920E-02 0. -1.
    10030    2    1    2    0    0  0.00000000000E+00  0.00000000000E+00 -0.11969954793E+04  0.15542886509E+04  0.99147114574E+03 0.  0.
        5    1    3    3  502    0  0.16421929986E+03  0.45964494578E+03 -0.46282309364E+03  0.67265798192E+03  0.46999998093E+01 0. -1.
       -5    1    3    3    0  502 -0.16421929986E+03 -0.45964494578E+03 -0.73417238570E+03  0.88163066902E+03  0.46999998093E+01 0.  1.
</event>
<event>
 5   0  0.6022787E-03  0.1007320E+04  0.7818609E-02  0.9300552E-01
        2   -1    0    0  501    0  0.00000000000E+00  0.00000000000E+00  0.10302086814E+04  0.10302086814E+04  0.25500000920E-02 0. -1.
       -2   -1    0    0    0  501  0.00000000000E+00  0.00000000000E+00 -0.24623503877E+03  0.24623503878E+03  0.25500000920E-02 0.  1.
    10030    2    1    2    0    0  0.00000000000E+00  0.00000000000E+00  0.78397364264E+03  0.12764437202E+04  0.10073201569E+04 0.  0.
        5    1    3    3  502    0  0.47211439933E+02 -0.49576723957E+03  0.29684530766E+03  0.57978729079E+03  0.46999998093E+01 0. -1.
       -5    1    3    3    0  502 -0.47211439933E+02  0.49576723957E+03  0.48712833499E+03  0.69665642941E+03  0.46999998093E+01 0.  1.
</event>
<event>
 5   0  0.6199539E-03  0.9934005E+03  0.7818609E-02  0.9315813E-01
        2   -1    0    0  501    0  0.00000000000E+00  0.00000000000E+00  0.18459692910E+04  0.18459692910E+04  0.25500000920E-02 0.  1.
       -2   -1    0    0    0  501  0.00000000000E+00  0.00000000000E+00 -0.13364856905E+03  0.13364856907E+03  0.25500000920E-02 0. -1.
    10030    2    1    2    0    0  0.00000000000E+00  0.00000000000E+00  0.17123207219E+04  0.19796178600E+04  0.99340053204E+03 0.  0.
        2    1    3    3  502    0 -0.13351665864E+03  0.46539569821E+03  0.10770909693E+04  0.11809084681E+04  0.25500000920E-02 0.  1.
       -2    1    3    3    0  502  0.13351665864E+03 -0.46539569821E+03  0.63522975264E+03  0.79870939189E+03  0.25500000920E-02 0. -1.
</event>
<event>
 5   0  0.3569359E-03  0.1007780E+04  0.7818609E-02  0.9300052E-01
       -1   -1    0    0    0  501  0.00000000000E+00  0.00000000000E+00  0.64029646240E+03  0.64029646242E+03  0.50400001928E-02 0.  1.
        1   -1    0    0  501    0  0.00000000000E+00  0.00000000000E+00 -0.39654345113E+03  0.39654345117E+03  0.50400001928E-02 0. -1.
    10030    2    1    2    0    0  0.00000000000E+00  0.00000000000E+00  0.24375301127E+03  0.10368399136E+04  0.10077804701E+04 0.  0.
        4    1    3    3  502    0 -0.72159134486E+02 -0.23647941283E+03 -0.32984455561E+03  0.41222384350E+03  0.12699999809E+01 0. -1.
       -4    1    3    3    0  502  0.72159134486E+02  0.23647941283E+03  0.57359756688E+03  0.62461607009E+03  0.12699999809E+01 0.  1.
</event>
<event>
 5   0  0.6606947E-03  0.9743012E+03  0.7818609E-02  0.9337189E-01
        2   -1    0    0  501    0  0.00000000000E+00  0.00000000000E+00  0.75031528921E+03  0.75031528921E+03  0.25500000920E-02 0. -1.
       -2   -1    0    0    0  501  0.00000000000E+00  0.00000000000E+00 -0.31628796291E+03  0.31628796293E+03  0.25500000920E-02 0.  1.
    10030    2    1    2    0    0  0.00000000000E+00  0.00000000000E+00  0.43402732629E+03  0.10666032521E+04  0.97430117392E+03 0.  0.
        1    1    3    3  502    0 -0.40283847530E+03 -0.65595363683E+02 -0.74141241501E+02  0.41482347166E+03  0.50400001928E-02 0.  1.
       -1    1    3    3    0  502  0.40283847530E+03  0.65595363683E+02  0.50816856779E+03  0.65177978048E+03  0.50400001928E-02 0. -1.
</event>
<event>
 5   0  0.6022787E-03  0.9904701E+03  0.7818609E-02  0.9319059E-01
        2   -1    0    0  501    0  0.00000000000E+00  0.00000000000E+00  0.51847324203E+03  0.51847324203E+03  0.25500000920E-02 0.  1.
       -2   -1    0    0    0  501  0.00000000000E+00  0.00000000000E+00 -0.47303837391E+03  0.47303837392E+03  0.25500000920E-02 0. -1.
    10030    2    1    2    0    0  0.00000000000E+00  0.00000000000E+00  0.45434868116E+02  0.99151161595E+03  0.99047006887E+03 0.  0.
        5    1    3    3  502    0  0.47678903339E+03 -0.70831614909E+02  0.13637426213E+03  0.50096400010E+03  0.46999998093E+01 0.  1.
       -5    1    3    3    0  502 -0.47678903339E+03  0.70831614909E+02 -0.90939394011E+02  0.49054761585E+03  0.46999998093E+01 0. -1.
</event>
<event>
 5   0  0.6360455E-03  0.9717514E+03  0.7818609E-02  0.9340082E-01
        2   -1    0    0  501    0  0.00000000000E+00  0.00000000000E+00  0.47628045084E+03  0.47628045084E+03  0.25500000920E-02 0. -1.
       -2   -1    0    0    0  501  0.00000000000E+00  0.00000000000E+00 -0.49566426150E+03  0.49566426151E+03  0.25500000920E-02 0.  1.
    10030    2    1    2    0    0  0.00000000000E+00  0.00000000000E+00 -0.19383810665E+02  0.97194471235E+03  0.97175140430E+03 0.  0.
        4    1    3    3  502    0 -0.48519576421E+03 -0.25639539401E+02 -0.10818828049E+02  0.48599483076E+03  0.12699999809E+01 0. -1.
       -4    1    3    3    0  502  0.48519576421E+03  0.25639539401E+02 -0.85649826164E+01  0.48594988159E+03  0.12699999809E+01 0.  1.
</event>
<event>
 5   0  0.6022787E-03  0.1010302E+04  0.7818609E-02  0.9297318E-01
       -2   -1    0    0    0  501  0.00000000000E+00  0.00000000000E+00  0.34503468701E+03  0.34503468702E+03  0.25500000920E-02 0.  1.
        2   -1    0    0  501    0  0.00000000000E+00  0.00000000000E+00 -0.73956998344E+03  0.73956998344E+03  0.25500000920E-02 0. -1.
    10030    2    1    2    0    0  0.00000000000E+00  0.00000000000E+00 -0.39453529643E+03  0.10846046705E+04  0.10103015347E+04 0.  0.
        5    1    3    3  502    0 -0.47037362271E+03 -0.82893851026E+02 -0.20760076287E+02  0.47809602199E+03  0.46999998093E+01 0. -1.
       -5    1    3    3    0  502  0.47037362271E+03  0.82893851026E+02 -0.37377522014E+03  0.60650864847E+03  0.46999998093E+01 0.  1.
</event>
<event>
 5   0  0.6022787E-03  0.1005845E+04  0.7818609E-02  0.9302157E-01
       -2   -1    0    0    0  501  0.00000000000E+00  0.00000000000E+00  0.39065170805E+03  0.39065170806E+03  0.25500000920E-02 0.  1.
        2   -1    0    0  501    0  0.00000000000E+00  0.00000000000E+00 -0.64745952183E+03  0.64745952183E+03  0.25500000920E-02 0. -1.
    10030    2    1    2    0    0  0.00000000000E+00  0.00000000000E+00 -0.25680781378E+03  0.10381112299E+04  0.10058452527E+04 0.  0.
        5    1    3    3  502    0  0.29878963059E+03 -0.26447166103E+03 -0.44430856946E+03  0.59720406708E+03  0.46999998093E+01 0. -1.
       -5    1    3    3    0  502 -0.29878963059E+03  0.26447166103E+03  0.18750075568E+03  0.44090716281E+03  0.46999998093E+01 0.  1.
</event>
<event>
 5   0  0.3569359E-03  0.1015915E+04  0.7818609E-02  0.9291260E-01
        1   -1    0    0  501    0  0.00000000000E+00  0.00000000000E+00  0.59311460882E+03  0.59311460884E+03  0.50400001928E-02 0. -1.
       -1   -1    0    0    0  501  0.00000000000E+00  0.00000000000E+00 -0.43502703458E+03  0.43502703461E+03  0.50400001928E-02 0.  1.
    10030    2    1    2    0    0  0.00000000000E+00  0.00000000000E+00  0.15808757424E+03  0.10281416435E+04  0.10159151332E+04 0.  0.
        4    1    3    3  502    0  0.39721954418E+03 -0.31415072803E+03  0.39261281078E+02  0.50795384366E+03  0.12699999809E+01 0.  1.
       -4    1    3    3    0  502 -0.39721954418E+03  0.31415072803E+03  0.11882629316E+03  0.52018779979E+03  0.12699999809E+01 0. -1.
</event>
<event>
 5   0  0.3466598E-03  0.9992002E+03  0.7818609E-02  0.9309422E-01
        1   -1    0    0  501    0  0.00000000000E+00  0.00000000000E+00  0.11155604287E+04  0.11155604288E+04  0.50400001928E-02 0.  1.
       -1   -1    0    0    0  501  0.00000000000E+00  0.00000000000E+00 -0.22374427278E+03  0.22374427283E+03  0.50400001928E-02 0. -1.
    10030    2    1    2    0    0  0.00000000000E+00  0.00000000000E+00  0.89181615596E+03  0.13393047016E+04  0.99920019398E+03 0.  0.
        3    1    3    3  502    0 -0.31858490063E+03  0.17757915961E+02 -0.69376682859E+02  0.32653455684E+03  0.10100000352E+00 0. -1.
       -3    1    3    3    0  502  0.31858490063E+03 -0.17757915961E+02  0.96119283882E+03  0.10127701447E+04  0.10100000352E+00 0.  1.
</event>
<event>
 5   0  0.3640180E-03  0.9965539E+03  0.7818609E-02  0.9312333E-01
       -1   -1    0    0    0  501  0.00000000000E+00  0.00000000000E+00  0.27446788585E+03  0.27446788590E+03  0.50400001928E-02 0.  1.
        1   -1    0    0  501    0  0.00000000000E+00  0.00000000000E+00 -0.90458638519E+03  0.90458638521E+03  0.50400001928E-02 0. -1.
    10030    2    1    2    0    0  0.00000000000E+00  0.00000000000E+00 -0.63011849934E+03  0.11790542711E+04  0.99655388766E+03 0.  0.
        5    1    3    3  502    0 -0.53860934561E+02  0.39103991417E+01 -0.90108748865E+03  0.90271648024E+03  0.46999998093E+01 0. -1.
       -5    1    3    3    0  502  0.53860934561E+02 -0.39103991417E+01  0.27096898931E+03  0.27633779087E+03  0.46999998093E+01 0.  1.
</event>
<event>
 5   0  0.6606947E-03  0.1036110E+04  0.7818609E-02  0.9269803E-01
       -2   -1    0    0    0  501  0.00000000000E+00  0.00000000000E+00  0.76751592274E+03  0.76751592274E+03  0.25500000920E-02 0. -1.
        2   -1    0    0  501    0  0.00000000000E+00  0.00000000000E+00 -0.34967495343E+03  0.34967495344E+03  0.25500000920E-02 0.  1.
    10030    2    1    2    0    0  0.00000000000E+00  0.00000000000E+00  0.41784096931E+03  0.11171908762E+04  0.10361102153E+04 0.  0.
        1    1    3    3  502    0 -0.40556463919E+03  0.31798249721E+03  0.26582894805E+03  0.57987979336E+03  0.50400001928E-02 0. -1.
       -1    1    3    3    0  502  0.40556463919E+03 -0.31798249721E+03  0.15201202126E+03  0.53731108283E+03  0.50400001928E-02 0.  1.
</event>
<event>
 5   0  0.6022787E-03  0.1012135E+04  0.7818609E-02  0.9295335E-01
        2   -1    0    0  501    0  0.00000000000E+00  0.00000000000E+00  0.77557932955E+03  0.77557932955E+03  0.25500000920E-02 0. -1.
       -2   -1    0    0    0  501  0.00000000000E+00  0.00000000000E+00 -0.33021008252E+03  0.33021008253E+03  0.25500000920E-02 0.  1.
    10030    2    1    2    0    0  0.00000000000E+00  0.00000000000E+00  0.44536924703E+03  0.11057894121E+04  0.10121346045E+04 0.  0.
        5    1    3    3  502    0 -0.36832359924E+03 -0.13724811025E+03  0.57089687277E+03  0.69314114497E+03  0.46999998093E+01 0. -1.
       -5    1    3    3    0  502  0.36832359924E+03  0.13724811025E+03 -0.12552762574E+03  0.41264826710E+03  0.46999998093E+01 0.  1.
</event>
<event>
 5   0  0.3640180E-03  0.1007621E+04  0.7818609E-02  0.9300225E-01
       -1   -1    0    0    0  501  0.00000000000E+00  0.00000000000E+00  0.29439720845E+03  0.29439720849E+03  0.50400001928E-02 0. -1.
        1   -1    0    0  501    0  0.00000000000E+00  0.00000000000E+00 -0.86218628806E+03  0.86218628807E+03  0.50400001928E-02 0.  1.
    10030    2    1    2    0    0  0.00000000000E+00  0.00000000000E+00 -0.56778907961E+03  0.11565834966E+04  0.10076214297E+04 0.  0.
        5    1    3    3  502    0 -0.39837378196E+03  0.25672936011E+03 -0.87780859367E+02  0.48201577128E+03  0.46999998093E+01 0. -1.
       -5    1    3    3    0  502  0.39837378196E+03 -0.25672936011E+03 -0.48000822024E+03  0.67456772528E+03  0.46999998093E+01 0.  1.
</event>
<event>
 5   0  0.3608845E-03  0.1010148E+04  0.7818609E-02  0.9297484E-01
        1   -1    0    0  501    0  0.00000000000E+00  0.00000000000E+00  0.64384410306E+03  0.64384410308E+03  0.50400001928E-02 0.  1.
       -1   -1    0    0    0  501  0.00000000000E+00  0.00000000000E+00 -0.39621339785E+03  0.39621339788E+03  0.50400001928E-02 0. -1.
    10030    2    1    2    0    0  0.00000000000E+00  0.00000000000E+00  0.24763070520E+03  0.10400575010E+04  0.10101478303E+04 0.  0.
        1    1    3    3  502    0  0.34668758737E+03 -0.31334774322E+03  0.32111536490E+03  0.56700455820E+03  0.50400001928E-02 0. -1.
       -1    1    3    3    0  502 -0.34668758737E+03  0.31334774322E+03 -0.73484659697E+02  0.47305294276E+03  0.50400001928E-02 0.  1.
</event>
<event>
 5   0  0.6360455E-03  0.9949482E+03  0.7818609E-02  0.9314103E-01
        2   -1    0    0  501    0  0.00000000000E+00  0.00000000000E+00  0.16922715650E+04  0.16922715650E+04  0.25500000920E-02 0.  1.
       -2   -1    0    0    0  501  0.00000000000E+00  0.00000000000E+00 -0.14624160178E+03  0.14624160180E+03  0.25500000920E-02 0. -1.
    10030    2    1    2    0    0  0.00000000000E+00  0.00000000000E+00  0.15460299632E+04  0.18385131668E+04  0.99494824856E+03 0.  0.
        4    1    3    3  502    0 -0.86421344812E+02  0.37749634863E+03  0.19600464687E+03  0.43404098489E+03  0.12699999809E+01 0. -1.
       -4    1    3    3    0  502  0.86421344812E+02 -0.37749634863E+03  0.13500253163E+04  0.14044721819E+04  0.12699999809E+01 0.  1.
</event>
<event>
 5   0  0.3608845E-03  0.1002757E+04  0.7818609E-02  0.9305526E-01
        1   -1    0    0  501    0  0.00000000000E+00  0.00000000000E+00  0.16534570342E+04  0.16534570342E+04  0.50400001928E-02 0. -1.
       -1   -1    0    0    0  501  0.00000000000E+00  0.00000000000E+00 -0.15203312871E+03  0.15203312880E+03  0.50400001928E-02 0.  1.
    10030    2    1    2    0    0  0.00000000000E+00  0.00000000000E+00  0.15014239055E+04  0.18054901630E+04  0.10027566927E+04 0.  0.
        1    1    3    3  502    0 -0.33443503314E+03  0.75249484488E+02  0.91928378511E+02  0.35490858416E+03  0.50400001928E-02 0.  1.
       -1    1    3    3    0  502  0.33443503314E+03 -0.75249484488E+02  0.14094955270E+04  0.14505815789E+04  0.50400001928E-02 0. -1.
</event>
<event>
 5   0  0.6360455E-03  0.9144700E+03  0.7818609E-02  0.9407672E-01
        2   -1    0    0  501    0  0.00000000000E+00  0.00000000000E+00  0.32405313773E+03  0.32405313774E+03  0.25500000920E-02 0. -1.
       -2   -1    0    0    0  501  0.00000000000E+00  0.00000000000E+00 -0.64515290905E+03  0.64515290906E+03  0.25500000920E-02 0.  1.
    10030    2    1    2    0    0  0.00000000000E+00  0.00000000000E+00 -0.32109977132E+03  0.96920604680E+03  0.91446995468E+03 0.  0.
        4    1    3    3  502    0  0.44877606217E+03  0.32180548021E+02 -0.74273023017E+02  0.45601933786E+03  0.12699999809E+01 0. -1.
       -4    1    3    3    0  502 -0.44877606217E+03 -0.32180548021E+02 -0.24682674831E+03  0.51318670894E+03  0.12699999809E+01 0.  1.
</event>
<event>
 5   0  0.6606947E-03  0.9958013E+03  0.7818609E-02  0.9313162E-01
       -2   -1    0    0    0  501  0.00000000000E+00  0.00000000000E+00  0.37838920829E+03  0.37838920830E+03  0.25500000920E-02 0.  1.
        2   -1    0    0  501    0  0.00000000000E+00  0.00000000000E+00 -0.65515894281E+03  0.65515894281E+03  0.25500000920E-02 0. -1.
    10030    2    1    2    0    0  0.00000000000E+00  0.00000000000E+00 -0.27676973452E+03  0.10335481511E+04  0.99580133296E+03 0.  0.
        1    1    3    3  502    0 -0.35642727137E+03 -0.26779795918E+03  0.91714291730E+02  0.45515674009E+03  0.50400001928E-02 0.  1.
       -1    1    3    3    0  502  0.35642727137E+03  0.26779795918E+03 -0.36848402625E+03  0.57839141102E+03  0.50400001928E-02 0. -1.
</event>
<event>
 5   0  0.2417750E-03  0.9943603E+03  0.7818609E-02  0.9314752E-01
        4   -1    0    0  501    0  0.00000000000E+00  0.00000000000E+00  0.64465466638E+03  0.64465591735E+03  0.12699999809E+01 0.  1.
       -4   -1    0    0    0  501  0.00000000000E+00  0.00000000000E+00 -0.38343995004E+03  0.38344205324E+03  0.12699999809E+01 0. -1.
    10030    2    1    2    0    0  0.00000000000E+00  0.00000000000E+00  0.26121471633E+03  0.10280979706E+04  0.99436025117E+03 0.  0.
        1    1    3    3  502    0  0.98067212820E+02  0.19239331525E+03  0.59363643419E+03  0.63169342406E+03  0.50400001928E-02 0.  1.
       -1    1    3    3    0  502 -0.98067212820E+02 -0.19239331525E+03 -0.33242171785E+03  0.39640454653E+03  0.50400001928E-02 0. -1.
</event>
<event>
 5   0  0.3608845E-03  0.1002170E+04  0.7818609E-02  0.9306168E-01
        1   -1    0    0  501    0  0.00000000000E+00  0.00000000000E+00  0.75393552922E+03  0.75393552924E+03  0.50400001928E-02 0. -1.
       -1   -1    0    0    0  501  0.00000000000E+00  0.00000000000E+00 -0.33303399547E+03  0.33303399551E+03  0.50400001928E-02 0.  1.
    10030    2    1    2    0    0  0.00000000000E+00  0.00000000000E+00  0.42090153375E+03  0.10869695247E+04  0.10021699689E+04 0.  0.
        1    1    3    3  502    0  0.28243475172E+02  0.21441085845E+02 -0.33167142912E+03  0.33356161496E+03  0.50400001928E-02 0.  1.
       -1    1    3    3    0  502 -0.28243475172E+02 -0.21441085845E+02  0.75257296287E+03  0.75340790978E+03  0.50400001928E-02 0. -1.
</event>
<event>
 5   0  0.3640180E-03  0.9991085E+03  0.7818609E-02  0.9309523E-01
       -1   -1    0    0    0  501  0.00000000000E+00  0.00000000000E+00  0.24577310962E+03  0.24577310967E+03  0.50400001928E-02 0.  1.
        1   -1    0    0  501    0  0.00000000000E+00  0.00000000000E+00 -0.10153854870E+04  0.10153854870E+04  0.50400001928E-02 0. -1.
    10030    2    1    2    0    0  0.00000000000E+00  0.00000000000E+00 -0.76961237734E+03  0.12611585966E+04  0.99910849988E+03 0.  0.
        5    1    3    3  502    0 -0.24043331489E+03 -0.39156888903E+03 -0.13745655734E+03  0.47963607967E+03  0.46999998093E+01 0.  1.
       -5    1    3    3    0  502  0.24043331489E+03  0.39156888903E+03 -0.63215582001E+03  0.78152251697E+03  0.46999998093E+01 0. -1.
</event>
<event>
 5   0  0.6360455E-03  0.1015520E+04  0.7818609E-02  0.9291685E-01
       -2   -1    0    0    0  501  0.00000000000E+00  0.00000000000E+00  0.27590715297E+03  0.27590715298E+03  0.25500000920E-02 0.  1.
        2   -1    0    0  501    0  0.00000000000E+00  0.00000000000E+00 -0.93444479744E+03  0.93444479745E+03  0.25500000920E-02 0. -1.
    10030    2    1    2    0    0  0.00000000000E+00  0.00000000000E+00 -0.65853764448E+03  0.12103519504E+04  0.10155195787E+04 0.  0.
        4    1    3    3  502    0  0.11061232971E+03 -0.49517951025E+03 -0.30601830523E+03  0.59252565420E+03  0.12699999809E+01 0.  1.
       -4    1    3    3    0  502 -0.11061232971E+03  0.49517951025E+03 -0.35251933925E+03  0.61782629622E+03  0.12699999809E+01 0. -1.
</event>
<event>
 5   0  0.3569359E-03  0.9965057E+03  0.7818609E-02  0.9312386E-01
       -1   -1    0    0    0  501  0.00000000000E+00  0.00000000000E+00  0.18842268817E+03  0.18842268824E+03  0.50400001928E-02 0. -1.
        1   -1    0    0  501    0  0.00000000000E+00  0.00000000000E+00 -0.13175477678E+04  0.13175477678E+04  0.50400001928E-02 0.  1.
    10030    2    1    2    0    0  0.00000000000E+00  0.00000000000E+00 -0.11291250796E+04  0.15059704560E+04  0.99650567937E+03 0.  0.
        4    1    3    3  502    0  0.16947413055E+03  0.10063682467E+03  0.12699803463E+03  0.23447679012E+03  0.12699999809E+01 0. -1.
       -4    1    3    3    0  502 -0.16947413055E+03 -0.10063682467E+03 -0.12561231142E+04  0.12714936659E+04  0.12699999809E+01 0.  1.
</event>
<event>
 5   0  0.6360455E-03  0.9966026E+03  0.7818609E-02  0.9312279E-01
       -2   -1    0    0    0  501  0.00000000000E+00  0.00000000000E+00  0.36923348656E+03  0.36923348657E+03  0.25500000920E-02 0.  1.
        2   -1    0    0  501    0  0.00000000000E+00  0.00000000000E+00 -0.67248557342E+03  0.67248557343E+03  0.25500000920E-02 0. -1.
    10030    2    1    2    0    0  0.00000000000E+00  0.00000000000E+00 -0.30325208686E+03  0.10417190600E+04  0.99660261478E+03 0.  0.
        4    1    3    3  502    0  0.24103241220E+03  0.25863535089E+03  0.21543160075E+03  0.41400634773E+03  0.12699999809E+01 0.  1.
       -4    1    3    3    0  502 -0.24103241220E+03 -0.25863535089E+03 -0.51868368760E+03  0.62771271227E+03  0.12699999809E+01 0. -1.
</event>
<event>
 5   0  0.3643002E-03  0.1011289E+04  0.7818609E-02  0.9296250E-01
       -1   -1    0    0    0  501  0.00000000000E+00  0.00000000000E+00  0.34663080409E+03  0.34663080413E+03  0.50400001928E-02 0.  1.
        1   -1    0    0  501    0  0.00000000000E+00  0.00000000000E+00 -0.73760371410E+03  0.73760371412E+03  0.50400001928E-02 0. -1.
    10030    2    1    2    0    0  0.00000000000E+00  0.00000000000E+00 -0.39097291001E+03  0.10842345182E+04  0.10112886206E+04 0.  0.
        2    1    3    3  502    0  0.28216147129E+03  0.37602110046E+03 -0.39511380820E+03  0.61410250391E+03  0.25500000920E-02 0. -1.
       -2    1    3    3    0  502 -0.28216147129E+03 -0.37602110046E+03  0.41408981889E+01  0.47013201434E+03  0.25500000920E-02 0.  1.
</event>
<event>
 5   0  0.6606947E-03  0.9895998E+03  0.7818609E-02  0.9320026E-01
       -2   -1    0    0    0  501  0.00000000000E+00  0.00000000000E+00  0.14528034273E+03  0.14528034276E+03  0.25500000920E-02 0. -1.
        2   -1    0    0  501    0  0.00000000000E+00  0.00000000000E+00 -0.16852036584E+04  0.16852036584E+04  0.25500000920E-02 0.  1.
    10030    2    1    2    0    0  0.00000000000E+00  0.00000000000E+00 -0.15399233156E+04  0.18304840011E+04  0.98959984860E+03 0.  0.
        1    1    3    3  502    0 -0.42541682358E+03  0.22742633200E+03 -0.56628427805E+03  0.74389521699E+03  0.50400001928E-02 0. -1.
       -1    1    3    3    0  502  0.42541682358E+03 -0.22742633200E+03 -0.97363903758E+03  0.10865887841E+04  0.50400001928E-02 0.  1.
</event>
<event>
 5   0  0.3608845E-03  0.1016202E+04  0.7818609E-02  0.9290951E-01
       -1   -1    0    0    0  501  0.00000000000E+00  0.00000000000E+00  0.18545015716E+03  0.18545015723E+03  0.50400001928E-02 0. -1.
        1   -1    0    0  501    0  0.00000000000E+00  0.00000000000E+00 -0.13921080521E+04  0.13921080521E+04  0.50400001928E-02 0.  1.
    10030    2    1    2    0    0  0.00000000000E+00  0.00000000000E+00 -0.12066578949E+04  0.15775582093E+04  0.10162020608E+04 0.  0.
        1    1    3    3  502    0  0.22914972166E+03 -0.30646470774E+03 -0.84406154818E+02  0.39186044841E+03  0.50400001928E-02 0. -1.
       -1    1    3    3    0  502 -0.22914972166E+03  0.30646470774E+03 -0.11222517401E+04  0.11856977609E+04  0.50400001928E-02 0.  1.
</event>
<event>
 5   0  0.3608845E-03  0.1090334E+04  0.7818609E-02  0.9214665E-01
       -1   -1    0    0    0  501  0.00000000000E+00  0.00000000000E+00  0.11080858033E+04  0.11080858033E+04  0.50400001928E-02 0. -1.
        1   -1    0    0  501    0  0.00000000000E+00  0.00000000000E+00 -0.26821656038E+03  0.26821656043E+03  0.50400001928E-02 0.  1.
    10030    2    1    2    0    0  0.00000000000E+00  0.00000000000E+00  0.83986924293E+03  0.13763023637E+04  0.10903338256E+04 0.  0.
        1    1    3    3  502    0 -0.21937485370E+03 -0.47057180613E+03  0.62980605677E+03  0.81622228611E+03  0.50400001928E-02 0. -1.
       -1    1    3    3    0  502  0.21937485370E+03  0.47057180613E+03  0.21006318615E+03  0.56008007764E+03  0.50400001928E-02 0.  1.
</event>
<event>
 5   0  0.3466598E-03  0.1003080E+04  0.7818609E-02  0.9305173E-01
       -1   -1    0    0    0  501  0.00000000000E+00  0.00000000000E+00  0.87418835161E+03  0.87418835163E+03  0.50400001928E-02 0. -1.
        1   -1    0    0  501    0  0.00000000000E+00  0.00000000000E+00 -0.28774403800E+03  0.28774403805E+03  0.50400001928E-02 0.  1.
    10030    2    1    2    0    0  0.00000000000E+00  0.00000000000E+00  0.58644431361E+03  0.11619323897E+04  0.10030802287E+04 0.  0.
        3    1    3    3  502    0 -0.15109356198E+03 -0.14745520243E+03 -0.23376383513E+03  0.31498863791E+03  0.10100000352E+00 0.  1.
       -3    1    3    3    0  502  0.15109356198E+03  0.14745520243E+03  0.82020814874E+03  0.84694375176E+03  0.10100000352E+00 0. -1.
</event>
<event>
 5   0  0.6376961E-03  0.1031886E+04  0.7818609E-02  0.9274248E-01
        2   -1    0    0  501    0  0.00000000000E+00  0.00000000000E+00  0.29916284629E+03  0.29916284630E+03  0.25500000920E-02 0. -1.
       -2   -1    0    0    0  501  0.00000000000E+00  0.00000000000E+00 -0.88980689536E+03  0.88980689536E+03  0.25500000920E-02 0.  1.
    10030    2    1    2    0    0  0.00000000000E+00  0.00000000000E+00 -0.59064404907E+03  0.11889697417E+04  0.10318859694E+04 0.  0.
        3    1    3    3  502    0  0.62044861442E+02 -0.42008863458E+03  0.42328738222E+02  0.42675022907E+03  0.10100000352E+00 0. -1.
       -3    1    3    3    0  502 -0.62044861442E+02  0.42008863458E+03 -0.63297278729E+03  0.76221951259E+03  0.10100000352E+00 0.  1.
</event>
<event>
 5   0  0.6199539E-03  0.9943381E+03  0.7818609E-02  0.9314777E-01
        2   -1    0    0  501    0  0.00000000000E+00  0.00000000000E+00  0.48309154727E+03  0.48309154728E+03  0.25500000920E-02 0.  1.
       -2   -1    0    0    0  501  0.00000000000E+00  0.00000000000E+00 -0.51165676682E+03  0.51165676683E+03  0.25500000920E-02 0. -1.
    10030    2    1    2    0    0  0.00000000000E+00  0.00000000000E+00 -0.28565219555E+02  0.99474831411E+03  0.99433808971E+03 0.  0.
        2    1    3    3  502    0  0.44485763255E+03 -0.20705165017E+03 -0.94367869628E+02  0.49967388755E+03  0.25500000920E-02 0. -1.
       -2    1    3    3    0  502 -0.44485763255E+03  0.20705165017E+03  0.65802650073E+02  0.49507442656E+03  0.25500000920E-02 0.  1.
</event>
<event>
 5   0  0.3569359E-03  0.9881496E+03  0.7818609E-02  0.9321638E-01
        1   -1    0    0  501    0  0.00000000000E+00  0.00000000000E+00  0.41921387670E+03  0.41921387673E+03  0.50400001928E-02 0.  1.
       -1   -1    0    0    0  501  0.00000000000E+00  0.00000000000E+00 -0.58230392190E+03  0.58230392192E+03  0.50400001928E-02 0. -1.
    10030    2    1    2    0    0  0.00000000000E+00  0.00000000000E+00 -0.16309004520E+03  0.10015177987E+04  0.98814955254E+03 0.  0.
        4    1    3    3  502    0  0.32880023749E+03 -0.11086513361E+03  0.27493416552E+03  0.44270880079E+03  0.12699999809E+01 0.  1.
       -4    1    3    3    0  502 -0.32880023749E+03  0.11086513361E+03 -0.43802421072E+03  0.55880899787E+03  0.12699999809E+01 0. -1.
</event>
<event>
 5   0  0.6606947E-03  0.1004391E+04  0.7818609E-02  0.9303742E-01
       -2   -1    0    0    0  501  0.00000000000E+00  0.00000000000E+00  0.14265964924E+03  0.14265964926E+03  0.25500000920E-02 0. -1.
        2   -1    0    0  501    0  0.00000000000E+00  0.00000000000E+00 -0.17678449446E+04  0.17678449446E+04  0.25500000920E-02 0.  1.
    10030    2    1    2    0    0  0.00000000000E+00  0.00000000000E+00 -0.16251852954E+04  0.19105045939E+04  0.10043906406E+04 0.  0.
        1    1    3    3  502    0 -0.41389907556E+03  0.11937722245E+03 -0.13036162977E+04  0.13729453076E+04  0.50400001928E-02 0.  1.
       -1    1    3    3    0  502  0.41389907556E+03 -0.11937722245E+03 -0.32156899774E+03  0.53755928634E+03  0.50400001928E-02 0. -1.
</event>
<event>
 5   0  0.2417750E-03  0.9315674E+03  0.7818609E-02  0.9386959E-01
        4   -1    0    0  501    0  0.00000000000E+00  0.00000000000E+00  0.38540229330E+03  0.38540438578E+03  0.12699999809E+01 0. -1.
       -4   -1    0    0    0  501  0.00000000000E+00  0.00000000000E+00 -0.56292553999E+03  0.56292697260E+03  0.12699999809E+01 0.  1.
    10030    2    1    2    0    0  0.00000000000E+00  0.00000000000E+00 -0.17752324670E+03  0.94833135838E+03  0.93156742223E+03 0.  0.
        2    1    3    3  502    0  0.25346798488E+03  0.23160568770E+03  0.23165192865E+03  0.41418574334E+03  0.25500000920E-02 0. -1.
       -2    1    3    3    0  502 -0.25346798488E+03 -0.23160568770E+03 -0.40917517535E+03  0.53414561504E+03  0.25500000920E-02 0.  1.
</event>
<event>
 5   0  0.3569359E-03  0.9931196E+03  0.7818609E-02  0.9316123E-01
        1   -1    0    0  501    0  0.00000000000E+00  0.00000000000E+00  0.89347789626E+03  0.89347789627E+03  0.50400001928E-02 0.  1.
       -1   -1    0    0    0  501  0.00000000000E+00  0.00000000000E+00 -0.27596834704E+03  0.27596834708E+03  0.50400001928E-02 0. -1.
    10030    2    1    2    0    0  0.00000000000E+00  0.00000000000E+00  0.61750954922E+03  0.11694462434E+04  0.99311956618E+03 0.  0.
        4    1    3    3  502    0  0.24079578060E+03  0.40923515226E+03  0.47986022927E+03  0.67507293705E+03  0.12699999809E+01 0.  1.
       -4    1    3    3    0  502 -0.24079578060E+03 -0.40923515226E+03  0.13764931995E+03  0.49437330630E+03  0.12699999809E+01 0. -1.
</event>
<event>
 5   0  0.6606947E-03  0.1000005E+04  0.7818609E-02  0.9308539E-01
        2   -1    0    0  501    0  0.00000000000E+00  0.00000000000E+00  0.13909923208E+04  0.13909923208E+04  0.25500000920E-02 0.  1.
       -2   -1    0    0    0  501  0.00000000000E+00  0.00000000000E+00 -0.17972974534E+03  0.17972974536E+03  0.25500000920E-02 0. -1.
    10030    2    1    2    0    0  0.00000000000E+00  0.00000000000E+00  0.12112625755E+04  0.15707220662E+04  0.10000053912E+04 0.  0.
        1    1    3    3  502    0 -0.46794607629E+03 -0.16616014348E+03  0.69748744612E+03  0.85619592449E+03  0.50400001928E-02 0. -1.
       -1    1    3    3    0  502  0.46794607629E+03  0.16616014348E+03  0.51377512936E+03  0.71452614170E+03  0.50400001928E-02 0.  1.
</event>
<event>
 5   0  0.3608845E-03  0.1004139E+04  0.7818609E-02  0.9304017E-01
        1   -1    0    0  501    0  0.00000000000E+00  0.00000000000E+00  0.35554487473E+03  0.35554487476E+03  0.50400001928E-02 0. -1.
       -1   -1    0    0    0  501  0.00000000000E+00  0.00000000000E+00 -0.70897838054E+03  0.70897838056E+03  0.50400001928E-02 0.  1.
    10030    2    1    2    0    0  0.00000000000E+00  0.00000000000E+00 -0.35343350581E+03  0.10645232553E+04  0.10041386946E+04 0.  0.
        1    1    3    3  502    0 -0.16488379607E+03 -0.41285062009E+03 -0.42407466629E+03  0.61438719334E+03  0.50400001928E-02 0. -1.
       -1    1    3    3    0  502  0.16488379607E+03  0.41285062009E+03  0.70641160483E+02  0.45013606198E+03  0.50400001928E-02 0.  1.
</event>
<event>
 5   0  0.6606947E-03  0.9841823E+03  0.7818609E-02  0.9326066E-01
       -2   -1    0    0    0  501  0.00000000000E+00  0.00000000000E+00  0.36674552398E+03  0.36674552399E+03  0.25500000920E-02 0.  1.
        2   -1    0    0  501    0  0.00000000000E+00  0.00000000000E+00 -0.66027715544E+03  0.66027715544E+03  0.25500000920E-02 0. -1.
    10030    2    1    2    0    0  0.00000000000E+00  0.00000000000E+00 -0.29353163146E+03  0.10270226794E+04  0.98418228261E+03 0.  0.
        1    1    3    3  502    0  0.11933720767E+03 -0.21156110220E+03  0.29982826136E+03  0.38587103471E+03  0.50400001928E-02 0.  1.
       -1    1    3    3    0  502 -0.11933720767E+03  0.21156110220E+03 -0.59335989282E+03  0.64115164472E+03  0.50400001928E-02 0. -1.
</event>
<event>
 5   0  0.3569359E-03  0.9614595E+03  0.7818609E-02  0.9351856E-01
        1   -1    0    0  501    0  0.00000000000E+00  0.00000000000E+00  0.76939681017E+03  0.76939681018E+03  0.50400001928E-02 0. -1.
       -1   -1    0    0    0  501  0.00000000000E+00  0.00000000000E+00 -0.30036660030E+03  0.30036660034E+03  0.50400001928E-02 0.  1.
    10030    2    1    2    0    0  0.00000000000E+00  0.00000000000E+00  0.46903020987E+03  0.10697634105E+04  0.96145952422E+03 0.  0.
        4    1    3    3  502    0  0.12165566322E+03  0.31193445449E+03  0.61833142639E+03  0.70316325989E+03  0.12699999809E+01 0. -1.
       -4    1    3    3    0  502 -0.12165566322E+03 -0.31193445449E+03 -0.14930121652E+03  0.36660015063E+03  0.12699999809E+01 0.  1.
</event>
<event>
 5   0  0.6199539E-03  0.9942069E+03  0.7818609E-02  0.9314922E-01
        2   -1    0    0  501    0  0.00000000000E+00  0.00000000000E+00  0.23056152787E+04  0.23056152787E+04  0.25500000920E-02 0.  1.
       -2   -1    0    0    0  501  0.00000000000E+00  0.00000000000E+00 -0.10717825572E+03  0.10717825575E+03  0.25500000920E-02 0. -1.
    10030    2    1    2    0    0  0.00000000000E+00  0.00000000000E+00  0.21984370229E+04  0.24127935344E+04  0.99420686773E+03 0.  0.
        2    1    3    3  502    0  0.14422454793E+03  0.46288839993E+03  0.13655696814E+04  0.14490848649E+04  0.25500000920E-02 0.  1.
       -2    1    3    3    0  502 -0.14422454793E+03 -0.46288839993E+03  0.83286734157E+03  0.96370866950E+03  0.25500000920E-02 0. -1.
</event>
<event>
 5   0  0.6199539E-03  0.1000781E+04  0.7818609E-02  0.9307688E-01
        2   -1    0    0  501    0  0.00000000000E+00  0.00000000000E+00  0.23206448480E+03  0.23206448481E+03  0.25500000920E-02 0. -1.
       -2   -1    0    0    0  501  0.00000000000E+00  0.00000000000E+00 -0.10789706107E+04  0.10789706107E+04  0.25500000920E-02 0.  1.
    10030    2    1    2    0    0  0.00000000000E+00  0.00000000000E+00 -0.84690612586E+03  0.13110350955E+04  0.10007812126E+04 0.  0.
        2    1    3    3  502    0  0.75685578521E+02 -0.16891785896E+03 -0.10324735549E+04  0.10489343122E+04  0.25500000920E-02 0.  1.
       -2    1    3    3    0  502 -0.75685578521E+02  0.16891785896E+03  0.18556742899E+03  0.26210078325E+03  0.25500000920E-02 0. -1.
</event>
<event>
 5   0  0.3569359E-03  0.1069391E+04  0.7818609E-02  0.9235550E-01
        1   -1    0    0  501    0  0.00000000000E+00  0.00000000000E+00  0.12694108842E+04  0.12694108842E+04  0.50400001928E-02 0. -1.
       -1   -1    0    0    0  501  0.00000000000E+00  0.00000000000E+00 -0.22522198562E+03  0.22522198568E+03  0.50400001928E-02 0.  1.
    10030    2    1    2    0    0  0.00000000000E+00  0.00000000000E+00  0.10441888985E+04  0.14946328699E+04  0.10693909294E+04 0.  0.
        4    1    3    3  502    0  0.14521101228E+02  0.28241778057E+02  0.12680895930E+04  0.12684877963E+04  0.12699999809E+01 0. -1.
       -4    1    3    3    0  502 -0.14521101228E+02 -0.28241778057E+02 -0.22390069450E+03  0.22614507358E+03  0.12699999809E+01 0.  1.
</event>
<event>
 5   0  0.3640180E-03  0.9947519E+03  0.7818609E-02  0.9314320E-01
       -1   -1    0    0    0  501  0.00000000000E+00  0.00000000000E+00  0.28770249782E+03  0.28770249786E+03  0.50400001928E-02 0.  1.
        1   -1    0    0  501    0  0.00000000000E+00  0.00000000000E+00 -0.85985641122E+03  0.85985641123E+03  0.50400001928E-02 0. -1.
    10030    2    1    2    0    0  0.00000000000E+00  0.00000000000E+00 -0.57215391340E+03  0.11475589091E+04  0.99475190335E+03 0.  0.
        5    1    3    3  502    0  0.49278391840E+03  0.49867040101E+02 -0.33815636854E+03  0.59974538889E+03  0.46999998093E+01 0. -1.
       -5    1    3    3    0  502 -0.49278391840E+03 -0.49867040101E+02 -0.23399754486E+03  0.54781352020E+03  0.46999998093E+01 0.  1.
</event>
<event>
 5   0  0.3643002E-03  0.1006244E+04  0.7818609E-02  0.9301723E-01
        1   -1    0    0  501    0  0.00000000000E+00  0.00000000000E+00  0.17083471569E+04  0.17083471569E+04  0.50400001928E-02 0. -1.
       -1   -1    0    0    0  501  0.00000000000E+00  0.00000000000E+00 -0.14817352585E+03  0.14817352594E+03  0.50400001928E-02 0.  1.
    10030    2    1    2    0    0  0.00000000000E+00  0.00000000000E+00  0.15601736310E+04  0.18565206828E+04  0.10062441487E+04 0.  0.
        2    1    3    3  502    0 -0.16456623946E+03 -0.93840447568E+02  0.16400306049E+04  0.16509356322E+04  0.25500000920E-02 0. -1.
       -2    1    3    3    0  502  0.16456623946E+03  0.93840447568E+02 -0.79856973828E+02  0.20558505064E+03  0.25500000920E-02 0.  1.
</event>
<event>
 5   0  0.6376961E-03  0.9990824E+03  0.7818609E-02  0.9309552E-01
       -2   -1    0    0    0  501  0.00000000000E+00  0.00000000000E+00  0.13890409841E+03  0.13890409843E+03  0.25500000920E-02 0.  1.
        2   -1    0    0  501    0  0.00000000000E+00  0.00000000000E+00 -0.17965013116E+04  0.17965013116E+04  0.25500000920E-02 0. -1.
    10030    2    1    2    0    0  0.00000000000E+00  0.00000000000E+00 -0.16575972132E+04  0.19354054101E+04  0.99908236900E+03 0.  0.
        3    1    3    3  502    0 -0.37787464900E+03 -0.29009521578E+03 -0.11200011004E+04  0.12171059771E+04  0.10100000352E+00 0.  1.
       -3    1    3    3    0  502  0.37787464900E+03  0.29009521578E+03 -0.53759611286E+03  0.71829943293E+03  0.10100000352E+00 0. -1.
</event>
<event>
 5   0  0.3643002E-03  0.1033263E+04  0.7818609E-02  0.9272796E-01
       -1   -1    0    0    0  501  0.00000000000E+00  0.00000000000E+00  0.30899691603E+03  0.30899691607E+03  0.50400001928E-02 0.  1.
        1   -1    0    0  501    0  0.00000000000E+00  0.00000000000E+00 -0.86378920884E+03  0.86378920885E+03  0.50400001928E-02 0. -1.
    10030    2    1    2    0    0  0.00000000000E+00  0.00000000000E+00 -0.55479229281E+03  0.11727861249E+04  0.10332631836E+04 0.  0.
        2    1    3    3  502    0  0.13255865512E+03  0.53419737567E+02 -0.84090548448E+03  0.85296394955E+03  0.25500000920E-02 0. -1.
       -2    1    3    3    0  502 -0.13255865512E+03 -0.53419737567E+02  0.28611319166E+03  0.31982217537E+03  0.25500000920E-02 0.  1.
</event>
<event>
 5   0  0.3608845E-03  0.1012134E+04  0.7818609E-02  0.9295335E-01
        1   -1    0    0  501    0  0.00000000000E+00  0.00000000000E+00  0.14459217112E+04  0.14459217112E+04  0.50400001928E-02 0. -1.
       -1   -1    0    0    0  501  0.00000000000E+00  0.00000000000E+00 -0.17712156108E+03  0.17712156115E+03  0.50400001928E-02 0.  1.
    10030    2    1    2    0    0  0.00000000000E+00  0.00000000000E+00  0.12688001501E+04  0.16230432723E+04  0.10121342021E+04 0.  0.
        1    1    3    3  502    0 -0.56363309323E+01  0.35407802162E+02  0.14438824847E+04  0.14443275634E+04  0.50400001928E-02 0. -1.
       -1    1    3    3    0  502  0.56363309323E+01 -0.35407802162E+02 -0.17508233465E+03  0.17871570891E+03  0.50400001928E-02 0.  1.
</event>
<event>
 5   0  0.6606947E-03  0.1002180E+04  0.7818609E-02  0.9306157E-01
       -2   -1    0    0    0  501  0.00000000000E+00  0.00000000000E+00  0.23868464997E+03  0.23868464998E+03  0.25500000920E-02 0.  1.
        2   -1    0    0  501    0  0.00000000000E+00  0.00000000000E+00 -0.10519787695E+04  0.10519787695E+04  0.25500000920E-02 0. -1.
    10030    2    1    2    0    0  0.00000000000E+00  0.00000000000E+00 -0.81329411951E+03  0.12906634195E+04  0.10021799926E+04 0.  0.
        1    1    3    3  502    0  0.33734780661E+03  0.23342801755E+03 -0.77722522348E+03  0.87884653384E+03  0.50400001928E-02 0. -1.
       -1    1    3    3    0  502 -0.33734780661E+03 -0.23342801755E+03 -0.36068896032E+02  0.41181688563E+03  0.50400001928E-02 0.  1.
</event>
<event>
 5   0  0.3640180E-03  0.1004277E+04  0.7818609E-02  0.9303866E-01
        1   -1    0    0  501    0  0.00000000000E+00  0.00000000000E+00  0.38900064903E+03  0.38900064906E+03  0.50400001928E-02 0. -1.
       -1   -1    0    0    0  501  0.00000000000E+00  0.00000000000E+00 -0.64818191768E+03  0.64818191770E+03  0.50400001928E-02 0.  1.
    10030    2    1    2    0    0  0.00000000000E+00  0.00000000000E+00 -0.25918126866E+03  0.10371825668E+04  0.10042772261E+04 0.  0.
        5    1    3    3  502    0  0.20586063746E+03  0.41464105588E+03 -0.33042374192E+03  0.56877741385E+03  0.46999998093E+01 0.  1.
       -5    1    3    3    0  502 -0.20586063746E+03 -0.41464105588E+03  0.71242473265E+02  0.46840515291E+03  0.46999998093E+01 0. -1.
</event>
<event>
 5   0  0.3640180E-03  0.1010522E+04  0.7818609E-02  0.9297079E-01
       -1   -1    0    0    0  501  0.00000000000E+00  0.00000000000E+00  0.20740134081E+03  0.20740134087E+03  0.50400001928E-02 0. -1.
        1   -1    0    0  501    0  0.00000000000E+00  0.00000000000E+00 -0.12308916159E+04  0.12308916159E+04  0.50400001928E-02 0.  1.
    10030    2    1    2    0    0  0.00000000000E+00  0.00000000000E+00 -0.10234902751E+04  0.14382929568E+04  0.10105217892E+04 0.  0.
        5    1    3    3  502    0  0.33592076279E+03 -0.34065753619E+03 -0.74290237901E+03  0.88363813327E+03  0.46999998093E+01 0.  1.
       -5    1    3    3    0  502 -0.33592076279E+03  0.34065753619E+03 -0.28058789610E+03  0.55465482353E+03  0.46999998093E+01 0. -1.
</event>
<event>
 5   0  0.6199539E-03  0.1006712E+04  0.7818609E-02  0.9301214E-01
        2   -1    0    0  501    0  0.00000000000E+00  0.00000000000E+00  0.17876333160E+04  0.17876333160E+04  0.25500000920E-02 0.  1.
       -2   -1    0    0    0  501  0.00000000000E+00  0.00000000000E+00 -0.14173332504E+03  0.14173332506E+03  0.25500000920E-02 0. -1.
    10030    2    1    2    0    0  0.00000000000E+00  0.00000000000E+00  0.16458999910E+04  0.19293666411E+04  0.10067119029E+04 0.  0.
        2    1    3    3  502    0 -0.84536715318E+02 -0.41520571506E+03  0.13436783262E+04  0.14089051375E+04  0.25500000920E-02 0.  1.
       -2    1    3    3    0  502  0.84536715318E+02  0.41520571506E+03  0.30222166473E+03  0.52046150356E+03  0.25500000920E-02 0. -1.
</event>
<event>
 5   0  0.6199539E-03  0.1003244E+04  0.7818609E-02  0.9304994E-01
        2   -1    0    0  501    0  0.00000000000E+00  0.00000000000E+00  0.70879128254E+03  0.70879128254E+03  0.25500000920E-02 0. -1.
       -2   -1    0    0    0  501  0.00000000000E+00  0.00000000000E+00 -0.35500555855E+03  0.35500555856E+03  0.25500000920E-02 0.  1.
    10030    2    1    2    0    0  0.00000000000E+00  0.00000000000E+00  0.35378572399E+03  0.10637968411E+04  0.10032444272E+04 0.  0.
        2    1    3    3  502    0 -0.42210221286E+03 -0.17513340982E+03 -0.42431475355E+02  0.45895797133E+03  0.25500000920E-02 0.  1.
       -2    1    3    3    0  502  0.42210221286E+03  0.17513340982E+03  0.39621719934E+03  0.60483886978E+03  0.25500000920E-02 0. -1.
</event>
<event>
 5   0  0.3466598E-03  0.1008879E+04  0.7818609E-02  0.9298860E-01
       -1   -1    0    0    0  501  0.00000000000E+00  0.00000000000E+00  0.55617860037E+03  0.55617860040E+03  0.50400001928E-02 0.  1.
        1   -1    0    0  501    0  0.00000000000E+00  0.00000000000E+00 -0.45751304379E+03  0.45751304382E+03  0.50400001928E-02 0. -1.
    10030    2    1    2    0    0  0.00000000000E+00  0.00000000000E+00  0.98665556583E+02  0.10136916442E+04  0.10088785147E+04 0.  0.
        3    1    3    3  502    0  0.39163554894E+03  0.20356970510E+03 -0.19604517622E+03  0.48296247198E+03  0.10100000352E+00 0. -1.
       -3    1    3    3    0  502 -0.39163554894E+03 -0.20356970510E+03  0.29471073281E+03  0.53072917223E+03  0.10100000352E+00 0.  1.
</event>
<event>
 5   0  0.6022787E-03  0.9931975E+03  0.7818609E-02  0.9316037E-01
        2   -1    0    0  501    0  0.00000000000E+00  0.00000000000E+00  0.13330400285E+04  0.13330400285E+04  0.25500000920E-02 0.  1.
       -2   -1    0    0    0  501  0.00000000000E+00  0.00000000000E+00 -0.18499843360E+03  0.18499843362E+03  0.25500000920E-02 0. -1.
    10030    2    1    2    0    0  0.00000000000E+00  0.00000000000E+00  0.11480415949E+04  0.15180384621E+04  0.99319749739E+03 0.  0.
        5    1    3    3  502    0  0.47577894585E+03  0.12583986961E+03  0.67525527751E+03  0.83557947432E+03  0.46999998093E+01 0.  1.
       -5    1    3    3    0  502 -0.47577894585E+03 -0.12583986961E+03  0.47278631734E+03  0.68245898775E+03  0.46999998093E+01 0. -1.
</event>
<event>
 5   0  0.3569359E-03  0.1007049E+04  0.7818609E-02  0.9300847E-01
        1   -1    0    0  501    0  0.00000000000E+00  0.00000000000E+00  0.19327566636E+04  0.19327566636E+04  0.50400001928E-02 0.  1.
       -1   -1    0    0    0  501  0.00000000000E+00  0.00000000000E+00 -0.13117894910E+03  0.13117894920E+03  0.50400001928E-02 0. -1.
    10030    2    1    2    0    0  0.00000000000E+00  0.00000000000E+00  0.18015777145E+04  0.20639356128E+04  0.10070491311E+04 0.  0.
        4    1    3    3  502    0  0.42339363045E+03  0.58961625809E+02  0.35546800826E+03  0.55596560813E+03  0.12699999809E+01 0. -1.
       -4    1    3    3    0  502 -0.42339363045E+03 -0.58961625809E+02  0.14461097063E+04  0.15079700047E+04  0.12699999809E+01 0.  1.
</event>
<event>
 5   0  0.6199539E-03  0.9981731E+03  0.7818609E-02  0.9310551E-01
        2   -1    0    0  501    0  0.00000000000E+00  0.00000000000E+00  0.99703220642E+03  0.99703220643E+03  0.25500000920E-02 0. -1.
       -2   -1    0    0    0  501  0.00000000000E+00  0.00000000000E+00 -0.24982881672E+03  0.24982881673E+03  0.25500000920E-02 0.  1.
    10030    2    1    2    0    0  0.00000000000E+00  0.00000000000E+00  0.74720338970E+03  0.12468610232E+04  0.99817308394E+03 0.  0.
        2    1    3    3  502    0 -0.49647770923E+03  0.50784886631E+02  0.37892426045E+03  0.62662015259E+03  0.25500000920E-02 0.  1.
       -2    1    3    3    0  502  0.49647770923E+03 -0.50784886631E+02  0.36827912925E+03  0.62024087057E+03  0.25500000920E-02 0. -1.
</event>
<event>
 5   0  0.3466598E-03  0.1008035E+04  0.7818609E-02  0.9299775E-01
       -1   -1    0    0    0  501  0.00000000000E+00  0.00000000000E+00  0.25009795448E+03  0.25009795453E+03  0.50400001928E-02 0. -1.
        1   -1    0    0  501    0  0.00000000000E+00  0.00000000000E+00 -0.10157374524E+04  0.10157374524E+04  0.50400001928E-02 0.  1.
    10030    2    1    2    0    0  0.00000000000E+00  0.00000000000E+00 -0.76563949793E+03  0.12658354070E+04  0.10080354343E+04 0.  0.
        3    1    3    3  502    0  0.36283022767E+03  0.13607756411E+03 -0.78753403723E+03  0.87770880568E+03  0.10100000352E+00 0.  1.
       -3    1    3    3    0  502 -0.36283022767E+03 -0.13607756411E+03  0.21894539303E+02  0.38812660128E+03  0.10100000352E+00 0. -1.
</event>
<event>
 5   0  0.3640180E-03  0.9913112E+03  0.7818609E-02  0.9318126E-01
       -1   -1    0    0    0  501  0.00000000000E+00  0.00000000000E+00  0.26512955274E+03  0.26512955279E+03  0.50400001928E-02 0.  1.
        1   -1    0    0  501    0  0.00000000000E+00  0.00000000000E+00 -0.92662057159E+03  0.92662057160E+03  0.50400001928E-02 0. -1.
    10030    2    1    2    0    0  0.00000000000E+00  0.00000000000E+00 -0.66149101885E+03  0.11917501244E+04  0.99131124828E+03 0.  0.
        5    1    3    3  502    0  0.17003015112E+03 -0.25365726710E+03  0.13857319574E+03  0.33537573260E+03  0.46999998093E+01 0.  1.
       -5    1    3    3    0  502 -0.17003015112E+03  0.25365726710E+03 -0.80006421459E+03  0.85637439179E+03  0.46999998093E+01 0. -1.
</event>
<event>
 5   0  0.3643002E-03  0.1035635E+04  0.7818609E-02  0.9270302E-01
       -1   -1    0    0    0  501  0.00000000000E+00  0.00000000000E+00  0.33197325644E+03  0.33197325648E+03  0.50400001928E-02 0. -1.
        1   -1    0    0  501    0  0.00000000000E+00  0.00000000000E+00 -0.80770055373E+03  0.80770055374E+03  0.50400001928E-02 0.  1.
    10030    2    1    2    0    0  0.00000000000E+00  0.00000000000E+00 -0.47572729729E+03  0.11396738102E+04  0.10356350382E+04 0.  0.
        2    1    3    3  502    0  0.47250121893E+03  0.15159819125E+03 -0.40070022275E+03  0.63780881304E+03  0.25500000920E-02 0.  1.
       -2    1    3    3    0  502 -0.47250121893E+03 -0.15159819125E+03 -0.75027074540E+02  0.50186499718E+03  0.25500000920E-02 0. -1.
</event>
<event>
 5   0  0.3640180E-03  0.9467215E+03  0.7818609E-02  0.9368991E-01
        1   -1    0    0  501    0  0.00000000000E+00  0.00000000000E+00  0.20593000188E+04  0.20593000188E+04  0.50400001928E-02 0. -1.
       -1   -1    0    0    0  501  0.00000000000E+00  0.00000000000E+00 -0.10880900209E+03  0.10880900221E+03  0.50400001928E-02 0.  1.
    10030    2    1    2    0    0  0.00000000000E+00  0.00000000000E+00  0.19504910167E+04  0.21681090210E+04  0.94672145889E+03 0.  0.
        5    1    3    3  502    0 -0.14988213745E+03 -0.32182495638E+03  0.25827835836E+03  0.43905097434E+03  0.46999998093E+01 0.  1.
       -5    1    3    3    0  502  0.14988213745E+03  0.32182495638E+03  0.16922126583E+04  0.17290580466E+04  0.46999998093E+01 0. -1.
</event>
<event>
 5   0  0.6199539E-03  0.9108930E+03  0.7818609E-02  0.9412066E-01
       -2   -1    0    0    0  501  0.00000000000E+00  0.00000000000E+00  0.10538338491E+03  0.10538338494E+03  0.25500000920E-02 0. -1.
        2   -1    0    0  501    0  0.00000000000E+00  0.00000000000E+00 -0.19683511463E+04  0.19683511463E+04  0.25500000920E-02 0.  1.
    10030    2    1    2    0    0  0.00000000000E+00  0.00000000000E+00 -0.18629677614E+04  0.20737345313E+04  0.91089298280E+03 0.  0.
        2    1    3    3  502    0 -0.27208647123E+03 -0.24238980451E+03 -0.30947892048E+03  0.47808060762E+03  0.25500000920E-02 0. -1.
       -2    1    3    3    0  502  0.27208647123E+03  0.24238980451E+03 -0.15534888409E+04  0.15956539236E+04  0.25500000920E-02 0.  1.
</event>
<event>
 5   0  0.6199539E-03  0.9983266E+03  0.7818609E-02  0.9310382E-01
       -2   -1    0    0    0  501  0.00000000000E+00  0.00000000000E+00  0.14345611897E+03  0.14345611899E+03  0.25500000920E-02 0. -1.
        2   -1    0    0  501    0  0.00000000000E+00  0.00000000000E+00 -0.17368654789E+04  0.17368654789E+04  0.25500000920E-02 0.  1.
    10030    2    1    2    0    0  0.00000000000E+00  0.00000000000E+00 -0.15934093600E+04  0.18803215979E+04  0.99832656142E+03 0.  0.
        2    1    3    3  502    0  0.34756169789E+03  0.49596536890E+02 -0.12838992476E+03  0.37382204737E+03  0.25500000920E-02 0. -1.
       -2    1    3    3    0  502 -0.34756169789E+03 -0.49596536890E+02 -0.14650194352E+04  0.15064995506E+04  0.25500000920E-02 0.  1.
</event>
<event>
 5   0  0.3569359E-03  0.9972865E+03  0.7818609E-02  0.9311526E-01
       -1   -1    0    0    0  501  0.00000000000E+00  0.00000000000E+00  0.11511400024E+04  0.11511400024E+04  0.50400001928E-02 0.  1.
        1   -1    0    0  501    0  0.00000000000E+00  0.00000000000E+00 -0.21599899933E+03  0.21599899939E+03  0.50400001928E-02 0. -1.
    10030    2    1    2    0    0  0.00000000000E+00  0.00000000000E+00  0.93514100307E+03  0.13671390018E+04  0.99728649575E+03 0.  0.
        4    1    3    3  502    0 -0.94881571064E+02 -0.35279547679E+03  0.23334185675E+01  0.36534123599E+03  0.12699999809E+01 0. -1.
       -4    1    3    3    0  502  0.94881571064E+02  0.35279547679E+03  0.93280758450E+03  0.10017977658E+04  0.12699999809E+01 0.  1.
</event>
<event>
 5   0  0.6360455E-03  0.9960449E+03  0.7818609E-02  0.9312893E-01
       -2   -1    0    0    0  501  0.00000000000E+00  0.00000000000E+00  0.15809023424E+03  0.15809023426E+03  0.25500000920E-02 0. -1.
        2   -1    0    0  501    0  0.00000000000E+00  0.00000000000E+00 -0.15688911681E+04  0.15688911681E+04  0.25500000920E-02 0.  1.
    10030    2    1    2    0    0  0.00000000000E+00  0.00000000000E+00 -0.14108009339E+04  0.17269814024E+04  0.99604492326E+03 0.  0.
        4    1    3    3  502    0 -0.46201836543E+03  0.13792090169E+03 -0.48924969176E+03  0.68691339986E+03  0.12699999809E+01 0. -1.
       -4    1    3    3    0  502  0.46201836543E+03 -0.13792090169E+03 -0.92155124215E+03  0.10400680025E+04  0.12699999809E+01 0.  1.
</event>
<event>
 5   0  0.3640180E-03  0.9945299E+03  0.7818609E-02  0.9314565E-01
        1   -1    0    0  501    0  0.00000000000E+00  0.00000000000E+00  0.14550001878E+04  0.14550001878E+04  0.50400001928E-02 0.  1.
       -1   -1    0    0    0  501  0.00000000000E+00  0.00000000000E+00 -0.16994667745E+03  0.16994667752E+03  0.50400001928E-02 0. -1.
    10030    2    1    2    0    0  0.00000000000E+00  0.00000000000E+00  0.12850535103E+04  0.16249468653E+04  0.99452993452E+03 0.  0.
        5    1    3    3  502    0  0.24759102924E+03 -0.13648068808E+03  0.13108674540E+04  0.13410159835E+04  0.46999998093E+01 0.  1.
       -5    1    3    3    0  502 -0.24759102924E+03  0.13648068808E+03 -0.25813943658E+02  0.28393088184E+03  0.46999998093E+01 0. -1.
</event>
<event>
 5   0  0.3640180E-03  0.1018714E+04  0.7818609E-02  0.9288255E-01
       -1   -1    0    0    0  501  0.00000000000E+00  0.00000000000E+00  0.58186471592E+03  0.58186471594E+03  0.50400001928E-02 0. -1.
        1   -1    0    0  501    0  0.00000000000E+00  0.00000000000E+00 -0.44588446279E+03  0.44588446282E+03  0.50400001928E-02 0.  1.
    10030    2    1    2    0    0  0.00000000000E+00  0.00000000000E+00  0.13598025313E+03  0.10277491788E+04  0.10187137700E+04 0.  0.
        5    1    3    3  502    0  0.21778180605E+03 -0.33309718888E+03  0.38867684461E+03  0.55630426191E+03  0.46999998093E+01 0. -1.
       -5    1    3    3    0  502 -0.21778180605E+03  0.33309718888E+03 -0.25269659148E+03  0.47144491686E+03  0.46999998093E+01 0.  1.
</event>
<event>
 5   0  0.3466598E-03  0.9969378E+03  0.7818609E-02  0.9311910E-01
        1   -1    0    0  501    0  0.00000000000E+00  0.00000000000E+00  0.34063415703E+03  0.34063415707E+03  0.50400001928E-02 0.  1.
       -1   -1    0    0    0  501  0.00000000000E+00  0.00000000000E+00 -0.72943720097E+03  0.72943720099E+03  0.50400001928E-02 0. -1.
    10030    2    1    2    0    0  0.00000000000E+00  0.00000000000E+00 -0.38880304394E+03  0.10700713581E+04  0.99693776353E+03 0.  0.
        3    1    3    3  502    0  0.22500320207E+03  0.33858201132E+03  0.11521534775E+03  0.42253852592E+03  0.10100000352E+00 0.  1.
       -3    1    3    3    0  502 -0.22500320207E+03 -0.33858201132E+03 -0.50401839168E+03  0.64753283213E+03  0.10100000352E+00 0. -1.
</event>
<event>
 5   0  0.6199539E-03  0.1006813E+04  0.7818609E-02  0.9301103E-01
       -2   -1    0    0    0  501  0.00000000000E+00  0.00000000000E+00  0.38553324151E+03  0.38553324152E+03  0.25500000920E-02 0.  1.
        2   -1    0    0  501    0  0.00000000000E+00  0.00000000000E+00 -0.65731892528E+03  0.65731892529E+03  0.25500000920E-02 0. -1.
    10030    2    1    2    0    0  0.00000000000E+00  0.00000000000E+00 -0.27178568377E+03  0.10428521668E+04  0.10068133809E+04 0.  0.
        2    1    3    3  502    0 -0.20394221947E+03  0.44638667428E+03 -0.19787652776E+02  0.49116702156E+03  0.25500000920E-02 0. -1.
       -2    1    3    3    0  502  0.20394221947E+03 -0.44638667428E+03 -0.25199803100E+03  0.55168514525E+03  0.25500000920E-02 0.  1.
</event>
<event>
 5   0  0.3608845E-03  0.1012875E+04  0.7818609E-02  0.9294535E-01
       -1   -1    0    0    0  501  0.00000000000E+00  0.00000000000E+00  0.35909548566E+03  0.35909548569E+03  0.50400001928E-02 0. -1.
        1   -1    0    0  501    0  0.00000000000E+00  0.00000000000E+00 -0.71423637306E+03  0.71423637308E+03  0.50400001928E-02 0.  1.
    10030    2    1    2    0    0  0.00000000000E+00  0.00000000000E+00 -0.35514088741E+03  0.10733318588E+04  0.10128752288E+04 0.  0.
        1    1    3    3  502    0 -0.72917683811E+01 -0.58094346037E+02 -0.71063774435E+03  0.71304566940E+03  0.50400001928E-02 0.  1.
       -1    1    3    3    0  502  0.72917683811E+01  0.58094346037E+02  0.35549685695E+03  0.36028618937E+03  0.50400001928E-02 0. -1.
</event>
<event>
 5   0  0.6199539E-03  0.1014523E+04  0.7818609E-02  0.9292758E-01
       -2   -1    0    0    0  501  0.00000000000E+00  0.00000000000E+00  0.60813156307E+03  0.60813156308E+03  0.25500000920E-02 0.  1.
        2   -1    0    0  501    0  0.00000000000E+00  0.00000000000E+00 -0.42312254784E+03  0.42312254785E+03  0.25500000920E-02 0. -1.
    10030    2    1    2    0    0  0.00000000000E+00  0.00000000000E+00  0.18500901523E+03  0.10312541109E+04  0.10145228955E+04 0.  0.
        2    1    3    3  502    0  0.19487530887E+03  0.30974483907E+03 -0.26456622064E+03  0.45156786472E+03  0.25500000920E-02 0. -1.
       -2    1    3    3    0  502 -0.19487530887E+03 -0.30974483907E+03  0.44957523587E+03  0.57968624621E+03  0.25500000920E-02 0.  1.
</event>
<event>
 5   0  0.6199539E-03  0.1001479E+04  0.7818609E-02  0.9306924E-01
        2   -1    0    0  501    0  0.00000000000E+00  0.00000000000E+00  0.45894693043E+03  0.45894693043E+03  0.25500000920E-02 0. -1.
       -2   -1    0    0    0  501  0.00000000000E+00  0.00000000000E+00 -0.54633747522E+03  0.54633747523E+03  0.25500000920E-02 0.  1.
    10030    2    1    2    0    0  0.00000000000E+00  0.00000000000E+00 -0.87390544797E+02  0.10052844057E+04  0.10014787212E+04 0.  0.
        2    1    3    3  502    0  0.36528488304E+03  0.10689185182E+03  0.28293484228E+03  0.47424786636E+03  0.25500000920E-02 0. -1.
       -2    1    3    3    0  502 -0.36528488304E+03 -0.10689185182E+03 -0.37032538707E+03  0.53103653931E+03  0.25500000920E-02 0.  1.
</event>
<event>
 5   0  0.3466598E-03  0.1006106E+04  0.7818609E-02  0.9301873E-01
        1   -1    0    0  501    0  0.00000000000E+00  0.00000000000E+00  0.11605615735E+04  0.11605615736E+04  0.50400001928E-02 0. -1.
       -1   -1    0    0    0  501  0.00000000000E+00  0.00000000000E+00 -0.21805179554E+03  0.21805179560E+03  0.50400001928E-02 0.  1.
    10030    2    1    2    0    0  0.00000000000E+00  0.00000000000E+00  0.94250977801E+03  0.13786133692E+04  0.10061064258E+04 0.  0.
        3    1    3    3  502    0  0.45286528908E+02 -0.81580787891E+02 -0.20609064423E+03  0.22622921671E+03  0.10100000352E+00 0.  1.
       -3    1    3    3    0  502 -0.45286528908E+02  0.81580787891E+02  0.11486004222E+04  0.11523841524E+04  0.10100000352E+00 0. -1.
</event>
<event>
 5   0  0.3608845E-03  0.9984608E+03  0.7818609E-02  0.9310235E-01
        1   -1    0    0  501    0  0.00000000000E+00  0.00000000000E+00  0.15047062495E+04  0.15047062495E+04  0.50400001928E-02 0.  1.
       -1   -1    0    0    0  501  0.00000000000E+00  0.00000000000E+00 -0.16563430535E+03  0.16563430542E+03  0.50400001928E-02 0. -1.
    10030    2    1    2    0    0  0.00000000000E+00  0.00000000000E+00  0.13390719441E+04  0.16703405549E+04  0.99846076427E+03 0.  0.
        1    1    3    3  502    0 -0.32166635640E+03 -0.11773848252E+03  0.61967263829E+02  0.34809702228E+03  0.50400001928E-02 0. -1.
       -1    1    3    3    0  502  0.32166635640E+03  0.11773848252E+03  0.12771046803E+04  0.13222435326E+04  0.50400001928E-02 0.  1.
</event>
<event>
 5   0  0.3466598E-03  0.1003262E+04  0.7818609E-02  0.9304975E-01
        1   -1    0    0  501    0  0.00000000000E+00  0.00000000000E+00  0.42764907424E+03  0.42764907427E+03  0.50400001928E-02 0.  1.
       -1   -1    0    0    0  501  0.00000000000E+00  0.00000000000E+00 -0.58841132236E+03  0.58841132238E+03  0.50400001928E-02 0. -1.
    10030    2    1    2    0    0  0.00000000000E+00  0.00000000000E+00 -0.16076224812E+03  0.10160603966E+04  0.10032617950E+04 0.  0.
        3    1    3    3  502    0  0.45661067059E+03  0.15104944253E+03  0.64000904460E+02  0.48518590721E+03  0.10100000352E+00 0.  1.
       -3    1    3    3    0  502 -0.45661067059E+03 -0.15104944253E+03 -0.22476315258E+03  0.53087448944E+03  0.10100000352E+00 0. -1.
</event>
<event>
 5   0  0.3640180E-03  0.1001615E+04  0.7818609E-02  0.9306775E-01
       -1   -1    0    0    0  501  0.00000000000E+00  0.00000000000E+00  0.46930964190E+03  0.46930964193E+03  0.50400001928E-02 0.  1.
        1   -1    0    0  501    0  0.00000000000E+00  0.00000000000E+00 -0.53441946524E+03  0.53441946527E+03  0.50400001928E-02 0. -1.
    10030    2    1    2    0    0  0.00000000000E+00  0.00000000000E+00 -0.65109823345E+02  0.10037291072E+04  0.10016151115E+04 0.  0.
        5    1    3    3  502    0  0.24332436011E+03  0.31774633629E+03  0.26910640782E+03  0.48229641008E+03  0.46999998093E+01 0.  1.
       -5    1    3    3    0  502 -0.24332436011E+03 -0.31774633629E+03 -0.33421623117E+03  0.52143269711E+03  0.46999998093E+01 0. -1.
</event>
<event>
 5   0  0.3569359E-03  0.1008377E+04  0.7818609E-02  0.9299404E-01
       -1   -1    0    0    0  501  0.00000000000E+00  0.00000000000E+00  0.23099086482E+03  0.23099086488E+03  0.50400001928E-02 0. -1.
        1   -1    0    0  501    0  0.00000000000E+00  0.00000000000E+00 -0.11005032125E+04  0.11005032126E+04  0.50400001928E-02 0.  1.
    10030    2    1    2    0    0  0.00000000000E+00  0.00000000000E+00 -0.86951234772E+03  0.13314940774E+04  0.10083772882E+04 0.  0.
        4    1    3    3  502    0  0.75533519896E+02  0.89654934797E+02 -0.10822546328E+04  0.10885862498E+04  0.12699999809E+01 0.  1.
       -4    1    3    3    0  502 -0.75533519896E+02 -0.89654934797E+02  0.21274228512E+03  0.24290782767E+03  0.12699999809E+01 0. -1.
</event>
<event>
 5   0  0.3569359E-03  0.9941165E+03  0.7818609E-02  0.9315021E-01
        1   -1    0    0  501    0  0.00000000000E+00  0.00000000000E+00  0.93638396561E+03  0.93638396562E+03  0.50400001928E-02 0. -1.
       -1   -1    0    0    0  501  0.00000000000E+00  0.00000000000E+00 -0.26385212489E+03  0.26385212494E+03  0.50400001928E-02 0.  1.
    10030    2    1    2    0    0  0.00000000000E+00  0.00000000000E+00  0.67253184072E+03  0.12002360906E+04  0.99411649031E+03 0.  0.
        4    1    3    3  502    0  0.57929604252E+02 -0.47625037172E+02  0.92951242333E+03  0.93253361400E+03  0.12699999809E+01 0. -1.
       -4    1    3    3    0  502 -0.57929604252E+02  0.47625037172E+02 -0.25698058262E+03  0.26770247656E+03  0.12699999809E+01 0.  1.
</event>
<event>
 5   0  0.6606947E-03  0.1004805E+04  0.7818609E-02  0.9303290E-01
       -2   -1    0    0    0  501  0.00000000000E+00  0.00000000000E+00  0.16836912979E+03  0.16836912981E+03  0.25500000920E-02 0. -1.
        2   -1    0    0  501    0  0.00000000000E+00  0.00000000000E+00 -0.14991365134E+04  0.14991365134E+04  0.25500000920E-02 0.  1.
    10030    2    1    2    0    0  0.00000000000E+00  0.00000000000E+00 -0.13307673836E+04  0.16675056432E+04  0.10048050760E+04 0.  0.
        1    1    3    3  502    0  0.10023153313E+03 -0.22877837815E+03  0.58031951204E+02  0.25642467496E+03  0.50400001928E-02 0. -1.
       -1    1    3    3    0  502 -0.10023153313E+03  0.22877837815E+03 -0.13887993348E+04  0.14110809682E+04  0.50400001928E-02 0.  1.
</event>
<event>
 5   0  0.6376961E-03  0.9886776E+03  0.7818609E-02  0.9321051E-01
        2   -1    0    0  501    0  0.00000000000E+00  0.00000000000E+00  0.46703925886E+03  0.46703925887E+03  0.25500000920E-02 0.  1.
       -2   -1    0    0    0  501  0.00000000000E+00  0.00000000000E+00 -0.52323406874E+03  0.52323406875E+03  0.25500000920E-02 0. -1.
    10030    2    1    2    0    0  0.00000000000E+00  0.00000000000E+00 -0.56194809885E+02  0.99027332762E+03  0.98867760505E+03 0.  0.
        3    1    3    3  502    0  0.49243769802E+03  0.27110224352E+02  0.57356686411E+01  0.49321674626E+03  0.10100000352E+00 0.  1.
       -3    1    3    3    0  502 -0.49243769802E+03 -0.27110224352E+02 -0.61930478526E+02  0.49705658136E+03  0.10100000352E+00 0. -1.
</event>
<event>
 5   0  0.3640180E-03  0.1002427E+04  0.7818609E-02  0.9305887E-01
       -1   -1    0    0    0  501  0.00000000000E+00  0.00000000000E+00  0.42310840340E+03  0.42310840343E+03  0.50400001928E-02 0.  1.
        1   -1    0    0  501    0  0.00000000000E+00  0.00000000000E+00 -0.59373657093E+03  0.59373657095E+03  0.50400001928E-02 0. -1.
    10030    2    1    2    0    0  0.00000000000E+00  0.00000000000E+00 -0.17062816753E+03  0.10168449744E+04  0.10024269202E+04 0.  0.
        5    1    3    3  502    0 -0.37752437815E+03 -0.11480117219E+03 -0.39877140592E+03  0.56102111316E+03  0.46999998093E+01 0. -1.
       -5    1    3    3    0  502  0.37752437815E+03  0.11480117219E+03  0.22814323839E+03  0.45582386122E+03  0.46999998093E+01 0.  1.
</event>
<event>
 5   0  0.6199539E-03  0.9978671E+03  0.7818609E-02  0.9310887E-01
        2   -1    0    0  501    0  0.00000000000E+00  0.00000000000E+00  0.13689327465E+03  0.13689327467E+03  0.25500000920E-02 0.  1.
       -2   -1    0    0    0  501  0.00000000000E+00  0.00000000000E+00 -0.18184580716E+04  0.18184580716E+04  0.25500000920E-02 0. -1.
    10030    2    1    2    0    0  0.00000000000E+00  0.00000000000E+00 -0.16815647970E+04  0.19553513463E+04  0.99786708585E+03 0.  0.
        2    1    3    3  502    0 -0.18700329411E+03  0.11475532759E+03  0.37287867625E+02  0.22255202155E+03  0.25500000920E-02 0.  1.
       -2    1    3    3    0  502  0.18700329411E+03 -0.11475532759E+03 -0.17188526646E+04  0.17327993247E+04  0.25500000920E-02 0. -1.
</event>
<event>
 5   0  0.6360455E-03  0.1009188E+04  0.7818609E-02  0.9298525E-01
       -2   -1    0    0    0  501  0.00000000000E+00  0.00000000000E+00  0.29530026453E+03  0.29530026454E+03  0.25500000920E-02 0.  1.
        2   -1    0    0  501    0  0.00000000000E+00  0.00000000000E+00 -0.86222444630E+03  0.86222444631E+03  0.25500000920E-02 0. -1.
    10030    2    1    2    0    0  0.00000000000E+00  0.00000000000E+00 -0.56692418177E+03  0.11575247108E+04  0.10091880045E+04 0.  0.
        4    1    3    3  502    0 -0.47387945739E+03  0.16818131039E+03 -0.23525044087E+03  0.55514959798E+03  0.12699999809E+01 0.  1.
       -4    1    3    3    0  502  0.47387945739E+03 -0.16818131039E+03 -0.33167374090E+03  0.60237511287E+03  0.12699999809E+01 0. -1.
</event>
<event>
 5   0  0.3569359E-03  0.9938155E+03  0.7818609E-02  0.9315354E-01
        1   -1    0    0  501    0  0.00000000000E+00  0.00000000000E+00  0.91853413604E+03  0.91853413605E+03  0.50400001928E-02 0. -1.
       -1   -1    0    0    0  501  0.00000000000E+00  0.00000000000E+00 -0.26881669211E+03  0.26881669215E+03  0.50400001928E-02 0.  1.
    10030    2    1    2    0    0  0.00000000000E+00  0.00000000000E+00  0.64971744393E+03  0.11873508282E+04  0.99381549208E+03 0.  0.
        4    1    3    3  502    0 -0.17427656395E+03 -0.10033970669E+03 -0.21802568597E+03  0.29660949096E+03  0.12699999809E+01 0.  1.
       -4    1    3    3    0  502  0.17427656395E+03  0.10033970669E+03  0.86774312991E+03  0.89074133725E+03  0.12699999809E+01 0. -1.
</event>
<event>
 5   0  0.6022787E-03  0.1002228E+04  0.7818609E-02  0.9306105E-01
       -2   -1    0    0    0  501  0.00000000000E+00  0.00000000000E+00  0.23471024810E+03  0.23471024812E+03  0.25500000920E-02 0. -1.
        2   -1    0    0  501    0  0.00000000000E+00  0.00000000000E+00 -0.10698936660E+04  0.10698936660E+04  0.25500000920E-02 0.  1.
    10030    2    1    2    0    0  0.00000000000E+00  0.00000000000E+00 -0.83518341786E+03  0.13046039141E+04  0.10022275346E+04 0.  0.
        5    1    3    3  502    0  0.64461874308E+02  0.47458375999E+03 -0.60937936263E+03  0.77508088357E+03  0.46999998093E+01 0.  1.
       -5    1    3    3    0  502 -0.64461874308E+02 -0.47458375999E+03 -0.22580405524E+03  0.52952303052E+03  0.46999998093E+01 0. -1.
</event>
<event>
 5   0  0.6376961E-03  0.1000494E+04  0.7818609E-02  0.9308003E-01
        2   -1    0    0  501    0  0.00000000000E+00  0.00000000000E+00  0.52513130890E+03  0.52513130891E+03  0.25500000920E-02 0. -1.
       -2   -1    0    0    0  501  0.00000000000E+00  0.00000000000E+00 -0.47654197161E+03  0.47654197162E+03  0.25500000920E-02 0.  1.
    10030    2    1    2    0    0  0.00000000000E+00  0.00000000000E+00  0.48589337292E+02  0.10016732805E+04  0.10004940965E+04 0.  0.
        3    1    3    3  502    0  0.21859904852E+03 -0.20011920368E+03 -0.37918634392E+03  0.48126451491E+03  0.10100000352E+00 0.  1.
       -3    1    3    3    0  502 -0.21859904852E+03  0.20011920368E+03  0.42777568121E+03  0.52040876562E+03  0.10100000352E+00 0. -1.
</event>
<event>
 5   0  0.3569359E-03  0.1006136E+04  0.7818609E-02  0.9301840E-01
       -1   -1    0    0    0  501  0.00000000000E+00  0.00000000000E+00  0.46940906744E+03  0.46940906746E+03  0.50400001928E-02 0.  1.
        1   -1    0    0  501    0  0.00000000000E+00  0.00000000000E+00 -0.53914088865E+03  0.53914088868E+03  0.50400001928E-02 0. -1.
    10030    2    1    2    0    0  0.00000000000E+00  0.00000000000E+00 -0.69731821218E+02  0.10085499561E+04  0.10061364158E+04 0.  0.
        4    1    3    3  502    0  0.19302809202E+03 -0.37726978587E+03  0.23686308000E+03  0.48548745319E+03  0.12699999809E+01 0.  1.
       -4    1    3    3    0  502 -0.19302809202E+03  0.37726978587E+03 -0.30659490121E+03  0.52306250295E+03  0.12699999809E+01 0. -1.
</event>
<event>
 5   0  0.2417750E-03  0.9991804E+03  0.7818609E-02  0.9309444E-01
       -3   -1    0    0    0  501  0.00000000000E+00  0.00000000000E+00  0.17275294595E+03  0.17275297547E+03  0.10100000352E+00 0.  1.
        3   -1    0    0  501    0  0.00000000000E+00  0.00000000000E+00 -0.14447818407E+04  0.14447818442E+04  0.10100000352E+00 0. -1.
    10030    2    1    2    0    0  0.00000000000E+00  0.00000000000E+00 -0.12720288948E+04  0.16175348197E+04  0.99918035602E+03 0.  0.
        3    1    3    3  502    0 -0.12397173991E+03  0.16042623284E+03  0.10315994958E+03  0.22748088684E+03  0.10100000352E+00 0.  1.
       -3    1    3    3    0  502  0.12397173991E+03 -0.16042623284E+03 -0.13751888443E+04  0.13900539329E+04  0.10100000352E+00 0. -1.
</event>
<event>
 5   0  0.3608845E-03  0.9979554E+03  0.7818609E-02  0.9310790E-01
       -1   -1    0    0    0  501  0.00000000000E+00  0.00000000000E+00  0.50562389320E+03  0.50562389323E+03  0.50400001928E-02 0.  1.
        1   -1    0    0  501    0  0.00000000000E+00  0.00000000000E+00 -0.49241886747E+03  0.49241886750E+03  0.50400001928E-02 0. -1.
    10030    2    1    2    0    0  0.00000000000E+00  0.00000000000E+00  0.13205025728E+02  0.99804276072E+03  0.99795539957E+03 0.  0.
        1    1    3    3  502    0  0.47803088860E+03  0.90110146504E+02  0.11772198651E+03  0.50049159343E+03  0.50400001928E-02 0.  1.
       -1    1    3    3    0  502 -0.47803088860E+03 -0.90110146504E+02 -0.10451696078E+03  0.49755116729E+03  0.50400001928E-02 0. -1.
</event>
<event>
 5   0  0.6360455E-03  0.9877677E+03  0.7818609E-02  0.9322064E-01
       -2   -1    0    0    0  501  0.00000000000E+00  0.00000000000E+00  0.40623600182E+03  0.40623600183E+03  0.25500000920E-02 0. -1.
        2   -1    0    0  501    0  0.00000000000E+00  0.00000000000E+00 -0.60044228932E+03  0.60044228932E+03  0.25500000920E-02 0.  1.
    10030    2    1    2    0    0  0.00000000000E+00  0.00000000000E+00 -0.19420628750E+03  0.10066782912E+04  0.98776773574E+03 0.  0.
        4    1    3    3  502    0  0.43789627448E+02  0.19715937120E+03 -0.55643147737E+03  0.59195181479E+03  0.12699999809E+01 0.  1.
       -4    1    3    3    0  502 -0.43789627448E+02 -0.19715937120E+03  0.36222518987E+03  0.41472647637E+03  0.12699999809E+01 0. -1.
</event>
<event>
 5   0  0.6376961E-03  0.1061951E+04  0.7818609E-02  0.9243092E-01
        2   -1    0    0  501    0  0.00000000000E+00  0.00000000000E+00  0.72194908754E+03  0.72194908754E+03  0.25500000920E-02 0.  1.
       -2   -1    0    0    0  501  0.00000000000E+00  0.00000000000E+00 -0.39051901625E+03  0.39051901626E+03  0.25500000920E-02 0. -1.
    10030    2    1    2    0    0  0.00000000000E+00  0.00000000000E+00  0.33143007128E+03  0.11124681038E+04  0.10619507474E+04 0.  0.
        3    1    3    3  502    0 -0.52651908124E+03 -0.56511382814E+02  0.20654284418E+03  0.56839760378E+03  0.10100000352E+00 0. -1.
       -3    1    3    3    0  502  0.52651908124E+03  0.56511382814E+02  0.12488722710E+03  0.54407050002E+03  0.10100000352E+00 0.  1.
</event>
<event>
 5   0  0.6199539E-03  0.1020350E+04  0.7818609E-02  0.9286502E-01
        2   -1    0    0  501    0  0.00000000000E+00  0.00000000000E+00  0.11910881851E+04  0.11910881851E+04  0.25500000920E-02 0. -1.
       -2   -1    0    0    0  501  0.00000000000E+00  0.00000000000E+00 -0.21852181323E+03  0.21852181325E+03  0.25500000920E-02 0.  1.
    10030    2    1    2    0    0  0.00000000000E+00  0.00000000000E+00  0.97256637183E+03  0.14096099983E+04  0.10203504299E+04 0.  0.
        2    1    3    3  502    0 -0.34916554557E+03 -0.99382245447E+02 -0.89119959820E+01  0.36314299195E+03  0.25500000920E-02 0.  1.
       -2    1    3    3    0  502  0.34916554557E+03  0.99382245447E+02  0.98147836781E+03  0.10464670064E+04  0.25500000920E-02 0. -1.
</event>
<event>
 5   0  0.6199539E-03  0.9873037E+03  0.7818609E-02  0.9322581E-01
       -2   -1    0    0    0  501  0.00000000000E+00  0.00000000000E+00  0.20788541282E+03  0.20788541284E+03  0.25500000920E-02 0. -1.
        2   -1    0    0  501    0  0.00000000000E+00  0.00000000000E+00 -0.11722425491E+04  0.11722425491E+04  0.25500000920E-02 0.  1.
    10030    2    1    2    0    0  0.00000000000E+00  0.00000000000E+00 -0.96435713629E+03  0.13801279620E+04  0.98730365393E+03 0.  0.
        2    1    3    3  502    0 -0.10004445798E+02 -0.29435183982E+03  0.71615030005E+02  0.30310362431E+03  0.25500000920E-02 0.  1.
       -2    1    3    3    0  502  0.10004445798E+02  0.29435183982E+03 -0.10359721663E+04  0.10770243376E+04  0.25500000920E-02 0. -1.
</event>
<event>
 5   0  0.6360455E-03  0.9863910E+03  0.7818609E-02  0.9323598E-01
       -2   -1    0    0    0  501  0.00000000000E+00  0.00000000000E+00  0.29769164842E+03  0.29769164843E+03  0.25500000920E-02 0.  1.
        2   -1    0    0  501    0  0.00000000000E+00  0.00000000000E+00 -0.81709319384E+03  0.81709319385E+03  0.25500000920E-02 0. -1.
    10030    2    1    2    0    0  0.00000000000E+00  0.00000000000E+00 -0.51940154542E+03  0.11147848423E+04  0.98639103766E+03 0.  0.
        4    1    3    3  502    0  0.29309853287E+03 -0.16475365953E+03  0.14808327412E+03  0.36739731528E+03  0.12699999809E+01 0.  1.
       -4    1    3    3    0  502 -0.29309853287E+03  0.16475365953E+03 -0.66748481954E+03  0.74738752700E+03  0.12699999809E+01 0. -1.
</event>
<event>
 5   0  0.6022787E-03  0.1080238E+04  0.7818609E-02  0.9224670E-01
       -2   -1    0    0    0  501  0.00000000000E+00  0.00000000000E+00  0.39359577140E+03  0.39359577141E+03  0.25500000920E-02 0. -1.
        2   -1    0    0  501    0  0.00000000000E+00  0.00000000000E+00 -0.74118868774E+03  0.74118868774E+03  0.25500000920E-02 0.  1.
    10030    2    1    2    0    0  0.00000000000E+00  0.00000000000E+00 -0.34759291634E+03  0.11347844592E+04  0.10802383687E+04 0.  0.
        5    1    3    3  502    0  0.43332630953E+03  0.32178839606E+03 -0.19446694803E+03  0.57372375429E+03  0.46999998093E+01 0.  1.
       -5    1    3    3    0  502 -0.43332630953E+03 -0.32178839606E+03 -0.15312596831E+03  0.56106070486E+03  0.46999998093E+01 0. -1.
</event>
<event>
 5   0  0.6022787E-03  0.1001569E+04  0.7818609E-02  0.9306826E-01
       -2   -1    0    0    0  501  0.00000000000E+00  0.00000000000E+00  0.33087791385E+03  0.33087791386E+03  0.25500000920E-02 0. -1.
        2   -1    0    0  501    0  0.00000000000E+00  0.00000000000E+00 -0.75793831586E+03  0.75793831587E+03  0.25500000920E-02 0.  1.
    10030    2    1    2    0    0  0.00000000000E+00  0.00000000000E+00 -0.42706040201E+03  0.10888162297E+04  0.10015688669E+04 0.  0.
        5    1    3    3  502    0 -0.34426043412E+03  0.23733042085E+03  0.86011673107E+02  0.42692045286E+03  0.46999998093E+01 0. -1.
       -5    1    3    3    0  502  0.34426043412E+03 -0.23733042085E+03 -0.51307207512E+03  0.66189577686E+03  0.46999998093E+01 0.  1.
</event>
<event>
 5   0  0.6376961E-03  0.9994468E+03  0.7818609E-02  0.9309152E-01
       -2   -1    0    0    0  501  0.00000000000E+00  0.00000000000E+00  0.53799717425E+03  0.53799717425E+03  0.25500000920E-02 0.  1.
        2   -1    0    0  501    0  0.00000000000E+00  0.00000000000E+00 -0.46417250357E+03  0.46417250358E+03  0.25500000920E-02 0. -1.
    10030    2    1    2    0    0  0.00000000000E+00  0.00000000000E+00  0.73824670678E+02  0.10021696778E+04  0.99944683759E+03 0.  0.
        3    1    3    3  502    0 -0.36782549158E+03  0.20943737058E+03  0.30327465512E+03  0.52070637704E+03  0.10100000352E+00 0.  1.
       -3    1    3    3    0  502  0.36782549158E+03 -0.20943737058E+03 -0.22944998444E+03  0.48146330079E+03  0.10100000352E+00 0. -1.
</event>
<event>
 5   0  0.3608845E-03  0.1002216E+04  0.7818609E-02  0.9306118E-01
        1   -1    0    0  501    0  0.00000000000E+00  0.00000000000E+00  0.78117260867E+03  0.78117260869E+03  0.50400001928E-02 0.  1.
       -1   -1    0    0    0  501  0.00000000000E+00  0.00000000000E+00 -0.32145153574E+03  0.32145153578E+03  0.50400001928E-02 0. -1.
    10030    2    1    2    0    0  0.00000000000E+00  0.00000000000E+00  0.45972107294E+03  0.11026241445E+04  0.10022158146E+04 0.  0.
        1    1    3    3  502    0  0.30094060467E+03  0.39781779356E+03  0.17727105043E+03  0.52938574759E+03  0.50400001928E-02 0.  1.
       -1    1    3    3    0  502 -0.30094060467E+03 -0.39781779356E+03  0.28245002251E+03  0.57323839687E+03  0.50400001928E-02 0. -1.
</event>
<event>
 5   0  0.3608845E-03  0.1033449E+04  0.7818609E-02  0.9272601E-01
        1   -1    0    0  501    0  0.00000000000E+00  0.00000000000E+00  0.64151718571E+03  0.64151718573E+03  0.50400001928E-02 0.  1.
       -1   -1    0    0    0  501  0.00000000000E+00  0.00000000000E+00 -0.41620734505E+03  0.41620734508E+03  0.50400001928E-02 0. -1.
    10030    2    1    2    0    0  0.00000000000E+00  0.00000000000E+00  0.22530984066E+03  0.10577245308E+04  0.10334489145E+04 0.  0.
        1    1    3    3  502    0 -0.36711209753E+03  0.26696516628E+03  0.36536051077E+03  0.58269202415E+03  0.50400001928E-02 0.  1.
       -1    1    3    3    0  502  0.36711209753E+03 -0.26696516628E+03 -0.14005067011E+03  0.47503250666E+03  0.50400001928E-02 0. -1.
</event>
<event>
 5   0  0.6199539E-03  0.1012177E+04  0.7818609E-02  0.9295289E-01
        2   -1    0    0  501    0  0.00000000000E+00  0.00000000000E+00  0.23868564042E+04  0.23868564042E+04  0.25500000920E-02 0. -1.
       -2   -1    0    0    0  501  0.00000000000E+00  0.00000000000E+00 -0.10730661401E+03  0.10730661404E+03  0.25500000920E-02 0.  1.
    10030    2    1    2    0    0  0.00000000000E+00  0.00000000000E+00  0.22795497901E+04  0.24941630182E+04  0.10121768203E+04 0.  0.
        2    1    3    3  502    0 -0.34184777755E+03  0.37135427363E+03  0.10488485102E+04  0.11639789934E+04  0.25500000920E-02 0.  1.
       -2    1    3    3    0  502  0.34184777755E+03 -0.37135427363E+03  0.12307012799E+04  0.13301840248E+04  0.25500000920E-02 0. -1.
</event>
<event>
 5   0  0.6360455E-03  0.1000079E+04  0.7818609E-02  0.9308459E-01
        2   -1    0    0  501    0  0.00000000000E+00  0.00000000000E+00  0.74647276673E+03  0.74647276674E+03  0.25500000920E-02 0.  1.
       -2   -1    0    0    0  501  0.00000000000E+00  0.00000000000E+00 -0.33496108937E+03  0.33496108938E+03  0.25500000920E-02 0. -1.
    10030    2    1    2    0    0  0.00000000000E+00  0.00000000000E+00  0.41151167736E+03  0.10814338561E+04  0.10000786592E+04 0.  0.
        4    1    3    3  502    0  0.29798858185E+03  0.38541309646E+03  0.83907124148E+02  0.49435055196E+03  0.12699999809E+01 0. -1.
       -4    1    3    3    0  502 -0.29798858185E+03 -0.38541309646E+03  0.32760455322E+03  0.58708330416E+03  0.12699999809E+01 0.  1.
</event>
<event>
 5   0  0.3640180E-03  0.1002342E+04  0.7818609E-02  0.9305980E-01
       -1   -1    0    0    0  501  0.00000000000E+00  0.00000000000E+00  0.49613428930E+03  0.49613428933E+03  0.50400001928E-02 0. -1.
        1   -1    0    0  501    0  0.00000000000E+00  0.00000000000E+00 -0.50625853254E+03  0.50625853256E+03  0.50400001928E-02 0.  1.
    10030    2    1    2    0    0  0.00000000000E+00  0.00000000000E+00 -0.10124243239E+02  0.10023928219E+04  0.10023416928E+04 0.  0.
        5    1    3    3  502    0  0.29963488645E+03 -0.30355691919E+03 -0.26817677551E+03  0.50385388883E+03  0.46999998093E+01 0.  1.
       -5    1    3    3    0  502 -0.29963488645E+03  0.30355691919E+03  0.25805253227E+03  0.49853893306E+03  0.46999998093E+01 0. -1.
</event>
<event>
 5   0  0.2417750E-03  0.1006612E+04  0.7818609E-02  0.9301322E-01
       -3   -1    0    0    0  501  0.00000000000E+00  0.00000000000E+00  0.16430002998E+04  0.16430003029E+04  0.10100000352E+00 0.  1.
        3   -1    0    0  501    0  0.00000000000E+00  0.00000000000E+00 -0.15417947581E+03  0.15417950889E+03  0.10100000352E+00 0. -1.
    10030    2    1    2    0    0  0.00000000000E+00  0.00000000000E+00  0.14888208240E+04  0.17971798118E+04  0.10066120554E+04 0.  0.
        4    1    3    3  502    0 -0.44530890369E+03  0.12629982290E+02  0.11625687049E+04  0.12450008605E+04  0.12699999809E+01 0.  1.
       -4    1    3    3    0  502  0.44530890369E+03 -0.12629982290E+02  0.32625211913E+03  0.55217895133E+03  0.12699999809E+01 0. -1.
</event>
<event>
 5   0  0.6606947E-03  0.1003027E+04  0.7818609E-02  0.9305231E-01
        2   -1    0    0  501    0  0.00000000000E+00  0.00000000000E+00  0.17000198458E+03  0.17000198459E+03  0.25500000920E-02 0.  1.
       -2   -1    0    0    0  501  0.00000000000E+00  0.00000000000E+00 -0.14794864921E+04  0.14794864921E+04  0.25500000920E-02 0. -1.
    10030    2    1    2    0    0  0.00000000000E+00  0.00000000000E+00 -0.13094845075E+04  0.16494884767E+04  0.10030266992E+04 0.  0.
        1    1    3    3  502    0 -0.39151271155E+03 -0.41939731052E+02 -0.11655330348E+04  0.12302472921E+04  0.50400001928E-02 0. -1.
       -1    1    3    3    0  502  0.39151271155E+03  0.41939731052E+02 -0.14395147266E+03  0.41924118459E+03  0.50400001928E-02 0.  1.
</event>
<event>
 5   0  0.3640180E-03  0.9904022E+03  0.7818609E-02  0.9319135E-01
        1   -1    0    0  501    0  0.00000000000E+00  0.00000000000E+00  0.48717083859E+03  0.48717083862E+03  0.50400001928E-02 0.  1.
       -1   -1    0    0    0  501  0.00000000000E+00  0.00000000000E+00 -0.50336376400E+03  0.50336376403E+03  0.50400001928E-02 0. -1.
    10030    2    1    2    0    0  0.00000000000E+00  0.00000000000E+00 -0.16192925409E+02  0.99053460264E+03  0.99040223556E+03 0.  0.
        5    1    3    3  502    0  0.48069324308E+03  0.87130260129E+02 -0.89004622382E+02  0.49658996061E+03  0.46999998093E+01 0. -1.
       -5    1    3    3    0  502 -0.48069324308E+03 -0.87130260129E+02  0.72811696972E+02  0.49394464203E+03  0.46999998093E+01 0.  1.
</event>
<event>
 5   0  0.3569359E-03  0.1002377E+04  0.7818609E-02  0.9305941E-01
        1   -1    0    0  501    0  0.00000000000E+00  0.00000000000E+00  0.54031800942E+03  0.54031800944E+03  0.50400001928E-02 0.  1.
       -1   -1    0    0    0  501  0.00000000000E+00  0.00000000000E+00 -0.46489315850E+03  0.46489315852E+03  0.50400001928E-02 0. -1.
    10030    2    1    2    0    0  0.00000000000E+00  0.00000000000E+00  0.75424850924E+02  0.10052111680E+04  0.10023774659E+04 0.  0.
        4    1    3    3  502    0 -0.19098260496E+03  0.27270077874E+03 -0.33797775211E+03  0.47441610844E+03  0.12699999809E+01 0. -1.
       -4    1    3    3    0  502  0.19098260496E+03 -0.27270077874E+03  0.41340260304E+03  0.53079505953E+03  0.12699999809E+01 0.  1.
</event>
<event>
 5   0  0.3608845E-03  0.1023277E+04  0.7818609E-02  0.9283378E-01
       -1   -1    0    0    0  501  0.00000000000E+00  0.00000000000E+00  0.24141425530E+03  0.24141425535E+03  0.50400001928E-02 0.  1.
        1   -1    0    0  501    0  0.00000000000E+00  0.00000000000E+00 -0.10843341445E+04  0.10843341445E+04  0.50400001928E-02 0. -1.
    10030    2    1    2    0    0  0.00000000000E+00  0.00000000000E+00 -0.84291988923E+03  0.13257483999E+04  0.10232765414E+04 0.  0.
        1    1    3    3  502    0 -0.20158870959E+03 -0.38014454012E+03 -0.62822426788E+02  0.43485001615E+03  0.50400001928E-02 0.  1.
       -1    1    3    3    0  502  0.20158870959E+03  0.38014454012E+03 -0.78009746244E+03  0.89089838374E+03  0.50400001928E-02 0. -1.
</event>
<event>
 5   0  0.3608845E-03  0.9999951E+03  0.7818609E-02  0.9308550E-01
        1   -1    0    0  501    0  0.00000000000E+00  0.00000000000E+00  0.67625064536E+03  0.67625064538E+03  0.50400001928E-02 0.  1.
       -1   -1    0    0    0  501  0.00000000000E+00  0.00000000000E+00 -0.36968179935E+03  0.36968179939E+03  0.50400001928E-02 0. -1.
    10030    2    1    2    0    0  0.00000000000E+00  0.00000000000E+00  0.30656884601E+03  0.10459324448E+04  0.99999511082E+03 0.  0.
        1    1    3    3  502    0  0.28115454031E+03  0.13712240706E+03  0.56126325845E+03  0.64254717754E+03  0.50400001928E-02 0.  1.
       -1    1    3    3    0  502 -0.28115454031E+03 -0.13712240706E+03 -0.25469441244E+03  0.40338526722E+03  0.50400001928E-02 0. -1.
</event>
<event>
 5   0  0.3608845E-03  0.9990608E+03  0.7818609E-02  0.9309575E-01
        1   -1    0    0  501    0  0.00000000000E+00  0.00000000000E+00  0.61179049475E+03  0.61179049477E+03  0.50400001928E-02 0. -1.
       -1   -1    0    0    0  501  0.00000000000E+00  0.00000000000E+00 -0.40786943070E+03  0.40786943073E+03  0.50400001928E-02 0.  1.
    10030    2    1    2    0    0  0.00000000000E+00  0.00000000000E+00  0.20392106406E+03  0.10196599255E+04  0.99906084064E+03 0.  0.
        1    1    3    3  502    0  0.22502892753E+03 -0.40013688198E+03  0.30295525932E+03  0.55002675546E+03  0.50400001928E-02 0. -1.
       -1    1    3    3    0  502 -0.22502892753E+03  0.40013688198E+03 -0.99034195257E+02  0.46963317004E+03  0.50400001928E-02 0.  1.
</event>
<event>
 5   0  0.3643002E-03  0.1005021E+04  0.7818609E-02  0.9303055E-01
       -1   -1    0    0    0  501  0.00000000000E+00  0.00000000000E+00  0.19502946457E+03  0.19502946463E+03  0.50400001928E-02 0. -1.
        1   -1    0    0  501    0  0.00000000000E+00  0.00000000000E+00 -0.12947615308E+04  0.12947615308E+04  0.50400001928E-02 0.  1.
    10030    2    1    2    0    0  0.00000000000E+00  0.00000000000E+00 -0.10997320662E+04  0.14897909955E+04  0.10050206926E+04 0.  0.
        2    1    3    3  502    0  0.35553931741E+03 -0.21765803490E+03 -0.96580528324E+03  0.10519330167E+04  0.25500000920E-02 0.  1.
       -2    1    3    3    0  502 -0.35553931741E+03  0.21765803490E+03 -0.13392678301E+03  0.43785797880E+03  0.25500000920E-02 0. -1.
</event>
<event>
 5   0  0.3640180E-03  0.9830564E+03  0.7818609E-02  0.9327326E-01
        1   -1    0    0  501    0  0.00000000000E+00  0.00000000000E+00  0.10821663654E+04  0.10821663654E+04  0.50400001928E-02 0. -1.
       -1   -1    0    0    0  501  0.00000000000E+00  0.00000000000E+00 -0.22325583321E+03  0.22325583327E+03  0.50400001928E-02 0.  1.
    10030    2    1    2    0    0  0.00000000000E+00  0.00000000000E+00  0.85891053221E+03  0.13054221987E+04  0.98305636386E+03 0.  0.
        5    1    3    3  502    0 -0.14538075148E+03 -0.73316491390E+02 -0.18637276900E+03  0.24752327130E+03  0.46999998093E+01 0.  1.
       -5    1    3    3    0  502  0.14538075148E+03  0.73316491390E+02  0.10452833012E+04  0.10578989274E+04  0.46999998093E+01 0. -1.
</event>
<event>
 5   0  0.6376961E-03  0.1001097E+04  0.7818609E-02  0.9307342E-01
       -2   -1    0    0    0  501  0.00000000000E+00  0.00000000000E+00  0.33797039616E+03  0.33797039617E+03  0.25500000920E-02 0. -1.
        2   -1    0    0  501    0  0.00000000000E+00  0.00000000000E+00 -0.74133398193E+03  0.74133398194E+03  0.25500000920E-02 0.  1.
    10030    2    1    2    0    0  0.00000000000E+00  0.00000000000E+00 -0.40336358577E+03  0.10793043781E+04  0.10010972771E+04 0.  0.
        3    1    3    3  502    0 -0.47373328872E+03  0.15614950403E+03 -0.15667060721E+03  0.52283036045E+03  0.10100000352E+00 0. -1.
       -3    1    3    3    0  502  0.47373328872E+03 -0.15614950403E+03 -0.24669297857E+03  0.55647401765E+03  0.10100000352E+00 0.  1.
</event>
<event>
 5   0  0.3466598E-03  0.1008884E+04  0.7818609E-02  0.9298855E-01
       -1   -1    0    0    0  501  0.00000000000E+00  0.00000000000E+00  0.42335164841E+03  0.42335164844E+03  0.50400001928E-02 0. -1.
        1   -1    0    0  501    0  0.00000000000E+00  0.00000000000E+00 -0.60106418514E+03  0.60106418516E+03  0.50400001928E-02 0.  1.
    10030    2    1    2    0    0  0.00000000000E+00  0.00000000000E+00 -0.17771253672E+03  0.10244158336E+04  0.10088835683E+04 0.  0.
        3    1    3    3  502    0 -0.23198217028E+03  0.42998345983E+03  0.38615304634E+02  0.49009453681E+03  0.10100000352E+00 0. -1.
       -3    1    3    3    0  502  0.23198217028E+03 -0.42998345983E+03 -0.21632784136E+03  0.53432129679E+03  0.10100000352E+00 0.  1.
</event>
<event>
 5   0  0.3643002E-03  0.1008019E+04  0.7818609E-02  0.9299793E-01
        1   -1    0    0  501    0  0.00000000000E+00  0.00000000000E+00  0.84770822658E+03  0.84770822659E+03  0.50400001928E-02 0.  1.
       -1   -1    0    0    0  501  0.00000000000E+00  0.00000000000E+00 -0.29966154108E+03  0.29966154112E+03  0.50400001928E-02 0. -1.
    10030    2    1    2    0    0  0.00000000000E+00  0.00000000000E+00  0.54804668550E+03  0.11473697677E+04  0.10080189554E+04 0.  0.
        2    1    3    3  502    0  0.33444813871E+03  0.35809234100E+03  0.40841245569E+03  0.63787648972E+03  0.25500000920E-02 0.  1.
       -2    1    3    3    0  502 -0.33444813871E+03 -0.35809234100E+03  0.13963422981E+03  0.50949327799E+03  0.25500000920E-02 0. -1.
</event>
<event>
 5   0  0.6022787E-03  0.1004514E+04  0.7818609E-02  0.9303608E-01
       -2   -1    0    0    0  501  0.00000000000E+00  0.00000000000E+00  0.27938571387E+03  0.27938571388E+03  0.25500000920E-02 0. -1.
        2   -1    0    0  501    0  0.00000000000E+00  0.00000000000E+00 -0.90291642284E+03  0.90291642285E+03  0.25500000920E-02 0.  1.
    10030    2    1    2    0    0  0.00000000000E+00  0.00000000000E+00 -0.62353070898E+03  0.11823021367E+04  0.10045137119E+04 0.  0.
        5    1    3    3  502    0 -0.16522861862E+03 -0.45894427430E+03 -0.17097105283E+03  0.51689799209E+03  0.46999998093E+01 0. -1.
       -5    1    3    3    0  502  0.16522861862E+03  0.45894427430E+03 -0.45255965615E+03  0.66540414463E+03  0.46999998093E+01 0.  1.
</event>
<event>
 5   0  0.6376961E-03  0.1009792E+04  0.7818609E-02  0.9297870E-01
       -2   -1    0    0    0  501  0.00000000000E+00  0.00000000000E+00  0.18007569650E+03  0.18007569652E+03  0.25500000920E-02 0.  1.
        2   -1    0    0  501    0  0.00000000000E+00  0.00000000000E+00 -0.14156262813E+04  0.14156262813E+04  0.25500000920E-02 0. -1.
    10030    2    1    2    0    0  0.00000000000E+00  0.00000000000E+00 -0.12355505848E+04  0.15957019778E+04  0.10097918372E+04 0.  0.
        3    1    3    3  502    0  0.12834724388E+03 -0.18665734245E+03 -0.13308172845E+04  0.13499587525E+04  0.10100000352E+00 0. -1.
       -3    1    3    3    0  502 -0.12834724388E+03  0.18665734245E+03  0.95266699736E+02  0.24574322530E+03  0.10100000352E+00 0.  1.
</event>
<event>
 5   0  0.3608845E-03  0.1012606E+04  0.7818609E-02  0.9294826E-01
       -1   -1    0    0    0  501  0.00000000000E+00  0.00000000000E+00  0.20296974232E+03  0.20296974238E+03  0.50400001928E-02 0. -1.
        1   -1    0    0  501    0  0.00000000000E+00  0.00000000000E+00 -0.12629607371E+04  0.12629607371E+04  0.50400001928E-02 0.  1.
    10030    2    1    2    0    0  0.00000000000E+00  0.00000000000E+00 -0.10599909948E+04  0.14659304795E+04  0.10126061730E+04 0.  0.
        1    1    3    3  502    0  0.37836463158E+03  0.11645207422E+03 -0.73064846539E+02  0.40256595962E+03  0.50400001928E-02 0. -1.
       -1    1    3    3    0  502 -0.37836463158E+03 -0.11645207422E+03 -0.98692614824E+03  0.10633645199E+04  0.50400001928E-02 0.  1.
</event>
<event>
 5   0  0.6360455E-03  0.1002632E+04  0.7818609E-02  0.9305663E-01
        2   -1    0    0  501    0  0.00000000000E+00  0.00000000000E+00  0.10087993958E+04  0.10087993958E+04  0.25500000920E-02 0. -1.
       -2   -1    0    0    0  501  0.00000000000E+00  0.00000000000E+00 -0.24912560379E+03  0.24912560380E+03  0.25500000920E-02 0.  1.
    10030    2    1    2    0    0  0.00000000000E+00  0.00000000000E+00  0.75967379202E+03  0.12579249996E+04  0.10026320533E+04 0.  0.
        4    1    3    3  502    0 -0.46988618574E+03  0.35955653426E+02  0.16533562602E+03  0.49942298575E+03  0.12699999809E+01 0.  1.
       -4    1    3    3    0  502  0.46988618574E+03 -0.35955653426E+02  0.59433816600E+03  0.75850201386E+03  0.12699999809E+01 0. -1.
</event>
<event>
 5   0  0.6606947E-03  0.9808479E+03  0.7818609E-02  0.9329804E-01
        2   -1    0    0  501    0  0.00000000000E+00  0.00000000000E+00  0.48462246491E+03  0.48462246492E+03  0.25500000920E-02 0. -1.
       -2   -1    0    0    0  501  0.00000000000E+00  0.00000000000E+00 -0.49629487574E+03  0.49629487574E+03  0.25500000920E-02 0.  1.
    10030    2    1    2    0    0  0.00000000000E+00  0.00000000000E+00 -0.11672410826E+02  0.98091734066E+03  0.98084789036E+03 0.  0.
        1    1    3    3  502    0 -0.18012733928E+03 -0.30507461983E+03  0.33330322005E+03  0.48642308595E+03  0.50400001928E-02 0. -1.
       -1    1    3    3    0  502  0.18012733928E+03  0.30507461983E+03 -0.34497563088E+03  0.49449425471E+03  0.50400001928E-02 0.  1.
</event>
<event>
 5   0  0.6376961E-03  0.1018448E+04  0.7818609E-02  0.9288540E-01
        2   -1    0    0  501    0  0.00000000000E+00  0.00000000000E+00  0.55932003299E+03  0.55932003299E+03  0.25500000920E-02 0. -1.
       -2   -1    0    0    0  501  0.00000000000E+00  0.00000000000E+00 -0.46361485128E+03  0.46361485129E+03  0.25500000920E-02 0.  1.
    10030    2    1    2    0    0  0.00000000000E+00  0.00000000000E+00  0.95705181707E+02  0.10229348843E+04  0.10184479838E+04 0.  0.
        3    1    3    3  502    0  0.68898432030E+02 -0.31636191754E+03 -0.34691486312E+03  0.47453323304E+03  0.10100000352E+00 0.  1.
       -3    1    3    3    0  502 -0.68898432030E+02  0.31636191754E+03  0.44262004483E+03  0.54840165124E+03  0.10100000352E+00 0. -1.
</event>
<event>
 5   0  0.3640180E-03  0.1000033E+04  0.7818609E-02  0.9308509E-01
        1   -1    0    0  501    0  0.00000000000E+00  0.00000000000E+00  0.64721941928E+03  0.64721941930E+03  0.50400001928E-02 0.  1.
       -1   -1    0    0    0  501  0.00000000000E+00  0.00000000000E+00 -0.38629308931E+03  0.38629308934E+03  0.50400001928E-02 0. -1.
    10030    2    1    2    0    0  0.00000000000E+00  0.00000000000E+00  0.26092632997E+03  0.10335125086E+04  0.10000327774E+04 0.  0.
        5    1    3    3  502    0  0.26548636691E+03 -0.41867088958E+03  0.19764702023E+03  0.53371786498E+03  0.46999998093E+01 0.  1.
       -5    1    3    3    0  502 -0.26548636691E+03  0.41867088958E+03  0.63279309747E+02  0.49979464366E+03  0.46999998093E+01 0. -1.
</event>
<event>
 5   0  0.3643002E-03  0.9953316E+03  0.7818609E-02  0.9313680E-01
        1   -1    0    0  501    0  0.00000000000E+00  0.00000000000E+00  0.46047670992E+03  0.46047670995E+03  0.50400001928E-02 0. -1.
       -1   -1    0    0    0  501  0.00000000000E+00  0.00000000000E+00 -0.53785839117E+03  0.53785839119E+03  0.50400001928E-02 0.  1.
    10030    2    1    2    0    0  0.00000000000E+00  0.00000000000E+00 -0.77381681245E+02  0.99833510114E+03  0.99533162794E+03 0.  0.
        2    1    3    3  502    0 -0.41325936598E+03  0.66308036145E+02  0.23136351759E+03  0.47823544046E+03  0.25500000920E-02 0. -1.
       -2    1    3    3    0  502  0.41325936598E+03 -0.66308036145E+02 -0.30874519884E+03  0.52009966068E+03  0.25500000920E-02 0.  1.
</event>
<event>
 5   0  0.3608845E-03  0.9999486E+03  0.7818609E-02  0.9308601E-01
        1   -1    0    0  501    0  0.00000000000E+00  0.00000000000E+00  0.20515363142E+03  0.20515363148E+03  0.50400001928E-02 0. -1.
       -1   -1    0    0    0  501  0.00000000000E+00  0.00000000000E+00 -0.12184736784E+04  0.12184736784E+04  0.50400001928E-02 0.  1.
    10030    2    1    2    0    0  0.00000000000E+00  0.00000000000E+00 -0.10133200470E+04  0.14236273099E+04  0.99994859861E+03 0.  0.
        1    1    3    3  502    0  0.27965925525E+03 -0.29115002328E+03 -0.86736758707E+02  0.41291754678E+03  0.50400001928E-02 0. -1.
       -1    1    3    3    0  502 -0.27965925525E+03  0.29115002328E+03 -0.92658328830E+03  0.10107097631E+04  0.50400001928E-02 0.  1.
</event>
<event>
 5   0  0.6199539E-03  0.1008520E+04  0.7818609E-02  0.9299249E-01
       -2   -1    0    0    0  501  0.00000000000E+00  0.00000000000E+00  0.16757885923E+03  0.16757885925E+03  0.25500000920E-02 0.  1.
        2   -1    0    0  501    0  0.00000000000E+00  0.00000000000E+00 -0.15173648580E+04  0.15173648580E+04  0.25500000920E-02 0. -1.
    10030    2    1    2    0    0  0.00000000000E+00  0.00000000000E+00 -0.13497859988E+04  0.16849437173E+04  0.10085202466E+04 0.  0.
        2    1    3    3  502    0 -0.88105175759E+02 -0.12640560090E+03 -0.14770722943E+04  0.14850870212E+04  0.25500000920E-02 0. -1.
       -2    1    3    3    0  502  0.88105175759E+02  0.12640560090E+03  0.12728629551E+03  0.19985669607E+03  0.25500000920E-02 0.  1.
</event>
<event>
 5   0  0.6360455E-03  0.1001083E+04  0.7818609E-02  0.9307358E-01
       -2   -1    0    0    0  501  0.00000000000E+00  0.00000000000E+00  0.42553237241E+03  0.42553237242E+03  0.25500000920E-02 0.  1.
        2   -1    0    0  501    0  0.00000000000E+00  0.00000000000E+00 -0.58877261968E+03  0.58877261968E+03  0.25500000920E-02 0. -1.
    10030    2    1    2    0    0  0.00000000000E+00  0.00000000000E+00 -0.16324024727E+03  0.10143049921E+04  0.10010830329E+04 0.  0.
        4    1    3    3  502    0 -0.42655597756E+03 -0.13998241430E+03 -0.30589202672E+03  0.54324637432E+03  0.12699999809E+01 0. -1.
       -4    1    3    3    0  502  0.42655597756E+03  0.13998241430E+03  0.14265177945E+03  0.47105861778E+03  0.12699999809E+01 0.  1.
</event>
<event>
 5   0  0.3643002E-03  0.9760457E+03  0.7818609E-02  0.9335215E-01
        1   -1    0    0  501    0  0.00000000000E+00  0.00000000000E+00  0.69606107935E+03  0.69606107937E+03  0.50400001928E-02 0.  1.
       -1   -1    0    0    0  501  0.00000000000E+00  0.00000000000E+00 -0.34216293895E+03  0.34216293899E+03  0.50400001928E-02 0. -1.
    10030    2    1    2    0    0  0.00000000000E+00  0.00000000000E+00  0.35389814040E+03  0.10382240184E+04  0.97604570514E+03 0.  0.
        2    1    3    3  502    0  0.18899263319E+03  0.20700998462E+03  0.60189189141E+03  0.66396174444E+03  0.25500000920E-02 0.  1.
       -2    1    3    3    0  502 -0.18899263319E+03 -0.20700998462E+03 -0.24799375101E+03  0.37426227392E+03  0.25500000920E-02 0. -1.
</event>
<event>
 5   0  0.3640180E-03  0.9983930E+03  0.7818609E-02  0.9310309E-01
       -1   -1    0    0    0  501  0.00000000000E+00  0.00000000000E+00  0.26496199788E+03  0.26496199793E+03  0.50400001928E-02 0. -1.
        1   -1    0    0  501    0  0.00000000000E+00  0.00000000000E+00 -0.94050138373E+03  0.94050138374E+03  0.50400001928E-02 0.  1.
    10030    2    1    2    0    0  0.00000000000E+00  0.00000000000E+00 -0.67553938585E+03  0.12054633817E+04  0.99839296008E+03 0.  0.
        5    1    3    3  502    0 -0.32276262747E+03 -0.10495062941E+03 -0.77972677336E+03  0.85040359794E+03  0.46999998093E+01 0.  1.
       -5    1    3    3    0  502  0.32276262747E+03  0.10495062941E+03  0.10418738751E+03  0.35505978373E+03  0.46999998093E+01 0. -1.
</event>
<event>
 5   0  0.3643002E-03  0.1006359E+04  0.7818609E-02  0.9301598E-01
       -1   -1    0    0    0  501  0.00000000000E+00  0.00000000000E+00  0.31106451992E+03  0.31106451996E+03  0.50400001928E-02 0. -1.
        1   -1    0    0  501    0  0.00000000000E+00  0.00000000000E+00 -0.81394577887E+03  0.81394577888E+03  0.50400001928E-02 0.  1.
    10030    2    1    2    0    0  0.00000000000E+00  0.00000000000E+00 -0.50288125895E+03  0.11250102988E+04  0.10063590870E+04 0.  0.
        2    1    3    3  502    0 -0.22573020675E+03  0.33459006584E+03  0.84460420986E+02  0.41235688562E+03  0.25500000920E-02 0. -1.
       -2    1    3    3    0  502  0.22573020675E+03 -0.33459006584E+03 -0.58734167993E+03  0.71265341323E+03  0.25500000920E-02 0.  1.
</event>
<event>
 5   0  0.2417750E-03  0.9685347E+03  0.7818609E-02  0.9343745E-01
        3   -1    0    0  501    0  0.00000000000E+00  0.00000000000E+00  0.16514098119E+03  0.16514101208E+03  0.10100000352E+00 0.  1.
       -3   -1    0    0    0  501  0.00000000000E+00  0.00000000000E+00 -0.14200887699E+04  0.14200887735E+04  0.10100000352E+00 0. -1.
    10030    2    1    2    0    0  0.00000000000E+00  0.00000000000E+00 -0.12549477887E+04  0.15852297855E+04  0.96853472868E+03 0.  0.
        4    1    3    3  502    0  0.34026271945E+02 -0.40551171285E+03 -0.10571450590E+04  0.11327642408E+04  0.12699999809E+01 0. -1.
       -4    1    3    3    0  502 -0.34026271945E+02  0.40551171285E+03 -0.19780272964E+03  0.45246554476E+03  0.12699999809E+01 0.  1.
</event>
<event>
 5   0  0.6199539E-03  0.1002912E+04  0.7818609E-02  0.9305357E-01
        2   -1    0    0  501    0  0.00000000000E+00  0.00000000000E+00  0.24675213746E+04  0.24675213746E+04  0.25500000920E-02 0.  1.
       -2   -1    0    0    0  501  0.00000000000E+00  0.00000000000E+00 -0.10190714499E+03  0.10190714502E+03  0.25500000920E-02 0. -1.
    10030    2    1    2    0    0  0.00000000000E+00  0.00000000000E+00  0.23656142297E+04  0.25694285197E+04  0.10029118775E+04 0.  0.
        2    1    3    3  502    0  0.37429934035E+03  0.23554279757E+03  0.17884168436E+04  0.18422853232E+04  0.25500000920E-02 0.  1.
       -2    1    3    3    0  502 -0.37429934035E+03 -0.23554279757E+03  0.57719738610E+03  0.72714319649E+03  0.25500000920E-02 0. -1.
</event>
<event>
 5   0  0.6376961E-03  0.1000296E+04  0.7818609E-02  0.9308220E-01
        2   -1    0    0  501    0  0.00000000000E+00  0.00000000000E+00  0.14215859117E+04  0.14215859117E+04  0.25500000920E-02 0. -1.
       -2   -1    0    0    0  501  0.00000000000E+00  0.00000000000E+00 -0.17596408955E+03  0.17596408957E+03  0.25500000920E-02 0.  1.
    10030    2    1    2    0    0  0.00000000000E+00  0.00000000000E+00  0.12456218222E+04  0.15975500013E+04  0.10002960976E+04 0.  0.
        3    1    3    3  502    0 -0.32329542354E+03 -0.13563282905E+00  0.13346299036E+02  0.32357083177E+03  0.10100000352E+00 0.  1.
       -3    1    3    3    0  502  0.32329542354E+03  0.13563282905E+00  0.12322755232E+04  0.12739791695E+04  0.10100000352E+00 0. -1.
</event>
<event>
 5   0  0.6199539E-03  0.9983626E+03  0.7818609E-02  0.9310343E-01
       -2   -1    0    0    0  501  0.00000000000E+00  0.00000000000E+00  0.56806656201E+03  0.56806656201E+03  0.25500000920E-02 0.  1.
        2   -1    0    0  501    0  0.00000000000E+00  0.00000000000E+00 -0.43864924190E+03  0.43864924191E+03  0.25500000920E-02 0. -1.
    10030    2    1    2    0    0  0.00000000000E+00  0.00000000000E+00  0.12941732010E+03  0.10067158039E+04  0.99836259302E+03 0.  0.
        2    1    3    3  502    0  0.36336459781E+03 -0.32839223754E+03 -0.32569610423E+02  0.49085239344E+03  0.25500000920E-02 0. -1.
       -2    1    3    3    0  502 -0.36336459781E+03  0.32839223754E+03  0.16198693053E+03  0.51586341049E+03  0.25500000920E-02 0.  1.
</event>
<event>
 5   0  0.3466598E-03  0.9645529E+03  0.7818609E-02  0.9348300E-01
       -1   -1    0    0    0  501  0.00000000000E+00  0.00000000000E+00  0.21799119283E+03  0.21799119288E+03  0.50400001928E-02 0.  1.
        1   -1    0    0  501    0  0.00000000000E+00  0.00000000000E+00 -0.10669722670E+04  0.10669722670E+04  0.50400001928E-02 0. -1.
    10030    2    1    2    0    0  0.00000000000E+00  0.00000000000E+00 -0.84898107421E+03  0.12849634599E+04  0.96455286480E+03 0.  0.
        3    1    3    3  502    0  0.64635044776E+02 -0.47740352555E+03 -0.39473976196E+03  0.62282526048E+03  0.10100000352E+00 0.  1.
       -3    1    3    3    0  502 -0.64635044776E+02  0.47740352555E+03 -0.45424131225E+03  0.66213819945E+03  0.10100000352E+00 0. -1.
</event>
<event>
 5   0  0.3640180E-03  0.1021851E+04  0.7818609E-02  0.9284898E-01
       -1   -1    0    0    0  501  0.00000000000E+00  0.00000000000E+00  0.80624845838E+03  0.80624845840E+03  0.50400001928E-02 0. -1.
        1   -1    0    0  501    0  0.00000000000E+00  0.00000000000E+00 -0.32377735355E+03  0.32377735359E+03  0.50400001928E-02 0.  1.
    10030    2    1    2    0    0  0.00000000000E+00  0.00000000000E+00  0.48247110483E+03  0.11300258120E+04  0.10218512459E+04 0.  0.
        5    1    3    3  502    0  0.28378104354E+03 -0.29690501843E+03  0.57727665575E+03  0.70848761310E+03  0.46999998093E+01 0.  1.
       -5    1    3    3    0  502 -0.28378104354E+03  0.29690501843E+03 -0.94805550923E+02  0.42153819889E+03  0.46999998093E+01 0. -1.
</event>
<event>
 5   0  0.6022787E-03  0.9991419E+03  0.7818609E-02  0.9309486E-01
       -2   -1    0    0    0  501  0.00000000000E+00  0.00000000000E+00  0.36583425500E+03  0.36583425501E+03  0.25500000920E-02 0. -1.
        2   -1    0    0  501    0  0.00000000000E+00  0.00000000000E+00 -0.68219732837E+03  0.68219732837E+03  0.25500000920E-02 0.  1.
    10030    2    1    2    0    0  0.00000000000E+00  0.00000000000E+00 -0.31636307337E+03  0.10480315834E+04  0.99914193464E+03 0.  0.
        5    1    3    3  502    0  0.10433514322E+03  0.19544939426E+03 -0.62782042479E+03  0.66578289525E+03  0.46999998093E+01 0.  1.
       -5    1    3    3    0  502 -0.10433514322E+03 -0.19544939426E+03  0.31145735142E+03  0.38224868813E+03  0.46999998093E+01 0. -1.
</event>
<event>
 5   0  0.3640180E-03  0.9986382E+03  0.7818609E-02  0.9310040E-01
       -1   -1    0    0    0  501  0.00000000000E+00  0.00000000000E+00  0.40781833951E+03  0.40781833954E+03  0.50400001928E-02 0. -1.
        1   -1    0    0  501    0  0.00000000000E+00  0.00000000000E+00 -0.61134959758E+03  0.61134959760E+03  0.50400001928E-02 0.  1.
    10030    2    1    2    0    0  0.00000000000E+00  0.00000000000E+00 -0.20353125807E+03  0.10191679371E+04  0.99863822833E+03 0.  0.
        5    1    3    3  502    0 -0.39953775427E+03  0.76322573669E+02 -0.39727292839E+03  0.56859776818E+03  0.46999998093E+01 0.  1.
       -5    1    3    3    0  502  0.39953775427E+03 -0.76322573669E+02  0.19374167032E+03  0.45057016896E+03  0.46999998093E+01 0. -1.
</event>
<event>
 5   0  0.3643002E-03  0.9944285E+03  0.7818609E-02  0.9314677E-01
        1   -1    0    0  501    0  0.00000000000E+00  0.00000000000E+00  0.10228245834E+04  0.10228245834E+04  0.50400001928E-02 0. -1.
       -1   -1    0    0    0  501  0.00000000000E+00  0.00000000000E+00 -0.24170517076E+03  0.24170517081E+03  0.50400001928E-02 0.  1.
    10030    2    1    2    0    0  0.00000000000E+00  0.00000000000E+00  0.78111941265E+03  0.12645297542E+04  0.99442846023E+03 0.  0.
        2    1    3    3  502    0 -0.18716383199E+03 -0.33442395467E+03 -0.12267869366E+02  0.38343210883E+03  0.25500000920E-02 0.  1.
       -2    1    3    3    0  502  0.18716383199E+03  0.33442395467E+03  0.79338728201E+03  0.88109764540E+03  0.25500000920E-02 0. -1.
</event>
<event>
 5   0  0.6022787E-03  0.1006733E+04  0.7818609E-02  0.9301190E-01
        2   -1    0    0  501    0  0.00000000000E+00  0.00000000000E+00  0.88251664124E+03  0.88251664125E+03  0.25500000920E-02 0. -1.
       -2   -1    0    0    0  501  0.00000000000E+00  0.00000000000E+00 -0.28710848329E+03  0.28710848330E+03  0.25500000920E-02 0.  1.
    10030    2    1    2    0    0  0.00000000000E+00  0.00000000000E+00  0.59540815795E+03  0.11696251245E+04  0.10067333596E+04 0.  0.
        5    1    3    3  502    0 -0.34258057147E+03  0.22335607628E+03 -0.43214207622E+02  0.41126505139E+03  0.46999998093E+01 0.  1.
       -5    1    3    3    0  502  0.34258057147E+03 -0.22335607628E+03  0.63862236557E+03  0.75836007316E+03  0.46999998093E+01 0. -1.
</event>
<event>
 5   0  0.3608845E-03  0.1000425E+04  0.7818609E-02  0.9308079E-01
        1   -1    0    0  501    0  0.00000000000E+00  0.00000000000E+00  0.67472678002E+03  0.67472678004E+03  0.50400001928E-02 0.  1.
       -1   -1    0    0    0  501  0.00000000000E+00  0.00000000000E+00 -0.37083507483E+03  0.37083507486E+03  0.50400001928E-02 0. -1.
    10030    2    1    2    0    0  0.00000000000E+00  0.00000000000E+00  0.30389170519E+03  0.10455618549E+04  0.10004246218E+04 0.  0.
        1    1    3    3  502    0  0.41678087790E+01  0.43606732600E+02  0.67271827731E+03  0.67414301035E+03  0.50400001928E-02 0.  1.
       -1    1    3    3    0  502 -0.41678087790E+01 -0.43606732600E+02 -0.36882657212E+03  0.37141884454E+03  0.50400001928E-02 0. -1.
</event>
<event>
 5   0  0.6376961E-03  0.1028708E+04  0.7818609E-02  0.9277607E-01
       -2   -1    0    0    0  501  0.00000000000E+00  0.00000000000E+00  0.21870461395E+03  0.21870461397E+03  0.25500000920E-02 0. -1.
        2   -1    0    0  501    0  0.00000000000E+00  0.00000000000E+00 -0.12096677813E+04  0.12096677813E+04  0.25500000920E-02 0.  1.
    10030    2    1    2    0    0  0.00000000000E+00  0.00000000000E+00 -0.99096316738E+03  0.14283723953E+04  0.10287077819E+04 0.  0.
        3    1    3    3  502    0 -0.44610441743E+03  0.15417150012E+03 -0.21166120215E+03  0.51727988304E+03  0.10100000352E+00 0. -1.
       -3    1    3    3    0  502  0.44610441743E+03 -0.15417150012E+03 -0.77930196523E+03  0.91109251227E+03  0.10100000352E+00 0.  1.
</event>
<event>
 5   0  0.6606947E-03  0.9915159E+03  0.7818609E-02  0.9317899E-01
        2   -1    0    0  501    0  0.00000000000E+00  0.00000000000E+00  0.31242813989E+03  0.31242813990E+03  0.25500000920E-02 0. -1.
       -2   -1    0    0    0  501  0.00000000000E+00  0.00000000000E+00 -0.78666398689E+03  0.78666398690E+03  0.25500000920E-02 0.  1.
    10030    2    1    2    0    0  0.00000000000E+00  0.00000000000E+00 -0.47423584700E+03  0.10990921268E+04  0.99151594269E+03 0.  0.
        1    1    3    3  502    0  0.41663933039E+02  0.47153430851E+03 -0.73843178608E+02  0.47909633944E+03  0.50400001928E-02 0. -1.
       -1    1    3    3    0  502 -0.41663933039E+02 -0.47153430851E+03 -0.40039266839E+03  0.61999578736E+03  0.50400001928E-02 0.  1.
</event>
<event>
 5   0  0.6376961E-03  0.1158603E+04  0.7818609E-02  0.9149884E-01
       -2   -1    0    0    0  501  0.00000000000E+00  0.00000000000E+00  0.48809683108E+03  0.48809683108E+03  0.25500000920E-02 0.  1.
        2   -1    0    0  501    0  0.00000000000E+00  0.00000000000E+00 -0.68754827730E+03  0.68754827731E+03  0.25500000920E-02 0. -1.
    10030    2    1    2    0    0  0.00000000000E+00  0.00000000000E+00 -0.19945144623E+03  0.11756451084E+04  0.11586028403E+04 0.  0.
        3    1    3    3  502    0 -0.53869862096E+02  0.42189214958E+03  0.29937272549E+03  0.52011439789E+03  0.10100000352E+00 0.  1.
       -3    1    3    3    0  502  0.53869862096E+02 -0.42189214958E+03 -0.49882417172E+03  0.65553071050E+03  0.10100000352E+00 0. -1.
</event>
<event>
 5   0  0.3643002E-03  0.1001210E+04  0.7818609E-02  0.9307219E-01
        1   -1    0    0  501    0  0.00000000000E+00  0.00000000000E+00  0.14917614352E+04  0.14917614352E+04  0.50400001928E-02 0.  1.
       -1   -1    0    0    0  501  0.00000000000E+00  0.00000000000E+00 -0.16799296628E+03  0.16799296636E+03  0.50400001928E-02 0. -1.
    10030    2    1    2    0    0  0.00000000000E+00  0.00000000000E+00  0.13237684689E+04  0.16597544015E+04  0.10012101249E+04 0.  0.
        2    1    3    3  502    0  0.46009227593E+03  0.14476660977E+03  0.88406676214E+03  0.10070830718E+04  0.25500000920E-02 0.  1.
       -2    1    3    3    0  502 -0.46009227593E+03 -0.14476660977E+03  0.43970170675E+03  0.65267132969E+03  0.25500000920E-02 0. -1.
</event>
<event>
 5   0  0.6360455E-03  0.1022933E+04  0.7818609E-02  0.9283743E-01
        2   -1    0    0  501    0  0.00000000000E+00  0.00000000000E+00  0.44434432821E+03  0.44434432822E+03  0.25500000920E-02 0.  1.
       -2   -1    0    0    0  501  0.00000000000E+00  0.00000000000E+00 -0.58872854358E+03  0.58872854359E+03  0.25500000920E-02 0. -1.
    10030    2    1    2    0    0  0.00000000000E+00  0.00000000000E+00 -0.14438421537E+03  0.10330728718E+04  0.10229334078E+04 0.  0.
        4    1    3    3  502    0  0.49018044841E+03 -0.99799730285E+02 -0.17983054216E+03  0.53158018677E+03  0.12699999809E+01 0. -1.
       -4    1    3    3    0  502 -0.49018044841E+03  0.99799730285E+02  0.35446326784E+02  0.50149268504E+03  0.12699999809E+01 0.  1.
</event>
<event>
 5   0  0.3640180E-03  0.1066701E+04  0.7818609E-02  0.9238269E-01
        1   -1    0    0  501    0  0.00000000000E+00  0.00000000000E+00  0.33229897553E+03  0.33229897557E+03  0.50400001928E-02 0.  1.
       -1   -1    0    0    0  501  0.00000000000E+00  0.00000000000E+00 -0.85604447520E+03  0.85604447522E+03  0.50400001928E-02 0. -1.
    10030    2    1    2    0    0  0.00000000000E+00  0.00000000000E+00 -0.52374549968E+03  0.11883434508E+04  0.10667008993E+04 0.  0.
        5    1    3    3  502    0 -0.52622384470E+03  0.29326832253E+02 -0.35284944176E+03  0.63426841035E+03  0.46999998093E+01 0.  1.
       -5    1    3    3    0  502  0.52622384470E+03 -0.29326832253E+02 -0.17089605791E+03  0.55407504043E+03  0.46999998093E+01 0. -1.
</event>
<event>
 5   0  0.2417750E-03  0.1025647E+04  0.7818609E-02  0.9280855E-01
       -4   -1    0    0    0  501  0.00000000000E+00  0.00000000000E+00  0.32632832167E+03  0.32633079294E+03  0.12699999809E+01 0. -1.
        4   -1    0    0  501    0  0.00000000000E+00  0.00000000000E+00 -0.80589345851E+03  0.80589445920E+03  0.12699999809E+01 0.  1.
    10030    2    1    2    0    0  0.00000000000E+00  0.00000000000E+00 -0.47956513684E+03  0.11322252521E+04  0.10256467721E+04 0.  0.
        3    1    3    3  502    0 -0.21065702592E+03 -0.15174741206E+03 -0.72798715335E+03  0.77289647772E+03  0.10100000352E+00 0.  1.
       -3    1    3    3    0  502  0.21065702592E+03  0.15174741206E+03  0.24842201651E+03  0.35932877442E+03  0.10100000352E+00 0. -1.
</event>
<event>
 5   0  0.2417750E-03  0.9186836E+03  0.7818609E-02  0.9402523E-01
       -3   -1    0    0    0  501  0.00000000000E+00  0.00000000000E+00  0.24794300903E+03  0.24794302960E+03  0.10100000352E+00 0.  1.
        3   -1    0    0  501    0  0.00000000000E+00  0.00000000000E+00 -0.85098136514E+03  0.85098137113E+03  0.10100000352E+00 0. -1.
    10030    2    1    2    0    0  0.00000000000E+00  0.00000000000E+00 -0.60303835611E+03  0.10989244007E+04  0.91868361234E+03 0.  0.
        3    1    3    3  502    0 -0.37148532542E+03 -0.25083596413E+03 -0.42158552245E+03  0.61534899922E+03  0.10100000352E+00 0. -1.
       -3    1    3    3    0  502  0.37148532542E+03  0.25083596413E+03 -0.18145283366E+03  0.48357540151E+03  0.10100000352E+00 0.  1.
</event>
<event>
 5   0  0.2417750E-03  0.1010390E+04  0.7818609E-02  0.9297223E-01
       -3   -1    0    0    0  501  0.00000000000E+00  0.00000000000E+00  0.10482894372E+04  0.10482894420E+04  0.10100000352E+00 0. -1.
        3   -1    0    0  501    0  0.00000000000E+00  0.00000000000E+00 -0.24346496986E+03  0.24346499081E+03  0.10100000352E+00 0.  1.
    10030    2    1    2    0    0  0.00000000000E+00  0.00000000000E+00  0.80482446731E+03  0.12917544328E+04  0.10103895742E+04 0.  0.
        5    1    3    3  502    0  0.24229577797E+02  0.57770160651E+02 -0.23845185232E+03  0.24658840154E+03  0.46999998093E+01 0.  1.
       -5    1    3    3    0  502 -0.24229577797E+02 -0.57770160651E+02  0.10432763196E+04  0.10451660313E+04  0.46999998093E+01 0. -1.
</event>
<event>
 5   0  0.2417750E-03  0.1037378E+04  0.7818609E-02  0.9268474E-01
       -3   -1    0    0    0  501  0.00000000000E+00  0.00000000000E+00  0.65247610431E+03  0.65247611213E+03  0.10100000352E+00 0. -1.
        3   -1    0    0  501    0  0.00000000000E+00  0.00000000000E+00 -0.41233388867E+03  0.41233390104E+03  0.10100000352E+00 0.  1.
    10030    2    1    2    0    0  0.00000000000E+00  0.00000000000E+00  0.24014221564E+03  0.10648100132E+04  0.10373775014E+04 0.  0.
        2    1    3    3  502    0 -0.95895601712E+01  0.11133433154E+03  0.63997363268E+03  0.64965648121E+03  0.25500000920E-02 0. -1.
       -2    1    3    3    0  502  0.95895601712E+01 -0.11133433154E+03 -0.39983141704E+03  0.41515353196E+03  0.25500000920E-02 0.  1.
</event>
<event>
 5   0  0.3643002E-03  0.9989176E+03  0.7818609E-02  0.9309733E-01
       -1   -1    0    0    0  501  0.00000000000E+00  0.00000000000E+00  0.28508133504E+03  0.28508133508E+03  0.50400001928E-02 0.  1.
        1   -1    0    0  501    0  0.00000000000E+00  0.00000000000E+00 -0.87504541152E+03  0.87504541153E+03  0.50400001928E-02 0. -1.
    10030    2    1    2    0    0  0.00000000000E+00  0.00000000000E+00 -0.58996407648E+03  0.11601267466E+04  0.99891764259E+03 0.  0.
        2    1    3    3  502    0 -0.20036612801E+03  0.32054502577E+03  0.84140690515E+02  0.38726651624E+03  0.25500000920E-02 0.  1.
       -2    1    3    3    0  502  0.20036612801E+03 -0.32054502577E+03 -0.67410476699E+03  0.77286023037E+03  0.25500000920E-02 0. -1.
</event>
<event>
 5   0  0.3466598E-03  0.9963898E+03  0.7818609E-02  0.9312513E-01
       -1   -1    0    0    0  501  0.00000000000E+00  0.00000000000E+00  0.46796460081E+03  0.46796460084E+03  0.50400001928E-02 0. -1.
        1   -1    0    0  501    0  0.00000000000E+00  0.00000000000E+00 -0.53037801088E+03  0.53037801091E+03  0.50400001928E-02 0.  1.
    10030    2    1    2    0    0  0.00000000000E+00  0.00000000000E+00 -0.62413410073E+02  0.99834261174E+03  0.99638975139E+03 0.  0.
        3    1    3    3  502    0 -0.28478041020E+03  0.40517689901E+03 -0.85441551924E+02  0.50256190715E+03  0.10100000352E+00 0.  1.
       -3    1    3    3    0  502  0.28478041020E+03 -0.40517689901E+03  0.23028141851E+02  0.49578070459E+03  0.10100000352E+00 0. -1.
</event>
<event>
 5   0  0.3640180E-03  0.1002035E+04  0.7818609E-02  0.9306316E-01
        1   -1    0    0  501    0  0.00000000000E+00  0.00000000000E+00  0.19698551376E+04  0.19698551376E+04  0.50400001928E-02 0.  1.
       -1   -1    0    0    0  501  0.00000000000E+00  0.00000000000E+00 -0.12742995030E+03  0.12742995040E+03  0.50400001928E-02 0. -1.
    10030    2    1    2    0    0  0.00000000000E+00  0.00000000000E+00  0.18424251873E+04  0.20972850880E+04  0.10020350141E+04 0.  0.
        5    1    3    3  502    0 -0.10526262892E+03  0.51384178200E+02 -0.98320633097E+02  0.15300193367E+03  0.46999998093E+01 0. -1.
       -5    1    3    3    0  502  0.10526262892E+03 -0.51384178200E+02  0.19407458204E+04  0.19442831543E+04  0.46999998093E+01 0.  1.
</event>
<event>
 5   0  0.6022787E-03  0.9879457E+03  0.7818609E-02  0.9321865E-01
       -2   -1    0    0    0  501  0.00000000000E+00  0.00000000000E+00  0.42802837406E+03  0.42802837407E+03  0.25500000920E-02 0.  1.
        2   -1    0    0  501    0  0.00000000000E+00  0.00000000000E+00 -0.57007712086E+03  0.57007712087E+03  0.25500000920E-02 0. -1.
    10030    2    1    2    0    0  0.00000000000E+00  0.00000000000E+00 -0.14204874680E+03  0.99810549494E+03  0.98794571337E+03 0.  0.
        5    1    3    3  502    0 -0.14150390115E+03  0.18396953655E+03  0.36948592650E+03  0.43636003976E+03  0.46999998093E+01 0.  1.
       -5    1    3    3    0  502  0.14150390115E+03 -0.18396953655E+03 -0.51153467330E+03  0.56174545517E+03  0.46999998093E+01 0. -1.
</event>
<event>
 5   0  0.3608845E-03  0.1001508E+04  0.7818609E-02  0.9306892E-01
       -1   -1    0    0    0  501  0.00000000000E+00  0.00000000000E+00  0.49978202724E+03  0.49978202726E+03  0.50400001928E-02 0.  1.
        1   -1    0    0  501    0  0.00000000000E+00  0.00000000000E+00 -0.50172824262E+03  0.50172824265E+03  0.50400001928E-02 0. -1.
    10030    2    1    2    0    0  0.00000000000E+00  0.00000000000E+00 -0.19462153874E+01  0.10015102699E+04  0.10015083789E+04 0.  0.
        1    1    3    3  502    0  0.35760724217E+03 -0.87702266663E+02  0.33840951701E+03  0.50009561932E+03  0.50400001928E-02 0.  1.
       -1    1    3    3    0  502 -0.35760724217E+03  0.87702266663E+02 -0.34035573240E+03  0.50141465059E+03  0.50400001928E-02 0. -1.
</event>
<event>
 5   0  0.3640180E-03  0.1000206E+04  0.7818609E-02  0.9308319E-01
       -1   -1    0    0    0  501  0.00000000000E+00  0.00000000000E+00  0.37825086210E+03  0.37825086213E+03  0.50400001928E-02 0.  1.
        1   -1    0    0  501    0  0.00000000000E+00  0.00000000000E+00 -0.66120890943E+03  0.66120890945E+03  0.50400001928E-02 0. -1.
    10030    2    1    2    0    0  0.00000000000E+00  0.00000000000E+00 -0.28295804733E+03  0.10394597716E+04  0.10002056589E+04 0.  0.
        5    1    3    3  502    0 -0.18868242839E+03  0.41809182044E+03  0.65534303478E+02  0.46337745309E+03  0.46999998093E+01 0.  1.
       -5    1    3    3    0  502  0.18868242839E+03 -0.41809182044E+03 -0.34849235081E+03  0.57608231849E+03  0.46999998093E+01 0. -1.
</event>
<event>
 5   0  0.3569359E-03  0.1004978E+04  0.7818609E-02  0.9303101E-01
       -1   -1    0    0    0  501  0.00000000000E+00  0.00000000000E+00  0.43342267474E+03  0.43342267477E+03  0.50400001928E-02 0.  1.
        1   -1    0    0  501    0  0.00000000000E+00  0.00000000000E+00 -0.58256165096E+03  0.58256165098E+03  0.50400001928E-02 0. -1.
    10030    2    1    2    0    0  0.00000000000E+00  0.00000000000E+00 -0.14913897622E+03  0.10159843258E+04  0.10049784654E+04 0.  0.
        4    1    3    3  502    0  0.30242345174E+03 -0.76226563914E+02 -0.47286812861E+03  0.56645945412E+03  0.12699999809E+01 0. -1.
       -4    1    3    3    0  502 -0.30242345174E+03  0.76226563914E+02  0.32372915239E+03  0.44952487163E+03  0.12699999809E+01 0.  1.
</event>
<event>
 5   0  0.3643002E-03  0.1008507E+04  0.7818609E-02  0.9299263E-01
        1   -1    0    0  501    0  0.00000000000E+00  0.00000000000E+00  0.35981660809E+03  0.35981660813E+03  0.50400001928E-02 0. -1.
       -1   -1    0    0    0  501  0.00000000000E+00  0.00000000000E+00 -0.70666993078E+03  0.70666993080E+03  0.50400001928E-02 0.  1.
    10030    2    1    2    0    0  0.00000000000E+00  0.00000000000E+00 -0.34685332269E+03  0.10664865389E+04  0.10085069708E+04 0.  0.
        2    1    3    3  502    0  0.37044995034E+03  0.16942564967E+03 -0.48772265972E+03  0.63546172921E+03  0.25500000920E-02 0.  1.
       -2    1    3    3    0  502 -0.37044995034E+03 -0.16942564967E+03  0.14086933703E+03  0.43102480972E+03  0.25500000920E-02 0. -1.
</event>
<event>
 5   0  0.6199539E-03  0.9952950E+03  0.7818609E-02  0.9313720E-01
        2   -1    0    0  501    0  0.00000000000E+00  0.00000000000E+00  0.54901785296E+03  0.54901785296E+03  0.25500000920E-02 0. -1.
       -2   -1    0    0    0  501  0.00000000000E+00  0.00000000000E+00 -0.45108374226E+03  0.45108374227E+03  0.25500000920E-02 0.  1.
    10030    2    1    2    0    0  0.00000000000E+00  0.00000000000E+00  0.97934110695E+02  0.10001015952E+04  0.99529498680E+03 0.  0.
        2    1    3    3  502    0  0.45626648931E+03 -0.18961334140E+03 -0.10654975183E+02  0.49421236024E+03  0.25500000920E-02 0. -1.
       -2    1    3    3    0  502 -0.45626648931E+03  0.18961334140E+03  0.10858908588E+03  0.50588923500E+03  0.25500000920E-02 0.  1.
</event>
<event>
 5   0  0.6376961E-03  0.9931150E+03  0.7818609E-02  0.9316128E-01
        2   -1    0    0  501    0  0.00000000000E+00  0.00000000000E+00  0.81234083104E+03  0.81234083104E+03  0.25500000920E-02 0.  1.
       -2   -1    0    0    0  501  0.00000000000E+00  0.00000000000E+00 -0.30352945450E+03  0.30352945451E+03  0.25500000920E-02 0. -1.
    10030    2    1    2    0    0  0.00000000000E+00  0.00000000000E+00  0.50881137654E+03  0.11158702856E+04  0.99311503729E+03 0.  0.
        3    1    3    3  502    0 -0.27761228480E+02 -0.23570930343E+03 -0.23567190051E+03  0.33447095004E+03  0.10100000352E+00 0. -1.
       -3    1    3    3    0  502  0.27761228480E+02  0.23570930343E+03  0.74448327705E+03  0.78139933551E+03  0.10100000352E+00 0.  1.
</event>
<event>
 5   0  0.6360455E-03  0.9998795E+03  0.7818609E-02  0.9308677E-01
       -2   -1    0    0    0  501  0.00000000000E+00  0.00000000000E+00  0.18492545111E+03  0.18492545112E+03  0.25500000920E-02 0.  1.
        2   -1    0    0  501    0  0.00000000000E+00  0.00000000000E+00 -0.13515702827E+04  0.13515702827E+04  0.25500000920E-02 0. -1.
    10030    2    1    2    0    0  0.00000000000E+00  0.00000000000E+00 -0.11666448316E+04  0.15364957338E+04  0.99987948123E+03 0.  0.
        4    1    3    3  502    0  0.15125160848E+03  0.37769425435E+03 -0.13686931009E+03  0.42926078296E+03  0.12699999809E+01 0.  1.
       -4    1    3    3    0  502 -0.15125160848E+03 -0.37769425435E+03 -0.10297755215E+04  0.11072349509E+04  0.12699999809E+01 0. -1.
</event>
<event>
 5   0  0.3466598E-03  0.9317154E+03  0.7818609E-02  0.9386782E-01
        1   -1    0    0  501    0  0.00000000000E+00  0.00000000000E+00  0.75607403538E+03  0.75607403539E+03  0.50400001928E-02 0. -1.
       -1   -1    0    0    0  501  0.00000000000E+00  0.00000000000E+00 -0.28703986662E+03  0.28703986667E+03  0.50400001928E-02 0.  1.
    10030    2    1    2    0    0  0.00000000000E+00  0.00000000000E+00  0.46903416876E+03  0.10431139021E+04  0.93171538638E+03 0.  0.
        3    1    3    3  502    0  0.11442782675E+03  0.23693308908E+03  0.66491926573E+03  0.71508646776E+03  0.10100000352E+00 0. -1.
       -3    1    3    3    0  502 -0.11442782675E+03 -0.23693308908E+03 -0.19588509697E+03  0.32802743430E+03  0.10100000352E+00 0.  1.
</event>
<event>
 5   0  0.6606947E-03  0.1003384E+04  0.7818609E-02  0.9304841E-01
       -2   -1    0    0    0  501  0.00000000000E+00  0.00000000000E+00  0.22194574734E+03  0.22194574736E+03  0.25500000920E-02 0.  1.
        2   -1    0    0  501    0  0.00000000000E+00  0.00000000000E+00 -0.11340378869E+04  0.11340378869E+04  0.25500000920E-02 0. -1.
    10030    2    1    2    0    0  0.00000000000E+00  0.00000000000E+00 -0.91209213953E+03  0.13559836342E+04  0.10033840468E+04 0.  0.
        1    1    3    3  502    0 -0.40542436833E+03 -0.29202389625E+03 -0.39488803909E+03  0.63685433018E+03  0.50400001928E-02 0.  1.
       -1    1    3    3    0  502  0.40542436833E+03  0.29202389625E+03 -0.51720410044E+03  0.71912930406E+03  0.50400001928E-02 0. -1.
</event>
<event>
 5   0  0.6022787E-03  0.9971622E+03  0.7818609E-02  0.9311663E-01
       -2   -1    0    0    0  501  0.00000000000E+00  0.00000000000E+00  0.39750309378E+03  0.39750309378E+03  0.25500000920E-02 0.  1.
        2   -1    0    0  501    0  0.00000000000E+00  0.00000000000E+00 -0.62536143414E+03  0.62536143414E+03  0.25500000920E-02 0. -1.
    10030    2    1    2    0    0  0.00000000000E+00  0.00000000000E+00 -0.22785834036E+03  0.10228645279E+04  0.99716218301E+03 0.  0.
        5    1    3    3  502    0  0.30890989050E+03  0.22091097818E+03  0.21740430688E+03  0.43762278663E+03  0.46999998093E+01 0.  1.
       -5    1    3    3    0  502 -0.30890989050E+03 -0.22091097818E+03 -0.44526264724E+03  0.58524174130E+03  0.46999998093E+01 0. -1.
</event>
<event>
 5   0  0.3569359E-03  0.9995369E+03  0.7818609E-02  0.9309053E-01
       -1   -1    0    0    0  501  0.00000000000E+00  0.00000000000E+00  0.27046935378E+03  0.27046935382E+03  0.50400001928E-02 0. -1.
        1   -1    0    0  501    0  0.00000000000E+00  0.00000000000E+00 -0.92346328914E+03  0.92346328915E+03  0.50400001928E-02 0.  1.
    10030    2    1    2    0    0  0.00000000000E+00  0.00000000000E+00 -0.65299393536E+03  0.11939326430E+04  0.99953693096E+03 0.  0.
        4    1    3    3  502    0 -0.33767194887E+03 -0.32624591358E+03 -0.12200545141E+03  0.48512440080E+03  0.12699999809E+01 0.  1.
       -4    1    3    3    0  502  0.33767194887E+03  0.32624591358E+03 -0.53098848395E+03  0.70880824217E+03  0.12699999809E+01 0. -1.
</event>
<event>
 5   0  0.3643002E-03  0.9925172E+03  0.7818609E-02  0.9316790E-01
        1   -1    0    0  501    0  0.00000000000E+00  0.00000000000E+00  0.41952394804E+03  0.41952394807E+03  0.50400001928E-02 0.  1.
       -1   -1    0    0    0  501  0.00000000000E+00  0.00000000000E+00 -0.58702872356E+03  0.58702872358E+03  0.50400001928E-02 0. -1.
    10030    2    1    2    0    0  0.00000000000E+00  0.00000000000E+00 -0.16750477552E+03  0.10065526717E+04  0.99251721949E+03 0.  0.
        2    1    3    3  502    0  0.25805408882E+03  0.33463427749E+03 -0.34762523274E+03  0.54718855514E+03  0.25500000920E-02 0. -1.
       -2    1    3    3    0  502 -0.25805408882E+03 -0.33463427749E+03  0.18012045722E+03  0.45936411652E+03  0.25500000920E-02 0.  1.
</event>
<event>
 5   0  0.3643002E-03  0.9875547E+03  0.7818609E-02  0.9322301E-01
        1   -1    0    0  501    0  0.00000000000E+00  0.00000000000E+00  0.27261174916E+03  0.27261174921E+03  0.50400001928E-02 0. -1.
       -1   -1    0    0    0  501  0.00000000000E+00  0.00000000000E+00 -0.89437108448E+03  0.89437108449E+03  0.50400001928E-02 0.  1.
    10030    2    1    2    0    0  0.00000000000E+00  0.00000000000E+00 -0.62175933532E+03  0.11669828337E+04  0.98755468866E+03 0.  0.
        2    1    3    3  502    0 -0.26912457663E+03 -0.14308163755E+03 -0.76994075897E+03  0.82807557932E+03  0.25500000920E-02 0.  1.
       -2    1    3    3    0  502  0.26912457663E+03  0.14308163755E+03  0.14818142365E+03  0.33890725438E+03  0.25500000920E-02 0. -1.
</event>
<event>
 5   0  0.3466598E-03  0.9962722E+03  0.7818609E-02  0.9312643E-01
       -1   -1    0    0    0  501  0.00000000000E+00  0.00000000000E+00  0.91305101426E+03  0.91305101428E+03  0.50400001928E-02 0. -1.
        1   -1    0    0  501    0  0.00000000000E+00  0.00000000000E+00 -0.27176965650E+03  0.27176965655E+03  0.50400001928E-02 0.  1.
    10030    2    1    2    0    0  0.00000000000E+00  0.00000000000E+00  0.64128135776E+03  0.11848206708E+04  0.99627217276E+03 0.  0.
        3    1    3    3  502    0  0.27288344284E+03  0.41123689823E+03  0.24034717944E+03  0.54895167065E+03  0.10100000352E+00 0.  1.
       -3    1    3    3    0  502 -0.27288344284E+03 -0.41123689823E+03  0.40093417832E+03  0.63586900018E+03  0.10100000352E+00 0. -1.
</event>
<event>
 5   0  0.3643002E-03  0.1003468E+04  0.7818609E-02  0.9304749E-01
        1   -1    0    0  501    0  0.00000000000E+00  0.00000000000E+00  0.48485800012E+03  0.48485800015E+03  0.50400001928E-02 0. -1.
       -1   -1    0    0    0  501  0.00000000000E+00  0.00000000000E+00 -0.51919745579E+03  0.51919745581E+03  0.50400001928E-02 0.  1.
    10030    2    1    2    0    0  0.00000000000E+00  0.00000000000E+00 -0.34339455665E+02  0.10040554560E+04  0.10034680665E+04 0.  0.
        2    1    3    3  502    0 -0.90463486853E+02  0.31995027414E+03  0.35879643594E+03  0.48916940095E+03  0.25500000920E-02 0. -1.
       -2    1    3    3    0  502  0.90463486853E+02 -0.31995027414E+03 -0.39313589160E+03  0.51488605501E+03  0.25500000920E-02 0.  1.
</event>
<event>
 5   0  0.6199539E-03  0.1004324E+04  0.7818609E-02  0.9303815E-01
       -2   -1    0    0    0  501  0.00000000000E+00  0.00000000000E+00  0.54841782466E+03  0.54841782467E+03  0.25500000920E-02 0.  1.
        2   -1    0    0  501    0  0.00000000000E+00  0.00000000000E+00 -0.45980750938E+03  0.45980750939E+03  0.25500000920E-02 0. -1.
    10030    2    1    2    0    0  0.00000000000E+00  0.00000000000E+00  0.88610315286E+02  0.10082253341E+04  0.10043239200E+04 0.  0.
        2    1    3    3  502    0 -0.42628265119E+03 -0.14797055519E+03  0.26551187942E+03  0.52355395331E+03  0.25500000920E-02 0.  1.
       -2    1    3    3    0  502  0.42628265119E+03  0.14797055519E+03 -0.17690156413E+03  0.48467138074E+03  0.25500000920E-02 0. -1.
</event>
<event>
 5   0  0.6199539E-03  0.9984981E+03  0.7818609E-02  0.9310194E-01
       -2   -1    0    0    0  501  0.00000000000E+00  0.00000000000E+00  0.42289822375E+03  0.42289822376E+03  0.25500000920E-02 0. -1.
        2   -1    0    0  501    0  0.00000000000E+00  0.00000000000E+00 -0.58938444085E+03  0.58938444086E+03  0.25500000920E-02 0.  1.
    10030    2    1    2    0    0  0.00000000000E+00  0.00000000000E+00 -0.16648621711E+03  0.10122826646E+04  0.99849813850E+03 0.  0.
        2    1    3    3  502    0 -0.10149570025E+03 -0.46790680007E+03  0.60171757256E+02  0.48255444367E+03  0.25500000920E-02 0.  1.
       -2    1    3    3    0  502  0.10149570025E+03  0.46790680007E+03 -0.22665797436E+03  0.52972822095E+03  0.25500000920E-02 0. -1.
</event>
<event>
 5   0  0.6376961E-03  0.9965468E+03  0.7818609E-02  0.9312340E-01
       -2   -1    0    0    0  501  0.00000000000E+00  0.00000000000E+00  0.13132286784E+04  0.13132286784E+04  0.25500000920E-02 0. -1.
        2   -1    0    0  501    0  0.00000000000E+00  0.00000000000E+00 -0.18905800472E+03  0.18905800474E+03  0.25500000920E-02 0.  1.
    10030    2    1    2    0    0  0.00000000000E+00  0.00000000000E+00  0.11241706737E+04  0.15022866831E+04  0.99654682518E+03 0.  0.
        3    1    3    3  502    0 -0.14926930038E+02 -0.44528385494E+03  0.22575620330E+03  0.49946611320E+03  0.10100000352E+00 0. -1.
       -3    1    3    3    0  502  0.14926930038E+02  0.44528385494E+03  0.89841447035E+03  0.10028205699E+04  0.10100000352E+00 0.  1.
</event>
<event>
 5   0  0.2417750E-03  0.1000610E+04  0.7818609E-02  0.9307876E-01
        3   -1    0    0  501    0  0.00000000000E+00  0.00000000000E+00  0.32497700505E+03  0.32497702074E+03  0.10100000352E+00 0.  1.
       -3   -1    0    0    0  501  0.00000000000E+00  0.00000000000E+00 -0.77022460649E+03  0.77022461311E+03  0.10100000352E+00 0. -1.
    10030    2    1    2    0    0  0.00000000000E+00  0.00000000000E+00 -0.44524760144E+03  0.10952016339E+04  0.10006104098E+04 0.  0.
        5    1    3    3  502    0 -0.44468553996E+03  0.22673059887E+03 -0.18581077806E+03  0.53263470518E+03  0.46999998093E+01 0. -1.
       -5    1    3    3    0  502  0.44468553996E+03 -0.22673059887E+03 -0.25943682338E+03  0.56256692868E+03  0.46999998093E+01 0.  1.
</event>
<event>
 5   0  0.3608845E-03  0.1023451E+04  0.7818609E-02  0.9283191E-01
        1   -1    0    0  501    0  0.00000000000E+00  0.00000000000E+00  0.13136744757E+04  0.13136744757E+04  0.50400001928E-02 0. -1.
       -1   -1    0    0    0  501  0.00000000000E+00  0.00000000000E+00 -0.19933641357E+03  0.19933641363E+03  0.50400001928E-02 0.  1.
    10030    2    1    2    0    0  0.00000000000E+00  0.00000000000E+00  0.11143380621E+04  0.15130108893E+04  0.10234513347E+04 0.  0.
        1    1    3    3  502    0 -0.10660169326E+03 -0.17758646477E+03  0.12489355130E+04  0.12659939926E+04  0.50400001928E-02 0. -1.
       -1    1    3    3    0  502  0.10660169326E+03  0.17758646477E+03 -0.13459745090E+03  0.24701689677E+03  0.50400001928E-02 0.  1.
</event>
<event>
 5   0  0.3643002E-03  0.1011869E+04  0.7818609E-02  0.9295622E-01
       -1   -1    0    0    0  501  0.00000000000E+00  0.00000000000E+00  0.32909345451E+03  0.32909345454E+03  0.50400001928E-02 0.  1.
        1   -1    0    0  501    0  0.00000000000E+00  0.00000000000E+00 -0.77780256922E+03  0.77780256924E+03  0.50400001928E-02 0. -1.
    10030    2    1    2    0    0  0.00000000000E+00  0.00000000000E+00 -0.44870911472E+03  0.11068960238E+04  0.10118690320E+04 0.  0.
        2    1    3    3  502    0  0.19177633480E+03 -0.61809157236E+02  0.28330940671E+03  0.34765321003E+03  0.25500000920E-02 0.  1.
       -2    1    3    3    0  502 -0.19177633480E+03  0.61809157236E+02 -0.73201852143E+03  0.75924281375E+03  0.25500000920E-02 0. -1.
</event>
<event>
 5   0  0.3643002E-03  0.1004209E+04  0.7818609E-02  0.9303941E-01
       -1   -1    0    0    0  501  0.00000000000E+00  0.00000000000E+00  0.27010844875E+03  0.27010844879E+03  0.50400001928E-02 0. -1.
        1   -1    0    0  501    0  0.00000000000E+00  0.00000000000E+00 -0.93336101467E+03  0.93336101468E+03  0.50400001928E-02 0.  1.
    10030    2    1    2    0    0  0.00000000000E+00  0.00000000000E+00 -0.66325256592E+03  0.12034694635E+04  0.10042085358E+04 0.  0.
        2    1    3    3  502    0  0.17395570791E+03  0.35347988493E+03 -0.70468159711E+03  0.80733188384E+03  0.25500000920E-02 0.  1.
       -2    1    3    3    0  502 -0.17395570791E+03 -0.35347988493E+03  0.41429031189E+02  0.39613757963E+03  0.25500000920E-02 0. -1.
</event>
<event>
 5   0  0.6376961E-03  0.1004441E+04  0.7818609E-02  0.9303687E-01
        2   -1    0    0  501    0  0.00000000000E+00  0.00000000000E+00  0.57286097496E+03  0.57286097497E+03  0.25500000920E-02 0.  1.
       -2   -1    0    0    0  501  0.00000000000E+00  0.00000000000E+00 -0.44029095646E+03  0.44029095647E+03  0.25500000920E-02 0. -1.
    10030    2    1    2    0    0  0.00000000000E+00  0.00000000000E+00  0.13257001850E+03  0.10131519314E+04  0.10044411513E+04 0.  0.
        3    1    3    3  502    0  0.16004065216E+03 -0.19394381560E+03  0.50479451104E+03  0.56395453942E+03  0.10100000352E+00 0.  1.
       -3    1    3    3    0  502 -0.16004065216E+03  0.19394381560E+03 -0.37222449254E+03  0.44919739202E+03  0.10100000352E+00 0. -1.
</event>
<event>
 5   0  0.6199539E-03  0.1008661E+04  0.7818609E-02  0.9299097E-01
       -2   -1    0    0    0  501  0.00000000000E+00  0.00000000000E+00  0.86684563224E+03  0.86684563225E+03  0.25500000920E-02 0. -1.
        2   -1    0    0  501    0  0.00000000000E+00  0.00000000000E+00 -0.29341912202E+03  0.29341912203E+03  0.25500000920E-02 0.  1.
    10030    2    1    2    0    0  0.00000000000E+00  0.00000000000E+00  0.57342651022E+03  0.11602647543E+04  0.10086606651E+04 0.  0.
        2    1    3    3  502    0 -0.23790388394E+03 -0.29302237363E+03  0.67148675858E+03  0.77029529169E+03  0.25500000920E-02 0. -1.
       -2    1    3    3    0  502  0.23790388394E+03  0.29302237363E+03 -0.98060248364E+02  0.38996946259E+03  0.25500000920E-02 0.  1.
</event>
<event>
 5   0  0.6199539E-03  0.1004778E+04  0.7818609E-02  0.9303320E-01
       -2   -1    0    0    0  501  0.00000000000E+00  0.00000000000E+00  0.13693315152E+03  0.13693315154E+03  0.25500000920E-02 0.  1.
        2   -1    0    0  501    0  0.00000000000E+00  0.00000000000E+00 -0.18431954104E+04  0.18431954104E+04  0.25500000920E-02 0. -1.
    10030    2    1    2    0    0  0.00000000000E+00  0.00000000000E+00 -0.17062622589E+04  0.19801285620E+04  0.10047776997E+04 0.  0.
        2    1    3    3  502    0 -0.27904394958E+03 -0.37896032945E+03 -0.50660994142E+03  0.69146951476E+03  0.25500000920E-02 0. -1.
       -2    1    3    3    0  502  0.27904394958E+03  0.37896032945E+03 -0.11996523175E+04  0.12886590472E+04  0.25500000920E-02 0.  1.
</event>
<event>
 5   0  0.3569359E-03  0.1009785E+04  0.7818609E-02  0.9297877E-01
       -1   -1    0    0    0  501  0.00000000000E+00  0.00000000000E+00  0.17563355862E+03  0.17563355869E+03  0.50400001928E-02 0.  1.
        1   -1    0    0  501    0  0.00000000000E+00  0.00000000000E+00 -0.14514119486E+04  0.14514119486E+04  0.50400001928E-02 0. -1.
    10030    2    1    2    0    0  0.00000000000E+00  0.00000000000E+00 -0.12757783900E+04  0.16270455073E+04  0.10097854141E+04 0.  0.
        4    1    3    3  502    0  0.85627535290E+02 -0.36460219108E+03 -0.92314488789E+02  0.38573360014E+03  0.12699999809E+01 0.  1.
       -4    1    3    3    0  502 -0.85627535290E+02  0.36460219108E+03 -0.11834639012E+04  0.12413119072E+04  0.12699999809E+01 0. -1.
</event>
<event>
 5   0  0.3640180E-03  0.9711898E+03  0.7818609E-02  0.9340720E-01
       -1   -1    0    0    0  501  0.00000000000E+00  0.00000000000E+00  0.43587040288E+03  0.43587040291E+03  0.50400001928E-02 0.  1.
        1   -1    0    0  501    0  0.00000000000E+00  0.00000000000E+00 -0.54099200840E+03  0.54099200843E+03  0.50400001928E-02 0. -1.
    10030    2    1    2    0    0  0.00000000000E+00  0.00000000000E+00 -0.10512160552E+03  0.97686241134E+03  0.97118979543E+03 0.  0.
        5    1    3    3  502    0  0.20949465833E+03  0.59549382885E+02  0.38396275815E+03  0.44145626116E+03  0.46999998093E+01 0.  1.
       -5    1    3    3    0  502 -0.20949465833E+03 -0.59549382885E+02 -0.48908436367E+03  0.53540615018E+03  0.46999998093E+01 0. -1.
</event>
<event>
 5   0  0.6606947E-03  0.1003682E+04  0.7818609E-02  0.9304515E-01
        2   -1    0    0  501    0  0.00000000000E+00  0.00000000000E+00  0.12573813478E+04  0.12573813478E+04  0.25500000920E-02 0. -1.
       -2   -1    0    0    0  501  0.00000000000E+00  0.00000000000E+00 -0.20029289877E+03  0.20029289879E+03  0.25500000920E-02 0.  1.
    10030    2    1    2    0    0  0.00000000000E+00  0.00000000000E+00  0.10570884490E+04  0.14576742466E+04  0.10036823303E+04 0.  0.
        1    1    3    3  502    0  0.44376043818E+03 -0.14160056206E+03  0.25734193730E+03  0.53216437159E+03  0.50400001928E-02 0.  1.
       -1    1    3    3    0  502 -0.44376043818E+03  0.14160056206E+03  0.79974651172E+03  0.92550987499E+03  0.50400001928E-02 0. -1.
</event>
<event>
 5   0  0.6376961E-03  0.1003212E+04  0.7818609E-02  0.9305028E-01
        2   -1    0    0  501    0  0.00000000000E+00  0.00000000000E+00  0.17751813342E+04  0.17751813342E+04  0.25500000920E-02 0. -1.
       -2   -1    0    0    0  501  0.00000000000E+00  0.00000000000E+00 -0.14173695649E+03  0.14173695651E+03  0.25500000920E-02 0.  1.
    10030    2    1    2    0    0  0.00000000000E+00  0.00000000000E+00  0.16334443777E+04  0.19169182907E+04  0.10032124392E+04 0.  0.
        3    1    3    3  502    0  0.46526757626E+02 -0.24370480229E+03 -0.16281524172E+02  0.24864003713E+03  0.10100000352E+00 0.  1.
       -3    1    3    3    0  502 -0.46526757626E+02  0.24370480229E+03  0.16497259019E+04  0.16682782536E+04  0.10100000352E+00 0. -1.
</event>
<event>
 5   0  0.2417750E-03  0.1009734E+04  0.7818609E-02  0.9297933E-01
        4   -1    0    0  501    0  0.00000000000E+00  0.00000000000E+00  0.11638991816E+04  0.11638998745E+04  0.12699999809E+01 0.  1.
       -4   -1    0    0    0  501  0.00000000000E+00  0.00000000000E+00 -0.21899469198E+03  0.21899837446E+03  0.12699999809E+01 0. -1.
    10030    2    1    2    0    0  0.00000000000E+00  0.00000000000E+00  0.94490448961E+03  0.13828982489E+04  0.10097341593E+04 0.  0.
        5    1    3    3  502    0 -0.16723368713E+03  0.12547167429E+02 -0.17970333518E+03  0.24584530949E+03  0.46999998093E+01 0. -1.
       -5    1    3    3    0  502  0.16723368713E+03 -0.12547167429E+02  0.11246078248E+04  0.11370529394E+04  0.46999998093E+01 0.  1.
</event>
<event>
 5   0  0.6376961E-03  0.1006313E+04  0.7818609E-02  0.9301648E-01
        2   -1    0    0  501    0  0.00000000000E+00  0.00000000000E+00  0.52826962943E+03  0.52826962944E+03  0.25500000920E-02 0.  1.
       -2   -1    0    0    0  501  0.00000000000E+00  0.00000000000E+00 -0.47923739240E+03  0.47923739240E+03  0.25500000920E-02 0. -1.
    10030    2    1    2    0    0  0.00000000000E+00  0.00000000000E+00  0.49032237032E+02  0.10075070218E+04  0.10063131912E+04 0.  0.
        3    1    3    3  502    0  0.38417495848E+03 -0.24011303834E+03  0.24368648701E+03  0.51441985192E+03  0.10100000352E+00 0.  1.
       -3    1    3    3    0  502 -0.38417495848E+03  0.24011303834E+03 -0.19465424997E+03  0.49308716992E+03  0.10100000352E+00 0. -1.
</event>
<event>
 5   0  0.6199539E-03  0.9963238E+03  0.7818609E-02  0.9312586E-01
       -2   -1    0    0    0  501  0.00000000000E+00  0.00000000000E+00  0.11760974786E+03  0.11760974789E+03  0.25500000920E-02 0.  1.
        2   -1    0    0  501    0  0.00000000000E+00  0.00000000000E+00 -0.21100738603E+04  0.21100738603E+04  0.25500000920E-02 0. -1.
    10030    2    1    2    0    0  0.00000000000E+00  0.00000000000E+00 -0.19924641124E+04  0.22276836081E+04  0.99632375201E+03 0.  0.
        2    1    3    3  502    0 -0.14206362131E+03  0.20880517107E+02  0.70336460979E+02  0.15989148271E+03  0.25500000920E-02 0.  1.
       -2    1    3    3    0  502  0.14206362131E+03 -0.20880517107E+02 -0.20628005734E+04  0.20677921254E+04  0.25500000920E-02 0. -1.
</event>
<event>
 5   0  0.6022787E-03  0.9824643E+03  0.7818609E-02  0.9327989E-01
       -2   -1    0    0    0  501  0.00000000000E+00  0.00000000000E+00  0.24916098204E+03  0.24916098205E+03  0.25500000920E-02 0. -1.
        2   -1    0    0  501    0  0.00000000000E+00  0.00000000000E+00 -0.96848641635E+03  0.96848641635E+03  0.25500000920E-02 0.  1.
    10030    2    1    2    0    0  0.00000000000E+00  0.00000000000E+00 -0.71932543431E+03  0.12176473984E+04  0.98246430286E+03 0.  0.
        5    1    3    3  502    0  0.43296832270E+03  0.18640139959E+03 -0.53085834047E+03  0.70995754653E+03  0.46999998093E+01 0.  1.
       -5    1    3    3    0  502 -0.43296832270E+03 -0.18640139959E+03 -0.18846709384E+03  0.50768985187E+03  0.46999998093E+01 0. -1.
</event>
<event>
 5   0  0.3466598E-03  0.1004847E+04  0.7818609E-02  0.9303245E-01
        1   -1    0    0  501    0  0.00000000000E+00  0.00000000000E+00  0.11947009822E+04  0.11947009822E+04  0.50400001928E-02 0.  1.
       -1   -1    0    0    0  501  0.00000000000E+00  0.00000000000E+00 -0.21129065517E+03  0.21129065523E+03  0.50400001928E-02 0. -1.
    10030    2    1    2    0    0  0.00000000000E+00  0.00000000000E+00  0.98341032700E+03  0.14059916374E+04  0.10048465620E+04 0.  0.
        3    1    3    3  502    0  0.13912033609E+03  0.20839355037E+03 -0.11762931095E+03  0.27680138140E+03  0.10100000352E+00 0. -1.
       -3    1    3    3    0  502 -0.13912033609E+03 -0.20839355037E+03  0.11010396379E+04  0.11291902560E+04  0.10100000352E+00 0.  1.
</event>
<event>
 5   0  0.3640180E-03  0.1005355E+04  0.7818609E-02  0.9302691E-01
        1   -1    0    0  501    0  0.00000000000E+00  0.00000000000E+00  0.31481829201E+03  0.31481829205E+03  0.50400001928E-02 0. -1.
       -1   -1    0    0    0  501  0.00000000000E+00  0.00000000000E+00 -0.80263693292E+03  0.80263693294E+03  0.50400001928E-02 0.  1.
    10030    2    1    2    0    0  0.00000000000E+00  0.00000000000E+00 -0.48781864091E+03  0.11174552250E+04  0.10053552374E+04 0.  0.
        5    1    3    3  502    0 -0.34929594749E+03 -0.80811987121E+02  0.14768760705E+03  0.38777822975E+03  0.46999998093E+01 0. -1.
       -5    1    3    3    0  502  0.34929594749E+03  0.80811987121E+02 -0.63550624795E+03  0.72967699524E+03  0.46999998093E+01 0.  1.
</event>
<event>
 5   0  0.6606947E-03  0.1012330E+04  0.7818609E-02  0.9295124E-01
        2   -1    0    0  501    0  0.00000000000E+00  0.00000000000E+00  0.84234921615E+03  0.84234921616E+03  0.25500000920E-02 0. -1.
       -2   -1    0    0    0  501  0.00000000000E+00  0.00000000000E+00 -0.30415294644E+03  0.30415294645E+03  0.25500000920E-02 0.  1.
    10030    2    1    2    0    0  0.00000000000E+00  0.00000000000E+00  0.53819626972E+03  0.11465021626E+04  0.10123299779E+04 0.  0.
        1    1    3    3  502    0 -0.79085890226E+02 -0.19753886106E+03  0.78923624978E+03  0.81741668545E+03  0.50400001928E-02 0. -1.
       -1    1    3    3    0  502  0.79085890226E+02  0.19753886106E+03 -0.25103998006E+03  0.32908547716E+03  0.50400001928E-02 0.  1.
</event>
<event>
 5   0  0.3643002E-03  0.9894554E+03  0.7818609E-02  0.9320186E-01
       -1   -1    0    0    0  501  0.00000000000E+00  0.00000000000E+00  0.10452439911E+04  0.10452439911E+04  0.50400001928E-02 0. -1.
        1   -1    0    0  501    0  0.00000000000E+00  0.00000000000E+00 -0.23416113493E+03  0.23416113499E+03  0.50400001928E-02 0.  1.
    10030    2    1    2    0    0  0.00000000000E+00  0.00000000000E+00  0.81108285619E+03  0.12794051261E+04  0.98945544475E+03 0.  0.
        2    1    3    3  502    0 -0.20523930114E+03 -0.29451817339E+03 -0.34645799884E+02  0.36064450175E+03  0.25500000920E-02 0.  1.
       -2    1    3    3    0  502  0.20523930114E+03  0.29451817339E+03  0.84572865608E+03  0.91876062437E+03  0.25500000920E-02 0. -1.
</event>
<event>
 5   0  0.6199539E-03  0.9593046E+03  0.7818609E-02  0.9354341E-01
       -2   -1    0    0    0  501  0.00000000000E+00  0.00000000000E+00  0.22233008547E+03  0.22233008548E+03  0.25500000920E-02 0. -1.
        2   -1    0    0  501    0  0.00000000000E+00  0.00000000000E+00 -0.10347961028E+04  0.10347961028E+04  0.25500000920E-02 0.  1.
    10030    2    1    2    0    0  0.00000000000E+00  0.00000000000E+00 -0.81246601737E+03  0.12571261883E+04  0.95930455225E+03 0.  0.
        2    1    3    3  502    0  0.23151140770E+03  0.40712598679E+03 -0.54189654602E+03  0.71624085865E+03  0.25500000920E-02 0.  1.
       -2    1    3    3    0  502 -0.23151140770E+03 -0.40712598679E+03 -0.27056947135E+03  0.54088532967E+03  0.25500000920E-02 0. -1.
</event>
<event>
 5   0  0.3608845E-03  0.9977028E+03  0.7818609E-02  0.9311068E-01
       -1   -1    0    0    0  501  0.00000000000E+00  0.00000000000E+00  0.39800689056E+03  0.39800689059E+03  0.50400001928E-02 0. -1.
        1   -1    0    0  501    0  0.00000000000E+00  0.00000000000E+00 -0.62524729453E+03  0.62524729455E+03  0.50400001928E-02 0.  1.
    10030    2    1    2    0    0  0.00000000000E+00  0.00000000000E+00 -0.22724040397E+03  0.10232541851E+04  0.99770282460E+03 0.  0.
        1    1    3    3  502    0  0.22799176363E+03  0.25325444161E+03 -0.48727840710E+03  0.59460768792E+03  0.50400001928E-02 0.  1.
       -1    1    3    3    0  502 -0.22799176363E+03 -0.25325444161E+03  0.26003800314E+03  0.42864649722E+03  0.50400001928E-02 0. -1.
</event>
<event>
 5   0  0.6360455E-03  0.9778700E+03  0.7818609E-02  0.9333155E-01
       -2   -1    0    0    0  501  0.00000000000E+00  0.00000000000E+00  0.92949140594E+03  0.92949140595E+03  0.25500000920E-02 0. -1.
        2   -1    0    0  501    0  0.00000000000E+00  0.00000000000E+00 -0.25719163759E+03  0.25719163760E+03  0.25500000920E-02 0.  1.
    10030    2    1    2    0    0  0.00000000000E+00  0.00000000000E+00  0.67229976835E+03  0.11866830436E+04  0.97786996443E+03 0.  0.
        4    1    3    3  502    0 -0.27000792654E+03  0.28446149107E+03 -0.18139374181E+02  0.39262357302E+03  0.12699999809E+01 0.  1.
       -4    1    3    3    0  502  0.27000792654E+03 -0.28446149107E+03  0.69043914253E+03  0.79405947053E+03  0.12699999809E+01 0. -1.
</event>
<event>
 5   0  0.3569359E-03  0.1010218E+04  0.7818609E-02  0.9297409E-01
        1   -1    0    0  501    0  0.00000000000E+00  0.00000000000E+00  0.10000460106E+04  0.10000460106E+04  0.50400001928E-02 0.  1.
       -1   -1    0    0    0  501  0.00000000000E+00  0.00000000000E+00 -0.25512313612E+03  0.25512313617E+03  0.50400001928E-02 0. -1.
    10030    2    1    2    0    0  0.00000000000E+00  0.00000000000E+00  0.74492287447E+03  0.12551691468E+04  0.10102175499E+04 0.  0.
        4    1    3    3  502    0  0.96859569366E+02  0.49288534977E+03  0.43838891433E+03  0.66671147980E+03  0.12699999809E+01 0.  1.
       -4    1    3    3    0  502 -0.96859569366E+02 -0.49288534977E+03  0.30653396014E+03  0.58845766697E+03  0.12699999809E+01 0. -1.
</event>
<event>
 5   0  0.2417750E-03  0.9985594E+03  0.7818609E-02  0.9310126E-01
       -4   -1    0    0    0  501  0.00000000000E+00  0.00000000000E+00  0.25277693256E+03  0.25278012290E+03  0.12699999809E+01 0. -1.
        4   -1    0    0  501    0  0.00000000000E+00  0.00000000000E+00 -0.98615693783E+03  0.98615775560E+03  0.12699999809E+01 0.  1.
    10030    2    1    2    0    0  0.00000000000E+00  0.00000000000E+00 -0.73338000527E+03  0.12389378785E+04  0.99855937964E+03 0.  0.
        2    1    3    3  502    0  0.48535598344E+02  0.49546367359E+01 -0.98319434765E+03  0.98440407251E+03  0.25500000920E-02 0.  1.
       -2    1    3    3    0  502 -0.48535598344E+02 -0.49546367359E+01  0.24981434237E+03  0.25453380599E+03  0.25500000920E-02 0. -1.
</event>
<event>
 5   0  0.3643002E-03  0.1001800E+04  0.7818609E-02  0.9306573E-01
       -1   -1    0    0    0  501  0.00000000000E+00  0.00000000000E+00  0.45850108334E+03  0.45850108337E+03  0.50400001928E-02 0.  1.
        1   -1    0    0  501    0  0.00000000000E+00  0.00000000000E+00 -0.54721992733E+03  0.54721992735E+03  0.50400001928E-02 0. -1.
    10030    2    1    2    0    0  0.00000000000E+00  0.00000000000E+00 -0.88718843988E+02  0.10057210107E+04  0.10018002386E+04 0.  0.
        2    1    3    3  502    0  0.33842476336E+03  0.32192194927E+03  0.13727925101E+03  0.48683740062E+03  0.25500000920E-02 0. -1.
       -2    1    3    3    0  502 -0.33842476336E+03 -0.32192194927E+03 -0.22599809500E+03  0.51888361010E+03  0.25500000920E-02 0.  1.
</event>
<event>
 5   0  0.3466598E-03  0.1004751E+04  0.7818609E-02  0.9303349E-01
       -1   -1    0    0    0  501  0.00000000000E+00  0.00000000000E+00  0.38377414986E+03  0.38377414990E+03  0.50400001928E-02 0.  1.
        1   -1    0    0  501    0  0.00000000000E+00  0.00000000000E+00 -0.65762957212E+03  0.65762957214E+03  0.50400001928E-02 0. -1.
    10030    2    1    2    0    0  0.00000000000E+00  0.00000000000E+00 -0.27385542226E+03  0.10414037220E+04  0.10047511732E+04 0.  0.
        3    1    3    3  502    0  0.24437622589E+03 -0.17462058923E+03 -0.55432026464E+03  0.63046257300E+03  0.10100000352E+00 0. -1.
       -3    1    3    3    0  502 -0.24437622589E+03  0.17462058923E+03  0.28046484237E+03  0.41094114904E+03  0.10100000352E+00 0.  1.
</event>
<event>
 5   0  0.6606947E-03  0.9936454E+03  0.7818609E-02  0.9315542E-01
       -2   -1    0    0    0  501  0.00000000000E+00  0.00000000000E+00  0.13724962432E+03  0.13724962434E+03  0.25500000920E-02 0.  1.
        2   -1    0    0  501    0  0.00000000000E+00  0.00000000000E+00 -0.17984222335E+04  0.17984222335E+04  0.25500000920E-02 0. -1.
    10030    2    1    2    0    0  0.00000000000E+00  0.00000000000E+00 -0.16611726092E+04  0.19356718578E+04  0.99364536115E+03 0.  0.
        1    1    3    3  502    0 -0.91473303561E+02  0.29699297731E+03 -0.75454329871E+02  0.31978985250E+03  0.50400001928E-02 0.  1.
       -1    1    3    3    0  502  0.91473303561E+02 -0.29699297731E+03 -0.15857182793E+04  0.16158820053E+04  0.50400001928E-02 0. -1.
</event>
<event>
 5   0  0.3466598E-03  0.1021455E+04  0.7818609E-02  0.9285322E-01
        1   -1    0    0  501    0  0.00000000000E+00  0.00000000000E+00  0.10055809589E+04  0.10055809589E+04  0.50400001928E-02 0.  1.
       -1   -1    0    0    0  501  0.00000000000E+00  0.00000000000E+00 -0.25939477970E+03  0.25939477975E+03  0.50400001928E-02 0. -1.
    10030    2    1    2    0    0  0.00000000000E+00  0.00000000000E+00  0.74618617923E+03  0.12649757387E+04  0.10214547496E+04 0.  0.
        3    1    3    3  502    0 -0.33203446569E+03 -0.33092813797E+03  0.62410220854E+03  0.78055358292E+03  0.10100000352E+00 0.  1.
       -3    1    3    3    0  502  0.33203446569E+03  0.33092813797E+03  0.12208397069E+03  0.48442215578E+03  0.10100000352E+00 0. -1.
</event>
<event>
 5   0  0.6606947E-03  0.9993811E+03  0.7818609E-02  0.9309224E-01
       -2   -1    0    0    0  501  0.00000000000E+00  0.00000000000E+00  0.18544744088E+03  0.18544744090E+03  0.25500000920E-02 0. -1.
        2   -1    0    0  501    0  0.00000000000E+00  0.00000000000E+00 -0.13464227302E+04  0.13464227302E+04  0.25500000920E-02 0.  1.
    10030    2    1    2    0    0  0.00000000000E+00  0.00000000000E+00 -0.11609752893E+04  0.15318701711E+04  0.99938110783E+03 0.  0.
        1    1    3    3  502    0  0.94211030688E+02  0.17356768771E+03 -0.12840651569E+04  0.12991631105E+04  0.50400001928E-02 0.  1.
       -1    1    3    3    0  502 -0.94211030688E+02 -0.17356768771E+03  0.12308986759E+03  0.23270706059E+03  0.50400001928E-02 0. -1.
</event>
<event>
 5   0  0.3466598E-03  0.1017227E+04  0.7818609E-02  0.9289849E-01
        1   -1    0    0  501    0  0.00000000000E+00  0.00000000000E+00  0.33476808337E+03  0.33476808340E+03  0.50400001928E-02 0. -1.
       -1   -1    0    0    0  501  0.00000000000E+00  0.00000000000E+00 -0.77273777286E+03  0.77273777287E+03  0.50400001928E-02 0.  1.
    10030    2    1    2    0    0  0.00000000000E+00  0.00000000000E+00 -0.43796968949E+03  0.11075058563E+04  0.10172274931E+04 0.  0.
        3    1    3    3  502    0  0.17387948609E+03 -0.29116778316E+03  0.19370028075E+03  0.39055417371E+03  0.10100000352E+00 0. -1.
       -3    1    3    3    0  502 -0.17387948609E+03  0.29116778316E+03 -0.63166997024E+03  0.71695168257E+03  0.10100000352E+00 0.  1.
</event>
<event>
 5   0  0.3640180E-03  0.9933936E+03  0.7818609E-02  0.9315820E-01
       -1   -1    0    0    0  501  0.00000000000E+00  0.00000000000E+00  0.20087059096E+03  0.20087059103E+03  0.50400001928E-02 0. -1.
        1   -1    0    0  501    0  0.00000000000E+00  0.00000000000E+00 -0.12281924103E+04  0.12281924103E+04  0.50400001928E-02 0.  1.
    10030    2    1    2    0    0  0.00000000000E+00  0.00000000000E+00 -0.10273218193E+04  0.14290630013E+04  0.99339364870E+03 0.  0.
        5    1    3    3  502    0 -0.13742500726E+02 -0.26084114848E+03 -0.11213743477E+04  0.11514032650E+04  0.46999998093E+01 0.  1.
       -5    1    3    3    0  502  0.13742500726E+02  0.26084114848E+03  0.94052528368E+02  0.27765973629E+03  0.46999998093E+01 0. -1.
</event>
<event>
 5   0  0.6360455E-03  0.9919751E+03  0.7818609E-02  0.9317390E-01
        2   -1    0    0  501    0  0.00000000000E+00  0.00000000000E+00  0.78822287613E+03  0.78822287613E+03  0.25500000920E-02 0.  1.
       -2   -1    0    0    0  501  0.00000000000E+00  0.00000000000E+00 -0.31209911977E+03  0.31209911978E+03  0.25500000920E-02 0. -1.
    10030    2    1    2    0    0  0.00000000000E+00  0.00000000000E+00  0.47612375636E+03  0.11003219959E+04  0.99197513241E+03 0.  0.
        4    1    3    3  502    0 -0.14298410933E+03  0.32445828802E+03  0.62276321285E+03  0.71662631013E+03  0.12699999809E+01 0.  1.
       -4    1    3    3    0  502  0.14298410933E+03 -0.32445828802E+03 -0.14663945649E+03  0.38369568578E+03  0.12699999809E+01 0. -1.
</event>
<event>
 5   0  0.6199539E-03  0.1008801E+04  0.7818609E-02  0.9298945E-01
        2   -1    0    0  501    0  0.00000000000E+00  0.00000000000E+00  0.11917676440E+04  0.11917676440E+04  0.25500000920E-02 0. -1.
       -2   -1    0    0    0  501  0.00000000000E+00  0.00000000000E+00 -0.21348091743E+03  0.21348091744E+03  0.25500000920E-02 0.  1.
    10030    2    1    2    0    0  0.00000000000E+00  0.00000000000E+00  0.97828672659E+03  0.14052485615E+04  0.10088005750E+04 0.  0.
        2    1    3    3  502    0  0.56827794274E+02 -0.12278635804E+03 -0.18773164424E+03  0.23140669432E+03  0.25500000920E-02 0.  1.
       -2    1    3    3    0  502 -0.56827794274E+02  0.12278635804E+03  0.11660183708E+04  0.11738418671E+04  0.25500000920E-02 0. -1.
</event>
<event>
 5   0  0.3569359E-03  0.1048529E+04  0.7818609E-02  0.9256864E-01
       -1   -1    0    0    0  501  0.00000000000E+00  0.00000000000E+00  0.15653463750E+03  0.15653463758E+03  0.50400001928E-02 0.  1.
        1   -1    0    0  501    0  0.00000000000E+00  0.00000000000E+00 -0.17558621777E+04  0.17558621777E+04  0.50400001928E-02 0. -1.
    10030    2    1    2    0    0  0.00000000000E+00  0.00000000000E+00 -0.15993275402E+04  0.19123968153E+04  0.10485289688E+04 0.  0.
        4    1    3    3  502    0 -0.27326899086E+03  0.44460570957E+03 -0.89088464110E+03  0.10324859491E+04  0.12699999809E+01 0. -1.
       -4    1    3    3    0  502  0.27326899086E+03 -0.44460570957E+03 -0.70844289912E+03  0.87991086626E+03  0.12699999809E+01 0.  1.
</event>
<event>
 5   0  0.2417750E-03  0.9957849E+03  0.7818609E-02  0.9313180E-01
       -3   -1    0    0    0  501  0.00000000000E+00  0.00000000000E+00  0.45868237582E+03  0.45868238694E+03  0.10100000352E+00 0. -1.
        3   -1    0    0  501    0  0.00000000000E+00  0.00000000000E+00 -0.54045437278E+03  0.54045438222E+03  0.10100000352E+00 0.  1.
    10030    2    1    2    0    0  0.00000000000E+00  0.00000000000E+00 -0.81771996969E+02  0.99913676916E+03  0.99578492858E+03 0.  0.
        3    1    3    3  502    0  0.13747444674E+03 -0.21230635608E+03 -0.47119281008E+03  0.53478583266E+03  0.10100000352E+00 0.  1.
       -3    1    3    3    0  502 -0.13747444674E+03  0.21230635608E+03  0.38942081311E+03  0.46435093650E+03  0.10100000352E+00 0. -1.
</event>
<event>
 5   0  0.6022787E-03  0.9965278E+03  0.7818609E-02  0.9312361E-01
        2   -1    0    0  501    0  0.00000000000E+00  0.00000000000E+00  0.46161442843E+03  0.46161442844E+03  0.25500000920E-02 0. -1.
       -2   -1    0    0    0  501  0.00000000000E+00  0.00000000000E+00 -0.53782317698E+03  0.53782317698E+03  0.25500000920E-02 0.  1.
    10030    2    1    2    0    0  0.00000000000E+00  0.00000000000E+00 -0.76208748549E+02  0.99943760542E+03  0.99652784897E+03 0.  0.
        5    1    3    3  502    0  0.23042659401E+03  0.24793995796E+03  0.32857802154E+03  0.47175867158E+03  0.46999998093E+01 0. -1.
       -5    1    3    3    0  502 -0.23042659401E+03 -0.24793995796E+03 -0.40478677009E+03  0.52767893384E+03  0.46999998093E+01 0.  1.
</event>
<event>
 5   0  0.3608845E-03  0.9926840E+03  0.7818609E-02  0.9316605E-01
       -1   -1    0    0    0  501  0.00000000000E+00  0.00000000000E+00  0.54813966748E+03  0.54813966751E+03  0.50400001928E-02 0.  1.
        1   -1    0    0  501    0  0.00000000000E+00  0.00000000000E+00 -0.44943909926E+03  0.44943909929E+03  0.50400001928E-02 0. -1.
    10030    2    1    2    0    0  0.00000000000E+00  0.00000000000E+00  0.98700568222E+02  0.99757876679E+03  0.99268403523E+03 0.  0.
        1    1    3    3  502    0 -0.48010584588E+03  0.72462246509E+02 -0.54128305129E+02  0.48855119881E+03  0.50400001928E-02 0. -1.
       -1    1    3    3    0  502  0.48010584588E+03 -0.72462246509E+02  0.15282887335E+03  0.50902756799E+03  0.50400001928E-02 0.  1.
</event>
<event>
 5   0  0.6360455E-03  0.9844562E+03  0.7818609E-02  0.9325759E-01
        2   -1    0    0  501    0  0.00000000000E+00  0.00000000000E+00  0.61482965828E+03  0.61482965829E+03  0.25500000920E-02 0. -1.
       -2   -1    0    0    0  501  0.00000000000E+00  0.00000000000E+00 -0.39407418733E+03  0.39407418734E+03  0.25500000920E-02 0.  1.
    10030    2    1    2    0    0  0.00000000000E+00  0.00000000000E+00  0.22075547095E+03  0.10089038456E+04  0.98445619089E+03 0.  0.
        4    1    3    3  502    0  0.28705385887E+03  0.25864899503E+03 -0.20213380024E+03  0.43607213465E+03  0.12699999809E+01 0.  1.
       -4    1    3    3    0  502 -0.28705385887E+03 -0.25864899503E+03  0.42288927118E+03  0.57283171098E+03  0.12699999809E+01 0. -1.
</event>
<event>
 5   0  0.3643002E-03  0.1142925E+04  0.7818609E-02  0.9164336E-01
       -1   -1    0    0    0  501  0.00000000000E+00  0.00000000000E+00  0.12036608366E+04  0.12036608366E+04  0.50400001928E-02 0.  1.
        1   -1    0    0  501    0  0.00000000000E+00  0.00000000000E+00 -0.27131323955E+03  0.27131323960E+03  0.50400001928E-02 0. -1.
    10030    2    1    2    0    0  0.00000000000E+00  0.00000000000E+00  0.93234759708E+03  0.14749740762E+04  0.11429245311E+04 0.  0.
        2    1    3    3  502    0 -0.21663161164E+03 -0.15636460887E+03  0.11181003026E+04  0.11495770669E+04  0.25500000920E-02 0.  1.
       -2    1    3    3    0  502  0.21663161164E+03  0.15636460887E+03 -0.18575270552E+03  0.32539700934E+03  0.25500000920E-02 0. -1.
</event>
<event>
 5   0  0.3643002E-03  0.9912395E+03  0.7818609E-02  0.9318206E-01
        1   -1    0    0  501    0  0.00000000000E+00  0.00000000000E+00  0.11779169805E+04  0.11779169805E+04  0.50400001928E-02 0. -1.
       -1   -1    0    0    0  501  0.00000000000E+00  0.00000000000E+00 -0.20853669450E+03  0.20853669456E+03  0.50400001928E-02 0.  1.
    10030    2    1    2    0    0  0.00000000000E+00  0.00000000000E+00  0.96938028596E+03  0.13864536750E+04  0.99123945350E+03 0.  0.
        2    1    3    3  502    0  0.40310935860E+03 -0.28163056726E+03  0.57120650570E+03  0.75371732338E+03  0.25500000920E-02 0.  1.
       -2    1    3    3    0  502 -0.40310935860E+03  0.28163056726E+03  0.39817378027E+03  0.63273635165E+03  0.25500000920E-02 0. -1.
</event>
<event>
 5   0  0.6199539E-03  0.9879097E+03  0.7818609E-02  0.9321906E-01
       -2   -1    0    0    0  501  0.00000000000E+00  0.00000000000E+00  0.18812799297E+03  0.18812799299E+03  0.25500000920E-02 0. -1.
        2   -1    0    0  501    0  0.00000000000E+00  0.00000000000E+00 -0.12969435015E+04  0.12969435015E+04  0.25500000920E-02 0.  1.
    10030    2    1    2    0    0  0.00000000000E+00  0.00000000000E+00 -0.11088155086E+04  0.14850714945E+04  0.98790966785E+03 0.  0.
        2    1    3    3  502    0 -0.11697082100E+03  0.17247465682E+03  0.11880777451E+03  0.23988532156E+03  0.25500000920E-02 0. -1.
       -2    1    3    3    0  502  0.11697082100E+03 -0.17247465682E+03 -0.12276232831E+04  0.12451861730E+04  0.25500000920E-02 0.  1.
</event>
<event>
 5   0  0.3640180E-03  0.1009500E+04  0.7818609E-02  0.9298186E-01
       -1   -1    0    0    0  501  0.00000000000E+00  0.00000000000E+00  0.23495881511E+03  0.23495881516E+03  0.50400001928E-02 0.  1.
        1   -1    0    0  501    0  0.00000000000E+00  0.00000000000E+00 -0.10843290442E+04  0.10843290442E+04  0.50400001928E-02 0. -1.
    10030    2    1    2    0    0  0.00000000000E+00  0.00000000000E+00 -0.84937022913E+03  0.13192878594E+04  0.10095002080E+04 0.  0.
        5    1    3    3  502    0  0.33621742224E+02 -0.31618485050E+03 -0.93695121172E+03  0.98944577637E+03  0.46999998093E+01 0. -1.
       -5    1    3    3    0  502 -0.33621742224E+02  0.31618485050E+03  0.87580982590E+02  0.32984208304E+03  0.46999998093E+01 0.  1.
</event>
<event>
 5   0  0.3569359E-03  0.9575560E+03  0.7818609E-02  0.9356362E-01
        1   -1    0    0  501    0  0.00000000000E+00  0.00000000000E+00  0.75471730488E+03  0.75471730490E+03  0.50400001928E-02 0. -1.
       -1   -1    0    0    0  501  0.00000000000E+00  0.00000000000E+00 -0.30372745439E+03  0.30372745443E+03  0.50400001928E-02 0.  1.
    10030    2    1    2    0    0  0.00000000000E+00  0.00000000000E+00  0.45098985049E+03  0.10584447593E+04  0.95755598442E+03 0.  0.
        4    1    3    3  502    0  0.22225395194E+03  0.38488733994E+02 -0.24131363870E+03  0.33032118751E+03  0.12699999809E+01 0.  1.
       -4    1    3    3    0  502 -0.22225395194E+03 -0.38488733994E+02  0.69230348918E+03  0.72812357182E+03  0.12699999809E+01 0. -1.
</event>
<event>
 5   0  0.3640180E-03  0.9953808E+03  0.7818609E-02  0.9313626E-01
       -1   -1    0    0    0  501  0.00000000000E+00  0.00000000000E+00  0.69650933877E+03  0.69650933879E+03  0.50400001928E-02 0.  1.
        1   -1    0    0  501    0  0.00000000000E+00  0.00000000000E+00 -0.35562445130E+03  0.35562445133E+03  0.50400001928E-02 0. -1.
    10030    2    1    2    0    0  0.00000000000E+00  0.00000000000E+00  0.34088488747E+03  0.10521337901E+04  0.99538083456E+03 0.  0.
        5    1    3    3  502    0  0.41985641750E+03 -0.21537707734E+03  0.33759467745E+03  0.58022319240E+03  0.46999998093E+01 0.  1.
       -5    1    3    3    0  502 -0.41985641750E+03  0.21537707734E+03  0.32902100234E+01  0.47191059772E+03  0.46999998093E+01 0. -1.
</event>
<event>
 5   0  0.6199539E-03  0.9985868E+03  0.7818609E-02  0.9310096E-01
        2   -1    0    0  501    0  0.00000000000E+00  0.00000000000E+00  0.78440162338E+03  0.78440162339E+03  0.25500000920E-02 0.  1.
       -2   -1    0    0    0  501  0.00000000000E+00  0.00000000000E+00 -0.31781409460E+03  0.31781409461E+03  0.25500000920E-02 0. -1.
    10030    2    1    2    0    0  0.00000000000E+00  0.00000000000E+00  0.46658752879E+03  0.11022157180E+04  0.99858678490E+03 0.  0.
        2    1    3    3  502    0 -0.11588241062E+03  0.36040549843E+03  0.59261134970E+03  0.70321338738E+03  0.25500000920E-02 0.  1.
       -2    1    3    3    0  502  0.11588241062E+03 -0.36040549843E+03 -0.12602382091E+03  0.39900233061E+03  0.25500000920E-02 0. -1.
</event>
<event>
 5   0  0.6199539E-03  0.9858454E+03  0.7818609E-02  0.9324207E-01
       -2   -1    0    0    0  501  0.00000000000E+00  0.00000000000E+00  0.48560120380E+03  0.48560120381E+03  0.25500000920E-02 0. -1.
        2   -1    0    0  501    0  0.00000000000E+00  0.00000000000E+00 -0.50035461810E+03  0.50035461811E+03  0.25500000920E-02 0.  1.
    10030    2    1    2    0    0  0.00000000000E+00  0.00000000000E+00 -0.14753414296E+02  0.98595582192E+03  0.98584543390E+03 0.  0.
        2    1    3    3  502    0  0.17902497713E+03 -0.20294621777E+03 -0.41941276003E+03  0.49914343933E+03  0.25500000920E-02 0.  1.
       -2    1    3    3    0  502 -0.17902497713E+03  0.20294621777E+03  0.40465934573E+03  0.48681238259E+03  0.25500000920E-02 0. -1.
</event>
<event>
 5   0  0.3608845E-03  0.1005350E+04  0.7818609E-02  0.9302696E-01
       -1   -1    0    0    0  501  0.00000000000E+00  0.00000000000E+00  0.45924232054E+03  0.45924232057E+03  0.50400001928E-02 0. -1.
        1   -1    0    0  501    0  0.00000000000E+00  0.00000000000E+00 -0.55021577329E+03  0.55021577331E+03  0.50400001928E-02 0.  1.
    10030    2    1    2    0    0  0.00000000000E+00  0.00000000000E+00 -0.90973452750E+02  0.10094580939E+04  0.10053504236E+04 0.  0.
        1    1    3    3  502    0 -0.25675968669E+03  0.26752824658E+03  0.29528980414E+03  0.47401789827E+03  0.50400001928E-02 0. -1.
       -1    1    3    3    0  502  0.25675968669E+03 -0.26752824658E+03 -0.38626325689E+03  0.53544019561E+03  0.50400001928E-02 0.  1.
</event>
<event>
 5   0  0.6376961E-03  0.9936179E+03  0.7818609E-02  0.9315572E-01
        2   -1    0    0  501    0  0.00000000000E+00  0.00000000000E+00  0.42516844080E+03  0.42516844081E+03  0.25500000920E-02 0.  1.
       -2   -1    0    0    0  501  0.00000000000E+00  0.00000000000E+00 -0.58052080067E+03  0.58052080068E+03  0.25500000920E-02 0. -1.
    10030    2    1    2    0    0  0.00000000000E+00  0.00000000000E+00 -0.15535235987E+03  0.10056892415E+04  0.99361788165E+03 0.  0.
        3    1    3    3  502    0  0.39523255661E+03 -0.19438649020E+03  0.15495129241E+03  0.46690983562E+03  0.10100000352E+00 0.  1.
       -3    1    3    3    0  502 -0.39523255661E+03  0.19438649020E+03 -0.31030365228E+03  0.53877940587E+03  0.10100000352E+00 0. -1.
</event>
<event>
 5   0  0.6376961E-03  0.1032058E+04  0.7818609E-02  0.9274067E-01
       -2   -1    0    0    0  501  0.00000000000E+00  0.00000000000E+00  0.45195837982E+03  0.45195837982E+03  0.25500000920E-02 0.  1.
        2   -1    0    0  501    0  0.00000000000E+00  0.00000000000E+00 -0.58918228770E+03  0.58918228770E+03  0.25500000920E-02 0. -1.
    10030    2    1    2    0    0  0.00000000000E+00  0.00000000000E+00 -0.13722390788E+03  0.10411406675E+04  0.10320578902E+04 0.  0.
        3    1    3    3  502    0 -0.38115709828E+03  0.27197244765E+03 -0.28739873522E+03  0.54940676102E+03  0.10100000352E+00 0. -1.
       -3    1    3    3    0  502  0.38115709828E+03 -0.27197244765E+03  0.15017482733E+03  0.49173390651E+03  0.10100000352E+00 0.  1.
</event>
<event>
 5   0  0.6360455E-03  0.9969015E+03  0.7818609E-02  0.9311950E-01
        2   -1    0    0  501    0  0.00000000000E+00  0.00000000000E+00  0.73317182847E+03  0.73317182847E+03  0.25500000920E-02 0.  1.
       -2   -1    0    0    0  501  0.00000000000E+00  0.00000000000E+00 -0.33887435629E+03  0.33887435630E+03  0.25500000920E-02 0. -1.
    10030    2    1    2    0    0  0.00000000000E+00  0.00000000000E+00  0.39429747218E+03  0.10720461848E+04  0.99690146239E+03 0.  0.
        4    1    3    3  502    0  0.37062338201E+02 -0.49703899816E+03  0.19124531838E+03  0.53385182149E+03  0.12699999809E+01 0.  1.
       -4    1    3    3    0  502 -0.37062338201E+02  0.49703899816E+03  0.20305215380E+03  0.53819436328E+03  0.12699999809E+01 0. -1.
</event>
<event>
 5   0  0.3569359E-03  0.9976962E+03  0.7818609E-02  0.9311075E-01
        1   -1    0    0  501    0  0.00000000000E+00  0.00000000000E+00  0.27941856391E+03  0.27941856395E+03  0.50400001928E-02 0. -1.
       -1   -1    0    0    0  501  0.00000000000E+00  0.00000000000E+00 -0.89059726435E+03  0.89059726436E+03  0.50400001928E-02 0.  1.
    10030    2    1    2    0    0  0.00000000000E+00  0.00000000000E+00 -0.61117870044E+03  0.11700158283E+04  0.99769616349E+03 0.  0.
        4    1    3    3  502    0  0.84806782871E+02  0.21586154653E+03 -0.82352627599E+03  0.85556153364E+03  0.12699999809E+01 0.  1.
       -4    1    3    3    0  502 -0.84806782871E+02 -0.21586154653E+03  0.21234757556E+03  0.31445429467E+03  0.12699999809E+01 0. -1.
</event>
<event>
 5   0  0.3569359E-03  0.8234589E+03  0.7818609E-02  0.9526669E-01
       -1   -1    0    0    0  501  0.00000000000E+00  0.00000000000E+00  0.24805965454E+03  0.24805965459E+03  0.50400001928E-02 0.  1.
        1   -1    0    0  501    0  0.00000000000E+00  0.00000000000E+00 -0.68338856387E+03  0.68338856389E+03  0.50400001928E-02 0. -1.
    10030    2    1    2    0    0  0.00000000000E+00  0.00000000000E+00 -0.43532890934E+03  0.93144821848E+03  0.82345887840E+03 0.  0.
        4    1    3    3  502    0  0.39821460678E+03 -0.54763395687E+02 -0.31849232087E+03  0.51284780775E+03  0.12699999809E+01 0.  1.
       -4    1    3    3    0  502 -0.39821460678E+03  0.54763395687E+02 -0.11683658847E+03  0.41860041073E+03  0.12699999809E+01 0. -1.
</event>
<event>
 5   0  0.6022787E-03  0.9924945E+03  0.7818609E-02  0.9316815E-01
       -2   -1    0    0    0  501  0.00000000000E+00  0.00000000000E+00  0.30626884124E+03  0.30626884125E+03  0.25500000920E-02 0. -1.
        2   -1    0    0  501    0  0.00000000000E+00  0.00000000000E+00 -0.80406913155E+03  0.80406913156E+03  0.25500000920E-02 0.  1.
    10030    2    1    2    0    0  0.00000000000E+00  0.00000000000E+00 -0.49780029031E+03  0.11103379728E+04  0.99249447596E+03 0.  0.
        5    1    3    3  502    0 -0.35334333198E+03 -0.22736720211E+03  0.46437068421E+02  0.42275979725E+03  0.46999998093E+01 0. -1.
       -5    1    3    3    0  502  0.35334333198E+03  0.22736720211E+03 -0.54423735873E+03  0.68757817555E+03  0.46999998093E+01 0.  1.
</event>
<event>
 5   0  0.3569359E-03  0.9914794E+03  0.7818609E-02  0.9317940E-01
       -1   -1    0    0    0  501  0.00000000000E+00  0.00000000000E+00  0.15472428636E+03  0.15472428644E+03  0.50400001928E-02 0. -1.
        1   -1    0    0  501    0  0.00000000000E+00  0.00000000000E+00 -0.15883599497E+04  0.15883599497E+04  0.50400001928E-02 0.  1.
    10030    2    1    2    0    0  0.00000000000E+00  0.00000000000E+00 -0.14336356633E+04  0.17430842361E+04  0.99147941939E+03 0.  0.
        4    1    3    3  502    0  0.13550155921E+03  0.39774502576E+03 -0.11792737708E+04  0.12518985652E+04  0.12699999809E+01 0.  1.
       -4    1    3    3    0  502 -0.13550155921E+03 -0.39774502576E+03 -0.25436189246E+03  0.49118567090E+03  0.12699999809E+01 0. -1.
</event>
<event>
 5   0  0.6376961E-03  0.1003162E+04  0.7818609E-02  0.9305083E-01
        2   -1    0    0  501    0  0.00000000000E+00  0.00000000000E+00  0.78407630181E+03  0.78407630182E+03  0.25500000920E-02 0.  1.
       -2   -1    0    0    0  501  0.00000000000E+00  0.00000000000E+00 -0.32086639847E+03  0.32086639849E+03  0.25500000920E-02 0. -1.
    10030    2    1    2    0    0  0.00000000000E+00  0.00000000000E+00  0.46320990334E+03  0.11049427003E+04  0.10031624776E+04 0.  0.
        3    1    3    3  502    0 -0.36965717396E+03 -0.71662630707E+02  0.59658838168E+03  0.70547832444E+03  0.10100000352E+00 0.  1.
       -3    1    3    3    0  502  0.36965717396E+03  0.71662630707E+02 -0.13337847834E+03  0.39946437586E+03  0.10100000352E+00 0. -1.
</event>
<event>
 5   0  0.6022787E-03  0.1005296E+04  0.7818609E-02  0.9302755E-01
       -2   -1    0    0    0  501  0.00000000000E+00  0.00000000000E+00  0.17679758445E+03  0.17679758447E+03  0.25500000920E-02 0. -1.
        2   -1    0    0  501    0  0.00000000000E+00  0.00000000000E+00 -0.14290646306E+04  0.14290646306E+04  0.25500000920E-02 0.  1.
    10030    2    1    2    0    0  0.00000000000E+00  0.00000000000E+00 -0.12522670462E+04  0.16058622151E+04  0.10052963240E+04 0.  0.
        5    1    3    3  502    0  0.28669159360E+03 -0.30866186888E+03 -0.18817479767E+03  0.46140661419E+03  0.46999998093E+01 0. -1.
       -5    1    3    3    0  502 -0.28669159360E+03  0.30866186888E+03 -0.10640922485E+04  0.11444556009E+04  0.46999998093E+01 0.  1.
</event>
<event>
 5   0  0.3569359E-03  0.1012412E+04  0.7818609E-02  0.9295035E-01
       -1   -1    0    0    0  501  0.00000000000E+00  0.00000000000E+00  0.30257942678E+03  0.30257942683E+03  0.50400001928E-02 0. -1.
        1   -1    0    0  501    0  0.00000000000E+00  0.00000000000E+00 -0.84686739044E+03  0.84686739046E+03  0.50400001928E-02 0.  1.
    10030    2    1    2    0    0  0.00000000000E+00  0.00000000000E+00 -0.54428796366E+03  0.11494468173E+04  0.10124122670E+04 0.  0.
        4    1    3    3  502    0  0.45433692630E+03  0.95795299854E+02 -0.43251744029E+02  0.46633797651E+03  0.12699999809E+01 0. -1.
       -4    1    3    3    0  502 -0.45433692630E+03 -0.95795299854E+02 -0.50103621963E+03  0.68310884078E+03  0.12699999809E+01 0.  1.
</event>
<event>
 5   0  0.3466598E-03  0.1002307E+04  0.7818609E-02  0.9306018E-01
       -1   -1    0    0    0  501  0.00000000000E+00  0.00000000000E+00  0.20720106228E+03  0.20720106234E+03  0.50400001928E-02 0.  1.
        1   -1    0    0  501    0  0.00000000000E+00  0.00000000000E+00 -0.12121320343E+04  0.12121320343E+04  0.50400001928E-02 0. -1.
    10030    2    1    2    0    0  0.00000000000E+00  0.00000000000E+00 -0.10049309720E+04  0.14193330967E+04  0.10023074283E+04 0.  0.
        3    1    3    3  502    0  0.31387997716E+03 -0.15951635856E+03 -0.10074848510E+04  0.10672356085E+04  0.10100000352E+00 0. -1.
       -3    1    3    3    0  502 -0.31387997716E+03  0.15951635856E+03  0.25538789856E+01  0.35209748822E+03  0.10100000352E+00 0.  1.
</event>
<event>
 5   0  0.3569359E-03  0.9757676E+03  0.7818609E-02  0.9335529E-01
        1   -1    0    0  501    0  0.00000000000E+00  0.00000000000E+00  0.10929603293E+04  0.10929603293E+04  0.50400001928E-02 0.  1.
       -1   -1    0    0    0  501  0.00000000000E+00  0.00000000000E+00 -0.21778520657E+03  0.21778520663E+03  0.50400001928E-02 0. -1.
    10030    2    1    2    0    0  0.00000000000E+00  0.00000000000E+00  0.87517512273E+03  0.13107455359E+04  0.97576757711E+03 0.  0.
        4    1    3    3  502    0  0.31630075628E+03  0.29387639425E+03  0.13239159149E+03  0.45159567084E+03  0.12699999809E+01 0. -1.
       -4    1    3    3    0  502 -0.31630075628E+03 -0.29387639425E+03  0.74278353124E+03  0.85914986510E+03  0.12699999809E+01 0.  1.
</event>
<event>
 5   0  0.6022787E-03  0.9994602E+03  0.7818609E-02  0.9309137E-01
        2   -1    0    0  501    0  0.00000000000E+00  0.00000000000E+00  0.81369920341E+03  0.81369920342E+03  0.25500000920E-02 0. -1.
       -2   -1    0    0    0  501  0.00000000000E+00  0.00000000000E+00 -0.30690724618E+03  0.30690724619E+03  0.25500000920E-02 0.  1.
    10030    2    1    2    0    0  0.00000000000E+00  0.00000000000E+00  0.50679195723E+03  0.11206064496E+04  0.99946021782E+03 0.  0.
        5    1    3    3  502    0  0.49450750772E+03 -0.59616501707E+02  0.29847216355E+03  0.58068883654E+03  0.46999998093E+01 0.  1.
       -5    1    3    3    0  502 -0.49450750772E+03  0.59616501707E+02  0.20831979368E+03  0.53991761307E+03  0.46999998093E+01 0. -1.
</event>
<event>
 5   0  0.3569359E-03  0.9375562E+03  0.7818609E-02  0.9379815E-01
        1   -1    0    0  501    0  0.00000000000E+00  0.00000000000E+00  0.13529960554E+04  0.13529960554E+04  0.50400001928E-02 0.  1.
       -1   -1    0    0    0  501  0.00000000000E+00  0.00000000000E+00 -0.16241947823E+03  0.16241947831E+03  0.50400001928E-02 0. -1.
    10030    2    1    2    0    0  0.00000000000E+00  0.00000000000E+00  0.11905765771E+04  0.15154155337E+04  0.93755621362E+03 0.  0.
        4    1    3    3  502    0  0.38418273597E+03  0.31505074020E+02  0.16410732583E+03  0.41895318545E+03  0.12699999809E+01 0. -1.
       -4    1    3    3    0  502 -0.38418273597E+03 -0.31505074020E+02  0.10264692513E+04  0.10964623482E+04  0.12699999809E+01 0.  1.
</event>
<event>
 5   0  0.2417750E-03  0.1002041E+04  0.7818609E-02  0.9306309E-01
       -3   -1    0    0    0  501  0.00000000000E+00  0.00000000000E+00  0.28524309542E+03  0.28524311330E+03  0.10100000352E+00 0.  1.
        3   -1    0    0  501    0  0.00000000000E+00  0.00000000000E+00 -0.88002656923E+03  0.88002657503E+03  0.10100000352E+00 0. -1.
    10030    2    1    2    0    0  0.00000000000E+00  0.00000000000E+00 -0.59478347382E+03  0.11652696883E+04  0.10020409502E+04 0.  0.
        4    1    3    3  502    0 -0.17449017849E+03 -0.13444230256E+03  0.22590945284E+03  0.31552852310E+03  0.12699999809E+01 0.  1.
       -4    1    3    3    0  502  0.17449017849E+03  0.13444230256E+03 -0.82069292666E+03  0.84974116523E+03  0.12699999809E+01 0. -1.
</event>
<event>
 5   0  0.3643002E-03  0.9764272E+03  0.7818609E-02  0.9334784E-01
        1   -1    0    0  501    0  0.00000000000E+00  0.00000000000E+00  0.10221083003E+04  0.10221083003E+04  0.50400001928E-02 0. -1.
       -1   -1    0    0    0  501  0.00000000000E+00  0.00000000000E+00 -0.23319693473E+03  0.23319693479E+03  0.50400001928E-02 0.  1.
    10030    2    1    2    0    0  0.00000000000E+00  0.00000000000E+00  0.78891136557E+03  0.12553052351E+04  0.97642720699E+03 0.  0.
        2    1    3    3  502    0 -0.20649505323E+03 -0.31834481669E+03  0.78938911449E+03  0.87585318599E+03  0.25500000920E-02 0. -1.
       -2    1    3    3    0  502  0.20649505323E+03  0.31834481669E+03 -0.47774891583E+00  0.37945204911E+03  0.25500000920E-02 0.  1.
</event>
<event>
 5   0  0.3640180E-03  0.9835330E+03  0.7818609E-02  0.9326792E-01
       -1   -1    0    0    0  501  0.00000000000E+00  0.00000000000E+00  0.35525585214E+03  0.35525585218E+03  0.50400001928E-02 0. -1.
        1   -1    0    0  501    0  0.00000000000E+00  0.00000000000E+00 -0.68073276657E+03  0.68073276659E+03  0.50400001928E-02 0.  1.
    10030    2    1    2    0    0  0.00000000000E+00  0.00000000000E+00 -0.32547691443E+03  0.10359886188E+04  0.98353301744E+03 0.  0.
        5    1    3    3  502    0 -0.27767226241E+03  0.15350087182E+03 -0.55847222192E+03  0.64232212760E+03  0.46999998093E+01 0.  1.
       -5    1    3    3    0  502  0.27767226241E+03 -0.15350087182E+03  0.23299530749E+03  0.39366649117E+03  0.46999998093E+01 0. -1.
</event>
<event>
 5   0  0.6199539E-03  0.1004384E+04  0.7818609E-02  0.9303750E-01
        2   -1    0    0  501    0  0.00000000000E+00  0.00000000000E+00  0.62979364308E+03  0.62979364309E+03  0.25500000920E-02 0.  1.
       -2   -1    0    0    0  501  0.00000000000E+00  0.00000000000E+00 -0.40044338710E+03  0.40044338711E+03  0.25500000920E-02 0. -1.
    10030    2    1    2    0    0  0.00000000000E+00  0.00000000000E+00  0.22935025598E+03  0.10302370302E+04  0.10043837904E+04 0.  0.
        2    1    3    3  502    0  0.21303941830E+03  0.45065874596E+03  0.17721670422E+03  0.52904145331E+03  0.25500000920E-02 0.  1.
       -2    1    3    3    0  502 -0.21303941830E+03 -0.45065874596E+03  0.52133551753E+02  0.50119557688E+03  0.25500000920E-02 0. -1.
</event>
<event>
 5   0  0.6360455E-03  0.1011154E+04  0.7818609E-02  0.9296396E-01
       -2   -1    0    0    0  501  0.00000000000E+00  0.00000000000E+00  0.21567455622E+03  0.21567455624E+03  0.25500000920E-02 0.  1.
        2   -1    0    0  501    0  0.00000000000E+00  0.00000000000E+00 -0.11851554676E+04  0.11851554676E+04  0.25500000920E-02 0. -1.
    10030    2    1    2    0    0  0.00000000000E+00  0.00000000000E+00 -0.96948091139E+03  0.14008300239E+04  0.10111535582E+04 0.  0.
        4    1    3    3  502    0  0.40322819371E+03  0.30474516034E+03 -0.50134637793E+03  0.71190757302E+03  0.12699999809E+01 0.  1.
       -4    1    3    3    0  502 -0.40322819371E+03 -0.30474516034E+03 -0.46813453346E+03  0.68892245084E+03  0.12699999809E+01 0. -1.
</event>
<event>
 5   0  0.6376961E-03  0.9976255E+03  0.7818609E-02  0.9311153E-01
       -2   -1    0    0    0  501  0.00000000000E+00  0.00000000000E+00  0.28998426220E+03  0.28998426221E+03  0.25500000920E-02 0.  1.
        2   -1    0    0  501    0  0.00000000000E+00  0.00000000000E+00 -0.85802650394E+03  0.85802650394E+03  0.25500000920E-02 0. -1.
    10030    2    1    2    0    0  0.00000000000E+00  0.00000000000E+00 -0.56804224174E+03  0.11480107662E+04  0.99762554638E+03 0.  0.
        3    1    3    3  502    0  0.42135490925E+03 -0.25910444473E+03 -0.20998709923E+03  0.53737292904E+03  0.10100000352E+00 0. -1.
       -3    1    3    3    0  502 -0.42135490925E+03  0.25910444473E+03 -0.35805514251E+03  0.61063783711E+03  0.10100000352E+00 0.  1.
</event>
<event>
 5   0  0.3569359E-03  0.1001958E+04  0.7818609E-02  0.9306400E-01
        1   -1    0    0  501    0  0.00000000000E+00  0.00000000000E+00  0.21788106495E+03  0.21788106501E+03  0.50400001928E-02 0. -1.
       -1   -1    0    0    0  501  0.00000000000E+00  0.00000000000E+00 -0.11519130921E+04  0.11519130921E+04  0.50400001928E-02 0.  1.
    10030    2    1    2    0    0  0.00000000000E+00  0.00000000000E+00 -0.93403202717E+03  0.13697941571E+04  0.10019581853E+04 0.  0.
        4    1    3    3  502    0  0.45943304565E+02  0.21131671348E+03 -0.10848151485E+04  0.11061605037E+04  0.12699999809E+01 0.  1.
       -4    1    3    3    0  502 -0.45943304565E+02 -0.21131671348E+03  0.15078312135E+03  0.26363365342E+03  0.12699999809E+01 0. -1.
</event>
<event>
 5   0  0.3466598E-03  0.1002718E+04  0.7818609E-02  0.9305569E-01
        1   -1    0    0  501    0  0.00000000000E+00  0.00000000000E+00  0.21990158172E+04  0.21990158172E+04  0.50400001928E-02 0.  1.
       -1   -1    0    0    0  501  0.00000000000E+00  0.00000000000E+00 -0.11430609239E+03  0.11430609250E+03  0.50400001928E-02 0. -1.
    10030    2    1    2    0    0  0.00000000000E+00  0.00000000000E+00  0.20847097248E+04  0.23133219097E+04  0.10027181165E+04 0.  0.
        3    1    3    3  502    0  0.31199797765E+01 -0.46230872863E+03  0.59487139342E+03  0.75339968128E+03  0.10100000352E+00 0. -1.
       -3    1    3    3    0  502 -0.31199797765E+01  0.46230872863E+03  0.14898383314E+04  0.15599222285E+04  0.10100000352E+00 0.  1.
</event>
<event>
 5   0  0.3640180E-03  0.1030886E+04  0.7818609E-02  0.9275304E-01
       -1   -1    0    0    0  501  0.00000000000E+00  0.00000000000E+00  0.51968354773E+03  0.51968354775E+03  0.50400001928E-02 0. -1.
        1   -1    0    0  501    0  0.00000000000E+00  0.00000000000E+00 -0.51123687054E+03  0.51123687057E+03  0.50400001928E-02 0.  1.
    10030    2    1    2    0    0  0.00000000000E+00  0.00000000000E+00  0.84466771826E+01  0.10309204183E+04  0.10308858145E+04 0.  0.
        5    1    3    3  502    0  0.91993364621E+02  0.43008862970E+03 -0.26452401607E+03  0.51325827184E+03  0.46999998093E+01 0.  1.
       -5    1    3    3    0  502 -0.91993364621E+02 -0.43008862970E+03  0.27297069325E+03  0.51766214649E+03  0.46999998093E+01 0. -1.
</event>
<event>
 5   0  0.3640180E-03  0.9967193E+03  0.7818609E-02  0.9312150E-01
       -1   -1    0    0    0  501  0.00000000000E+00  0.00000000000E+00  0.39843814178E+03  0.39843814181E+03  0.50400001928E-02 0. -1.
        1   -1    0    0  501    0  0.00000000000E+00  0.00000000000E+00 -0.62333981727E+03  0.62333981729E+03  0.50400001928E-02 0.  1.
    10030    2    1    2    0    0  0.00000000000E+00  0.00000000000E+00 -0.22490167549E+03  0.10217779591E+04  0.99671933565E+03 0.  0.
        5    1    3    3  502    0 -0.20326360654E+03  0.73207019018E+02 -0.57281214247E+03  0.61221826331E+03  0.46999998093E+01 0.  1.
       -5    1    3    3    0  502  0.20326360654E+03 -0.73207019018E+02  0.34791046698E+03  0.40955969578E+03  0.46999998093E+01 0. -1.
</event>
<event>
 5   0  0.6199539E-03  0.9915857E+03  0.7818609E-02  0.9317822E-01
        2   -1    0    0  501    0  0.00000000000E+00  0.00000000000E+00  0.64080333349E+03  0.64080333350E+03  0.25500000920E-02 0.  1.
       -2   -1    0    0    0  501  0.00000000000E+00  0.00000000000E+00 -0.38359750052E+03  0.38359750053E+03  0.25500000920E-02 0. -1.
    10030    2    1    2    0    0  0.00000000000E+00  0.00000000000E+00  0.25720583297E+03  0.10244008340E+04  0.99158571401E+03 0.  0.
        2    1    3    3  502    0  0.23841040176E+03  0.15293754742E+03  0.54898587433E+03  0.61774987114E+03  0.25500000920E-02 0.  1.
       -2    1    3    3    0  502 -0.23841040176E+03 -0.15293754742E+03 -0.29178004135E+03  0.40665096289E+03  0.25500000920E-02 0. -1.
</event>
<event>
 5   0  0.6199539E-03  0.1019822E+04  0.7818609E-02  0.9287068E-01
       -2   -1    0    0    0  501  0.00000000000E+00  0.00000000000E+00  0.20220380049E+03  0.20220380051E+03  0.25500000920E-02 0.  1.
        2   -1    0    0  501    0  0.00000000000E+00  0.00000000000E+00 -0.12858766450E+04  0.12858766450E+04  0.25500000920E-02 0. -1.
    10030    2    1    2    0    0  0.00000000000E+00  0.00000000000E+00 -0.10836728445E+04  0.14880804455E+04  0.10198218366E+04 0.  0.
        2    1    3    3  502    0  0.42859823035E+03 -0.16515237202E+03 -0.21871496345E+03  0.50873174099E+03  0.25500000920E-02 0.  1.
       -2    1    3    3    0  502 -0.42859823035E+03  0.16515237202E+03 -0.86495788108E+03  0.97934870455E+03  0.25500000920E-02 0. -1.
</event>
<event>
 5   0  0.3466598E-03  0.1042222E+04  0.7818609E-02  0.9263411E-01
       -1   -1    0    0    0  501  0.00000000000E+00  0.00000000000E+00  0.18310491738E+03  0.18310491745E+03  0.50400001928E-02 0.  1.
        1   -1    0    0  501    0  0.00000000000E+00  0.00000000000E+00 -0.14830660869E+04  0.14830660869E+04  0.50400001928E-02 0. -1.
    10030    2    1    2    0    0  0.00000000000E+00  0.00000000000E+00 -0.12999611695E+04  0.16661710044E+04  0.10422220366E+04 0.  0.
        3    1    3    3  502    0 -0.46037249389E+03 -0.15831529033E+03 -0.94713630437E+03  0.10649289899E+04  0.10100000352E+00 0. -1.
       -3    1    3    3    0  502  0.46037249389E+03  0.15831529033E+03 -0.35282486515E+03  0.60124201446E+03  0.10100000352E+00 0.  1.
</event>
<event>
 5   0  0.3608845E-03  0.9533065E+03  0.7818609E-02  0.9361294E-01
        1   -1    0    0  501    0  0.00000000000E+00  0.00000000000E+00  0.85079898816E+03  0.85079898818E+03  0.50400001928E-02 0. -1.
       -1   -1    0    0    0  501  0.00000000000E+00  0.00000000000E+00 -0.26704110499E+03  0.26704110504E+03  0.50400001928E-02 0.  1.
    10030    2    1    2    0    0  0.00000000000E+00  0.00000000000E+00  0.58375788317E+03  0.11178400932E+04  0.95330646061E+03 0.  0.
        1    1    3    3  502    0  0.56726171698E+02  0.33118775722E+03 -0.10454600502E+03  0.35189921324E+03  0.50400001928E-02 0.  1.
       -1    1    3    3    0  502 -0.56726171698E+02 -0.33118775722E+03  0.68830388819E+03  0.76594087997E+03  0.50400001928E-02 0. -1.
</event>
<event>
 5   0  0.6376961E-03  0.9791759E+03  0.7818609E-02  0.9331684E-01
        2   -1    0    0  501    0  0.00000000000E+00  0.00000000000E+00  0.34646630710E+03  0.34646630711E+03  0.25500000920E-02 0.  1.
       -2   -1    0    0    0  501  0.00000000000E+00  0.00000000000E+00 -0.69183164220E+03  0.69183164221E+03  0.25500000920E-02 0. -1.
    10030    2    1    2    0    0  0.00000000000E+00  0.00000000000E+00 -0.34536533511E+03  0.10382979493E+04  0.97917588658E+03 0.  0.
        3    1    3    3  502    0 -0.23310826698E+03  0.42717469830E+03 -0.11579000656E+03  0.50022497221E+03  0.10100000352E+00 0. -1.
       -3    1    3    3    0  502  0.23310826698E+03 -0.42717469830E+03 -0.22957532855E+03  0.53807297710E+03  0.10100000352E+00 0.  1.
</event>
<event>
 5   0  0.6022787E-03  0.1000607E+04  0.7818609E-02  0.9307879E-01
       -2   -1    0    0    0  501  0.00000000000E+00  0.00000000000E+00  0.15715793096E+04  0.15715793096E+04  0.25500000920E-02 0. -1.
        2   -1    0    0  501    0  0.00000000000E+00  0.00000000000E+00 -0.15926891514E+03  0.15926891516E+03  0.25500000920E-02 0.  1.
    10030    2    1    2    0    0  0.00000000000E+00  0.00000000000E+00  0.14123103945E+04  0.17308482248E+04  0.10006072791E+04 0.  0.
        5    1    3    3  502    0 -0.39881159619E+03  0.18296469768E+03  0.29044599195E+03  0.52622023345E+03  0.46999998093E+01 0.  1.
       -5    1    3    3    0  502  0.39881159619E+03 -0.18296469768E+03  0.11218644025E+04  0.12046279914E+04  0.46999998093E+01 0. -1.
</event>
<event>
 5   0  0.3643002E-03  0.1003909E+04  0.7818609E-02  0.9304268E-01
       -1   -1    0    0    0  501  0.00000000000E+00  0.00000000000E+00  0.14529828922E+03  0.14529828931E+03  0.50400001928E-02 0. -1.
        1   -1    0    0  501    0  0.00000000000E+00  0.00000000000E+00 -0.17340757593E+04  0.17340757593E+04  0.50400001928E-02 0.  1.
    10030    2    1    2    0    0  0.00000000000E+00  0.00000000000E+00 -0.15887774701E+04  0.18793740486E+04  0.10039088431E+04 0.  0.
        2    1    3    3  502    0  0.43994800973E+03 -0.19100398535E+03 -0.51721392486E+03  0.70537012821E+03  0.25500000920E-02 0. -1.
       -2    1    3    3    0  502 -0.43994800973E+03  0.19100398535E+03 -0.10715635452E+04  0.11740039204E+04  0.25500000920E-02 0.  1.
</event>
<event>
 5   0  0.3643002E-03  0.1100094E+04  0.7818609E-02  0.9205100E-01
       -1   -1    0    0    0  501  0.00000000000E+00  0.00000000000E+00  0.88215581521E+03  0.88215581522E+03  0.50400001928E-02 0. -1.
        1   -1    0    0  501    0  0.00000000000E+00  0.00000000000E+00 -0.34296872972E+03  0.34296872976E+03  0.50400001928E-02 0.  1.
    10030    2    1    2    0    0  0.00000000000E+00  0.00000000000E+00  0.53918708549E+03  0.12251245450E+04  0.11000942858E+04 0.  0.
        2    1    3    3  502    0 -0.41161582257E+03 -0.59477079303E+02 -0.13130145088E+03  0.43612518772E+03  0.25500000920E-02 0.  1.
       -2    1    3    3    0  502  0.41161582257E+03  0.59477079303E+02  0.67048853637E+03  0.78899935726E+03  0.25500000920E-02 0. -1.
</event>
<event>
 5   0  0.3466598E-03  0.1004262E+04  0.7818609E-02  0.9303883E-01
       -1   -1    0    0    0  501  0.00000000000E+00  0.00000000000E+00  0.11826086574E+03  0.11826086585E+03  0.50400001928E-02 0.  1.
        1   -1    0    0  501    0  0.00000000000E+00  0.00000000000E+00 -0.21320265280E+04  0.21320265280E+04  0.50400001928E-02 0. -1.
    10030    2    1    2    0    0  0.00000000000E+00  0.00000000000E+00 -0.20137656622E+04  0.22502873938E+04  0.10042615259E+04 0.  0.
        3    1    3    3  502    0  0.37211908487E+03 -0.31170413014E+03 -0.12947389324E+04  0.13827440079E+04  0.10100000352E+00 0. -1.
       -3    1    3    3    0  502 -0.37211908487E+03  0.31170413014E+03 -0.71902672985E+03  0.86754338596E+03  0.10100000352E+00 0.  1.
</event>
<event>
 5   0  0.6376961E-03  0.1000912E+04  0.7818609E-02  0.9307545E-01
       -2   -1    0    0    0  501  0.00000000000E+00  0.00000000000E+00  0.18151165725E+03  0.18151165727E+03  0.25500000920E-02 0.  1.
        2   -1    0    0  501    0  0.00000000000E+00  0.00000000000E+00 -0.13798345043E+04  0.13798345043E+04  0.25500000920E-02 0. -1.
    10030    2    1    2    0    0  0.00000000000E+00  0.00000000000E+00 -0.11983228471E+04  0.15613461616E+04  0.10009116797E+04 0.  0.
        3    1    3    3  502    0  0.41950496748E+02 -0.37045732367E+03 -0.11199461244E+04  0.11803718925E+04  0.10100000352E+00 0. -1.
       -3    1    3    3    0  502 -0.41950496748E+02  0.37045732367E+03 -0.78376722635E+02  0.38097426906E+03  0.10100000352E+00 0.  1.
</event>
<event>
 5   0  0.3640180E-03  0.9915825E+03  0.7818609E-02  0.9317825E-01
       -1   -1    0    0    0  501  0.00000000000E+00  0.00000000000E+00  0.32186272169E+03  0.32186272173E+03  0.50400001928E-02 0. -1.
        1   -1    0    0  501    0  0.00000000000E+00  0.00000000000E+00 -0.76370748287E+03  0.76370748288E+03  0.50400001928E-02 0.  1.
    10030    2    1    2    0    0  0.00000000000E+00  0.00000000000E+00 -0.44184476118E+03  0.10855702046E+04  0.99158251103E+03 0.  0.
        5    1    3    3  502    0 -0.13706629168E+03 -0.24273134219E+03 -0.66975936373E+03  0.72546906764E+03  0.46999998093E+01 0.  1.
       -5    1    3    3    0  502  0.13706629168E+03  0.24273134219E+03  0.22791460256E+03  0.36010113698E+03  0.46999998093E+01 0. -1.
</event>
<event>
 5   0  0.3643002E-03  0.1005757E+04  0.7818609E-02  0.9302253E-01
       -1   -1    0    0    0  501  0.00000000000E+00  0.00000000000E+00  0.24110704188E+03  0.24110704194E+03  0.50400001928E-02 0.  1.
        1   -1    0    0  501    0  0.00000000000E+00  0.00000000000E+00 -0.10488576888E+04  0.10488576889E+04  0.50400001928E-02 0. -1.
    10030    2    1    2    0    0  0.00000000000E+00  0.00000000000E+00 -0.80775064696E+03  0.12899647308E+04  0.10057573758E+04 0.  0.
        2    1    3    3  502    0  0.36798012718E+03 -0.56029007303E+02 -0.83756648607E+03  0.91655127639E+03  0.25500000920E-02 0. -1.
       -2    1    3    3    0  502 -0.36798012718E+03  0.56029007303E+02  0.29815839111E+02  0.37341345440E+03  0.25500000920E-02 0.  1.
</event>
<event>
 5   0  0.6376961E-03  0.1000853E+04  0.7818609E-02  0.9307610E-01
        2   -1    0    0  501    0  0.00000000000E+00  0.00000000000E+00  0.93813594693E+03  0.93813594693E+03  0.25500000920E-02 0.  1.
       -2   -1    0    0    0  501  0.00000000000E+00  0.00000000000E+00 -0.26694067182E+03  0.26694067183E+03  0.25500000920E-02 0. -1.
    10030    2    1    2    0    0  0.00000000000E+00  0.00000000000E+00  0.67119527511E+03  0.12050766188E+04  0.10008529161E+04 0.  0.
        3    1    3    3  502    0 -0.16556167246E+02  0.31413013888E+03 -0.13301561341E+03  0.34153332845E+03  0.10100000352E+00 0. -1.
       -3    1    3    3    0  502  0.16556167246E+02 -0.31413013888E+03  0.80421088852E+03  0.86354329031E+03  0.10100000352E+00 0.  1.
</event>
<event>
 5   0  0.6022787E-03  0.9987697E+03  0.7818609E-02  0.9309895E-01
       -2   -1    0    0    0  501  0.00000000000E+00  0.00000000000E+00  0.43881278569E+03  0.43881278570E+03  0.25500000920E-02 0. -1.
        2   -1    0    0  501    0  0.00000000000E+00  0.00000000000E+00 -0.56831808194E+03  0.56831808194E+03  0.25500000920E-02 0.  1.
    10030    2    1    2    0    0  0.00000000000E+00  0.00000000000E+00 -0.12950529625E+03  0.10071308676E+04  0.99876972461E+03 0.  0.
        5    1    3    3  502    0  0.16644416023E+03  0.41087185260E+03  0.16704958261E+03  0.47375836750E+03  0.46999998093E+01 0. -1.
       -5    1    3    3    0  502 -0.16644416023E+03 -0.41087185260E+03 -0.29655487886E+03  0.53337250014E+03  0.46999998093E+01 0.  1.
</event>
<event>
 5   0  0.6022787E-03  0.9942525E+03  0.7818609E-02  0.9314871E-01
       -2   -1    0    0    0  501  0.00000000000E+00  0.00000000000E+00  0.16637664973E+03  0.16637664975E+03  0.25500000920E-02 0.  1.
        2   -1    0    0  501    0  0.00000000000E+00  0.00000000000E+00 -0.14853916917E+04  0.14853916917E+04  0.25500000920E-02 0. -1.
    10030    2    1    2    0    0  0.00000000000E+00  0.00000000000E+00 -0.13190150420E+04  0.16517683415E+04  0.99425246940E+03 0.  0.
        5    1    3    3  502    0 -0.42678564742E+03 -0.23657603379E+03 -0.81709806358E+03  0.95172766278E+03  0.46999998093E+01 0.  1.
       -5    1    3    3    0  502  0.42678564742E+03  0.23657603379E+03 -0.50191697842E+03  0.70004067870E+03  0.46999998093E+01 0. -1.
</event>
<event>
 5   0  0.6022787E-03  0.1000721E+04  0.7818609E-02  0.9307754E-01
       -2   -1    0    0    0  501  0.00000000000E+00  0.00000000000E+00  0.11997440656E+04  0.11997440656E+04  0.25500000920E-02 0. -1.
        2   -1    0    0  501    0  0.00000000000E+00  0.00000000000E+00 -0.20867847987E+03  0.20867847988E+03  0.25500000920E-02 0.  1.
    10030    2    1    2    0    0  0.00000000000E+00  0.00000000000E+00  0.99106558570E+03  0.14084225455E+04  0.10007212756E+04 0.  0.
        5    1    3    3  502    0 -0.22885746060E+03  0.18236139764E+03 -0.75651436999E+02  0.30228570349E+03  0.46999998093E+01 0.  1.
       -5    1    3    3    0  502  0.22885746060E+03 -0.18236139764E+03  0.10667170227E+04  0.11061368420E+04  0.46999998093E+01 0. -1.
</event>
<event>
 5   0  0.6199539E-03  0.9989391E+03  0.7818609E-02  0.9309709E-01
       -2   -1    0    0    0  501  0.00000000000E+00  0.00000000000E+00  0.32760111436E+03  0.32760111437E+03  0.25500000920E-02 0.  1.
        2   -1    0    0  501    0  0.00000000000E+00  0.00000000000E+00 -0.76150479355E+03  0.76150479356E+03  0.25500000920E-02 0. -1.
    10030    2    1    2    0    0  0.00000000000E+00  0.00000000000E+00 -0.43390367919E+03  0.10891059079E+04  0.99893907515E+03 0.  0.
        2    1    3    3  502    0  0.25709498307E+03 -0.88745262743E+01 -0.68372333428E+03  0.73051638269E+03  0.25500000920E-02 0. -1.
       -2    1    3    3    0  502 -0.25709498307E+03  0.88745262743E+01  0.24981965508E+03  0.35858952523E+03  0.25500000920E-02 0.  1.
</event>
<event>
 5   0  0.6360455E-03  0.9941925E+03  0.7818609E-02  0.9314937E-01
       -2   -1    0    0    0  501  0.00000000000E+00  0.00000000000E+00  0.26053744680E+03  0.26053744682E+03  0.25500000920E-02 0. -1.
        2   -1    0    0  501    0  0.00000000000E+00  0.00000000000E+00 -0.94844212239E+03  0.94844212239E+03  0.25500000920E-02 0.  1.
    10030    2    1    2    0    0  0.00000000000E+00  0.00000000000E+00 -0.68790467558E+03  0.12089795692E+04  0.99419251459E+03 0.  0.
        4    1    3    3  502    0 -0.19240355494E+03 -0.39056650691E+03 -0.52249930871E+02  0.43851224891E+03  0.12699999809E+01 0.  1.
       -4    1    3    3    0  502  0.19240355494E+03  0.39056650691E+03 -0.63565474471E+03  0.77046732030E+03  0.12699999809E+01 0. -1.
</event>
<event>
 5   0  0.6022787E-03  0.9890293E+03  0.7818609E-02  0.9320660E-01
        2   -1    0    0  501    0  0.00000000000E+00  0.00000000000E+00  0.14962116891E+04  0.14962116891E+04  0.25500000920E-02 0.  1.
       -2   -1    0    0    0  501  0.00000000000E+00  0.00000000000E+00 -0.16344260979E+03  0.16344260981E+03  0.25500000920E-02 0. -1.
    10030    2    1    2    0    0  0.00000000000E+00  0.00000000000E+00  0.13327690793E+04  0.16596542989E+04  0.98902930855E+03 0.  0.
        5    1    3    3  502    0  0.98312649342E+02 -0.15317428127E+03  0.14379197360E+04  0.14494009088E+04  0.46999998093E+01 0.  1.
       -5    1    3    3    0  502 -0.98312649342E+02  0.15317428127E+03 -0.10515065663E+03  0.21025339011E+03  0.46999998093E+01 0. -1.
</event>
<event>
 5   0  0.6022787E-03  0.9974645E+03  0.7818609E-02  0.9311330E-01
        2   -1    0    0  501    0  0.00000000000E+00  0.00000000000E+00  0.10094236249E+04  0.10094236249E+04  0.25500000920E-02 0.  1.
       -2   -1    0    0    0  501  0.00000000000E+00  0.00000000000E+00 -0.24641178082E+03  0.24641178083E+03  0.25500000920E-02 0. -1.
    10030    2    1    2    0    0  0.00000000000E+00  0.00000000000E+00  0.76301184406E+03  0.12558354057E+04  0.99746453174E+03 0.  0.
        5    1    3    3  502    0 -0.16205788992E+03  0.46677737037E+03  0.46659895881E+03  0.67961794528E+03  0.46999998093E+01 0.  1.
       -5    1    3    3    0  502  0.16205788992E+03 -0.46677737037E+03  0.29641288525E+03  0.57621746044E+03  0.46999998093E+01 0. -1.
</event>
<event>
 5   0  0.6606947E-03  0.1001844E+04  0.7818609E-02  0.9306524E-01
       -2   -1    0    0    0  501  0.00000000000E+00  0.00000000000E+00  0.25557803487E+03  0.25557803488E+03  0.25500000920E-02 0. -1.
        2   -1    0    0  501    0  0.00000000000E+00  0.00000000000E+00 -0.98178592519E+03  0.98178592520E+03  0.25500000920E-02 0.  1.
    10030    2    1    2    0    0  0.00000000000E+00  0.00000000000E+00 -0.72620789032E+03  0.12373639601E+04  0.10018441345E+04 0.  0.
        1    1    3    3  502    0  0.20967497958E+03  0.22265885392E+03 -0.85308052578E+03  0.90624883215E+03  0.50400001928E-02 0.  1.
       -1    1    3    3    0  502 -0.20967497958E+03 -0.22265885392E+03  0.12687263546E+03  0.33111512793E+03  0.50400001928E-02 0. -1.
</event>
<event>
 5   0  0.2417750E-03  0.1008708E+04  0.7818609E-02  0.9299045E-01
        3   -1    0    0  501    0  0.00000000000E+00  0.00000000000E+00  0.10306809123E+04  0.10306809173E+04  0.10100000352E+00 0. -1.
       -3   -1    0    0    0  501  0.00000000000E+00  0.00000000000E+00 -0.24680106211E+03  0.24680108278E+03  0.10100000352E+00 0.  1.
    10030    2    1    2    0    0  0.00000000000E+00  0.00000000000E+00  0.78387985023E+03  0.12774820001E+04  0.10087084023E+04 0.  0.
        2    1    3    3  502    0 -0.46898833462E+03  0.18047149493E+03  0.33742147898E+03  0.60528776047E+03  0.25500000920E-02 0. -1.
       -2    1    3    3    0  502  0.46898833462E+03 -0.18047149493E+03  0.44645837125E+03  0.67219423961E+03  0.25500000920E-02 0.  1.
</event>
<event>
 5   0  0.6606947E-03  0.1002707E+04  0.7818609E-02  0.9305581E-01
        2   -1    0    0  501    0  0.00000000000E+00  0.00000000000E+00  0.25862280959E+03  0.25862280961E+03  0.25500000920E-02 0. -1.
       -2   -1    0    0    0  501  0.00000000000E+00  0.00000000000E+00 -0.97189909769E+03  0.97189909769E+03  0.25500000920E-02 0.  1.
    10030    2    1    2    0    0  0.00000000000E+00  0.00000000000E+00 -0.71327628810E+03  0.12305219073E+04  0.10027068870E+04 0.  0.
        1    1    3    3  502    0 -0.33671924558E+03 -0.18538517375E+03 -0.75165124449E+03  0.84423166629E+03  0.50400001928E-02 0.  1.
       -1    1    3    3    0  502  0.33671924558E+03  0.18538517375E+03  0.38374956396E+02  0.38629024101E+03  0.50400001928E-02 0. -1.
</event>
<event>
 5   0  0.3643002E-03  0.1024069E+04  0.7818609E-02  0.9282533E-01
       -1   -1    0    0    0  501  0.00000000000E+00  0.00000000000E+00  0.12793722263E+03  0.12793722273E+03  0.50400001928E-02 0.  1.
        1   -1    0    0  501    0  0.00000000000E+00  0.00000000000E+00 -0.20492810758E+04  0.20492810758E+04  0.50400001928E-02 0. -1.
    10030    2    1    2    0    0  0.00000000000E+00  0.00000000000E+00 -0.19213438532E+04  0.21772182985E+04  0.10240690003E+04 0.  0.
        2    1    3    3  502    0 -0.98236592012E+02  0.82033369259E+02 -0.20147267248E+04  0.20187876752E+04  0.25500000920E-02 0. -1.
       -2    1    3    3    0  502  0.98236592012E+02 -0.82033369259E+02  0.93382871683E+02  0.15843062334E+03  0.25500000920E-02 0.  1.
</event>
<event>
 5   0  0.6376961E-03  0.9836023E+03  0.7818609E-02  0.9326715E-01
       -2   -1    0    0    0  501  0.00000000000E+00  0.00000000000E+00  0.12392954309E+04  0.12392954309E+04  0.25500000920E-02 0.  1.
        2   -1    0    0  501    0  0.00000000000E+00  0.00000000000E+00 -0.19516603235E+03  0.19516603237E+03  0.25500000920E-02 0. -1.
    10030    2    1    2    0    0  0.00000000000E+00  0.00000000000E+00  0.10441293985E+04  0.14344614633E+04  0.98360230210E+03 0.  0.
        3    1    3    3  502    0 -0.45137406221E+02 -0.48637232013E+03  0.60549783238E+03  0.77796083092E+03  0.10100000352E+00 0.  1.
       -3    1    3    3    0  502  0.45137406221E+02  0.48637232013E+03  0.43863156615E+03  0.65650063234E+03  0.10100000352E+00 0. -1.
</event>
<event>
 5   0  0.3569359E-03  0.9817040E+03  0.7818609E-02  0.9328842E-01
        1   -1    0    0  501    0  0.00000000000E+00  0.00000000000E+00  0.57415533685E+03  0.57415533687E+03  0.50400001928E-02 0. -1.
       -1   -1    0    0    0  501  0.00000000000E+00  0.00000000000E+00 -0.41963499567E+03  0.41963499570E+03  0.50400001928E-02 0.  1.
    10030    2    1    2    0    0  0.00000000000E+00  0.00000000000E+00  0.15452034117E+03  0.99379033257E+03  0.98170397232E+03 0.  0.
        4    1    3    3  502    0  0.18477233894E+03 -0.30106869113E+03 -0.26774490296E+03  0.44325175688E+03  0.12699999809E+01 0. -1.
       -4    1    3    3    0  502 -0.18477233894E+03  0.30106869113E+03  0.42226524414E+03  0.55053857569E+03  0.12699999809E+01 0.  1.
</event>
<event>
 5   0  0.3608845E-03  0.9998403E+03  0.7818609E-02  0.9308720E-01
       -1   -1    0    0    0  501  0.00000000000E+00  0.00000000000E+00  0.68939524810E+03  0.68939524812E+03  0.50400001928E-02 0. -1.
        1   -1    0    0  501    0  0.00000000000E+00  0.00000000000E+00 -0.36252088731E+03  0.36252088735E+03  0.50400001928E-02 0.  1.
    10030    2    1    2    0    0  0.00000000000E+00  0.00000000000E+00  0.32687436079E+03  0.10519161355E+04  0.99984034141E+03 0.  0.
        1    1    3    3  502    0 -0.36864130902E+03  0.27127596225E+02  0.51755039990E+03  0.63599586293E+03  0.50400001928E-02 0. -1.
       -1    1    3    3    0  502  0.36864130902E+03 -0.27127596225E+02 -0.19067603912E+03  0.41592027254E+03  0.50400001928E-02 0.  1.
</event>
<event>
 5   0  0.3640180E-03  0.9805856E+03  0.7818609E-02  0.9330098E-01
        1   -1    0    0  501    0  0.00000000000E+00  0.00000000000E+00  0.14233461699E+04  0.14233461699E+04  0.50400001928E-02 0.  1.
       -1   -1    0    0    0  501  0.00000000000E+00  0.00000000000E+00 -0.16888867598E+03  0.16888867605E+03  0.50400001928E-02 0. -1.
    10030    2    1    2    0    0  0.00000000000E+00  0.00000000000E+00  0.12544574939E+04  0.15922348460E+04  0.98058564166E+03 0.  0.
        5    1    3    3  502    0 -0.38003802053E+03  0.30690895570E+03  0.55943887579E+03  0.74270852283E+03  0.46999998093E+01 0.  1.
       -5    1    3    3    0  502  0.38003802053E+03 -0.30690895570E+03  0.69501861814E+03  0.84952632314E+03  0.46999998093E+01 0. -1.
</event>
<event>
 5   0  0.6360455E-03  0.9984773E+03  0.7818609E-02  0.9310216E-01
        2   -1    0    0  501    0  0.00000000000E+00  0.00000000000E+00  0.84029715109E+03  0.84029715109E+03  0.25500000920E-02 0. -1.
       -2   -1    0    0    0  501  0.00000000000E+00  0.00000000000E+00 -0.29660846898E+03  0.29660846899E+03  0.25500000920E-02 0.  1.
    10030    2    1    2    0    0  0.00000000000E+00  0.00000000000E+00  0.54368868211E+03  0.11369056201E+04  0.99847734372E+03 0.  0.
        4    1    3    3  502    0  0.14013278868E+03  0.46574306020E+03  0.14360785466E+03  0.50712781960E+03  0.12699999809E+01 0.  1.
       -4    1    3    3    0  502 -0.14013278868E+03 -0.46574306020E+03  0.40008082745E+03  0.62977780048E+03  0.12699999809E+01 0. -1.
</event>
<event>
 5   0  0.3643002E-03  0.9965801E+03  0.7818609E-02  0.9312304E-01
       -1   -1    0    0    0  501  0.00000000000E+00  0.00000000000E+00  0.95691540789E+02  0.95691540922E+02  0.50400001928E-02 0. -1.
        1   -1    0    0  501    0  0.00000000000E+00  0.00000000000E+00 -0.25947223137E+04  0.25947223137E+04  0.50400001928E-02 0.  1.
    10030    2    1    2    0    0  0.00000000000E+00  0.00000000000E+00 -0.24990307729E+04  0.26904138546E+04  0.99658010476E+03 0.  0.
        2    1    3    3  502    0 -0.27173549037E+03  0.33623825328E+01 -0.23770549164E+04  0.23925387266E+04  0.25500000920E-02 0.  1.
       -2    1    3    3    0  502  0.27173549037E+03 -0.33623825328E+01 -0.12197585645E+03  0.29787512804E+03  0.25500000920E-02 0. -1.
</event>
<event>
 5   0  0.6199539E-03  0.1015598E+04  0.7818609E-02  0.9291601E-01
       -2   -1    0    0    0  501  0.00000000000E+00  0.00000000000E+00  0.30977066422E+03  0.30977066423E+03  0.25500000920E-02 0.  1.
        2   -1    0    0  501    0  0.00000000000E+00  0.00000000000E+00 -0.83242101442E+03  0.83242101443E+03  0.25500000920E-02 0. -1.
    10030    2    1    2    0    0  0.00000000000E+00  0.00000000000E+00 -0.52265035020E+03  0.11421916787E+04  0.10155975789E+04 0.  0.
        2    1    3    3  502    0  0.34103192009E+03 -0.54660483163E+02  0.15732423980E+03  0.37952793755E+03  0.25500000920E-02 0.  1.
       -2    1    3    3    0  502 -0.34103192009E+03  0.54660483163E+02 -0.67997459001E+03  0.76266374111E+03  0.25500000920E-02 0. -1.
</event>
<event>
 5   0  0.6606947E-03  0.9981742E+03  0.7818609E-02  0.9310550E-01
        2   -1    0    0  501    0  0.00000000000E+00  0.00000000000E+00  0.18805682171E+04  0.18805682171E+04  0.25500000920E-02 0. -1.
       -2   -1    0    0    0  501  0.00000000000E+00  0.00000000000E+00 -0.13245355480E+03  0.13245355482E+03  0.25500000920E-02 0.  1.
    10030    2    1    2    0    0  0.00000000000E+00  0.00000000000E+00  0.17481146623E+04  0.20130217719E+04  0.99817422410E+03 0.  0.
        1    1    3    3  502    0 -0.47614585945E+03  0.14409591439E+03  0.79315172372E+03  0.93625219299E+03  0.50400001928E-02 0.  1.
       -1    1    3    3    0  502  0.47614585945E+03 -0.14409591439E+03  0.95496293854E+03  0.10767695789E+04  0.50400001928E-02 0. -1.
</event>
<event>
 5   0  0.6022787E-03  0.1006977E+04  0.7818609E-02  0.9300925E-01
        2   -1    0    0  501    0  0.00000000000E+00  0.00000000000E+00  0.46418059557E+03  0.46418059558E+03  0.25500000920E-02 0. -1.
       -2   -1    0    0    0  501  0.00000000000E+00  0.00000000000E+00 -0.54612533763E+03  0.54612533764E+03  0.25500000920E-02 0.  1.
    10030    2    1    2    0    0  0.00000000000E+00  0.00000000000E+00 -0.81944742060E+02  0.10103059332E+04  0.10069772281E+04 0.  0.
        5    1    3    3  502    0 -0.76526624637E+02 -0.30054173333E+03  0.35694557352E+03  0.47287830380E+03  0.46999998093E+01 0. -1.
       -5    1    3    3    0  502  0.76526624637E+02  0.30054173333E+03 -0.43889031558E+03  0.53742762942E+03  0.46999998093E+01 0.  1.
</event>
<event>
 5   0  0.3643002E-03  0.9833547E+03  0.7818609E-02  0.9326992E-01
        1   -1    0    0  501    0  0.00000000000E+00  0.00000000000E+00  0.79818284401E+03  0.79818284402E+03  0.50400001928E-02 0. -1.
       -1   -1    0    0    0  501  0.00000000000E+00  0.00000000000E+00 -0.30287122342E+03  0.30287122346E+03  0.50400001928E-02 0.  1.
    10030    2    1    2    0    0  0.00000000000E+00  0.00000000000E+00  0.49531162059E+03  0.11010540675E+04  0.98335469594E+03 0.  0.
        2    1    3    3  502    0  0.21827642787E+03  0.94007072494E+02  0.72959780601E+03  0.76732971217E+03  0.25500000920E-02 0. -1.
       -2    1    3    3    0  502 -0.21827642787E+03 -0.94007072494E+02 -0.23428618542E+03  0.33372435531E+03  0.25500000920E-02 0.  1.
</event>
<event>
 5   0  0.3569359E-03  0.1006630E+04  0.7818609E-02  0.9301303E-01
        1   -1    0    0  501    0  0.00000000000E+00  0.00000000000E+00  0.14699997614E+04  0.14699997614E+04  0.50400001928E-02 0. -1.
       -1   -1    0    0    0  501  0.00000000000E+00  0.00000000000E+00 -0.17233062693E+03  0.17233062700E+03  0.50400001928E-02 0.  1.
    10030    2    1    2    0    0  0.00000000000E+00  0.00000000000E+00  0.12976691345E+04  0.16423303884E+04  0.10066299827E+04 0.  0.
        4    1    3    3  502    0 -0.34337222497E+03  0.36200165975E+03  0.54092402704E+03  0.73590087816E+03  0.12699999809E+01 0.  1.
       -4    1    3    3    0  502  0.34337222497E+03 -0.36200165975E+03  0.75674510745E+03  0.90642951027E+03  0.12699999809E+01 0. -1.
</event>
<event>
 5   0  0.6360455E-03  0.1026248E+04  0.7818609E-02  0.9280216E-01
        2   -1    0    0  501    0  0.00000000000E+00  0.00000000000E+00  0.15970564757E+04  0.15970564757E+04  0.25500000920E-02 0.  1.
       -2   -1    0    0    0  501  0.00000000000E+00  0.00000000000E+00 -0.16486334311E+03  0.16486334313E+03  0.25500000920E-02 0. -1.
    10030    2    1    2    0    0  0.00000000000E+00  0.00000000000E+00  0.14321931326E+04  0.17619198189E+04  0.10262476694E+04 0.  0.
        4    1    3    3  502    0  0.22926981557E+03 -0.41145343086E+03  0.10655765080E+04  0.11650379742E+04  0.12699999809E+01 0.  1.
       -4    1    3    3    0  502 -0.22926981557E+03  0.41145343086E+03  0.36661662463E+03  0.59688184464E+03  0.12699999809E+01 0. -1.
</event>
<event>
 5   0  0.6376961E-03  0.1001970E+04  0.7818609E-02  0.9306387E-01
       -2   -1    0    0    0  501  0.00000000000E+00  0.00000000000E+00  0.19168498669E+03  0.19168498671E+03  0.25500000920E-02 0.  1.
        2   -1    0    0  501    0  0.00000000000E+00  0.00000000000E+00 -0.13093666804E+04  0.13093666804E+04  0.25500000920E-02 0. -1.
    10030    2    1    2    0    0  0.00000000000E+00  0.00000000000E+00 -0.11176816937E+04  0.15010516671E+04  0.10019699291E+04 0.  0.
        3    1    3    3  502    0 -0.19792166119E+03  0.28959126999E+03 -0.10947125464E+04  0.11495354092E+04  0.10100000352E+00 0. -1.
       -3    1    3    3    0  502  0.19792166119E+03 -0.28959126999E+03 -0.22969147298E+02  0.35151625788E+03  0.10100000352E+00 0.  1.
</event>
<event>
 5   0  0.3608845E-03  0.1005304E+04  0.7818609E-02  0.9302747E-01
        1   -1    0    0  501    0  0.00000000000E+00  0.00000000000E+00  0.64397735395E+03  0.64397735397E+03  0.50400001928E-02 0. -1.
       -1   -1    0    0    0  501  0.00000000000E+00  0.00000000000E+00 -0.39234144359E+03  0.39234144363E+03  0.50400001928E-02 0.  1.
    10030    2    1    2    0    0  0.00000000000E+00  0.00000000000E+00  0.25163591036E+03  0.10363187976E+04  0.10053039435E+04 0.  0.
        1    1    3    3  502    0  0.16016378543E+02 -0.13768024392E+03 -0.37225136922E+03  0.39721965694E+03  0.50400001928E-02 0.  1.
       -1    1    3    3    0  502 -0.16016378543E+02  0.13768024392E+03  0.62388727957E+03  0.63909914066E+03  0.50400001928E-02 0. -1.
</event>
<event>
 5   0  0.3608845E-03  0.9612959E+03  0.7818609E-02  0.9352044E-01
       -1   -1    0    0    0  501  0.00000000000E+00  0.00000000000E+00  0.30246593622E+03  0.30246593626E+03  0.50400001928E-02 0.  1.
        1   -1    0    0  501    0  0.00000000000E+00  0.00000000000E+00 -0.76379656513E+03  0.76379656515E+03  0.50400001928E-02 0. -1.
    10030    2    1    2    0    0  0.00000000000E+00  0.00000000000E+00 -0.46133062891E+03  0.10662625014E+04  0.96129588200E+03 0.  0.
        1    1    3    3  502    0 -0.43324140620E+03  0.20273843515E+03 -0.28294412760E+03  0.55575027530E+03  0.50400001928E-02 0.  1.
       -1    1    3    3    0  502  0.43324140620E+03 -0.20273843515E+03 -0.17838650131E+03  0.51051222611E+03  0.50400001928E-02 0. -1.
</event>
<event>
 5   0  0.3643002E-03  0.1002022E+04  0.7818609E-02  0.9306330E-01
        1   -1    0    0  501    0  0.00000000000E+00  0.00000000000E+00  0.16372438530E+03  0.16372438538E+03  0.50400001928E-02 0. -1.
       -1   -1    0    0    0  501  0.00000000000E+00  0.00000000000E+00 -0.15331382088E+04  0.15331382088E+04  0.50400001928E-02 0.  1.
    10030    2    1    2    0    0  0.00000000000E+00  0.00000000000E+00 -0.13694138235E+04  0.16968625941E+04  0.10020221772E+04 0.  0.
        2    1    3    3  502    0 -0.34754073081E+03 -0.20918633306E+03 -0.18674212845E+03  0.44656030283E+03  0.25500000920E-02 0. -1.
       -2    1    3    3    0  502  0.34754073081E+03  0.20918633306E+03 -0.11826716950E+04  0.12503022913E+04  0.25500000920E-02 0.  1.
</event>
<event>
 5   0  0.3643002E-03  0.1010499E+04  0.7818609E-02  0.9297104E-01
        1   -1    0    0  501    0  0.00000000000E+00  0.00000000000E+00  0.61073202192E+03  0.61073202195E+03  0.50400001928E-02 0.  1.
       -1   -1    0    0    0  501  0.00000000000E+00  0.00000000000E+00 -0.41798546244E+03  0.41798546247E+03  0.50400001928E-02 0. -1.
    10030    2    1    2    0    0  0.00000000000E+00  0.00000000000E+00  0.19274655948E+03  0.10287174844E+04  0.10104990977E+04 0.  0.
        2    1    3    3  502    0 -0.14004109835E+03 -0.38629993969E+03  0.39567721740E+03  0.57043808867E+03  0.25500000920E-02 0.  1.
       -2    1    3    3    0  502  0.14004109835E+03  0.38629993969E+03 -0.20293065792E+03  0.45827939574E+03  0.25500000920E-02 0. -1.
</event>
<event>
 5   0  0.6022787E-03  0.9672993E+03  0.7818609E-02  0.9345156E-01
        2   -1    0    0  501    0  0.00000000000E+00  0.00000000000E+00  0.22852448595E+04  0.22852448595E+04  0.25500000920E-02 0. -1.
       -2   -1    0    0    0  501  0.00000000000E+00  0.00000000000E+00 -0.10235971285E+03  0.10235971288E+03  0.25500000920E-02 0.  1.
    10030    2    1    2    0    0  0.00000000000E+00  0.00000000000E+00  0.21828851467E+04  0.23876045724E+04  0.96729934902E+03 0.  0.
        5    1    3    3  502    0  0.39670805058E+02  0.17812719064E+03 -0.14055899679E+02  0.18309212745E+03  0.46999998093E+01 0.  1.
       -5    1    3    3    0  502 -0.39670805058E+02 -0.17812719064E+03  0.21969410464E+04  0.22045124450E+04  0.46999998093E+01 0. -1.
</event>
<event>
 5   0  0.3640180E-03  0.1000820E+04  0.7818609E-02  0.9307646E-01
        1   -1    0    0  501    0  0.00000000000E+00  0.00000000000E+00  0.58033843412E+03  0.58033843414E+03  0.50400001928E-02 0. -1.
       -1   -1    0    0    0  501  0.00000000000E+00  0.00000000000E+00 -0.43148994700E+03  0.43148994703E+03  0.50400001928E-02 0.  1.
    10030    2    1    2    0    0  0.00000000000E+00  0.00000000000E+00  0.14884848712E+03  0.10118283812E+04  0.10008200642E+04 0.  0.
        5    1    3    3  502    0 -0.48284770408E+03 -0.10201273975E+03 -0.91873285848E+01  0.49361422326E+03  0.46999998093E+01 0.  1.
       -5    1    3    3    0  502  0.48284770408E+03  0.10201273975E+03  0.15803581570E+03  0.51821415790E+03  0.46999998093E+01 0. -1.
</event>
<event>
 5   0  0.3466598E-03  0.9751957E+03  0.7818609E-02  0.9336176E-01
       -1   -1    0    0    0  501  0.00000000000E+00  0.00000000000E+00  0.29357889547E+03  0.29357889551E+03  0.50400001928E-02 0. -1.
        1   -1    0    0  501    0  0.00000000000E+00  0.00000000000E+00 -0.80983903090E+03  0.80983903092E+03  0.50400001928E-02 0.  1.
    10030    2    1    2    0    0  0.00000000000E+00  0.00000000000E+00 -0.51626013543E+03  0.11034179264E+04  0.97519566904E+03 0.  0.
        3    1    3    3  502    0 -0.24460182788E+03  0.42132153322E+03 -0.28103386394E+03  0.56242504518E+03  0.10100000352E+00 0.  1.
       -3    1    3    3    0  502  0.24460182788E+03 -0.42132153322E+03 -0.23522627149E+03  0.54099288125E+03  0.10100000352E+00 0. -1.
</event>
<event>
 5   0  0.3640180E-03  0.9666164E+03  0.7818609E-02  0.9345937E-01
       -1   -1    0    0    0  501  0.00000000000E+00  0.00000000000E+00  0.10464047909E+04  0.10464047909E+04  0.50400001928E-02 0. -1.
        1   -1    0    0  501    0  0.00000000000E+00  0.00000000000E+00 -0.22322797307E+03  0.22322797313E+03  0.50400001928E-02 0.  1.
    10030    2    1    2    0    0  0.00000000000E+00  0.00000000000E+00  0.82317681778E+03  0.12696327640E+04  0.96661640896E+03 0.  0.
        5    1    3    3  502    0 -0.21914454456E+03  0.19419730071E+03  0.91660079025E+03  0.96224530224E+03  0.46999998093E+01 0. -1.
       -5    1    3    3    0  502  0.21914454456E+03 -0.19419730071E+03 -0.93423972466E+02  0.30738746175E+03  0.46999998093E+01 0.  1.
</event>
<event>
 5   0  0.3569359E-03  0.1002217E+04  0.7818609E-02  0.9306117E-01
       -1   -1    0    0    0  501  0.00000000000E+00  0.00000000000E+00  0.22125454790E+03  0.22125454795E+03  0.50400001928E-02 0. -1.
        1   -1    0    0  501    0  0.00000000000E+00  0.00000000000E+00 -0.11349360300E+04  0.11349360300E+04  0.50400001928E-02 0.  1.
    10030    2    1    2    0    0  0.00000000000E+00  0.00000000000E+00 -0.91368148212E+03  0.13561905780E+04  0.10022170588E+04 0.  0.
        4    1    3    3  502    0 -0.37234750006E+03 -0.59896135467E+02 -0.10333121035E+02  0.37727787390E+03  0.12699999809E+01 0. -1.
       -4    1    3    3    0  502  0.37234750006E+03  0.59896135467E+02 -0.90334836108E+03  0.97891270408E+03  0.12699999809E+01 0.  1.
</event>
<event>
 5   0  0.6199539E-03  0.1022963E+04  0.7818609E-02  0.9283712E-01
        2   -1    0    0  501    0  0.00000000000E+00  0.00000000000E+00  0.12001676101E+04  0.12001676101E+04  0.25500000920E-02 0.  1.
       -2   -1    0    0    0  501  0.00000000000E+00  0.00000000000E+00 -0.21798054462E+03  0.21798054464E+03  0.25500000920E-02 0. -1.
    10030    2    1    2    0    0  0.00000000000E+00  0.00000000000E+00  0.98218706545E+03  0.14181481547E+04  0.10229627350E+04 0.  0.
        2    1    3    3  502    0  0.36395572052E+03  0.14084193457E+03  0.32743103451E+02  0.39162779251E+03  0.25500000920E-02 0. -1.
       -2    1    3    3    0  502 -0.36395572052E+03 -0.14084193457E+03  0.94944396200E+03  0.10265203622E+04  0.25500000920E-02 0.  1.
</event>
<event>
 5   0  0.6606947E-03  0.9761712E+03  0.7818609E-02  0.9335073E-01
        2   -1    0    0  501    0  0.00000000000E+00  0.00000000000E+00  0.52418037447E+03  0.52418037447E+03  0.25500000920E-02 0. -1.
       -2   -1    0    0    0  501  0.00000000000E+00  0.00000000000E+00 -0.45447627555E+03  0.45447627556E+03  0.25500000920E-02 0.  1.
    10030    2    1    2    0    0  0.00000000000E+00  0.00000000000E+00  0.69704098919E+02  0.97865665003E+03  0.97617118234E+03 0.  0.
        1    1    3    3  502    0  0.15452529555E+03 -0.38841465333E+03  0.28745296351E+03  0.50731963903E+03  0.50400001928E-02 0. -1.
       -1    1    3    3    0  502 -0.15452529555E+03  0.38841465333E+03 -0.21774886460E+03  0.47133701100E+03  0.50400001928E-02 0.  1.
</event>
<event>
 5   0  0.3640180E-03  0.1009314E+04  0.7818609E-02  0.9298388E-01
       -1   -1    0    0    0  501  0.00000000000E+00  0.00000000000E+00  0.34696564325E+03  0.34696564328E+03  0.50400001928E-02 0. -1.
        1   -1    0    0  501    0  0.00000000000E+00  0.00000000000E+00 -0.73401658442E+03  0.73401658444E+03  0.50400001928E-02 0.  1.
    10030    2    1    2    0    0  0.00000000000E+00  0.00000000000E+00 -0.38705094118E+03  0.10809822277E+04  0.10093137003E+04 0.  0.
        5    1    3    3  502    0  0.39628330740E+03 -0.29884883782E+03 -0.29113036259E+03  0.57543901989E+03  0.46999998093E+01 0.  1.
       -5    1    3    3    0  502 -0.39628330740E+03  0.29884883782E+03 -0.95920578591E+02  0.50554320784E+03  0.46999998093E+01 0. -1.
</event>
<event>
 5   0  0.3643002E-03  0.1007704E+04  0.7818609E-02  0.9300135E-01
        1   -1    0    0  501    0  0.00000000000E+00  0.00000000000E+00  0.29532951001E+03  0.29532951006E+03  0.50400001928E-02 0. -1.
       -1   -1    0    0    0  501  0.00000000000E+00  0.00000000000E+00 -0.85960534535E+03  0.85960534536E+03  0.50400001928E-02 0.  1.
    10030    2    1    2    0    0  0.00000000000E+00  0.00000000000E+00 -0.56427583534E+03  0.11549348554E+04  0.10077039753E+04 0.  0.
        2    1    3    3  502    0  0.13975423637E+03 -0.33935629832E+03 -0.67778980071E+03  0.77077425862E+03  0.25500000920E-02 0.  1.
       -2    1    3    3    0  502 -0.13975423637E+03  0.33935629832E+03  0.11351396538E+03  0.38416059680E+03  0.25500000920E-02 0. -1.
</event>
<event>
 5   0  0.3466598E-03  0.9896795E+03  0.7818609E-02  0.9319937E-01
        1   -1    0    0  501    0  0.00000000000E+00  0.00000000000E+00  0.95849128045E+03  0.95849128047E+03  0.50400001928E-02 0. -1.
       -1   -1    0    0    0  501  0.00000000000E+00  0.00000000000E+00 -0.25547061808E+03  0.25547061813E+03  0.50400001928E-02 0.  1.
    10030    2    1    2    0    0  0.00000000000E+00  0.00000000000E+00  0.70302066237E+03  0.12139618986E+04  0.98967946302E+03 0.  0.
        3    1    3    3  502    0 -0.47365521424E+03  0.14282457843E+03  0.33817297487E+03  0.59925711787E+03  0.10100000352E+00 0.  1.
       -3    1    3    3    0  502  0.47365521424E+03 -0.14282457843E+03  0.36484768750E+03  0.61470478073E+03  0.10100000352E+00 0. -1.
</event>
<event>
 5   0  0.6199539E-03  0.9956187E+03  0.7818609E-02  0.9313363E-01
       -2   -1    0    0    0  501  0.00000000000E+00  0.00000000000E+00  0.18460576240E+03  0.18460576241E+03  0.25500000920E-02 0.  1.
        2   -1    0    0  501    0  0.00000000000E+00  0.00000000000E+00 -0.13423966822E+04  0.13423966822E+04  0.25500000920E-02 0. -1.
    10030    2    1    2    0    0  0.00000000000E+00  0.00000000000E+00 -0.11577909198E+04  0.15270024446E+04  0.99561872815E+03 0.  0.
        2    1    3    3  502    0 -0.84393771494E+02  0.42687272013E+03 -0.20802783507E+03  0.48230509849E+03  0.25500000920E-02 0.  1.
       -2    1    3    3    0  502  0.84393771494E+02 -0.42687272013E+03 -0.94976308469E+03  0.10446973461E+04  0.25500000920E-02 0. -1.
</event>
<event>
 5   0  0.6376961E-03  0.9961254E+03  0.7818609E-02  0.9312805E-01
        2   -1    0    0  501    0  0.00000000000E+00  0.00000000000E+00  0.55252461271E+03  0.55252461271E+03  0.25500000920E-02 0.  1.
       -2   -1    0    0    0  501  0.00000000000E+00  0.00000000000E+00 -0.44896903600E+03  0.44896903600E+03  0.25500000920E-02 0. -1.
    10030    2    1    2    0    0  0.00000000000E+00  0.00000000000E+00  0.10355557671E+03  0.10014936487E+04  0.99612537913E+03 0.  0.
        3    1    3    3  502    0 -0.15171252275E+03 -0.10577789119E+03  0.51672084694E+03  0.54882246281E+03  0.10100000352E+00 0.  1.
       -3    1    3    3    0  502  0.15171252275E+03  0.10577789119E+03 -0.41316527023E+03  0.45267118591E+03  0.10100000352E+00 0. -1.
</event>
<event>
 5   0  0.3608845E-03  0.1003265E+04  0.7818609E-02  0.9304971E-01
       -1   -1    0    0    0  501  0.00000000000E+00  0.00000000000E+00  0.15385244882E+03  0.15385244891E+03  0.50400001928E-02 0.  1.
        1   -1    0    0  501    0  0.00000000000E+00  0.00000000000E+00 -0.16355613373E+04  0.16355613373E+04  0.50400001928E-02 0. -1.
    10030    2    1    2    0    0  0.00000000000E+00  0.00000000000E+00 -0.14817088884E+04  0.17894137862E+04  0.10032649042E+04 0.  0.
        1    1    3    3  502    0  0.23944762240E+03 -0.80722577482E+02 -0.15137561074E+04  0.15347015512E+04  0.50400001928E-02 0. -1.
       -1    1    3    3    0  502 -0.23944762240E+03  0.80722577482E+02  0.32047218990E+02  0.25471223500E+03  0.50400001928E-02 0.  1.
</event>
<event>
 5   0  0.6199539E-03  0.1003291E+04  0.7818609E-02  0.9304943E-01
       -2   -1    0    0    0  501  0.00000000000E+00  0.00000000000E+00  0.72486981119E+03  0.72486981120E+03  0.25500000920E-02 0.  1.
        2   -1    0    0  501    0  0.00000000000E+00  0.00000000000E+00 -0.34716333446E+03  0.34716333447E+03  0.25500000920E-02 0. -1.
    10030    2    1    2    0    0  0.00000000000E+00  0.00000000000E+00  0.37770647673E+03  0.10720331457E+04  0.10032910260E+04 0.  0.
        2    1    3    3  502    0  0.29354126283E+03 -0.32704638614E+03 -0.69635950205E+02  0.44494379110E+03  0.25500000920E-02 0. -1.
       -2    1    3    3    0  502 -0.29354126283E+03  0.32704638614E+03  0.44734242694E+03  0.62708935457E+03  0.25500000920E-02 0.  1.
</event>
<event>
 5   0  0.3569359E-03  0.1007286E+04  0.7818609E-02  0.9300589E-01
        1   -1    0    0  501    0  0.00000000000E+00  0.00000000000E+00  0.37876218094E+03  0.37876218097E+03  0.50400001928E-02 0. -1.
       -1   -1    0    0    0  501  0.00000000000E+00  0.00000000000E+00 -0.66969830113E+03  0.66969830115E+03  0.50400001928E-02 0.  1.
    10030    2    1    2    0    0  0.00000000000E+00  0.00000000000E+00 -0.29093612020E+03  0.10484604821E+04  0.10072862337E+04 0.  0.
        4    1    3    3  502    0  0.11425254806E+03 -0.20766722780E+03  0.31707879005E+03  0.39587863574E+03  0.12699999809E+01 0. -1.
       -4    1    3    3    0  502 -0.11425254806E+03  0.20766722780E+03 -0.60801491024E+03  0.65258184638E+03  0.12699999809E+01 0.  1.
</event>
<event>
 5   0  0.2417750E-03  0.1003346E+04  0.7818609E-02  0.9304882E-01
        3   -1    0    0  501    0  0.00000000000E+00  0.00000000000E+00  0.13050879286E+04  0.13050879325E+04  0.10100000352E+00 0. -1.
       -3   -1    0    0    0  501  0.00000000000E+00  0.00000000000E+00 -0.19284203149E+03  0.19284205794E+03  0.10100000352E+00 0.  1.
    10030    2    1    2    0    0  0.00000000000E+00  0.00000000000E+00  0.11122458971E+04  0.14979299905E+04  0.10033460623E+04 0.  0.
        1    1    3    3  502    0  0.78269683751E+02 -0.12589195840E+03 -0.15939760791E+03  0.21767527655E+03  0.50400001928E-02 0.  1.
       -1    1    3    3    0  502 -0.78269683751E+02  0.12589195840E+03  0.12716435050E+04  0.12802547139E+04  0.50400001928E-02 0. -1.
</event>
<event>
 5   0  0.3466598E-03  0.9989963E+03  0.7818609E-02  0.9309646E-01
        1   -1    0    0  501    0  0.00000000000E+00  0.00000000000E+00  0.95738437552E+03  0.95738437554E+03  0.50400001928E-02 0. -1.
       -1   -1    0    0    0  501  0.00000000000E+00  0.00000000000E+00 -0.26060421963E+03  0.26060421968E+03  0.50400001928E-02 0.  1.
    10030    2    1    2    0    0  0.00000000000E+00  0.00000000000E+00  0.69678015589E+03  0.12179885952E+04  0.99899631251E+03 0.  0.
        3    1    3    3  502    0  0.41598028623E+03  0.14966379505E+03  0.64914570780E+02  0.44682520271E+03  0.10100000352E+00 0.  1.
       -3    1    3    3    0  502 -0.41598028623E+03 -0.14966379505E+03  0.63186558511E+03  0.77116339250E+03  0.10100000352E+00 0. -1.
</event>
<event>
 5   0  0.6022787E-03  0.1005207E+04  0.7818609E-02  0.9302852E-01
       -2   -1    0    0    0  501  0.00000000000E+00  0.00000000000E+00  0.38757923643E+03  0.38757923644E+03  0.25500000920E-02 0. -1.
        2   -1    0    0  501    0  0.00000000000E+00  0.00000000000E+00 -0.65176426808E+03  0.65176426808E+03  0.25500000920E-02 0.  1.
    10030    2    1    2    0    0  0.00000000000E+00  0.00000000000E+00 -0.26418503165E+03  0.10393435045E+04  0.10052070381E+04 0.  0.
        5    1    3    3  502    0 -0.31565880859E+03  0.31668447639E+03 -0.36936015737E+03  0.57998151426E+03  0.46999998093E+01 0.  1.
       -5    1    3    3    0  502  0.31565880859E+03 -0.31668447639E+03  0.10517512572E+03  0.45936199026E+03  0.46999998093E+01 0. -1.
</event>
<event>
 5   0  0.6199539E-03  0.8803454E+03  0.7818609E-02  0.9450490E-01
       -2   -1    0    0    0  501  0.00000000000E+00  0.00000000000E+00  0.22121054978E+03  0.22121054980E+03  0.25500000920E-02 0. -1.
        2   -1    0    0  501    0  0.00000000000E+00  0.00000000000E+00 -0.87587148199E+03  0.87587148200E+03  0.25500000920E-02 0.  1.
    10030    2    1    2    0    0  0.00000000000E+00  0.00000000000E+00 -0.65466093221E+03  0.10970820318E+04  0.88034541421E+03 0.  0.
        2    1    3    3  502    0  0.17141613574E+03 -0.38195116580E+03 -0.49674803726E+03  0.64963743517E+03  0.25500000920E-02 0.  1.
       -2    1    3    3    0  502 -0.17141613574E+03  0.38195116580E+03 -0.15791289495E+03  0.44744459663E+03  0.25500000920E-02 0. -1.
</event>
<event>
 5   0  0.3640180E-03  0.1004709E+04  0.7818609E-02  0.9303395E-01
        1   -1    0    0  501    0  0.00000000000E+00  0.00000000000E+00  0.41976410784E+03  0.41976410787E+03  0.50400001928E-02 0. -1.
       -1   -1    0    0    0  501  0.00000000000E+00  0.00000000000E+00 -0.60119464651E+03  0.60119464653E+03  0.50400001928E-02 0.  1.
    10030    2    1    2    0    0  0.00000000000E+00  0.00000000000E+00 -0.18143053868E+03  0.10209587544E+04  0.10047087826E+04 0.  0.
        5    1    3    3  502    0 -0.24351169547E+03  0.38849407768E+03  0.11781649749E+03  0.47342202241E+03  0.46999998093E+01 0.  1.
       -5    1    3    3    0  502  0.24351169547E+03 -0.38849407768E+03 -0.29924703617E+03  0.54753673199E+03  0.46999998093E+01 0. -1.
</event>
<event>
 5   0  0.3640180E-03  0.1002265E+04  0.7818609E-02  0.9306064E-01
        1   -1    0    0  501    0  0.00000000000E+00  0.00000000000E+00  0.42253271605E+03  0.42253271608E+03  0.50400001928E-02 0. -1.
       -1   -1    0    0    0  501  0.00000000000E+00  0.00000000000E+00 -0.59435314649E+03  0.59435314652E+03  0.50400001928E-02 0.  1.
    10030    2    1    2    0    0  0.00000000000E+00  0.00000000000E+00 -0.17182043045E+03  0.10168858626E+04  0.10022647341E+04 0.  0.
        5    1    3    3  502    0 -0.10904085026E+03 -0.40645293010E+03  0.19012053057E+03  0.46180276911E+03  0.46999998093E+01 0. -1.
       -5    1    3    3    0  502  0.10904085026E+03  0.40645293010E+03 -0.36194096102E+03  0.55508309348E+03  0.46999998093E+01 0.  1.
</event>
<event>
 5   0  0.3643002E-03  0.9973642E+03  0.7818609E-02  0.9311440E-01
       -1   -1    0    0    0  501  0.00000000000E+00  0.00000000000E+00  0.31306683554E+03  0.31306683558E+03  0.50400001928E-02 0.  1.
        1   -1    0    0  501    0  0.00000000000E+00  0.00000000000E+00 -0.79434745544E+03  0.79434745546E+03  0.50400001928E-02 0. -1.
    10030    2    1    2    0    0  0.00000000000E+00  0.00000000000E+00 -0.48128061991E+03  0.11074142910E+04  0.99736421476E+03 0.  0.
        2    1    3    3  502    0 -0.36886913657E+03  0.28030572831E+03 -0.35758783150E+02  0.46466593571E+03  0.25500000920E-02 0.  1.
       -2    1    3    3    0  502  0.36886913657E+03 -0.28030572831E+03 -0.44552183676E+03  0.64274835532E+03  0.25500000920E-02 0. -1.
</event>
<event>
 5   0  0.3608845E-03  0.1006099E+04  0.7818609E-02  0.9301881E-01
       -1   -1    0    0    0  501  0.00000000000E+00  0.00000000000E+00  0.32077471697E+03  0.32077471701E+03  0.50400001928E-02 0.  1.
        1   -1    0    0  501    0  0.00000000000E+00  0.00000000000E+00 -0.78889910630E+03  0.78889910632E+03  0.50400001928E-02 0. -1.
    10030    2    1    2    0    0  0.00000000000E+00  0.00000000000E+00 -0.46812438933E+03  0.11096738233E+04  0.10060991752E+04 0.  0.
        1    1    3    3  502    0  0.32526297192E+03 -0.34002279458E+03 -0.37851141348E+02  0.47206377817E+03  0.50400001928E-02 0.  1.
       -1    1    3    3    0  502 -0.32526297192E+03  0.34002279458E+03 -0.43027324798E+03  0.63761004516E+03  0.50400001928E-02 0. -1.
</event>
<event>
 5   0  0.6199539E-03  0.9945367E+03  0.7818609E-02  0.9314557E-01
       -2   -1    0    0    0  501  0.00000000000E+00  0.00000000000E+00  0.36702741179E+03  0.36702741180E+03  0.25500000920E-02 0. -1.
        2   -1    0    0  501    0  0.00000000000E+00  0.00000000000E+00 -0.67372567086E+03  0.67372567087E+03  0.25500000920E-02 0.  1.
    10030    2    1    2    0    0  0.00000000000E+00  0.00000000000E+00 -0.30669825907E+03  0.10407530827E+04  0.99453665441E+03 0.  0.
        2    1    3    3  502    0  0.15833589516E+03  0.39135887372E+03  0.12162329711E+03  0.43934525164E+03  0.25500000920E-02 0. -1.
       -2    1    3    3    0  502 -0.15833589516E+03 -0.39135887372E+03 -0.42832155618E+03  0.60140783103E+03  0.25500000920E-02 0.  1.
</event>
<event>
 5   0  0.3608845E-03  0.1001265E+04  0.7818609E-02  0.9307159E-01
        1   -1    0    0  501    0  0.00000000000E+00  0.00000000000E+00  0.18750786964E+04  0.18750786964E+04  0.50400001928E-02 0.  1.
       -1   -1    0    0    0  501  0.00000000000E+00  0.00000000000E+00 -0.13366513984E+03  0.13366513993E+03  0.50400001928E-02 0. -1.
    10030    2    1    2    0    0  0.00000000000E+00  0.00000000000E+00  0.17414135565E+04  0.20087438363E+04  0.10012645130E+04 0.  0.
        1    1    3    3  502    0 -0.21045902590E+03 -0.27934864167E+03  0.15893210134E+04  0.16273505919E+04  0.50400001928E-02 0.  1.
       -1    1    3    3    0  502  0.21045902590E+03  0.27934864167E+03  0.15209254308E+03  0.38139324440E+03  0.50400001928E-02 0. -1.
</event>
<event>
 5   0  0.2417750E-03  0.9977709E+03  0.7818609E-02  0.9310993E-01
       -4   -1    0    0    0  501  0.00000000000E+00  0.00000000000E+00  0.39655589095E+03  0.39655792458E+03  0.12699999809E+01 0.  1.
        4   -1    0    0  501    0  0.00000000000E+00  0.00000000000E+00 -0.62761648605E+03  0.62761777099E+03  0.12699999809E+01 0. -1.
    10030    2    1    2    0    0  0.00000000000E+00  0.00000000000E+00 -0.23106059509E+03  0.10241756956E+04  0.99777094405E+03 0.  0.
        2    1    3    3  502    0  0.36514026822E+03 -0.11599947859E+03  0.21246208433E+03  0.43809066618E+03  0.25500000920E-02 0.  1.
       -2    1    3    3    0  502 -0.36514026822E+03  0.11599947859E+03 -0.44352267942E+03  0.58608502939E+03  0.25500000920E-02 0. -1.
</event>
<event>
 5   0  0.3466598E-03  0.9952052E+03  0.7818609E-02  0.9313819E-01
       -1   -1    0    0    0  501  0.00000000000E+00  0.00000000000E+00  0.13633850051E+04  0.13633850051E+04  0.50400001928E-02 0.  1.
        1   -1    0    0  501    0  0.00000000000E+00  0.00000000000E+00 -0.18161291938E+03  0.18161291945E+03  0.50400001928E-02 0. -1.
    10030    2    1    2    0    0  0.00000000000E+00  0.00000000000E+00  0.11817720857E+04  0.15449979246E+04  0.99520516696E+03 0.  0.
        3    1    3    3  502    0 -0.22841705223E+03 -0.33496013757E+03  0.14299741326E+03  0.42990802960E+03  0.10100000352E+00 0.  1.
       -3    1    3    3    0  502  0.22841705223E+03  0.33496013757E+03  0.10387746725E+04  0.11150898950E+04  0.10100000352E+00 0. -1.
</event>
<event>
 5   0  0.3640180E-03  0.9910670E+03  0.7818609E-02  0.9318397E-01
       -1   -1    0    0    0  501  0.00000000000E+00  0.00000000000E+00  0.24453084127E+03  0.24453084132E+03  0.50400001928E-02 0. -1.
        1   -1    0    0  501    0  0.00000000000E+00  0.00000000000E+00 -0.10041819269E+04  0.10041819269E+04  0.50400001928E-02 0.  1.
    10030    2    1    2    0    0  0.00000000000E+00  0.00000000000E+00 -0.75965108560E+03  0.12487127682E+04  0.99106700360E+03 0.  0.
        5    1    3    3  502    0  0.43073903420E+03  0.17499969986E+03 -0.59575609871E+03  0.75571716249E+03  0.46999998093E+01 0.  1.
       -5    1    3    3    0  502 -0.43073903420E+03 -0.17499969986E+03 -0.16389498689E+03  0.49299560572E+03  0.46999998093E+01 0. -1.
</event>
<event>
 5   0  0.3640180E-03  0.1034133E+04  0.7818609E-02  0.9271881E-01
        1   -1    0    0  501    0  0.00000000000E+00  0.00000000000E+00  0.47710638223E+03  0.47710638226E+03  0.50400001928E-02 0. -1.
       -1   -1    0    0    0  501  0.00000000000E+00  0.00000000000E+00 -0.56037351494E+03  0.56037351497E+03  0.50400001928E-02 0.  1.
    10030    2    1    2    0    0  0.00000000000E+00  0.00000000000E+00 -0.83267132712E+02  0.10374798972E+04  0.10341330290E+04 0.  0.
        5    1    3    3  502    0 -0.45629659509E+03  0.21854833122E+03  0.65321666571E+02  0.51015582511E+03  0.46999998093E+01 0.  1.
       -5    1    3    3    0  502  0.45629659509E+03 -0.21854833122E+03 -0.14858879928E+03  0.52732407212E+03  0.46999998093E+01 0. -1.
</event>
<event>
 5   0  0.6199539E-03  0.9958432E+03  0.7818609E-02  0.9313116E-01
        2   -1    0    0  501    0  0.00000000000E+00  0.00000000000E+00  0.10176858811E+04  0.10176858811E+04  0.25500000920E-02 0.  1.
       -2   -1    0    0    0  501  0.00000000000E+00  0.00000000000E+00 -0.24361731556E+03  0.24361731557E+03  0.25500000920E-02 0. -1.
    10030    2    1    2    0    0  0.00000000000E+00  0.00000000000E+00  0.77406856552E+03  0.12613031966E+04  0.99584316523E+03 0.  0.
        2    1    3    3  502    0  0.45135437618E+03 -0.85249202847E+02  0.14361022841E+03  0.48126094501E+03  0.25500000920E-02 0. -1.
       -2    1    3    3    0  502 -0.45135437618E+03  0.85249202847E+02  0.63045833711E+03  0.78004225163E+03  0.25500000920E-02 0.  1.
</event>
<event>
 5   0  0.3640180E-03  0.1009163E+04  0.7818609E-02  0.9298551E-01
        1   -1    0    0  501    0  0.00000000000E+00  0.00000000000E+00  0.10622819513E+04  0.10622819513E+04  0.50400001928E-02 0.  1.
       -1   -1    0    0    0  501  0.00000000000E+00  0.00000000000E+00 -0.23967516208E+03  0.23967516214E+03  0.50400001928E-02 0. -1.
    10030    2    1    2    0    0  0.00000000000E+00  0.00000000000E+00  0.82260678920E+03  0.13019571134E+04  0.10091632155E+04 0.  0.
        5    1    3    3  502    0  0.31247007800E+03  0.10262670088E+03  0.90495630789E+03  0.96287995023E+03  0.46999998093E+01 0.  1.
       -5    1    3    3    0  502 -0.31247007800E+03 -0.10262670088E+03 -0.82349518691E+02  0.33907716320E+03  0.46999998093E+01 0. -1.
</event>
<event>
 5   0  0.3608845E-03  0.9995218E+03  0.7818609E-02  0.9309069E-01
        1   -1    0    0  501    0  0.00000000000E+00  0.00000000000E+00  0.76398434924E+03  0.76398434925E+03  0.50400001928E-02 0. -1.
       -1   -1    0    0    0  501  0.00000000000E+00  0.00000000000E+00 -0.32691891955E+03  0.32691891959E+03  0.50400001928E-02 0.  1.
    10030    2    1    2    0    0  0.00000000000E+00  0.00000000000E+00  0.43706542968E+03  0.10909032688E+04  0.99952176172E+03 0.  0.
        1    1    3    3  502    0  0.42377573089E+03  0.18072506038E+03  0.42992439976E+03  0.63014475089E+03  0.50400001928E-02 0. -1.
       -1    1    3    3    0  502 -0.42377573089E+03 -0.18072506038E+03  0.71410299265E+01  0.46075851796E+03  0.50400001928E-02 0.  1.
</event>
<event>
 5   0  0.6199539E-03  0.1015390E+04  0.7818609E-02  0.9291825E-01
        2   -1    0    0  501    0  0.00000000000E+00  0.00000000000E+00  0.11166890341E+04  0.11166890341E+04  0.25500000920E-02 0. -1.
       -2   -1    0    0    0  501  0.00000000000E+00  0.00000000000E+00 -0.23082002740E+03  0.23082002742E+03  0.25500000920E-02 0.  1.
    10030    2    1    2    0    0  0.00000000000E+00  0.00000000000E+00  0.88586900671E+03  0.13475090615E+04  0.10153899615E+04 0.  0.
        2    1    3    3  502    0  0.28519875014E+03  0.22862373018E+03 -0.24657464242E+02  0.36635382846E+03  0.25500000920E-02 0.  1.
       -2    1    3    3    0  502 -0.28519875014E+03 -0.22862373018E+03  0.91052647095E+03  0.98115523307E+03  0.25500000920E-02 0. -1.
</event>
<event>
 5   0  0.3643002E-03  0.1003052E+04  0.7818609E-02  0.9305204E-01
        1   -1    0    0  501    0  0.00000000000E+00  0.00000000000E+00  0.14597760382E+04  0.14597760383E+04  0.50400001928E-02 0. -1.
       -1   -1    0    0    0  501  0.00000000000E+00  0.00000000000E+00 -0.17230603468E+03  0.17230603476E+03  0.50400001928E-02 0.  1.
    10030    2    1    2    0    0  0.00000000000E+00  0.00000000000E+00  0.12874700036E+04  0.16320820730E+04  0.10030517848E+04 0.  0.
        2    1    3    3  502    0 -0.14936851941E+03 -0.38583733732E+03  0.18252047997E+03  0.45221137876E+03  0.25500000920E-02 0.  1.
       -2    1    3    3    0  502  0.14936851941E+03  0.38583733732E+03  0.11049495236E+04  0.11798706942E+04  0.25500000920E-02 0. -1.
</event>
<event>
 5   0  0.3643002E-03  0.9935533E+03  0.7818609E-02  0.9315644E-01
        1   -1    0    0  501    0  0.00000000000E+00  0.00000000000E+00  0.92114311506E+03  0.92114311507E+03  0.50400001928E-02 0. -1.
       -1   -1    0    0    0  501  0.00000000000E+00  0.00000000000E+00 -0.26791391439E+03  0.26791391444E+03  0.50400001928E-02 0.  1.
    10030    2    1    2    0    0  0.00000000000E+00  0.00000000000E+00  0.65322920067E+03  0.11890570295E+04  0.99355333567E+03 0.  0.
        2    1    3    3  502    0 -0.33914234258E+03 -0.25189902134E+03  0.13809357047E+02  0.42268350315E+03  0.25500000920E-02 0. -1.
       -2    1    3    3    0  502  0.33914234258E+03  0.25189902134E+03  0.63941984362E+03  0.76637352636E+03  0.25500000920E-02 0.  1.
</event>
<event>
 5   0  0.3569359E-03  0.1046052E+04  0.7818609E-02  0.9259430E-01
       -1   -1    0    0    0  501  0.00000000000E+00  0.00000000000E+00  0.19643787569E+03  0.19643787576E+03  0.50400001928E-02 0.  1.
        1   -1    0    0  501    0  0.00000000000E+00  0.00000000000E+00 -0.13925837032E+04  0.13925837033E+04  0.50400001928E-02 0. -1.
    10030    2    1    2    0    0  0.00000000000E+00  0.00000000000E+00 -0.11961458276E+04  0.15890215790E+04  0.10460519766E+04 0.  0.
        4    1    3    3  502    0  0.36965885956E+02 -0.19604635363E+01  0.19444306486E+03  0.19793948195E+03  0.12699999809E+01 0.  1.
       -4    1    3    3    0  502 -0.36965885956E+02  0.19604635363E+01 -0.13905888924E+04  0.13910820971E+04  0.12699999809E+01 0. -1.
</event>
<event>
 5   0  0.3569359E-03  0.9827622E+03  0.7818609E-02  0.9327656E-01
       -1   -1    0    0    0  501  0.00000000000E+00  0.00000000000E+00  0.10101697630E+04  0.10101697630E+04  0.50400001928E-02 0.  1.
        1   -1    0    0  501    0  0.00000000000E+00  0.00000000000E+00 -0.23902455921E+03  0.23902455926E+03  0.50400001928E-02 0. -1.
    10030    2    1    2    0    0  0.00000000000E+00  0.00000000000E+00  0.77114520378E+03  0.12491943223E+04  0.98276219375E+03 0.  0.
        4    1    3    3  502    0  0.13881367083E+03  0.16816804731E+03 -0.17415276770E+03  0.27907082747E+03  0.12699999809E+01 0. -1.
       -4    1    3    3    0  502 -0.13881367083E+03 -0.16816804731E+03  0.94529797149E+03  0.97012349479E+03  0.12699999809E+01 0.  1.
</event>
<event>
 5   0  0.3640180E-03  0.1013675E+04  0.7818609E-02  0.9293673E-01
       -1   -1    0    0    0  501  0.00000000000E+00  0.00000000000E+00  0.63427371471E+03  0.63427371473E+03  0.50400001928E-02 0. -1.
        1   -1    0    0  501    0  0.00000000000E+00  0.00000000000E+00 -0.40500505169E+03  0.40500505173E+03  0.50400001928E-02 0.  1.
    10030    2    1    2    0    0  0.00000000000E+00  0.00000000000E+00  0.22926866302E+03  0.10392787665E+04  0.10136746197E+04 0.  0.
        5    1    3    3  502    0 -0.18340985547E+03 -0.96415344299E+02  0.58883936007E+03  0.62425073141E+03  0.46999998093E+01 0. -1.
       -5    1    3    3    0  502  0.18340985547E+03  0.96415344299E+02 -0.35957069705E+03  0.41502803505E+03  0.46999998093E+01 0.  1.
</event>
<event>
 5   0  0.3466598E-03  0.1007283E+04  0.7818609E-02  0.9300593E-01
       -1   -1    0    0    0  501  0.00000000000E+00  0.00000000000E+00  0.37767362345E+03  0.37767362348E+03  0.50400001928E-02 0.  1.
        1   -1    0    0  501    0  0.00000000000E+00  0.00000000000E+00 -0.67162448790E+03  0.67162448792E+03  0.50400001928E-02 0. -1.
    10030    2    1    2    0    0  0.00000000000E+00  0.00000000000E+00 -0.29395086445E+03  0.10492981114E+04  0.10072831855E+04 0.  0.
        3    1    3    3  502    0 -0.32053242933E+02 -0.50235855659E+03 -0.13007163459E+03  0.51991361791E+03  0.10100000352E+00 0.  1.
       -3    1    3    3    0  502  0.32053242933E+02  0.50235855659E+03 -0.16387922987E+03  0.52938449349E+03  0.10100000352E+00 0. -1.
</event>
<event>
 5   0  0.6022787E-03  0.9910854E+03  0.7818609E-02  0.9318377E-01
       -2   -1    0    0    0  501  0.00000000000E+00  0.00000000000E+00  0.41398356088E+03  0.41398356089E+03  0.25500000920E-02 0.  1.
        2   -1    0    0  501    0  0.00000000000E+00  0.00000000000E+00 -0.59316985829E+03  0.59316985829E+03  0.25500000920E-02 0. -1.
    10030    2    1    2    0    0  0.00000000000E+00  0.00000000000E+00 -0.17918629740E+03  0.10071534192E+04  0.99108540530E+03 0.  0.
        5    1    3    3  502    0  0.17999144839E+02  0.39691049736E+03 -0.39049944472E+03  0.55711203402E+03  0.46999998093E+01 0. -1.
       -5    1    3    3    0  502 -0.17999144839E+02 -0.39691049736E+03  0.21131314732E+03  0.45004138516E+03  0.46999998093E+01 0.  1.
</event>
<event>
 5   0  0.3640180E-03  0.9961782E+03  0.7818609E-02  0.9312746E-01
        1   -1    0    0  501    0  0.00000000000E+00  0.00000000000E+00  0.85317833061E+03  0.85317833062E+03  0.50400001928E-02 0.  1.
       -1   -1    0    0    0  501  0.00000000000E+00  0.00000000000E+00 -0.29078652325E+03  0.29078652329E+03  0.50400001928E-02 0. -1.
    10030    2    1    2    0    0  0.00000000000E+00  0.00000000000E+00  0.56239180736E+03  0.11439648539E+04  0.99617821799E+03 0.  0.
        5    1    3    3  502    0  0.12165938862E+03  0.43310156482E+03  0.35725553221E+02  0.45130519323E+03  0.46999998093E+01 0. -1.
       -5    1    3    3    0  502 -0.12165938862E+03 -0.43310156482E+03  0.52666625414E+03  0.69265966068E+03  0.46999998093E+01 0.  1.
</event>
<event>
 5   0  0.6606947E-03  0.9993028E+03  0.7818609E-02  0.9309310E-01
       -2   -1    0    0    0  501  0.00000000000E+00  0.00000000000E+00  0.20677729988E+03  0.20677729990E+03  0.25500000920E-02 0. -1.
        2   -1    0    0  501    0  0.00000000000E+00  0.00000000000E+00 -0.12073448376E+04  0.12073448376E+04  0.25500000920E-02 0.  1.
    10030    2    1    2    0    0  0.00000000000E+00  0.00000000000E+00 -0.10005675377E+04  0.14141221375E+04  0.99930276803E+03 0.  0.
        1    1    3    3  502    0 -0.41360329872E+03  0.15712742330E+03 -0.17176270443E+03  0.47461473062E+03  0.50400001928E-02 0. -1.
       -1    1    3    3    0  502  0.41360329872E+03 -0.15712742330E+03 -0.82880483325E+03  0.93950740684E+03  0.50400001928E-02 0.  1.
</event>
<event>
 5   0  0.3466598E-03  0.9976235E+03  0.7818609E-02  0.9311155E-01
        1   -1    0    0  501    0  0.00000000000E+00  0.00000000000E+00  0.72575551824E+03  0.72575551826E+03  0.50400001928E-02 0.  1.
       -1   -1    0    0    0  501  0.00000000000E+00  0.00000000000E+00 -0.34283332031E+03  0.34283332035E+03  0.50400001928E-02 0. -1.
    10030    2    1    2    0    0  0.00000000000E+00  0.00000000000E+00  0.38292219793E+03  0.10685888386E+04  0.99762352435E+03 0.  0.
        3    1    3    3  502    0  0.48149054216E+03  0.19052848708E+02  0.32953779973E+03  0.58377335061E+03  0.10100000352E+00 0.  1.
       -3    1    3    3    0  502 -0.48149054216E+03 -0.19052848708E+02  0.53384398195E+02  0.48481548800E+03  0.10100000352E+00 0. -1.
</event>
<event>
 5   0  0.3643002E-03  0.9998355E+03  0.7818609E-02  0.9308725E-01
       -1   -1    0    0    0  501  0.00000000000E+00  0.00000000000E+00  0.23643919325E+03  0.23643919330E+03  0.50400001928E-02 0.  1.
        1   -1    0    0  501    0  0.00000000000E+00  0.00000000000E+00 -0.10570065410E+04  0.10570065410E+04  0.50400001928E-02 0. -1.
    10030    2    1    2    0    0  0.00000000000E+00  0.00000000000E+00 -0.82056734779E+03  0.12934457343E+04  0.99983553420E+03 0.  0.
        2    1    3    3  502    0  0.48991834685E+02  0.25175116325E+03  0.14484345029E+03  0.29454791319E+03  0.25500000920E-02 0.  1.
       -2    1    3    3    0  502 -0.48991834685E+02 -0.25175116325E+03 -0.96541079808E+03  0.99889782116E+03  0.25500000920E-02 0. -1.
</event>
<event>
 5   0  0.2417750E-03  0.1011294E+04  0.7818609E-02  0.9296243E-01
       -3   -1    0    0    0  501  0.00000000000E+00  0.00000000000E+00  0.74845589471E+03  0.74845590152E+03  0.10100000352E+00 0.  1.
        3   -1    0    0  501    0  0.00000000000E+00  0.00000000000E+00 -0.34160873548E+03  0.34160875041E+03  0.10100000352E+00 0. -1.
    10030    2    1    2    0    0  0.00000000000E+00  0.00000000000E+00  0.40684715923E+03  0.10900646519E+04  0.10112943856E+04 0.  0.
        1    1    3    3  502    0  0.49664758462E+03  0.72641219033E+02  0.13747364547E+03  0.52041769112E+03  0.50400001928E-02 0. -1.
       -1    1    3    3    0  502 -0.49664758462E+03 -0.72641219033E+02  0.26937351376E+03  0.56964696080E+03  0.50400001928E-02 0.  1.
</event>
<event>
 5   0  0.6606947E-03  0.1120236E+04  0.7818609E-02  0.9185690E-01
       -2   -1    0    0    0  501  0.00000000000E+00  0.00000000000E+00  0.44981718816E+03  0.44981718817E+03  0.25500000920E-02 0. -1.
        2   -1    0    0  501    0  0.00000000000E+00  0.00000000000E+00 -0.69746549103E+03  0.69746549104E+03  0.25500000920E-02 0.  1.
    10030    2    1    2    0    0  0.00000000000E+00  0.00000000000E+00 -0.24764830287E+03  0.11472826792E+04  0.11202356288E+04 0.  0.
        1    1    3    3  502    0  0.51232761635E+03  0.22451156432E+03 -0.94019324022E+02  0.56720777701E+03  0.50400001928E-02 0.  1.
       -1    1    3    3    0  502 -0.51232761635E+03 -0.22451156432E+03 -0.15362897885E+03  0.58007490219E+03  0.50400001928E-02 0. -1.
</event>
<event>
 5   0  0.6022787E-03  0.9963672E+03  0.7818609E-02  0.9312538E-01
       -2   -1    0    0    0  501  0.00000000000E+00  0.00000000000E+00  0.34665638679E+03  0.34665638680E+03  0.25500000920E-02 0. -1.
        2   -1    0    0  501    0  0.00000000000E+00  0.00000000000E+00 -0.71594495315E+03  0.71594495316E+03  0.25500000920E-02 0.  1.
    10030    2    1    2    0    0  0.00000000000E+00  0.00000000000E+00 -0.36928856636E+03  0.10626013400E+04  0.99636718254E+03 0.  0.
        5    1    3    3  502    0  0.47989498601E+03 -0.13312697812E+03 -0.19738903372E+03  0.53572988579E+03  0.46999998093E+01 0. -1.
       -5    1    3    3    0  502 -0.47989498601E+03  0.13312697812E+03 -0.17189953265E+03  0.52687145417E+03  0.46999998093E+01 0.  1.
</event>
<event>
 5   0  0.6606947E-03  0.9938774E+03  0.7818609E-02  0.9315286E-01
       -2   -1    0    0    0  501  0.00000000000E+00  0.00000000000E+00  0.34644923357E+03  0.34644923357E+03  0.25500000920E-02 0. -1.
        2   -1    0    0  501    0  0.00000000000E+00  0.00000000000E+00 -0.71279725609E+03  0.71279725610E+03  0.25500000920E-02 0.  1.
    10030    2    1    2    0    0  0.00000000000E+00  0.00000000000E+00 -0.36634802253E+03  0.10592464897E+04  0.99387738292E+03 0.  0.
        1    1    3    3  502    0 -0.30358172289E+03 -0.27926368892E+03  0.11217747448E+03  0.42747380766E+03  0.50400001928E-02 0. -1.
       -1    1    3    3    0  502  0.30358172289E+03  0.27926368892E+03 -0.47852549701E+03  0.63177268202E+03  0.50400001928E-02 0.  1.
</event>
<event>
 5   0  0.6376961E-03  0.9986073E+03  0.7818609E-02  0.9310074E-01
        2   -1    0    0  501    0  0.00000000000E+00  0.00000000000E+00  0.15408531029E+04  0.15408531029E+04  0.25500000920E-02 0. -1.
       -2   -1    0    0    0  501  0.00000000000E+00  0.00000000000E+00 -0.16179615949E+03  0.16179615951E+03  0.25500000920E-02 0.  1.
    10030    2    1    2    0    0  0.00000000000E+00  0.00000000000E+00  0.13790569434E+04  0.17026492624E+04  0.99860725894E+03 0.  0.
        3    1    3    3  502    0  0.33513253248E+03  0.36930508737E+03  0.73143330881E+03  0.88526535984E+03  0.10100000352E+00 0.  1.
       -3    1    3    3    0  502 -0.33513253248E+03 -0.36930508737E+03  0.64762363460E+03  0.81738390257E+03  0.10100000352E+00 0. -1.
</event>
<event>
 5   0  0.6199539E-03  0.9692480E+03  0.7818609E-02  0.9342931E-01
       -2   -1    0    0    0  501  0.00000000000E+00  0.00000000000E+00  0.14103063039E+03  0.14103063041E+03  0.25500000920E-02 0.  1.
        2   -1    0    0  501    0  0.00000000000E+00  0.00000000000E+00 -0.16653149854E+04  0.16653149854E+04  0.25500000920E-02 0. -1.
    10030    2    1    2    0    0  0.00000000000E+00  0.00000000000E+00 -0.15242843550E+04  0.18063456158E+04  0.96924800171E+03 0.  0.
        2    1    3    3  502    0  0.26848117288E+03  0.16569709996E+03 -0.14477114552E+04  0.14816902938E+04  0.25500000920E-02 0. -1.
       -2    1    3    3    0  502 -0.26848117288E+03 -0.16569709996E+03 -0.76572899789E+02  0.32465532202E+03  0.25500000920E-02 0.  1.
</event>
<event>
 5   0  0.6606947E-03  0.1026928E+04  0.7818609E-02  0.9279494E-01
       -2   -1    0    0    0  501  0.00000000000E+00  0.00000000000E+00  0.19772802600E+03  0.19772802601E+03  0.25500000920E-02 0. -1.
        2   -1    0    0  501    0  0.00000000000E+00  0.00000000000E+00 -0.13333739981E+04  0.13333739981E+04  0.25500000920E-02 0.  1.
    10030    2    1    2    0    0  0.00000000000E+00  0.00000000000E+00 -0.11356459721E+04  0.15311020241E+04  0.10269282518E+04 0.  0.
        1    1    3    3  502    0  0.22162330111E+03 -0.30928550474E+03 -0.53776988148E+02  0.38427382882E+03  0.50400001928E-02 0.  1.
       -1    1    3    3    0  502 -0.22162330111E+03  0.30928550474E+03 -0.10818689839E+04  0.11468281953E+04  0.50400001928E-02 0. -1.
</event>
<event>
 5   0  0.3640180E-03  0.9978706E+03  0.7818609E-02  0.9310883E-01
       -1   -1    0    0    0  501  0.00000000000E+00  0.00000000000E+00  0.19276428800E+03  0.19276428807E+03  0.50400001928E-02 0. -1.
        1   -1    0    0  501    0  0.00000000000E+00  0.00000000000E+00 -0.12914034014E+04  0.12914034014E+04  0.50400001928E-02 0.  1.
    10030    2    1    2    0    0  0.00000000000E+00  0.00000000000E+00 -0.10986391134E+04  0.14841676895E+04  0.99787064743E+03 0.  0.
        5    1    3    3  502    0 -0.16108831157E+03  0.44503934781E+03 -0.78404012261E+03  0.91583321030E+03  0.46999998093E+01 0.  1.
       -5    1    3    3    0  502  0.16108831157E+03 -0.44503934781E+03 -0.31459899079E+03  0.56833447918E+03  0.46999998093E+01 0. -1.
</event>
<event>
 5   0  0.3640180E-03  0.9778092E+03  0.7818609E-02  0.9333224E-01
       -1   -1    0    0    0  501  0.00000000000E+00  0.00000000000E+00  0.29233751628E+03  0.29233751632E+03  0.50400001928E-02 0. -1.
        1   -1    0    0  501    0  0.00000000000E+00  0.00000000000E+00 -0.81764300525E+03  0.81764300527E+03  0.50400001928E-02 0.  1.
    10030    2    1    2    0    0  0.00000000000E+00  0.00000000000E+00 -0.52530548897E+03  0.11099805216E+04  0.97780923578E+03 0.  0.
        5    1    3    3  502    0  0.21120909974E+03 -0.26399947067E+03 -0.66351535308E+03  0.74470109312E+03  0.46999998093E+01 0.  1.
       -5    1    3    3    0  502 -0.21120909974E+03  0.26399947067E+03  0.13820986411E+03  0.36527942847E+03  0.46999998093E+01 0. -1.
</event>
<event>
 5   0  0.6199539E-03  0.1016263E+04  0.7818609E-02  0.9290886E-01
       -2   -1    0    0    0  501  0.00000000000E+00  0.00000000000E+00  0.15158047409E+03  0.15158047411E+03  0.25500000920E-02 0. -1.
        2   -1    0    0  501    0  0.00000000000E+00  0.00000000000E+00 -0.17033696657E+04  0.17033696657E+04  0.25500000920E-02 0.  1.
    10030    2    1    2    0    0  0.00000000000E+00  0.00000000000E+00 -0.15517891916E+04  0.18549501398E+04  0.10162629217E+04 0.  0.
        2    1    3    3  502    0 -0.26259557178E+03  0.34697828862E+03 -0.12548216232E+04  0.13281293887E+04  0.25500000920E-02 0.  1.
       -2    1    3    3    0  502  0.26259557178E+03 -0.34697828862E+03 -0.29696756840E+03  0.52682075109E+03  0.25500000920E-02 0. -1.
</event>
<event>
 5   0  0.3466598E-03  0.1001808E+04  0.7818609E-02  0.9306564E-01
       -1   -1    0    0    0  501  0.00000000000E+00  0.00000000000E+00  0.21810908492E+03  0.21810908498E+03  0.50400001928E-02 0. -1.
        1   -1    0    0  501    0  0.00000000000E+00  0.00000000000E+00 -0.11503640699E+04  0.11503640699E+04  0.50400001928E-02 0.  1.
    10030    2    1    2    0    0  0.00000000000E+00  0.00000000000E+00 -0.93225498496E+03  0.13684731549E+04  0.10018080747E+04 0.  0.
        3    1    3    3  502    0  0.15003287083E+03 -0.14181295048E+03 -0.10895461296E+04  0.11089326192E+04  0.10100000352E+00 0.  1.
       -3    1    3    3    0  502 -0.15003287083E+03  0.14181295048E+03  0.15729114465E+03  0.25954053564E+03  0.10100000352E+00 0. -1.
</event>
<event>
 5   0  0.3640180E-03  0.1060375E+04  0.7818609E-02  0.9244697E-01
       -1   -1    0    0    0  501  0.00000000000E+00  0.00000000000E+00  0.58914118338E+03  0.58914118340E+03  0.50400001928E-02 0.  1.
        1   -1    0    0  501    0  0.00000000000E+00  0.00000000000E+00 -0.47713348169E+03  0.47713348172E+03  0.50400001928E-02 0. -1.
    10030    2    1    2    0    0  0.00000000000E+00  0.00000000000E+00  0.11200770169E+03  0.10662746651E+04  0.10603753752E+04 0.  0.
        5    1    3    3  502    0 -0.23502271273E+03 -0.57623823642E+02 -0.41834153314E+03  0.48330933045E+03  0.46999998093E+01 0. -1.
       -5    1    3    3    0  502  0.23502271273E+03  0.57623823642E+02  0.53034923483E+03  0.58296533467E+03  0.46999998093E+01 0.  1.
</event>
<event>
 5   0  0.2417750E-03  0.9434073E+03  0.7818609E-02  0.9372890E-01
       -4   -1    0    0    0  501  0.00000000000E+00  0.00000000000E+00  0.30161422315E+03  0.30161689691E+03  0.12699999809E+01 0.  1.
        4   -1    0    0  501    0  0.00000000000E+00  0.00000000000E+00 -0.73770511746E+03  0.73770621065E+03  0.12699999809E+01 0. -1.
    10030    2    1    2    0    0  0.00000000000E+00  0.00000000000E+00 -0.43609089431E+03  0.10393231076E+04  0.94340725766E+03 0.  0.
        4    1    3    3  502    0  0.33241116333E+03  0.33011817716E+03 -0.15742850410E+03  0.49422721415E+03  0.12699999809E+01 0.  1.
       -4    1    3    3    0  502 -0.33241116333E+03 -0.33011817716E+03 -0.27866239021E+03  0.54509589341E+03  0.12699999809E+01 0. -1.
</event>
<event>
 5   0  0.6376961E-03  0.1004156E+04  0.7818609E-02  0.9303998E-01
        2   -1    0    0  501    0  0.00000000000E+00  0.00000000000E+00  0.12405882265E+04  0.12405882265E+04  0.25500000920E-02 0. -1.
       -2   -1    0    0    0  501  0.00000000000E+00  0.00000000000E+00 -0.20319576211E+03  0.20319576213E+03  0.25500000920E-02 0.  1.
    10030    2    1    2    0    0  0.00000000000E+00  0.00000000000E+00  0.10373924644E+04  0.14437839886E+04  0.10041559045E+04 0.  0.
        3    1    3    3  502    0 -0.48205173319E+03 -0.67552747690E+02  0.69564025503E+03  0.84903040099E+03  0.10100000352E+00 0. -1.
       -3    1    3    3    0  502  0.48205173319E+03  0.67552747690E+02  0.34175220933E+03  0.59475358761E+03  0.10100000352E+00 0.  1.
</event>
<event>
 5   0  0.3640180E-03  0.9957896E+03  0.7818609E-02  0.9313175E-01
       -1   -1    0    0    0  501  0.00000000000E+00  0.00000000000E+00  0.12940329604E+03  0.12940329614E+03  0.50400001928E-02 0. -1.
        1   -1    0    0  501    0  0.00000000000E+00  0.00000000000E+00 -0.19157102353E+04  0.19157102353E+04  0.50400001928E-02 0.  1.
    10030    2    1    2    0    0  0.00000000000E+00  0.00000000000E+00 -0.17863069392E+04  0.20451135314E+04  0.99578957377E+03 0.  0.
        5    1    3    3  502    0  0.47107703708E+02  0.19646853139E+03 -0.18276893267E+04  0.18388282640E+04  0.46999998093E+01 0.  1.
       -5    1    3    3    0  502 -0.47107703708E+02 -0.19646853139E+03  0.41382387441E+02  0.20628526744E+03  0.46999998093E+01 0. -1.
</event>
<event>
 5   0  0.6199539E-03  0.8157888E+03  0.7818609E-02  0.9537441E-01
        2   -1    0    0  501    0  0.00000000000E+00  0.00000000000E+00  0.13111556387E+04  0.13111556387E+04  0.25500000920E-02 0. -1.
       -2   -1    0    0    0  501  0.00000000000E+00  0.00000000000E+00 -0.12689404681E+03  0.12689404684E+03  0.25500000920E-02 0.  1.
    10030    2    1    2    0    0  0.00000000000E+00  0.00000000000E+00  0.11842615919E+04  0.14380496855E+04  0.81578880850E+03 0.  0.
        2    1    3    3  502    0 -0.10507590034E+01 -0.56487864892E+02 -0.11996334651E+03  0.13260161193E+03  0.25500000920E-02 0.  1.
       -2    1    3    3    0  502  0.10507590034E+01  0.56487864892E+02  0.13042249384E+04  0.13054480736E+04  0.25500000920E-02 0. -1.
</event>
<event>
 5   0  0.3608845E-03  0.1000733E+04  0.7818609E-02  0.9307741E-01
        1   -1    0    0  501    0  0.00000000000E+00  0.00000000000E+00  0.14192740098E+04  0.14192740098E+04  0.50400001928E-02 0. -1.
       -1   -1    0    0    0  501  0.00000000000E+00  0.00000000000E+00 -0.17640478238E+03  0.17640478245E+03  0.50400001928E-02 0.  1.
    10030    2    1    2    0    0  0.00000000000E+00  0.00000000000E+00  0.12428692274E+04  0.15956787923E+04  0.10007331770E+04 0.  0.
        1    1    3    3  502    0  0.19565724027E+03 -0.45805398778E+03  0.69742954795E+03  0.85703161306E+03  0.50400001928E-02 0. -1.
       -1    1    3    3    0  502 -0.19565724027E+03  0.45805398778E+03  0.54543967948E+03  0.73864717922E+03  0.50400001928E-02 0.  1.
</event>
<event>
 5   0  0.2417750E-03  0.9995536E+03  0.7818609E-02  0.9309035E-01
        3   -1    0    0  501    0  0.00000000000E+00  0.00000000000E+00  0.52623740515E+03  0.52623741484E+03  0.10100000352E+00 0.  1.
       -3   -1    0    0    0  501  0.00000000000E+00  0.00000000000E+00 -0.47464663777E+03  0.47464664852E+03  0.10100000352E+00 0. -1.
    10030    2    1    2    0    0  0.00000000000E+00  0.00000000000E+00  0.51590767374E+02  0.10008840634E+04  0.99955355084E+03 0.  0.
        4    1    3    3  502    0  0.29962132106E+03 -0.38724185940E+03 -0.74567862041E+02  0.49526878829E+03  0.12699999809E+01 0.  1.
       -4    1    3    3    0  502 -0.29962132106E+03  0.38724185940E+03  0.12615862942E+03  0.50561527507E+03  0.12699999809E+01 0. -1.
</event>
<event>
 5   0  0.6376961E-03  0.1006593E+04  0.7818609E-02  0.9301343E-01
       -2   -1    0    0    0  501  0.00000000000E+00  0.00000000000E+00  0.40786261327E+03  0.40786261328E+03  0.25500000920E-02 0.  1.
        2   -1    0    0  501    0  0.00000000000E+00  0.00000000000E+00 -0.62106097858E+03  0.62106097859E+03  0.25500000920E-02 0. -1.
    10030    2    1    2    0    0  0.00000000000E+00  0.00000000000E+00 -0.21319836531E+03  0.10289235919E+04  0.10065933712E+04 0.  0.
        3    1    3    3  502    0  0.20476451235E+03  0.42948667453E+03 -0.27431285852E+03  0.54921294929E+03  0.10100000352E+00 0. -1.
       -3    1    3    3    0  502 -0.20476451235E+03 -0.42948667453E+03  0.61114493209E+02  0.47971064258E+03  0.10100000352E+00 0.  1.
</event>
<event>
 5   0  0.3643002E-03  0.9983421E+03  0.7818609E-02  0.9310365E-01
       -1   -1    0    0    0  501  0.00000000000E+00  0.00000000000E+00  0.31715926394E+03  0.31715926398E+03  0.50400001928E-02 0. -1.
        1   -1    0    0  501    0  0.00000000000E+00  0.00000000000E+00 -0.78563607297E+03  0.78563607298E+03  0.50400001928E-02 0.  1.
    10030    2    1    2    0    0  0.00000000000E+00  0.00000000000E+00 -0.46847680903E+03  0.11027953370E+04  0.99834214307E+03 0.  0.
        2    1    3    3  502    0  0.94113206988E+01  0.42916022912E+03  0.47180672732E+02  0.43184845850E+03  0.25500000920E-02 0. -1.
       -2    1    3    3    0  502 -0.94113206988E+01 -0.42916022912E+03 -0.51565748176E+03  0.67094687846E+03  0.25500000920E-02 0.  1.
</event>
<event>
 5   0  0.3466598E-03  0.9963692E+03  0.7818609E-02  0.9312536E-01
        1   -1    0    0  501    0  0.00000000000E+00  0.00000000000E+00  0.94812784569E+03  0.94812784570E+03  0.50400001928E-02 0. -1.
       -1   -1    0    0    0  501  0.00000000000E+00  0.00000000000E+00 -0.26176629825E+03  0.26176629830E+03  0.50400001928E-02 0.  1.
    10030    2    1    2    0    0  0.00000000000E+00  0.00000000000E+00  0.68636154743E+03  0.12098941440E+04  0.99636924174E+03 0.  0.
        3    1    3    3  502    0 -0.10181174782E+03 -0.45154431512E+03  0.11950495836E+03  0.47805788958E+03  0.10100000352E+00 0.  1.
       -3    1    3    3    0  502  0.10181174782E+03  0.45154431512E+03  0.56685658907E+03  0.73183625442E+03  0.10100000352E+00 0. -1.
</event>
<event>
 5   0  0.3640180E-03  0.9963301E+03  0.7818609E-02  0.9312579E-01
       -1   -1    0    0    0  501  0.00000000000E+00  0.00000000000E+00  0.36300915623E+03  0.36300915626E+03  0.50400001928E-02 0. -1.
        1   -1    0    0  501    0  0.00000000000E+00  0.00000000000E+00 -0.68364225894E+03  0.68364225896E+03  0.50400001928E-02 0.  1.
    10030    2    1    2    0    0  0.00000000000E+00  0.00000000000E+00 -0.32063310271E+03  0.10466514152E+04  0.99633006500E+03 0.  0.
        5    1    3    3  502    0 -0.41760826406E+03 -0.26852655711E+03 -0.11773362322E+03  0.51028077577E+03  0.46999998093E+01 0.  1.
       -5    1    3    3    0  502  0.41760826406E+03  0.26852655711E+03 -0.20289947950E+03  0.53637063945E+03  0.46999998093E+01 0. -1.
</event>
<event>
 5   0  0.3643002E-03  0.9206777E+03  0.7818609E-02  0.9400096E-01
        1   -1    0    0  501    0  0.00000000000E+00  0.00000000000E+00  0.55697146686E+03  0.55697146688E+03  0.50400001928E-02 0. -1.
       -1   -1    0    0    0  501  0.00000000000E+00  0.00000000000E+00 -0.38047164573E+03  0.38047164576E+03  0.50400001928E-02 0.  1.
    10030    2    1    2    0    0  0.00000000000E+00  0.00000000000E+00  0.17649982113E+03  0.93744311264E+03  0.92067768658E+03 0.  0.
        2    1    3    3  502    0  0.45479148587E+03 -0.29618913886E+02  0.15423175641E+03  0.48114447973E+03  0.25500000920E-02 0. -1.
       -2    1    3    3    0  502 -0.45479148587E+03  0.29618913886E+02  0.22268064721E+02  0.45629863291E+03  0.25500000920E-02 0.  1.
</event>
<event>
 5   0  0.6360455E-03  0.1011016E+04  0.7818609E-02  0.9296545E-01
        2   -1    0    0  501    0  0.00000000000E+00  0.00000000000E+00  0.20466622876E+04  0.20466622876E+04  0.25500000920E-02 0. -1.
       -2   -1    0    0    0  501  0.00000000000E+00  0.00000000000E+00 -0.12485605103E+03  0.12485605105E+03  0.25500000920E-02 0.  1.
    10030    2    1    2    0    0  0.00000000000E+00  0.00000000000E+00  0.19218062365E+04  0.21715183386E+04  0.10110156696E+04 0.  0.
        4    1    3    3  502    0  0.48158445349E+03 -0.63708711190E+02  0.12612515266E+04  0.13515692405E+04  0.12699999809E+01 0. -1.
       -4    1    3    3    0  502 -0.48158445349E+03  0.63708711190E+02  0.66055470993E+03  0.81994909808E+03  0.12699999809E+01 0.  1.
</event>
<event>
 5   0  0.3569359E-03  0.9363481E+03  0.7818609E-02  0.9381251E-01
       -1   -1    0    0    0  501  0.00000000000E+00  0.00000000000E+00  0.17643227800E+03  0.17643227807E+03  0.50400001928E-02 0.  1.
        1   -1    0    0  501    0  0.00000000000E+00  0.00000000000E+00 -0.12423289788E+04  0.12423289789E+04  0.50400001928E-02 0. -1.
    10030    2    1    2    0    0  0.00000000000E+00  0.00000000000E+00 -0.10658967008E+04  0.14187612569E+04  0.93634808019E+03 0.  0.
        4    1    3    3  502    0  0.10192718108E+03  0.45618531343E+03 -0.57278211874E+03  0.73930721550E+03  0.12699999809E+01 0. -1.
       -4    1    3    3    0  502 -0.10192718108E+03 -0.45618531343E+03 -0.49311458210E+03  0.67945404143E+03  0.12699999809E+01 0.  1.
</event>
<event>
 5   0  0.3466598E-03  0.1002525E+04  0.7818609E-02  0.9305779E-01
       -1   -1    0    0    0  501  0.00000000000E+00  0.00000000000E+00  0.78723187465E+03  0.78723187467E+03  0.50400001928E-02 0.  1.
        1   -1    0    0  501    0  0.00000000000E+00  0.00000000000E+00 -0.31917444072E+03  0.31917444076E+03  0.50400001928E-02 0. -1.
    10030    2    1    2    0    0  0.00000000000E+00  0.00000000000E+00  0.46805743393E+03  0.11064063154E+04  0.10025253979E+04 0.  0.
        3    1    3    3  502    0  0.85053048579E+02  0.48429052435E+03  0.34155629432E+03  0.59869194536E+03  0.10100000352E+00 0. -1.
       -3    1    3    3    0  502 -0.85053048579E+02 -0.48429052435E+03  0.12650113961E+03  0.50771437006E+03  0.10100000352E+00 0.  1.
</event>
<event>
 5   0  0.2417750E-03  0.1001165E+04  0.7818609E-02  0.9307268E-01
       -4   -1    0    0    0  501  0.00000000000E+00  0.00000000000E+00  0.62596296351E+03  0.62596425185E+03  0.12699999809E+01 0.  1.
        4   -1    0    0  501    0  0.00000000000E+00  0.00000000000E+00 -0.40031289043E+03  0.40031490498E+03  0.12699999809E+01 0. -1.
    10030    2    1    2    0    0  0.00000000000E+00  0.00000000000E+00  0.22565007308E+03  0.10262791568E+04  0.10011647977E+04 0.  0.
        3    1    3    3  502    0  0.20264219689E+03 -0.63661814238E+02  0.57747934089E+03  0.61530405972E+03  0.10100000352E+00 0.  1.
       -3    1    3    3    0  502 -0.20264219689E+03  0.63661814238E+02 -0.35182926781E+03  0.41097509711E+03  0.10100000352E+00 0. -1.
</event>
<event>
 5   0  0.6606947E-03  0.1004528E+04  0.7818609E-02  0.9303592E-01
       -2   -1    0    0    0  501  0.00000000000E+00  0.00000000000E+00  0.84393779913E+03  0.84393779913E+03  0.25500000920E-02 0.  1.
        2   -1    0    0  501    0  0.00000000000E+00  0.00000000000E+00 -0.29891935494E+03  0.29891935495E+03  0.25500000920E-02 0. -1.
    10030    2    1    2    0    0  0.00000000000E+00  0.00000000000E+00  0.54501844419E+03  0.11428571541E+04  0.10045284317E+04 0.  0.
        1    1    3    3  502    0  0.12505019094E+03  0.20102490397E+03 -0.23145791424E+03  0.33109111791E+03  0.50400001928E-02 0. -1.
       -1    1    3    3    0  502 -0.12505019094E+03 -0.20102490397E+03  0.77647635842E+03  0.81176603617E+03  0.50400001928E-02 0.  1.
</event>
<event>
 5   0  0.6376961E-03  0.9973939E+03  0.7818609E-02  0.9311408E-01
       -2   -1    0    0    0  501  0.00000000000E+00  0.00000000000E+00  0.21069927122E+03  0.21069927123E+03  0.25500000920E-02 0. -1.
        2   -1    0    0  501    0  0.00000000000E+00  0.00000000000E+00 -0.11803488924E+04  0.11803488924E+04  0.25500000920E-02 0.  1.
    10030    2    1    2    0    0  0.00000000000E+00  0.00000000000E+00 -0.96964962120E+03  0.13910481636E+04  0.99739390699E+03 0.  0.
        3    1    3    3  502    0 -0.16942184797E+03  0.84369487156E+00  0.16933075275E+03  0.23953577691E+03  0.10100000352E+00 0. -1.
       -3    1    3    3    0  502  0.16942184797E+03 -0.84369487156E+00 -0.11389803739E+04  0.11515123867E+04  0.10100000352E+00 0.  1.
</event>
<event>
 5   0  0.6376961E-03  0.9886979E+03  0.7818609E-02  0.9321028E-01
       -2   -1    0    0    0  501  0.00000000000E+00  0.00000000000E+00  0.22238028457E+03  0.22238028458E+03  0.25500000920E-02 0.  1.
        2   -1    0    0  501    0  0.00000000000E+00  0.00000000000E+00 -0.10989323197E+04  0.10989323197E+04  0.25500000920E-02 0. -1.
    10030    2    1    2    0    0  0.00000000000E+00  0.00000000000E+00 -0.87655203514E+03  0.13213126043E+04  0.98869789519E+03 0.  0.
        3    1    3    3  502    0 -0.36104030281E+03  0.28075933866E+03 -0.18752429310E+03  0.49430888846E+03  0.10100000352E+00 0.  1.
       -3    1    3    3    0  502  0.36104030281E+03 -0.28075933866E+03 -0.68902774204E+03  0.82700371584E+03  0.10100000352E+00 0. -1.
</event>
<event>
 5   0  0.3569359E-03  0.1004700E+04  0.7818609E-02  0.9303405E-01
       -1   -1    0    0    0  501  0.00000000000E+00  0.00000000000E+00  0.38328119201E+03  0.38328119204E+03  0.50400001928E-02 0.  1.
        1   -1    0    0  501    0  0.00000000000E+00  0.00000000000E+00 -0.65840864142E+03  0.65840864144E+03  0.50400001928E-02 0. -1.
    10030    2    1    2    0    0  0.00000000000E+00  0.00000000000E+00 -0.27512744942E+03  0.10416898335E+04  0.10047002517E+04 0.  0.
        4    1    3    3  502    0  0.29559763017E+03 -0.23933696787E+03 -0.47781319093E+03  0.61071040721E+03  0.12699999809E+01 0. -1.
       -4    1    3    3    0  502 -0.29559763017E+03  0.23933696787E+03  0.20268574151E+03  0.43097942627E+03  0.12699999809E+01 0.  1.
</event>
<event>
 5   0  0.6606947E-03  0.9987766E+03  0.7818609E-02  0.9309888E-01
        2   -1    0    0  501    0  0.00000000000E+00  0.00000000000E+00  0.11865140164E+04  0.11865140164E+04  0.25500000920E-02 0.  1.
       -2   -1    0    0    0  501  0.00000000000E+00  0.00000000000E+00 -0.21018602514E+03  0.21018602515E+03  0.25500000920E-02 0. -1.
    10030    2    1    2    0    0  0.00000000000E+00  0.00000000000E+00  0.97632799124E+03  0.13967000415E+04  0.99877658140E+03 0.  0.
        1    1    3    3  502    0 -0.23009299812E+03 -0.35832565510E+03  0.85295523409E+03  0.95334814956E+03  0.50400001928E-02 0.  1.
       -1    1    3    3    0  502  0.23009299812E+03  0.35832565510E+03  0.12337275715E+03  0.44335189198E+03  0.50400001928E-02 0. -1.
</event>
<event>
 5   0  0.3643002E-03  0.9993794E+03  0.7818609E-02  0.9309226E-01
       -1   -1    0    0    0  501  0.00000000000E+00  0.00000000000E+00  0.50910112481E+03  0.50910112484E+03  0.50400001928E-02 0.  1.
        1   -1    0    0  501    0  0.00000000000E+00  0.00000000000E+00 -0.49045222153E+03  0.49045222156E+03  0.50400001928E-02 0. -1.
    10030    2    1    2    0    0  0.00000000000E+00  0.00000000000E+00  0.18648903282E+02  0.99955334639E+03  0.99937936275E+03 0.  0.
        2    1    3    3  502    0 -0.23410466945E+03  0.32939290681E+03 -0.28464012926E+03  0.49429210646E+03  0.25500000920E-02 0.  1.
       -2    1    3    3    0  502  0.23410466945E+03 -0.32939290681E+03  0.30328903254E+03  0.50526123993E+03  0.25500000920E-02 0. -1.
</event>
<event>
 5   0  0.3608845E-03  0.1001131E+04  0.7818609E-02  0.9307306E-01
       -1   -1    0    0    0  501  0.00000000000E+00  0.00000000000E+00  0.12800850281E+03  0.12800850291E+03  0.50400001928E-02 0.  1.
        1   -1    0    0  501    0  0.00000000000E+00  0.00000000000E+00 -0.19574142774E+04  0.19574142774E+04  0.50400001928E-02 0. -1.
    10030    2    1    2    0    0  0.00000000000E+00  0.00000000000E+00 -0.18294057746E+04  0.20854227803E+04  0.10011307030E+04 0.  0.
        1    1    3    3  502    0 -0.14100428224E+02 -0.28448953881E+03 -0.57266800005E+02  0.29053847624E+03  0.50400001928E-02 0.  1.
       -1    1    3    3    0  502  0.14100428224E+02  0.28448953881E+03 -0.17721389745E+04  0.17948843040E+04  0.50400001928E-02 0. -1.
</event>
<event>
 5   0  0.3640180E-03  0.9988006E+03  0.7818609E-02  0.9309861E-01
       -1   -1    0    0    0  501  0.00000000000E+00  0.00000000000E+00  0.41130051354E+03  0.41130051357E+03  0.50400001928E-02 0. -1.
        1   -1    0    0  501    0  0.00000000000E+00  0.00000000000E+00 -0.60637092935E+03  0.60637092937E+03  0.50400001928E-02 0.  1.
    10030    2    1    2    0    0  0.00000000000E+00  0.00000000000E+00 -0.19507041581E+03  0.10176714429E+04  0.99880063008E+03 0.  0.
        5    1    3    3  502    0  0.39620204006E+03  0.81301160466E+02 -0.39597300123E+03  0.56604120252E+03  0.46999998093E+01 0.  1.
       -5    1    3    3    0  502 -0.39620204006E+03 -0.81301160466E+02  0.20090258542E+03  0.45163024043E+03  0.46999998093E+01 0. -1.
</event>
<event>
 5   0  0.6199539E-03  0.1047762E+04  0.7818609E-02  0.9257658E-01
       -2   -1    0    0    0  501  0.00000000000E+00  0.00000000000E+00  0.28101553501E+03  0.28101553502E+03  0.25500000920E-02 0.  1.
        2   -1    0    0  501    0  0.00000000000E+00  0.00000000000E+00 -0.97664097226E+03  0.97664097226E+03  0.25500000920E-02 0. -1.
    10030    2    1    2    0    0  0.00000000000E+00  0.00000000000E+00 -0.69562543725E+03  0.12576565073E+04  0.10477619679E+04 0.  0.
        2    1    3    3  502    0 -0.10954924742E+03 -0.28951866777E+03  0.15949985341E+03  0.34822736803E+03  0.25500000920E-02 0.  1.
       -2    1    3    3    0  502  0.10954924742E+03  0.28951866777E+03 -0.85512529066E+03  0.90942913926E+03  0.25500000920E-02 0. -1.
</event>
<event>
 5   0  0.6606947E-03  0.9993753E+03  0.7818609E-02  0.9309230E-01
        2   -1    0    0  501    0  0.00000000000E+00  0.00000000000E+00  0.41551487515E+03  0.41551487516E+03  0.25500000920E-02 0. -1.
       -2   -1    0    0    0  501  0.00000000000E+00  0.00000000000E+00 -0.60091163954E+03  0.60091163954E+03  0.25500000920E-02 0.  1.
    10030    2    1    2    0    0  0.00000000000E+00  0.00000000000E+00 -0.18539676439E+03  0.10164265147E+04  0.99937525462E+03 0.  0.
        1    1    3    3  502    0 -0.18439062228E+03 -0.35342750363E+03  0.21373415947E+03  0.45231979048E+03  0.50400001928E-02 0. -1.
       -1    1    3    3    0  502  0.18439062228E+03  0.35342750363E+03 -0.39913092386E+03  0.56410672422E+03  0.50400001928E-02 0.  1.
</event>
<event>
 5   0  0.6022787E-03  0.9856170E+03  0.7818609E-02  0.9324462E-01
       -2   -1    0    0    0  501  0.00000000000E+00  0.00000000000E+00  0.32102734042E+03  0.32102734044E+03  0.25500000920E-02 0.  1.
        2   -1    0    0  501    0  0.00000000000E+00  0.00000000000E+00 -0.75650941438E+03  0.75650941439E+03  0.25500000920E-02 0. -1.
    10030    2    1    2    0    0  0.00000000000E+00  0.00000000000E+00 -0.43548207396E+03  0.10775367548E+04  0.98561697492E+03 0.  0.
        5    1    3    3  502    0 -0.17753636582E+03 -0.11249795335E+03 -0.70502553228E+03  0.73570241393E+03  0.46999998093E+01 0. -1.
       -5    1    3    3    0  502  0.17753636582E+03  0.11249795335E+03  0.26954345832E+03  0.34183434090E+03  0.46999998093E+01 0.  1.
</event>
<event>
 5   0  0.2417750E-03  0.1000909E+04  0.7818609E-02  0.9307548E-01
        3   -1    0    0  501    0  0.00000000000E+00  0.00000000000E+00  0.10906925716E+04  0.10906925763E+04  0.10100000352E+00 0. -1.
       -3   -1    0    0    0  501  0.00000000000E+00  0.00000000000E+00 -0.22962925864E+03  0.22962928085E+03  0.10100000352E+00 0.  1.
    10030    2    1    2    0    0  0.00000000000E+00  0.00000000000E+00  0.86106331295E+03  0.13203218571E+04  0.10009094752E+04 0.  0.
        2    1    3    3  502    0  0.51228753175E+01  0.47391403032E+03  0.21850890955E+03  0.52188781893E+03  0.25500000920E-02 0.  1.
       -2    1    3    3    0  502 -0.51228753175E+01 -0.47391403032E+03  0.64255440339E+03  0.79843403818E+03  0.25500000920E-02 0. -1.
</event>
<event>
 5   0  0.2417750E-03  0.1024137E+04  0.7818609E-02  0.9282461E-01
        4   -1    0    0  501    0  0.00000000000E+00  0.00000000000E+00  0.42083460638E+03  0.42083652269E+03  0.12699999809E+01 0.  1.
       -4   -1    0    0    0  501  0.00000000000E+00  0.00000000000E+00 -0.62307675605E+03  0.62307805035E+03  0.12699999809E+01 0. -1.
    10030    2    1    2    0    0  0.00000000000E+00  0.00000000000E+00 -0.20224214967E+03  0.10439145730E+04  0.10241365869E+04 0.  0.
        3    1    3    3  502    0 -0.23060124462E+02  0.43239389651E+03 -0.37974522462E+03  0.57593636532E+03  0.10100000352E+00 0. -1.
       -3    1    3    3    0  502  0.23060124462E+02 -0.43239389651E+03  0.17750307495E+03  0.46797820771E+03  0.10100000352E+00 0.  1.
</event>
<event>
 5   0  0.6360455E-03  0.1006448E+04  0.7818609E-02  0.9301501E-01
        2   -1    0    0  501    0  0.00000000000E+00  0.00000000000E+00  0.10304514841E+04  0.10304514841E+04  0.25500000920E-02 0. -1.
       -2   -1    0    0    0  501  0.00000000000E+00  0.00000000000E+00 -0.24575082867E+03  0.24575082869E+03  0.25500000920E-02 0.  1.
    10030    2    1    2    0    0  0.00000000000E+00  0.00000000000E+00  0.78470065543E+03  0.12762023128E+04  0.10064478250E+04 0.  0.
        4    1    3    3  502    0  0.49415174885E+03 -0.72219293582E+02  0.31386455989E+03  0.58984248076E+03  0.12699999809E+01 0.  1.
       -4    1    3    3    0  502 -0.49415174885E+03  0.72219293582E+02  0.47083609555E+03  0.68635983203E+03  0.12699999809E+01 0. -1.
</event>
<event>
 5   0  0.6606947E-03  0.1000471E+04  0.7818609E-02  0.9308028E-01
       -2   -1    0    0    0  501  0.00000000000E+00  0.00000000000E+00  0.28375297251E+03  0.28375297252E+03  0.25500000920E-02 0. -1.
        2   -1    0    0  501    0  0.00000000000E+00  0.00000000000E+00 -0.88187857846E+03  0.88187857846E+03  0.25500000920E-02 0.  1.
    10030    2    1    2    0    0  0.00000000000E+00  0.00000000000E+00 -0.59812560594E+03  0.11656315510E+04  0.10004712251E+04 0.  0.
        1    1    3    3  502    0 -0.15400120646E+03 -0.18126704313E+03 -0.81178060871E+03  0.84590890125E+03  0.50400001928E-02 0.  1.
       -1    1    3    3    0  502  0.15400120646E+03  0.18126704313E+03  0.21365500277E+03  0.31972264973E+03  0.50400001928E-02 0. -1.
</event>
<event>
 5   0  0.3608845E-03  0.1022030E+04  0.7818609E-02  0.9284708E-01
        1   -1    0    0  501    0  0.00000000000E+00  0.00000000000E+00  0.97471873386E+03  0.97471873388E+03  0.50400001928E-02 0. -1.
       -1   -1    0    0    0  501  0.00000000000E+00  0.00000000000E+00 -0.26790924428E+03  0.26790924433E+03  0.50400001928E-02 0.  1.
    10030    2    1    2    0    0  0.00000000000E+00  0.00000000000E+00  0.70680948958E+03  0.12426279782E+04  0.10220296657E+04 0.  0.
        1    1    3    3  502    0 -0.38908910426E+03 -0.31769861121E+03  0.46754790121E+03  0.68623886408E+03  0.50400001928E-02 0. -1.
       -1    1    3    3    0  502  0.38908910426E+03  0.31769861121E+03  0.23926158837E+03  0.55638911413E+03  0.50400001928E-02 0.  1.
</event>
<event>
 5   0  0.3640180E-03  0.9952882E+03  0.7818609E-02  0.9313728E-01
        1   -1    0    0  501    0  0.00000000000E+00  0.00000000000E+00  0.63338808222E+03  0.63338808224E+03  0.50400001928E-02 0.  1.
       -1   -1    0    0    0  501  0.00000000000E+00  0.00000000000E+00 -0.39099193042E+03  0.39099193046E+03  0.50400001928E-02 0. -1.
    10030    2    1    2    0    0  0.00000000000E+00  0.00000000000E+00  0.24239615179E+03  0.10243800127E+04  0.99528815727E+03 0.  0.
        5    1    3    3  502    0  0.42769583398E+02  0.33400362739E+03 -0.25589888729E+03  0.42295861605E+03  0.46999998093E+01 0. -1.
       -5    1    3    3    0  502 -0.42769583398E+02 -0.33400362739E+03  0.49829503909E+03  0.60142139665E+03  0.46999998093E+01 0.  1.
</event>
<event>
 5   0  0.6022787E-03  0.9978517E+03  0.7818609E-02  0.9310904E-01
       -2   -1    0    0    0  501  0.00000000000E+00  0.00000000000E+00  0.20884232451E+03  0.20884232453E+03  0.25500000920E-02 0.  1.
        2   -1    0    0  501    0  0.00000000000E+00  0.00000000000E+00 -0.11919375556E+04  0.11919375556E+04  0.25500000920E-02 0. -1.
    10030    2    1    2    0    0  0.00000000000E+00  0.00000000000E+00 -0.98309523114E+03  0.14007798802E+04  0.99785171204E+03 0.  0.
        5    1    3    3  502    0  0.42667818688E+03  0.79223485450E+02 -0.83704760078E+03  0.94286871397E+03  0.46999998093E+01 0. -1.
       -5    1    3    3    0  502 -0.42667818688E+03 -0.79223485450E+02 -0.14604763035E+03  0.45791116620E+03  0.46999998093E+01 0.  1.
</event>
<event>
 5   0  0.6022787E-03  0.9895514E+03  0.7818609E-02  0.9320079E-01
        2   -1    0    0  501    0  0.00000000000E+00  0.00000000000E+00  0.41598013084E+03  0.41598013085E+03  0.25500000920E-02 0. -1.
       -2   -1    0    0    0  501  0.00000000000E+00  0.00000000000E+00 -0.58849683488E+03  0.58849683489E+03  0.25500000920E-02 0.  1.
    10030    2    1    2    0    0  0.00000000000E+00  0.00000000000E+00 -0.17251670404E+03  0.10044769657E+04  0.98955139408E+03 0.  0.
        5    1    3    3  502    0 -0.21983159737E+03 -0.17007042547E+03 -0.50173751013E+03  0.57359611216E+03  0.46999998093E+01 0.  1.
       -5    1    3    3    0  502  0.21983159737E+03  0.17007042547E+03  0.32922080608E+03  0.43088085357E+03  0.46999998093E+01 0. -1.
</event>
<event>
 5   0  0.6022787E-03  0.8813910E+03  0.7818609E-02  0.9449147E-01
       -2   -1    0    0    0  501  0.00000000000E+00  0.00000000000E+00  0.38893788163E+03  0.38893788164E+03  0.25500000920E-02 0. -1.
        2   -1    0    0  501    0  0.00000000000E+00  0.00000000000E+00 -0.49934075606E+03  0.49934075607E+03  0.25500000920E-02 0.  1.
    10030    2    1    2    0    0  0.00000000000E+00  0.00000000000E+00 -0.11040287444E+03  0.88827863771E+03  0.88139102759E+03 0.  0.
        5    1    3    3  502    0  0.58850001226E+02  0.42351753512E+03  0.52214854106E+02  0.43078870248E+03  0.46999998093E+01 0. -1.
       -5    1    3    3    0  502 -0.58850001226E+02 -0.42351753512E+03 -0.16261772854E+03  0.45748993523E+03  0.46999998093E+01 0.  1.
</event>
<event>
 5   0  0.6360455E-03  0.1006123E+04  0.7818609E-02  0.9301855E-01
        2   -1    0    0  501    0  0.00000000000E+00  0.00000000000E+00  0.95363384169E+03  0.95363384169E+03  0.25500000920E-02 0. -1.
       -2   -1    0    0    0  501  0.00000000000E+00  0.00000000000E+00 -0.26537519303E+03  0.26537519304E+03  0.25500000920E-02 0.  1.
    10030    2    1    2    0    0  0.00000000000E+00  0.00000000000E+00  0.68825864866E+03  0.12190090347E+04  0.10061227854E+04 0.  0.
        4    1    3    3  502    0  0.31534707503E+03 -0.11552390806E+03  0.79791752654E+03  0.86571562486E+03  0.12699999809E+01 0. -1.
       -4    1    3    3    0  502 -0.31534707503E+03  0.11552390806E+03 -0.10965887789E+03  0.35329340988E+03  0.12699999809E+01 0.  1.
</event>
<event>
 5   0  0.6360455E-03  0.9928051E+03  0.7818609E-02  0.9316471E-01
       -2   -1    0    0    0  501  0.00000000000E+00  0.00000000000E+00  0.28868460132E+03  0.28868460133E+03  0.25500000920E-02 0. -1.
        2   -1    0    0  501    0  0.00000000000E+00  0.00000000000E+00 -0.85358028939E+03  0.85358028939E+03  0.25500000920E-02 0.  1.
    10030    2    1    2    0    0  0.00000000000E+00  0.00000000000E+00 -0.56489568807E+03  0.11422648907E+04  0.99280508771E+03 0.  0.
        4    1    3    3  502    0 -0.11949607945E+03  0.51246032462E+02 -0.83363886027E+03  0.84371845488E+03  0.12699999809E+01 0.  1.
       -4    1    3    3    0  502  0.11949607945E+03 -0.51246032462E+02  0.26874317221E+03  0.29854643584E+03  0.12699999809E+01 0. -1.
</event>
<event>
 5   0  0.3640180E-03  0.9871917E+03  0.7818609E-02  0.9322705E-01
       -1   -1    0    0    0  501  0.00000000000E+00  0.00000000000E+00  0.11457406178E+03  0.11457406189E+03  0.50400001928E-02 0.  1.
        1   -1    0    0  501    0  0.00000000000E+00  0.00000000000E+00 -0.21264575507E+04  0.21264575507E+04  0.50400001928E-02 0. -1.
    10030    2    1    2    0    0  0.00000000000E+00  0.00000000000E+00 -0.20118834889E+04  0.22410316126E+04  0.98719173196E+03 0.  0.
        5    1    3    3  502    0 -0.11992523643E+03 -0.60966787603E+00  0.80945348542E+02  0.14476419957E+03  0.46999998093E+01 0.  1.
       -5    1    3    3    0  502  0.11992523643E+03  0.60966787603E+00 -0.20928288374E+04  0.20962674130E+04  0.46999998093E+01 0. -1.
</event>
<event>
 5   0  0.6376961E-03  0.9957108E+03  0.7818609E-02  0.9313262E-01
       -2   -1    0    0    0  501  0.00000000000E+00  0.00000000000E+00  0.12902370622E+03  0.12902370625E+03  0.25500000920E-02 0. -1.
        2   -1    0    0  501    0  0.00000000000E+00  0.00000000000E+00 -0.19210423392E+04  0.19210423392E+04  0.25500000920E-02 0.  1.
    10030    2    1    2    0    0  0.00000000000E+00  0.00000000000E+00 -0.17920186330E+04  0.20500660454E+04  0.99571080628E+03 0.  0.
        3    1    3    3  502    0  0.48430622196E+03 -0.36474270447E+02 -0.11213349122E+04  0.12219962703E+04  0.10100000352E+00 0.  1.
       -3    1    3    3    0  502 -0.48430622196E+03  0.36474270447E+02 -0.67068372075E+03  0.82806977515E+03  0.10100000352E+00 0. -1.
</event>
<event>
 5   0  0.6199539E-03  0.9958816E+03  0.7818609E-02  0.9313073E-01
        2   -1    0    0  501    0  0.00000000000E+00  0.00000000000E+00  0.91109994124E+03  0.91109994125E+03  0.25500000920E-02 0.  1.
       -2   -1    0    0    0  501  0.00000000000E+00  0.00000000000E+00 -0.27213815354E+03  0.27213815356E+03  0.25500000920E-02 0. -1.
    10030    2    1    2    0    0  0.00000000000E+00  0.00000000000E+00  0.63896178770E+03  0.11832380948E+04  0.99588163094E+03 0.  0.
        2    1    3    3  502    0 -0.24568579564E+03 -0.12619808144E+03 -0.17278066968E+03  0.32579230464E+03  0.25500000920E-02 0. -1.
       -2    1    3    3    0  502  0.24568579564E+03  0.12619808144E+03  0.81174245738E+03  0.85744579016E+03  0.25500000920E-02 0.  1.
</event>
<event>
 5   0  0.3608845E-03  0.1018559E+04  0.7818609E-02  0.9288420E-01
        1   -1    0    0  501    0  0.00000000000E+00  0.00000000000E+00  0.17662101292E+03  0.17662101299E+03  0.50400001928E-02 0.  1.
       -1   -1    0    0    0  501  0.00000000000E+00  0.00000000000E+00 -0.14684878900E+04  0.14684878900E+04  0.50400001928E-02 0. -1.
    10030    2    1    2    0    0  0.00000000000E+00  0.00000000000E+00 -0.12918668771E+04  0.16451089030E+04  0.10185594114E+04 0.  0.
        1    1    3    3  502    0 -0.10401050732E+03  0.22351476227E+03  0.73823143342E+02  0.25734585892E+03  0.50400001928E-02 0.  1.
       -1    1    3    3    0  502  0.10401050732E+03 -0.22351476227E+03 -0.13656900204E+04  0.13877630441E+04  0.50400001928E-02 0. -1.
</event>
<event>
 5   0  0.6022787E-03  0.1003196E+04  0.7818609E-02  0.9305046E-01
       -2   -1    0    0    0  501  0.00000000000E+00  0.00000000000E+00  0.14092979852E+03  0.14092979854E+03  0.25500000920E-02 0.  1.
        2   -1    0    0  501    0  0.00000000000E+00  0.00000000000E+00 -0.17852917200E+04  0.17852917200E+04  0.25500000920E-02 0. -1.
    10030    2    1    2    0    0  0.00000000000E+00  0.00000000000E+00 -0.16443619215E+04  0.19262215185E+04  0.10031964960E+04 0.  0.
        5    1    3    3  502    0  0.31146608070E+03  0.47320632099E+02 -0.15715756200E+04  0.16028482090E+04  0.46999998093E+01 0. -1.
       -5    1    3    3    0  502 -0.31146608070E+03 -0.47320632099E+02 -0.72786301466E+02  0.32337330955E+03  0.46999998093E+01 0.  1.
</event>
<event>
 5   0  0.6199539E-03  0.9972636E+03  0.7818609E-02  0.9311551E-01
       -2   -1    0    0    0  501  0.00000000000E+00  0.00000000000E+00  0.67167959772E+03  0.67167959772E+03  0.25500000920E-02 0.  1.
        2   -1    0    0  501    0  0.00000000000E+00  0.00000000000E+00 -0.37016707491E+03  0.37016707492E+03  0.25500000920E-02 0. -1.
    10030    2    1    2    0    0  0.00000000000E+00  0.00000000000E+00  0.30151252280E+03  0.10418466726E+04  0.99726360000E+03 0.  0.
        2    1    3    3  502    0  0.30114039151E+03  0.13192447407E+03 -0.24089551798E+03  0.40757852354E+03  0.25500000920E-02 0. -1.
       -2    1    3    3    0  502 -0.30114039151E+03 -0.13192447407E+03  0.54240804078E+03  0.63426814911E+03  0.25500000920E-02 0.  1.
</event>
<event>
 5   0  0.3608845E-03  0.9957929E+03  0.7818609E-02  0.9313171E-01
       -1   -1    0    0    0  501  0.00000000000E+00  0.00000000000E+00  0.40571505687E+03  0.40571505690E+03  0.50400001928E-02 0. -1.
        1   -1    0    0  501    0  0.00000000000E+00  0.00000000000E+00 -0.61102206759E+03  0.61102206761E+03  0.50400001928E-02 0.  1.
    10030    2    1    2    0    0  0.00000000000E+00  0.00000000000E+00 -0.20530701072E+03  0.10167371245E+04  0.99579285583E+03 0.  0.
        1    1    3    3  502    0  0.14702891449E+03  0.22649223164E+03  0.32445637183E+03  0.42212340604E+03  0.50400001928E-02 0. -1.
       -1    1    3    3    0  502 -0.14702891449E+03 -0.22649223164E+03 -0.52976338255E+03  0.59461371848E+03  0.50400001928E-02 0.  1.
</event>
<event>
 5   0  0.6022787E-03  0.1000681E+04  0.7818609E-02  0.9307798E-01
       -2   -1    0    0    0  501  0.00000000000E+00  0.00000000000E+00  0.21528055223E+03  0.21528055224E+03  0.25500000920E-02 0. -1.
        2   -1    0    0  501    0  0.00000000000E+00  0.00000000000E+00 -0.11628576672E+04  0.11628576672E+04  0.25500000920E-02 0.  1.
    10030    2    1    2    0    0  0.00000000000E+00  0.00000000000E+00 -0.94757711502E+03  0.13781382195E+04  0.10006810496E+04 0.  0.
        5    1    3    3  502    0  0.18511713089E+03  0.10381767157E+03  0.15017906287E+03  0.26004288493E+03  0.46999998093E+01 0. -1.
       -5    1    3    3    0  502 -0.18511713089E+03 -0.10381767157E+03 -0.10977561779E+04  0.11180953346E+04  0.46999998093E+01 0.  1.
</event>
<event>
 5   0  0.2417750E-03  0.8378938E+03  0.7818609E-02  0.9506731E-01
        4   -1    0    0  501    0  0.00000000000E+00  0.00000000000E+00  0.22231101032E+03  0.22231463786E+03  0.12699999809E+01 0. -1.
       -4   -1    0    0    0  501  0.00000000000E+00  0.00000000000E+00 -0.78949824738E+03  0.78949926885E+03  0.12699999809E+01 0.  1.
    10030    2    1    2    0    0  0.00000000000E+00  0.00000000000E+00 -0.56718723706E+03  0.10118139067E+04  0.83789379992E+03 0.  0.
        4    1    3    3  502    0  0.34141346970E+03 -0.13138601250E+03 -0.37032408431E+02  0.36769342358E+03  0.12699999809E+01 0. -1.
       -4    1    3    3    0  502 -0.34141346970E+03  0.13138601250E+03 -0.53015482863E+03  0.64412048314E+03  0.12699999809E+01 0.  1.
</event>
<event>
 5   0  0.6376961E-03  0.9923449E+03  0.7818609E-02  0.9316981E-01
       -2   -1    0    0    0  501  0.00000000000E+00  0.00000000000E+00  0.19219639250E+03  0.19219639251E+03  0.25500000920E-02 0. -1.
        2   -1    0    0  501    0  0.00000000000E+00  0.00000000000E+00 -0.12809142194E+04  0.12809142194E+04  0.25500000920E-02 0.  1.
    10030    2    1    2    0    0  0.00000000000E+00  0.00000000000E+00 -0.10887178269E+04  0.14731106119E+04  0.99234488375E+03 0.  0.
        3    1    3    3  502    0  0.48139146220E+03  0.10233908352E+03 -0.45075395412E+03  0.66737558036E+03  0.10100000352E+00 0. -1.
       -3    1    3    3    0  502 -0.48139146220E+03 -0.10233908352E+03 -0.63796387276E+03  0.80573503153E+03  0.10100000352E+00 0.  1.
</event>
<event>
 5   0  0.3643002E-03  0.9629008E+03  0.7818609E-02  0.9350197E-01
        1   -1    0    0  501    0  0.00000000000E+00  0.00000000000E+00  0.51581930880E+03  0.51581930883E+03  0.50400001928E-02 0. -1.
       -1   -1    0    0    0  501  0.00000000000E+00  0.00000000000E+00 -0.44937149079E+03  0.44937149082E+03  0.50400001928E-02 0.  1.
    10030    2    1    2    0    0  0.00000000000E+00  0.00000000000E+00  0.66447818009E+02  0.96519079965E+03  0.96290080860E+03 0.  0.
        2    1    3    3  502    0  0.27507322967E+02 -0.31107316654E+03 -0.33407806114E+03  0.45730877828E+03  0.25500000920E-02 0.  1.
       -2    1    3    3    0  502 -0.27507322967E+02  0.31107316654E+03  0.40052587914E+03  0.50788202137E+03  0.25500000920E-02 0. -1.
</event>
<event>
 5   0  0.3640180E-03  0.1003693E+04  0.7818609E-02  0.9304504E-01
        1   -1    0    0  501    0  0.00000000000E+00  0.00000000000E+00  0.24107142227E+04  0.24107142227E+04  0.50400001928E-02 0.  1.
       -1   -1    0    0    0  501  0.00000000000E+00  0.00000000000E+00 -0.10447108072E+03  0.10447108085E+03  0.50400001928E-02 0. -1.
    10030    2    1    2    0    0  0.00000000000E+00  0.00000000000E+00  0.23062431420E+04  0.25151853036E+04  0.10036930215E+04 0.  0.
        5    1    3    3  502    0 -0.73293017966E+01 -0.35654643824E+03  0.20378562371E+04  0.20688303977E+04  0.46999998093E+01 0.  1.
       -5    1    3    3    0  502  0.73293017966E+01  0.35654643824E+03  0.26838690486E+03  0.44635490585E+03  0.46999998093E+01 0. -1.
</event>
<event>
 5   0  0.6199539E-03  0.1001935E+04  0.7818609E-02  0.9306425E-01
        2   -1    0    0  501    0  0.00000000000E+00  0.00000000000E+00  0.53043410369E+03  0.53043410369E+03  0.25500000920E-02 0. -1.
       -2   -1    0    0    0  501  0.00000000000E+00  0.00000000000E+00 -0.47313758405E+03  0.47313758406E+03  0.25500000920E-02 0.  1.
    10030    2    1    2    0    0  0.00000000000E+00  0.00000000000E+00  0.57296519634E+02  0.10035716878E+04  0.10019347490E+04 0.  0.
        2    1    3    3  502    0  0.46381392163E+03 -0.18931073560E+03  0.26113947490E+02  0.50164115339E+03  0.25500000920E-02 0. -1.
       -2    1    3    3    0  502 -0.46381392163E+03  0.18931073560E+03  0.31182572143E+02  0.50193053436E+03  0.25500000920E-02 0.  1.
</event>
<event>
 5   0  0.6606947E-03  0.1000048E+04  0.7818609E-02  0.9308493E-01
       -2   -1    0    0    0  501  0.00000000000E+00  0.00000000000E+00  0.38473773968E+03  0.38473773969E+03  0.25500000920E-02 0. -1.
        2   -1    0    0  501    0  0.00000000000E+00  0.00000000000E+00 -0.64985501972E+03  0.64985501973E+03  0.25500000920E-02 0.  1.
    10030    2    1    2    0    0  0.00000000000E+00  0.00000000000E+00 -0.26511728004E+03  0.10345927594E+04  0.10000475017E+04 0.  0.
        1    1    3    3  502    0  0.47009415416E+03  0.15768314911E+03 -0.19937495886E+03  0.53441824776E+03  0.50400001928E-02 0.  1.
       -1    1    3    3    0  502 -0.47009415416E+03 -0.15768314911E+03 -0.65742321181E+02  0.50017451166E+03  0.50400001928E-02 0. -1.
</event>
<event>
 5   0  0.3643002E-03  0.9982798E+03  0.7818609E-02  0.9310434E-01
       -1   -1    0    0    0  501  0.00000000000E+00  0.00000000000E+00  0.22468012210E+03  0.22468012216E+03  0.50400001928E-02 0.  1.
        1   -1    0    0  501    0  0.00000000000E+00  0.00000000000E+00 -0.11088681460E+04  0.11088681460E+04  0.50400001928E-02 0. -1.
    10030    2    1    2    0    0  0.00000000000E+00  0.00000000000E+00 -0.88418802390E+03  0.13335482682E+04  0.99827978139E+03 0.  0.
        2    1    3    3  502    0  0.73917912623E+02 -0.25962054426E+03  0.11876089948E+03  0.29490818242E+03  0.25500000920E-02 0.  1.
       -2    1    3    3    0  502 -0.73917912623E+02  0.25962054426E+03 -0.10029489234E+04  0.10386400857E+04  0.25500000920E-02 0. -1.
</event>
<event>
 5   0  0.3466598E-03  0.9975623E+03  0.7818609E-02  0.9311222E-01
        1   -1    0    0  501    0  0.00000000000E+00  0.00000000000E+00  0.43488630872E+03  0.43488630875E+03  0.50400001928E-02 0. -1.
       -1   -1    0    0    0  501  0.00000000000E+00  0.00000000000E+00 -0.57206365211E+03  0.57206365214E+03  0.50400001928E-02 0.  1.
    10030    2    1    2    0    0  0.00000000000E+00  0.00000000000E+00 -0.13717734340E+03  0.10069499609E+04  0.99756232897E+03 0.  0.
        3    1    3    3  502    0 -0.23119338995E+03 -0.31635124465E+03 -0.38012578643E+03  0.54591585181E+03  0.10100000352E+00 0.  1.
       -3    1    3    3    0  502  0.23119338995E+03  0.31635124465E+03  0.24294844303E+03  0.46103410907E+03  0.10100000352E+00 0. -1.
</event>
<event>
 5   0  0.6199539E-03  0.9996295E+03  0.7818609E-02  0.9308951E-01
       -2   -1    0    0    0  501  0.00000000000E+00  0.00000000000E+00  0.64076043578E+03  0.64076043578E+03  0.25500000920E-02 0.  1.
        2   -1    0    0  501    0  0.00000000000E+00  0.00000000000E+00 -0.38987239593E+03  0.38987239594E+03  0.25500000920E-02 0. -1.
    10030    2    1    2    0    0  0.00000000000E+00  0.00000000000E+00  0.25088803985E+03  0.10306328317E+04  0.99962954402E+03 0.  0.
        2    1    3    3  502    0  0.20966500922E+03 -0.42407692869E+03  0.29173538553E+03  0.55579689880E+03  0.25500000920E-02 0.  1.
       -2    1    3    3    0  502 -0.20966500922E+03  0.42407692869E+03 -0.40847345674E+02  0.47483593292E+03  0.25500000920E-02 0. -1.
</event>
<event>
 5   0  0.3608845E-03  0.9939414E+03  0.7818609E-02  0.9315215E-01
       -1   -1    0    0    0  501  0.00000000000E+00  0.00000000000E+00  0.59588216991E+03  0.59588216993E+03  0.50400001928E-02 0. -1.
        1   -1    0    0  501    0  0.00000000000E+00  0.00000000000E+00 -0.41447774226E+03  0.41447774229E+03  0.50400001928E-02 0.  1.
    10030    2    1    2    0    0  0.00000000000E+00  0.00000000000E+00  0.18140442765E+03  0.10103599122E+04  0.99394143986E+03 0.  0.
        1    1    3    3  502    0 -0.28907441917E+02 -0.61109360948E+02  0.59118654674E+03  0.59503909726E+03  0.50400001928E-02 0. -1.
       -1    1    3    3    0  502  0.28907441917E+02  0.61109360948E+02 -0.40978211909E+03  0.41532081497E+03  0.50400001928E-02 0.  1.
</event>
<event>
 5   0  0.3608845E-03  0.1001178E+04  0.7818609E-02  0.9307254E-01
        1   -1    0    0  501    0  0.00000000000E+00  0.00000000000E+00  0.89058744679E+03  0.89058744680E+03  0.50400001928E-02 0.  1.
       -1   -1    0    0    0  501  0.00000000000E+00  0.00000000000E+00 -0.28137530378E+03  0.28137530382E+03  0.50400001928E-02 0. -1.
    10030    2    1    2    0    0  0.00000000000E+00  0.00000000000E+00  0.60921214301E+03  0.11719627506E+04  0.10011779331E+04 0.  0.
        1    1    3    3  502    0  0.33976222634E+03  0.22844582136E+03  0.64177375376E+03  0.76124858936E+03  0.50400001928E-02 0.  1.
       -1    1    3    3    0  502 -0.33976222634E+03 -0.22844582136E+03 -0.32561610754E+02  0.41071416127E+03  0.50400001928E-02 0. -1.
</event>
<event>
 5   0  0.3643002E-03  0.9900809E+03  0.7818609E-02  0.9319491E-01
       -1   -1    0    0    0  501  0.00000000000E+00  0.00000000000E+00  0.54986811918E+03  0.54986811921E+03  0.50400001928E-02 0. -1.
        1   -1    0    0  501    0  0.00000000000E+00  0.00000000000E+00 -0.44567964731E+03  0.44567964734E+03  0.50400001928E-02 0.  1.
    10030    2    1    2    0    0  0.00000000000E+00  0.00000000000E+00  0.10418847188E+03  0.99554776654E+03  0.99008086427E+03 0.  0.
        2    1    3    3  502    0  0.31703688090E+03 -0.88167539386E-02 -0.33020590465E+03  0.45776448464E+03  0.25500000920E-02 0.  1.
       -2    1    3    3    0  502 -0.31703688090E+03  0.88167539386E-02  0.43439437653E+03  0.53778328190E+03  0.25500000920E-02 0. -1.
</event>
<event>
 5   0  0.6360455E-03  0.1003608E+04  0.7818609E-02  0.9304597E-01
        2   -1    0    0  501    0  0.00000000000E+00  0.00000000000E+00  0.26567787147E+03  0.26567787148E+03  0.25500000920E-02 0. -1.
       -2   -1    0    0    0  501  0.00000000000E+00  0.00000000000E+00 -0.94779149744E+03  0.94779149744E+03  0.25500000920E-02 0.  1.
    10030    2    1    2    0    0  0.00000000000E+00  0.00000000000E+00 -0.68211362597E+03  0.12134693689E+04  0.10036079467E+04 0.  0.
        4    1    3    3  502    0 -0.14455570085E+03  0.17921019327E+03  0.19803810596E+03  0.30369943749E+03  0.12699999809E+01 0. -1.
       -4    1    3    3    0  502  0.14455570085E+03 -0.17921019327E+03 -0.88015173193E+03  0.90976993143E+03  0.12699999809E+01 0.  1.
</event>
<event>
 5   0  0.2417750E-03  0.1008614E+04  0.7818609E-02  0.9299147E-01
       -4   -1    0    0    0  501  0.00000000000E+00  0.00000000000E+00  0.78182483633E+03  0.78182586783E+03  0.12699999809E+01 0.  1.
        4   -1    0    0  501    0  0.00000000000E+00  0.00000000000E+00 -0.32529503525E+03  0.32529751438E+03  0.12699999809E+01 0. -1.
    10030    2    1    2    0    0  0.00000000000E+00  0.00000000000E+00  0.45652980108E+03  0.11071233822E+04  0.10086142593E+04 0.  0.
        4    1    3    3  502    0 -0.18496087823E+03 -0.46742969196E+03  0.18404339861E+03  0.53532665623E+03  0.12699999809E+01 0.  1.
       -4    1    3    3    0  502  0.18496087823E+03  0.46742969196E+03  0.27248640247E+03  0.57179672597E+03  0.12699999809E+01 0. -1.
</event>
<event>
 5   0  0.6360455E-03  0.9939897E+03  0.7818609E-02  0.9315161E-01
       -2   -1    0    0    0  501  0.00000000000E+00  0.00000000000E+00  0.33903427135E+03  0.33903427136E+03  0.25500000920E-02 0.  1.
        2   -1    0    0  501    0  0.00000000000E+00  0.00000000000E+00 -0.72855130693E+03  0.72855130693E+03  0.25500000920E-02 0. -1.
    10030    2    1    2    0    0  0.00000000000E+00  0.00000000000E+00 -0.38951703558E+03  0.10675855783E+04  0.99398966089E+03 0.  0.
        4    1    3    3  502    0  0.22823971586E+03 -0.18576930651E+03  0.23539272256E+03  0.37684870953E+03  0.12699999809E+01 0.  1.
       -4    1    3    3    0  502 -0.22823971586E+03  0.18576930651E+03 -0.62490975815E+03  0.69073686876E+03  0.12699999809E+01 0. -1.
</event>
<event>
 5   0  0.6606947E-03  0.9990581E+03  0.7818609E-02  0.9309578E-01
       -2   -1    0    0    0  501  0.00000000000E+00  0.00000000000E+00  0.19060970750E+03  0.19060970751E+03  0.25500000920E-02 0. -1.
        2   -1    0    0  501    0  0.00000000000E+00  0.00000000000E+00 -0.13091110841E+04  0.13091110841E+04  0.25500000920E-02 0.  1.
    10030    2    1    2    0    0  0.00000000000E+00  0.00000000000E+00 -0.11185013766E+04  0.14997207916E+04  0.99905811809E+03 0.  0.
        1    1    3    3  502    0 -0.38429406542E+02 -0.12418004540E+03 -0.12832767167E+04  0.12898436473E+04  0.50400001928E-02 0.  1.
       -1    1    3    3    0  502  0.38429406542E+02  0.12418004540E+03  0.16477534009E+03  0.20987714428E+03  0.50400001928E-02 0. -1.
</event>
<event>
 5   0  0.2417750E-03  0.1022366E+04  0.7818609E-02  0.9284349E-01
        4   -1    0    0  501    0  0.00000000000E+00  0.00000000000E+00  0.79149300761E+03  0.79149402651E+03  0.12699999809E+01 0. -1.
       -4   -1    0    0    0  501  0.00000000000E+00  0.00000000000E+00 -0.33014304661E+03  0.33014548933E+03  0.12699999809E+01 0.  1.
    10030    2    1    2    0    0  0.00000000000E+00  0.00000000000E+00  0.46134996100E+03  0.11216395158E+04  0.10223655985E+04 0.  0.
        2    1    3    3  502    0  0.50139288178E+03  0.61132195838E+02  0.31689274208E+03  0.59628263203E+03  0.25500000920E-02 0.  1.
       -2    1    3    3    0  502 -0.50139288178E+03 -0.61132195838E+02  0.14445721892E+03  0.52535688381E+03  0.25500000920E-02 0. -1.
</event>
<event>
 5   0  0.6376961E-03  0.1003632E+04  0.7818609E-02  0.9304570E-01
       -2   -1    0    0    0  501  0.00000000000E+00  0.00000000000E+00  0.10713474046E+03  0.10713474049E+03  0.25500000920E-02 0. -1.
        2   -1    0    0  501    0  0.00000000000E+00  0.00000000000E+00 -0.23504930038E+04  0.23504930038E+04  0.25500000920E-02 0.  1.
    10030    2    1    2    0    0  0.00000000000E+00  0.00000000000E+00 -0.22433582633E+04  0.24576277443E+04  0.10036323190E+04 0.  0.
        3    1    3    3  502    0  0.21012055616E+03  0.27168007254E+03 -0.22576822032E+03  0.41101339327E+03  0.10100000352E+00 0. -1.
       -3    1    3    3    0  502 -0.21012055616E+03 -0.27168007254E+03 -0.20175900430E+04  0.20466143510E+04  0.10100000352E+00 0.  1.
</event>
<event>
 5   0  0.6360455E-03  0.1003841E+04  0.7818609E-02  0.9304342E-01
        2   -1    0    0  501    0  0.00000000000E+00  0.00000000000E+00  0.85310254863E+03  0.85310254864E+03  0.25500000920E-02 0.  1.
       -2   -1    0    0    0  501  0.00000000000E+00  0.00000000000E+00 -0.29530343044E+03  0.29530343045E+03  0.25500000920E-02 0. -1.
    10030    2    1    2    0    0  0.00000000000E+00  0.00000000000E+00  0.55779911819E+03  0.11484059791E+04  0.10038408422E+04 0.  0.
        4    1    3    3  502    0 -0.11203883312E+03  0.35784068501E+03  0.66059491049E+03  0.75959851543E+03  0.12699999809E+01 0.  1.
       -4    1    3    3    0  502  0.11203883312E+03 -0.35784068501E+03 -0.10279579230E+03  0.38880746365E+03  0.12699999809E+01 0. -1.
</event>
<event>
 5   0  0.3466598E-03  0.9881988E+03  0.7818609E-02  0.9321584E-01
        1   -1    0    0  501    0  0.00000000000E+00  0.00000000000E+00  0.72281759481E+03  0.72281759483E+03  0.50400001928E-02 0.  1.
       -1   -1    0    0    0  501  0.00000000000E+00  0.00000000000E+00 -0.33775357282E+03  0.33775357285E+03  0.50400001928E-02 0. -1.
    10030    2    1    2    0    0  0.00000000000E+00  0.00000000000E+00  0.38506402200E+03  0.10605711677E+04  0.98819881638E+03 0.  0.
        3    1    3    3  502    0  0.32398256928E+03 -0.26461855840E+03 -0.89683368399E+02  0.42782099460E+03  0.10100000352E+00 0. -1.
       -3    1    3    3    0  502 -0.32398256928E+03  0.26461855840E+03  0.47474739040E+03  0.63275017309E+03  0.10100000352E+00 0.  1.
</event>
<event>
 5   0  0.3643002E-03  0.1002143E+04  0.7818609E-02  0.9306197E-01
        1   -1    0    0  501    0  0.00000000000E+00  0.00000000000E+00  0.64073424289E+03  0.64073424291E+03  0.50400001928E-02 0. -1.
       -1   -1    0    0    0  501  0.00000000000E+00  0.00000000000E+00 -0.39185182457E+03  0.39185182460E+03  0.50400001928E-02 0.  1.
    10030    2    1    2    0    0  0.00000000000E+00  0.00000000000E+00  0.24888241832E+03  0.10325860675E+04  0.10021434671E+04 0.  0.
        2    1    3    3  502    0 -0.48130128652E+03 -0.79233766901E+01 -0.18922679110E+02  0.48173828589E+03  0.25500000920E-02 0. -1.
       -2    1    3    3    0  502  0.48130128652E+03  0.79233766901E+01  0.26780509743E+03  0.55084778162E+03  0.25500000920E-02 0.  1.
</event>
<event>
 5   0  0.3466598E-03  0.9903263E+03  0.7818609E-02  0.9319219E-01
        1   -1    0    0  501    0  0.00000000000E+00  0.00000000000E+00  0.13424259971E+04  0.13424259971E+04  0.50400001928E-02 0. -1.
       -1   -1    0    0    0  501  0.00000000000E+00  0.00000000000E+00 -0.18264435992E+03  0.18264435999E+03  0.50400001928E-02 0.  1.
    10030    2    1    2    0    0  0.00000000000E+00  0.00000000000E+00  0.11597816372E+04  0.15250703571E+04  0.99032628370E+03 0.  0.
        3    1    3    3  502    0 -0.24760277499E+03  0.37418200682E+03  0.90242936385E+03  0.10078184734E+04  0.10100000352E+00 0.  1.
       -3    1    3    3    0  502  0.24760277499E+03 -0.37418200682E+03  0.25735227334E+03  0.51725188371E+03  0.10100000352E+00 0. -1.
</event>
<event>
 5   0  0.6360455E-03  0.9993797E+03  0.7818609E-02  0.9309225E-01
        2   -1    0    0  501    0  0.00000000000E+00  0.00000000000E+00  0.16381739324E+04  0.16381739324E+04  0.25500000920E-02 0. -1.
       -2   -1    0    0    0  501  0.00000000000E+00  0.00000000000E+00 -0.15241966702E+03  0.15241966704E+03  0.25500000920E-02 0.  1.
    10030    2    1    2    0    0  0.00000000000E+00  0.00000000000E+00  0.14857542654E+04  0.17905935995E+04  0.99937965824E+03 0.  0.
        4    1    3    3  502    0 -0.40420395219E+03  0.18361946743E+03  0.11537654175E+04  0.12362334712E+04  0.12699999809E+01 0. -1.
       -4    1    3    3    0  502  0.40420395219E+03 -0.18361946743E+03  0.33198884789E+03  0.55436012826E+03  0.12699999809E+01 0.  1.
</event>
<event>
 5   0  0.3608845E-03  0.9215852E+03  0.7818609E-02  0.9398994E-01
       -1   -1    0    0    0  501  0.00000000000E+00  0.00000000000E+00  0.28986454293E+03  0.28986454297E+03  0.50400001928E-02 0.  1.
        1   -1    0    0  501    0  0.00000000000E+00  0.00000000000E+00 -0.73251390935E+03  0.73251390937E+03  0.50400001928E-02 0. -1.
    10030    2    1    2    0    0  0.00000000000E+00  0.00000000000E+00 -0.44264936642E+03  0.10223784523E+04  0.92158517687E+03 0.  0.
        1    1    3    3  502    0 -0.33476525474E+03 -0.18488138080E+03  0.63852129280E+02  0.38771896418E+03  0.50400001928E-02 0.  1.
       -1    1    3    3    0  502  0.33476525474E+03  0.18488138080E+03 -0.50650149570E+03  0.63465948817E+03  0.50400001928E-02 0. -1.
</event>
<event>
 5   0  0.3640180E-03  0.9956877E+03  0.7818609E-02  0.9313287E-01
        1   -1    0    0  501    0  0.00000000000E+00  0.00000000000E+00  0.38617111910E+03  0.38617111914E+03  0.50400001928E-02 0. -1.
       -1   -1    0    0    0  501  0.00000000000E+00  0.00000000000E+00 -0.64181009585E+03  0.64181009587E+03  0.50400001928E-02 0.  1.
    10030    2    1    2    0    0  0.00000000000E+00  0.00000000000E+00 -0.25563897674E+03  0.10279812150E+04  0.99568774823E+03 0.  0.
        5    1    3    3  502    0  0.21997157608E+03 -0.33696656399E+03  0.17476005980E+03  0.43874494644E+03  0.46999998093E+01 0. -1.
       -5    1    3    3    0  502 -0.21997157608E+03  0.33696656399E+03 -0.43039903654E+03  0.58923626856E+03  0.46999998093E+01 0.  1.
</event>
<event>
 5   0  0.3608845E-03  0.9807295E+03  0.7818609E-02  0.9329937E-01
        1   -1    0    0  501    0  0.00000000000E+00  0.00000000000E+00  0.12871888019E+04  0.12871888019E+04  0.50400001928E-02 0.  1.
       -1   -1    0    0    0  501  0.00000000000E+00  0.00000000000E+00 -0.18680832119E+03  0.18680832126E+03  0.50400001928E-02 0. -1.
    10030    2    1    2    0    0  0.00000000000E+00  0.00000000000E+00  0.11003804807E+04  0.14739971232E+04  0.98072948196E+03 0.  0.
        1    1    3    3  502    0  0.46439478623E+03  0.14644641770E+03  0.46321951270E+03  0.67207245719E+03  0.50400001928E-02 0. -1.
       -1    1    3    3    0  502 -0.46439478623E+03 -0.14644641770E+03  0.63716096803E+03  0.80192466600E+03  0.50400001928E-02 0.  1.
</event>
<event>
 5   0  0.3643002E-03  0.9915244E+03  0.7818609E-02  0.9317890E-01
        1   -1    0    0  501    0  0.00000000000E+00  0.00000000000E+00  0.10926633889E+04  0.10926633889E+04  0.50400001928E-02 0.  1.
       -1   -1    0    0    0  501  0.00000000000E+00  0.00000000000E+00 -0.22493676268E+03  0.22493676273E+03  0.50400001928E-02 0. -1.
    10030    2    1    2    0    0  0.00000000000E+00  0.00000000000E+00  0.86772662619E+03  0.13176001516E+04  0.99152441308E+03 0.  0.
        2    1    3    3  502    0 -0.85685778138E+02  0.31002286219E+02 -0.21371302992E+03  0.23232833122E+03  0.25500000920E-02 0. -1.
       -2    1    3    3    0  502  0.85685778138E+02 -0.31002286219E+02  0.10814396561E+04  0.10852718204E+04  0.25500000920E-02 0.  1.
</event>
<event>
 5   0  0.6022787E-03  0.9981943E+03  0.7818609E-02  0.9310527E-01
        2   -1    0    0  501    0  0.00000000000E+00  0.00000000000E+00  0.32869437659E+04  0.32869437659E+04  0.25500000920E-02 0.  1.
       -2   -1    0    0    0  501  0.00000000000E+00  0.00000000000E+00 -0.75784072625E+02  0.75784072668E+02  0.25500000920E-02 0. -1.
    10030    2    1    2    0    0  0.00000000000E+00  0.00000000000E+00  0.32111596933E+04  0.33627278386E+04  0.99819434008E+03 0.  0.
        5    1    3    3  502    0 -0.31283199909E+03  0.21449054363E+03  0.26982687806E+04  0.27248021131E+04  0.46999998093E+01 0.  1.
       -5    1    3    3    0  502  0.31283199909E+03 -0.21449054363E+03  0.51289091264E+03  0.63792572548E+03  0.46999998093E+01 0. -1.
</event>
<event>
 5   0  0.6360455E-03  0.1004917E+04  0.7818609E-02  0.9303169E-01
       -2   -1    0    0    0  501  0.00000000000E+00  0.00000000000E+00  0.28384480874E+03  0.28384480875E+03  0.25500000920E-02 0. -1.
        2   -1    0    0  501    0  0.00000000000E+00  0.00000000000E+00 -0.88944490613E+03  0.88944490613E+03  0.25500000920E-02 0.  1.
    10030    2    1    2    0    0  0.00000000000E+00  0.00000000000E+00 -0.60560009739E+03  0.11732897149E+04  0.10049165523E+04 0.  0.
        4    1    3    3  502    0 -0.24533891282E+03  0.38933896017E+03 -0.67294313227E+02  0.46508724509E+03  0.12699999809E+01 0. -1.
       -4    1    3    3    0  502  0.24533891282E+03 -0.38933896017E+03 -0.53830578416E+03  0.70820246979E+03  0.12699999809E+01 0.  1.
</event>
<event>
 5   0  0.3466598E-03  0.9940038E+03  0.7818609E-02  0.9315146E-01
        1   -1    0    0  501    0  0.00000000000E+00  0.00000000000E+00  0.37959172145E+03  0.37959172149E+03  0.50400001928E-02 0. -1.
       -1   -1    0    0    0  501  0.00000000000E+00  0.00000000000E+00 -0.65072779608E+03  0.65072779610E+03  0.50400001928E-02 0.  1.
    10030    2    1    2    0    0  0.00000000000E+00  0.00000000000E+00 -0.27113607463E+03  0.10303195176E+04  0.99400379142E+03 0.  0.
        3    1    3    3  502    0  0.27723568246E+03  0.26093993542E+03 -0.46671065184E+03  0.60230234623E+03  0.10100000352E+00 0.  1.
       -3    1    3    3    0  502 -0.27723568246E+03 -0.26093993542E+03  0.19557457721E+03  0.42801717136E+03  0.10100000352E+00 0. -1.
</event>
<event>
 5   0  0.3643002E-03  0.1004270E+04  0.7818609E-02  0.9303873E-01
       -1   -1    0    0    0  501  0.00000000000E+00  0.00000000000E+00  0.26032097918E+03  0.26032097922E+03  0.50400001928E-02 0. -1.
        1   -1    0    0  501    0  0.00000000000E+00  0.00000000000E+00 -0.96857270174E+03  0.96857270175E+03  0.50400001928E-02 0.  1.
    10030    2    1    2    0    0  0.00000000000E+00  0.00000000000E+00 -0.70825172256E+03  0.12288936810E+04  0.10042704699E+04 0.  0.
        2    1    3    3  502    0  0.25323258118E+03  0.41858678784E+03 -0.21569360363E+03  0.53466379134E+03  0.25500000920E-02 0. -1.
       -2    1    3    3    0  502 -0.25323258118E+03 -0.41858678784E+03 -0.49255811893E+03  0.69422988963E+03  0.25500000920E-02 0.  1.
</event>
<event>
 5   0  0.6360455E-03  0.9829696E+03  0.7818609E-02  0.9327423E-01
        2   -1    0    0  501    0  0.00000000000E+00  0.00000000000E+00  0.37612701058E+03  0.37612701059E+03  0.25500000920E-02 0.  1.
       -2   -1    0    0    0  501  0.00000000000E+00  0.00000000000E+00 -0.64222273685E+03  0.64222273685E+03  0.25500000920E-02 0. -1.
    10030    2    1    2    0    0  0.00000000000E+00  0.00000000000E+00 -0.26609572627E+03  0.10183497474E+04  0.98296961936E+03 0.  0.
        4    1    3    3  502    0 -0.45082381772E+03 -0.17346681509E+03 -0.22699167377E+03  0.53372247790E+03  0.12699999809E+01 0. -1.
       -4    1    3    3    0  502  0.45082381772E+03  0.17346681509E+03 -0.39104052501E+02  0.48462726954E+03  0.12699999809E+01 0.  1.
</event>
<event>
 5   0  0.3608845E-03  0.9333031E+03  0.7818609E-02  0.9384882E-01
       -1   -1    0    0    0  501  0.00000000000E+00  0.00000000000E+00  0.23722569886E+03  0.23722569891E+03  0.50400001928E-02 0. -1.
        1   -1    0    0  501    0  0.00000000000E+00  0.00000000000E+00 -0.91795992310E+03  0.91795992312E+03  0.50400001928E-02 0.  1.
    10030    2    1    2    0    0  0.00000000000E+00  0.00000000000E+00 -0.68073422425E+03  0.11551856220E+04  0.93330313257E+03 0.  0.
        1    1    3    3  502    0  0.22565573545E+03 -0.39657009200E+03 -0.21924984838E+03  0.50622015453E+03  0.50400001928E-02 0. -1.
       -1    1    3    3    0  502 -0.22565573545E+03  0.39657009200E+03 -0.46148437586E+03  0.64896546750E+03  0.50400001928E-02 0.  1.
</event>
<event>
 5   0  0.6606947E-03  0.9955429E+03  0.7818609E-02  0.9313447E-01
       -2   -1    0    0    0  501  0.00000000000E+00  0.00000000000E+00  0.18045398585E+03  0.18045398587E+03  0.25500000920E-02 0. -1.
        2   -1    0    0  501    0  0.00000000000E+00  0.00000000000E+00 -0.13730725451E+04  0.13730725451E+04  0.25500000920E-02 0.  1.
    10030    2    1    2    0    0  0.00000000000E+00  0.00000000000E+00 -0.11926185592E+04  0.15535265309E+04  0.99554289437E+03 0.  0.
        1    1    3    3  502    0 -0.31876259861E+03 -0.24434045664E+00 -0.11929089473E+04  0.12347637064E+04  0.50400001928E-02 0.  1.
       -1    1    3    3    0  502  0.31876259861E+03  0.24434045664E+00  0.29038809157E+00  0.31876282456E+03  0.50400001928E-02 0. -1.
</event>
<event>
 5   0  0.3608845E-03  0.1000755E+04  0.7818609E-02  0.9307717E-01
       -1   -1    0    0    0  501  0.00000000000E+00  0.00000000000E+00  0.27241478712E+03  0.27241478716E+03  0.50400001928E-02 0. -1.
        1   -1    0    0  501    0  0.00000000000E+00  0.00000000000E+00 -0.91910420799E+03  0.91910420801E+03  0.50400001928E-02 0.  1.
    10030    2    1    2    0    0  0.00000000000E+00  0.00000000000E+00 -0.64668942088E+03  0.11915189952E+04  0.10007548695E+04 0.  0.
        1    1    3    3  502    0  0.49112923244E+03  0.53856552627E+02 -0.22907400525E+03  0.54459466682E+03  0.50400001928E-02 0.  1.
       -1    1    3    3    0  502 -0.49112923244E+03 -0.53856552627E+02 -0.41761541563E+03  0.64692432835E+03  0.50400001928E-02 0. -1.
</event>
<event>
 5   0  0.3608845E-03  0.9992291E+03  0.7818609E-02  0.9309391E-01
        1   -1    0    0  501    0  0.00000000000E+00  0.00000000000E+00  0.45220669333E+03  0.45220669335E+03  0.50400001928E-02 0. -1.
       -1   -1    0    0    0  501  0.00000000000E+00  0.00000000000E+00 -0.55199251460E+03  0.55199251462E+03  0.50400001928E-02 0.  1.
    10030    2    1    2    0    0  0.00000000000E+00  0.00000000000E+00 -0.99785821269E+02  0.10041992080E+04  0.99922912246E+03 0.  0.
        1    1    3    3  502    0  0.19097717331E+03  0.25793039932E+03 -0.43469995486E+03  0.54033732279E+03  0.50400001928E-02 0.  1.
       -1    1    3    3    0  502 -0.19097717331E+03 -0.25793039932E+03  0.33491413359E+03  0.46386188518E+03  0.50400001928E-02 0. -1.
</event>
<event>
 5   0  0.6022787E-03  0.9984671E+03  0.7818609E-02  0.9310228E-01
       -2   -1    0    0    0  501  0.00000000000E+00  0.00000000000E+00  0.14354502700E+03  0.14354502703E+03  0.25500000920E-02 0.  1.
        2   -1    0    0  501    0  0.00000000000E+00  0.00000000000E+00 -0.17362783470E+04  0.17362783470E+04  0.25500000920E-02 0. -1.
    10030    2    1    2    0    0  0.00000000000E+00  0.00000000000E+00 -0.15927333199E+04  0.18798233740E+04  0.99846706951E+03 0.  0.
        5    1    3    3  502    0 -0.47029806896E+03  0.19491446821E+02 -0.11094394569E+04  0.12051714354E+04  0.46999998093E+01 0. -1.
       -5    1    3    3    0  502  0.47029806896E+03 -0.19491446821E+02 -0.48329386302E+03  0.67465193856E+03  0.46999998093E+01 0.  1.
</event>
<event>
 5   0  0.3640180E-03  0.1004588E+04  0.7818609E-02  0.9303527E-01
       -1   -1    0    0    0  501  0.00000000000E+00  0.00000000000E+00  0.96700480344E+03  0.96700480345E+03  0.50400001928E-02 0.  1.
        1   -1    0    0  501    0  0.00000000000E+00  0.00000000000E+00 -0.26090785971E+03  0.26090785976E+03  0.50400001928E-02 0. -1.
    10030    2    1    2    0    0  0.00000000000E+00  0.00000000000E+00  0.70609694373E+03  0.12279126632E+04  0.10045877834E+04 0.  0.
        5    1    3    3  502    0 -0.37775642246E+03  0.19557905755E+03  0.67948854238E+03  0.80167191025E+03  0.46999998093E+01 0.  1.
       -5    1    3    3    0  502  0.37775642246E+03 -0.19557905755E+03  0.26608401345E+02  0.42624075296E+03  0.46999998093E+01 0. -1.
</event>
<event>
 5   0  0.6376961E-03  0.1002265E+04  0.7818609E-02  0.9306064E-01
        2   -1    0    0  501    0  0.00000000000E+00  0.00000000000E+00  0.17798850970E+04  0.17798850970E+04  0.25500000920E-02 0. -1.
       -2   -1    0    0    0  501  0.00000000000E+00  0.00000000000E+00 -0.14109549024E+03  0.14109549026E+03  0.25500000920E-02 0.  1.
    10030    2    1    2    0    0  0.00000000000E+00  0.00000000000E+00  0.16387896067E+04  0.19209805872E+04  0.10022649557E+04 0.  0.
        3    1    3    3  502    0 -0.18600362266E+03  0.11362514369E+03  0.16842766008E+04  0.16983214357E+04  0.10100000352E+00 0. -1.
       -3    1    3    3    0  502  0.18600362266E+03 -0.11362514369E+03 -0.45486994047E+02  0.22265915151E+03  0.10100000352E+00 0.  1.
</event>
<event>
 5   0  0.6360455E-03  0.1000291E+04  0.7818609E-02  0.9308226E-01
       -2   -1    0    0    0  501  0.00000000000E+00  0.00000000000E+00  0.45901276653E+03  0.45901276654E+03  0.25500000920E-02 0.  1.
        2   -1    0    0  501    0  0.00000000000E+00  0.00000000000E+00 -0.54496370787E+03  0.54496370788E+03  0.25500000920E-02 0. -1.
    10030    2    1    2    0    0  0.00000000000E+00  0.00000000000E+00 -0.85950941343E+02  0.10039764744E+04  0.10002905562E+04 0.  0.
        4    1    3    3  502    0 -0.99040866411E+02 -0.12131498749E+03 -0.51971760309E+03  0.54280237589E+03  0.12699999809E+01 0. -1.
       -4    1    3    3    0  502  0.99040866411E+02  0.12131498749E+03  0.43376666175E+03  0.46117409853E+03  0.12699999809E+01 0.  1.
</event>
<event>
 5   0  0.6376961E-03  0.9965565E+03  0.7818609E-02  0.9312330E-01
        2   -1    0    0  501    0  0.00000000000E+00  0.00000000000E+00  0.50069008231E+03  0.50069008232E+03  0.25500000920E-02 0.  1.
       -2   -1    0    0    0  501  0.00000000000E+00  0.00000000000E+00 -0.49587799463E+03  0.49587799464E+03  0.25500000920E-02 0. -1.
    10030    2    1    2    0    0  0.00000000000E+00  0.00000000000E+00  0.48120876839E+01  0.99656807696E+03  0.99655645892E+03 0.  0.
        3    1    3    3  502    0 -0.12192452674E+03 -0.25460578452E+03 -0.40819768116E+03  0.49630137299E+03  0.10100000352E+00 0. -1.
       -3    1    3    3    0  502  0.12192452674E+03  0.25460578452E+03  0.41300976884E+03  0.50026670396E+03  0.10100000352E+00 0.  1.
</event>
<event>
 5   0  0.6606947E-03  0.9970316E+03  0.7818609E-02  0.9311807E-01
       -2   -1    0    0    0  501  0.00000000000E+00  0.00000000000E+00  0.41427147900E+03  0.41427147901E+03  0.25500000920E-02 0.  1.
        2   -1    0    0  501    0  0.00000000000E+00  0.00000000000E+00 -0.59989161886E+03  0.59989161887E+03  0.25500000920E-02 0. -1.
    10030    2    1    2    0    0  0.00000000000E+00  0.00000000000E+00 -0.18562013986E+03  0.10141630979E+04  0.99703157060E+03 0.  0.
        1    1    3    3  502    0 -0.47364975447E+03  0.17624023223E+02  0.64321725155E+02  0.47832204680E+03  0.50400001928E-02 0.  1.
       -1    1    3    3    0  502  0.47364975447E+03 -0.17624023223E+02 -0.24994186501E+03  0.53584105107E+03  0.50400001928E-02 0. -1.
</event>
<event>
 5   0  0.3643002E-03  0.9902961E+03  0.7818609E-02  0.9319252E-01
        1   -1    0    0  501    0  0.00000000000E+00  0.00000000000E+00  0.77708059367E+03  0.77708059368E+03  0.50400001928E-02 0.  1.
       -1   -1    0    0    0  501  0.00000000000E+00  0.00000000000E+00 -0.31550341122E+03  0.31550341126E+03  0.50400001928E-02 0. -1.
    10030    2    1    2    0    0  0.00000000000E+00  0.00000000000E+00  0.46157718244E+03  0.10925840049E+04  0.99029607316E+03 0.  0.
        2    1    3    3  502    0 -0.74422361313E+02  0.31443809493E+03  0.64472329602E+03  0.72116442774E+03  0.25500000920E-02 0.  1.
       -2    1    3    3    0  502  0.74422361313E+02 -0.31443809493E+03 -0.18314611358E+03  0.37141957720E+03  0.25500000920E-02 0. -1.
</event>
<event>
 5   0  0.3569359E-03  0.9976360E+03  0.7818609E-02  0.9311141E-01
        1   -1    0    0  501    0  0.00000000000E+00  0.00000000000E+00  0.49082103541E+03  0.49082103544E+03  0.50400001928E-02 0.  1.
       -1   -1    0    0    0  501  0.00000000000E+00  0.00000000000E+00 -0.50694530785E+03  0.50694530788E+03  0.50400001928E-02 0. -1.
    10030    2    1    2    0    0  0.00000000000E+00  0.00000000000E+00 -0.16124272443E+02  0.99776634331E+03  0.99763604771E+03 0.  0.
        4    1    3    3  502    0 -0.47736022821E+03 -0.14463919865E+03 -0.13014828954E+02  0.49896320900E+03  0.12699999809E+01 0. -1.
       -4    1    3    3    0  502  0.47736022821E+03  0.14463919865E+03 -0.31094434887E+01  0.49880313431E+03  0.12699999809E+01 0.  1.
</event>
<event>
 5   0  0.6022787E-03  0.9744486E+03  0.7818609E-02  0.9337022E-01
        2   -1    0    0  501    0  0.00000000000E+00  0.00000000000E+00  0.67445436421E+03  0.67445436421E+03  0.25500000920E-02 0.  1.
       -2   -1    0    0    0  501  0.00000000000E+00  0.00000000000E+00 -0.35196976027E+03  0.35196976028E+03  0.25500000920E-02 0. -1.
    10030    2    1    2    0    0  0.00000000000E+00  0.00000000000E+00  0.32248460394E+03  0.10264241245E+04  0.97444864593E+03 0.  0.
        5    1    3    3  502    0 -0.51057742531E+02 -0.46633351448E+03  0.22730868463E+02  0.46969417942E+03  0.46999998093E+01 0. -1.
       -5    1    3    3    0  502  0.51057742531E+02  0.46633351448E+03  0.29975373548E+03  0.55672994507E+03  0.46999998093E+01 0.  1.
</event>
<event>
 5   0  0.3608845E-03  0.9986028E+03  0.7818609E-02  0.9310079E-01
       -1   -1    0    0    0  501  0.00000000000E+00  0.00000000000E+00  0.12352968411E+04  0.12352968411E+04  0.50400001928E-02 0.  1.
        1   -1    0    0  501    0  0.00000000000E+00  0.00000000000E+00 -0.20181538004E+03  0.20181538010E+03  0.50400001928E-02 0. -1.
    10030    2    1    2    0    0  0.00000000000E+00  0.00000000000E+00  0.10334814611E+04  0.14371122212E+04  0.99860282694E+03 0.  0.
        1    1    3    3  502    0 -0.56938818156E+02  0.49549491578E+03  0.48315452138E+03  0.69440300412E+03  0.50400001928E-02 0.  1.
       -1    1    3    3    0  502  0.56938818156E+02 -0.49549491578E+03  0.55032693967E+03  0.74270921708E+03  0.50400001928E-02 0. -1.
</event>
<event>
 5   0  0.3569359E-03  0.1024812E+04  0.7818609E-02  0.9281742E-01
       -1   -1    0    0    0  501  0.00000000000E+00  0.00000000000E+00  0.32083105031E+03  0.32083105035E+03  0.50400001928E-02 0. -1.
        1   -1    0    0  501    0  0.00000000000E+00  0.00000000000E+00 -0.81837482142E+03  0.81837482143E+03  0.50400001928E-02 0.  1.
    10030    2    1    2    0    0  0.00000000000E+00  0.00000000000E+00 -0.49754377111E+03  0.11392058718E+04  0.10248122824E+04 0.  0.
        4    1    3    3  502    0 -0.41115285486E+03 -0.19447649658E+03 -0.51110256646E+03  0.68417484909E+03  0.12699999809E+01 0.  1.
       -4    1    3    3    0  502  0.41115285486E+03  0.19447649658E+03  0.13558795355E+02  0.45503102269E+03  0.12699999809E+01 0. -1.
</event>
<event>
 5   0  0.3640180E-03  0.1002118E+04  0.7818609E-02  0.9306225E-01
       -1   -1    0    0    0  501  0.00000000000E+00  0.00000000000E+00  0.83614406504E+03  0.83614406506E+03  0.50400001928E-02 0. -1.
        1   -1    0    0  501    0  0.00000000000E+00  0.00000000000E+00 -0.30025930002E+03  0.30025930006E+03  0.50400001928E-02 0.  1.
    10030    2    1    2    0    0  0.00000000000E+00  0.00000000000E+00  0.53588476502E+03  0.11364033651E+04  0.10021178209E+04 0.  0.
        5    1    3    3  502    0 -0.19617821378E+02 -0.15927087964E+03 -0.27030348262E+03  0.31438532843E+03  0.46999998093E+01 0.  1.
       -5    1    3    3    0  502  0.19617821378E+02  0.15927087964E+03  0.80618824764E+03  0.82201803669E+03  0.46999998093E+01 0. -1.
</event>
<event>
 5   0  0.6360455E-03  0.1008414E+04  0.7818609E-02  0.9299364E-01
        2   -1    0    0  501    0  0.00000000000E+00  0.00000000000E+00  0.77376100663E+03  0.77376100663E+03  0.25500000920E-02 0. -1.
       -2   -1    0    0    0  501  0.00000000000E+00  0.00000000000E+00 -0.32855707011E+03  0.32855707012E+03  0.25500000920E-02 0.  1.
    10030    2    1    2    0    0  0.00000000000E+00  0.00000000000E+00  0.44520393652E+03  0.11023180767E+04  0.10084139017E+04 0.  0.
        4    1    3    3  502    0  0.36621838694E+03 -0.32191451942E+02  0.59980121241E+03  0.70350217044E+03  0.12699999809E+01 0. -1.
       -4    1    3    3    0  502 -0.36621838694E+03  0.32191451942E+02 -0.15459727588E+03  0.39881590631E+03  0.12699999809E+01 0.  1.
</event>
<event>
 5   0  0.3608845E-03  0.1001425E+04  0.7818609E-02  0.9306983E-01
       -1   -1    0    0    0  501  0.00000000000E+00  0.00000000000E+00  0.55537770467E+03  0.55537770469E+03  0.50400001928E-02 0.  1.
        1   -1    0    0  501    0  0.00000000000E+00  0.00000000000E+00 -0.45142776186E+03  0.45142776189E+03  0.50400001928E-02 0. -1.
    10030    2    1    2    0    0  0.00000000000E+00  0.00000000000E+00  0.10394994281E+03  0.10068054666E+04  0.10014248134E+04 0.  0.
        1    1    3    3  502    0 -0.33294509516E+03  0.25568897656E+03 -0.22240829347E+03  0.47507340291E+03  0.50400001928E-02 0. -1.
       -1    1    3    3    0  502  0.33294509516E+03 -0.25568897656E+03  0.32635823628E+03  0.53173206367E+03  0.50400001928E-02 0.  1.
</event>
<event>
 5   0  0.6199539E-03  0.1001986E+04  0.7818609E-02  0.9306369E-01
        2   -1    0    0  501    0  0.00000000000E+00  0.00000000000E+00  0.14954649632E+03  0.14954649634E+03  0.25500000920E-02 0.  1.
       -2   -1    0    0    0  501  0.00000000000E+00  0.00000000000E+00 -0.16783690855E+04  0.16783690855E+04  0.25500000920E-02 0. -1.
    10030    2    1    2    0    0  0.00000000000E+00  0.00000000000E+00 -0.15288225892E+04  0.18279155818E+04  0.10019864596E+04 0.  0.
        2    1    3    3  502    0 -0.46718211394E+03 -0.11148029022E+03 -0.50444343141E+03  0.69652721281E+03  0.25500000920E-02 0.  1.
       -2    1    3    3    0  502  0.46718211394E+03  0.11148029022E+03 -0.10243791578E+04  0.11313883690E+04  0.25500000920E-02 0. -1.
</event>
<event>
 5   0  0.6022787E-03  0.9983487E+03  0.7818609E-02  0.9310358E-01
       -2   -1    0    0    0  501  0.00000000000E+00  0.00000000000E+00  0.17555715594E+03  0.17555715596E+03  0.25500000920E-02 0.  1.
        2   -1    0    0  501    0  0.00000000000E+00  0.00000000000E+00 -0.14193385735E+04  0.14193385735E+04  0.25500000920E-02 0. -1.
    10030    2    1    2    0    0  0.00000000000E+00  0.00000000000E+00 -0.12437814175E+04  0.15948957294E+04  0.99834872323E+03 0.  0.
        5    1    3    3  502    0 -0.43497264826E+03 -0.10756819455E+03 -0.97327852173E+03  0.10714780875E+04  0.46999998093E+01 0. -1.
       -5    1    3    3    0  502  0.43497264826E+03  0.10756819455E+03 -0.27050289581E+03  0.52341764190E+03  0.46999998093E+01 0.  1.
</event>
<event>
 5   0  0.3466598E-03  0.1007263E+04  0.7818609E-02  0.9300614E-01
       -1   -1    0    0    0  501  0.00000000000E+00  0.00000000000E+00  0.90861947710E+03  0.90861947711E+03  0.50400001928E-02 0. -1.
        1   -1    0    0  501    0  0.00000000000E+00  0.00000000000E+00 -0.27915413360E+03  0.27915413365E+03  0.50400001928E-02 0.  1.
    10030    2    1    2    0    0  0.00000000000E+00  0.00000000000E+00  0.62946534350E+03  0.11877736108E+04  0.10072633875E+04 0.  0.
        3    1    3    3  502    0 -0.19698276836E+03  0.31991022386E+03 -0.80786097930E+02  0.38428006217E+03  0.10100000352E+00 0.  1.
       -3    1    3    3    0  502  0.19698276836E+03 -0.31991022386E+03  0.71025144143E+03  0.80349354859E+03  0.10100000352E+00 0. -1.
</event>
<event>
 5   0  0.2417750E-03  0.9991265E+03  0.7818609E-02  0.9309503E-01
       -3   -1    0    0    0  501  0.00000000000E+00  0.00000000000E+00  0.74997701496E+03  0.74997702176E+03  0.10100000352E+00 0. -1.
        3   -1    0    0  501    0  0.00000000000E+00  0.00000000000E+00 -0.33276144639E+03  0.33276146172E+03  0.10100000352E+00 0.  1.
    10030    2    1    2    0    0  0.00000000000E+00  0.00000000000E+00  0.41721556858E+03  0.10827384835E+04  0.99912651499E+03 0.  0.
        1    1    3    3  502    0 -0.11011992750E+03 -0.20033311821E+03 -0.27275298663E+03  0.35588474036E+03  0.50400001928E-02 0.  1.
       -1    1    3    3    0  502  0.11011992750E+03  0.20033311821E+03  0.68996855521E+03  0.72685374312E+03  0.50400001928E-02 0. -1.
</event>
<event>
 5   0  0.3640180E-03  0.8726839E+03  0.7818609E-02  0.9460387E-01
        1   -1    0    0  501    0  0.00000000000E+00  0.00000000000E+00  0.47913782586E+03  0.47913782589E+03  0.50400001928E-02 0.  1.
       -1   -1    0    0    0  501  0.00000000000E+00  0.00000000000E+00 -0.39736854125E+03  0.39736854128E+03  0.50400001928E-02 0. -1.
    10030    2    1    2    0    0  0.00000000000E+00  0.00000000000E+00  0.81769284607E+02  0.87650636717E+03  0.87268390370E+03 0.  0.
        5    1    3    3  502    0 -0.17976125204E+03 -0.30925203258E+03  0.29182149694E+03  0.46166308436E+03  0.46999998093E+01 0.  1.
       -5    1    3    3    0  502  0.17976125204E+03  0.30925203258E+03 -0.21005221233E+03  0.41484328281E+03  0.46999998093E+01 0. -1.
</event>
<event>
 5   0  0.6199539E-03  0.9869777E+03  0.7818609E-02  0.9322944E-01
        2   -1    0    0  501    0  0.00000000000E+00  0.00000000000E+00  0.10069212445E+04  0.10069212445E+04  0.25500000920E-02 0.  1.
       -2   -1    0    0    0  501  0.00000000000E+00  0.00000000000E+00 -0.24185730139E+03  0.24185730140E+03  0.25500000920E-02 0. -1.
    10030    2    1    2    0    0  0.00000000000E+00  0.00000000000E+00  0.76506394311E+03  0.12487785459E+04  0.98697771995E+03 0.  0.
        2    1    3    3  502    0  0.60220144720E+02  0.45594666780E+03  0.15613465147E+03  0.48568699705E+03  0.25500000920E-02 0. -1.
       -2    1    3    3    0  502 -0.60220144720E+02 -0.45594666780E+03  0.60892929164E+03  0.76309154885E+03  0.25500000920E-02 0.  1.
</event>
<event>
 5   0  0.3569359E-03  0.9962894E+03  0.7818609E-02  0.9312624E-01
        1   -1    0    0  501    0  0.00000000000E+00  0.00000000000E+00  0.63105764641E+03  0.63105764643E+03  0.50400001928E-02 0. -1.
       -1   -1    0    0    0  501  0.00000000000E+00  0.00000000000E+00 -0.39322577073E+03  0.39322577077E+03  0.50400001928E-02 0.  1.
    10030    2    1    2    0    0  0.00000000000E+00  0.00000000000E+00  0.23783187568E+03  0.10242834172E+04  0.99628937446E+03 0.  0.
        4    1    3    3  502    0 -0.46891424864E+03 -0.14057694304E+03  0.24107283996E+02  0.49012776246E+03  0.12699999809E+01 0.  1.
       -4    1    3    3    0  502  0.46891424864E+03  0.14057694304E+03  0.21372459168E+03  0.53415565473E+03  0.12699999809E+01 0. -1.
</event>
<event>
 5   0  0.6376961E-03  0.1035144E+04  0.7818609E-02  0.9270818E-01
       -2   -1    0    0    0  501  0.00000000000E+00  0.00000000000E+00  0.32211241455E+03  0.32211241456E+03  0.25500000920E-02 0. -1.
        2   -1    0    0  501    0  0.00000000000E+00  0.00000000000E+00 -0.83163717267E+03  0.83163717267E+03  0.25500000920E-02 0.  1.
    10030    2    1    2    0    0  0.00000000000E+00  0.00000000000E+00 -0.50952475812E+03  0.11537495872E+04  0.10351437731E+04 0.  0.
        3    1    3    3  502    0 -0.76054990035E+02 -0.49128224847E+01  0.31582389571E+03  0.32488958222E+03  0.10100000352E+00 0. -1.
       -3    1    3    3    0  502  0.76054990035E+02  0.49128224847E+01 -0.82534865383E+03  0.82886000501E+03  0.10100000352E+00 0.  1.
</event>
<event>
 5   0  0.6022787E-03  0.1004582E+04  0.7818609E-02  0.9303533E-01
        2   -1    0    0  501    0  0.00000000000E+00  0.00000000000E+00  0.76130496402E+03  0.76130496402E+03  0.25500000920E-02 0. -1.
       -2   -1    0    0    0  501  0.00000000000E+00  0.00000000000E+00 -0.33139998981E+03  0.33139998982E+03  0.25500000920E-02 0.  1.
    10030    2    1    2    0    0  0.00000000000E+00  0.00000000000E+00  0.42990497421E+03  0.10927049538E+04  0.10045824154E+04 0.  0.
        5    1    3    3  502    0 -0.66842226293E+02 -0.22909431533E+02 -0.32594290057E+03  0.33354698275E+03  0.46999998093E+01 0.  1.
       -5    1    3    3    0  502  0.66842226293E+02  0.22909431533E+02  0.75584787478E+03  0.75915797109E+03  0.46999998093E+01 0. -1.
</event>
<event>
 5   0  0.6606947E-03  0.1000574E+04  0.7818609E-02  0.9307915E-01
        2   -1    0    0  501    0  0.00000000000E+00  0.00000000000E+00  0.15432871377E+04  0.15432871377E+04  0.25500000920E-02 0.  1.
       -2   -1    0    0    0  501  0.00000000000E+00  0.00000000000E+00 -0.16217801572E+03  0.16217801574E+03  0.25500000920E-02 0. -1.
    10030    2    1    2    0    0  0.00000000000E+00  0.00000000000E+00  0.13811091220E+04  0.17054651534E+04  0.10005743265E+04 0.  0.
        1    1    3    3  502    0 -0.38623332714E+03  0.28685268239E+03  0.45668189975E+03  0.66333928120E+03  0.50400001928E-02 0. -1.
       -1    1    3    3    0  502  0.38623332714E+03 -0.28685268239E+03  0.92442722221E+03  0.10421258722E+04  0.50400001928E-02 0.  1.
</event>
<event>
 5   0  0.3569359E-03  0.9976963E+03  0.7818609E-02  0.9311075E-01
       -1   -1    0    0    0  501  0.00000000000E+00  0.00000000000E+00  0.82496721887E+03  0.82496721889E+03  0.50400001928E-02 0. -1.
        1   -1    0    0  501    0  0.00000000000E+00  0.00000000000E+00 -0.30164770397E+03  0.30164770401E+03  0.50400001928E-02 0.  1.
    10030    2    1    2    0    0  0.00000000000E+00  0.00000000000E+00  0.52331951491E+03  0.11266149229E+04  0.99769628135E+03 0.  0.
        4    1    3    3  502    0 -0.20702384245E+03  0.29582983316E+03  0.65033610163E+03  0.74384999800E+03  0.12699999809E+01 0. -1.
       -4    1    3    3    0  502  0.20702384245E+03 -0.29582983316E+03 -0.12701658673E+03  0.38276492490E+03  0.12699999809E+01 0.  1.
</event>
<event>
 5   0  0.6606947E-03  0.1005217E+04  0.7818609E-02  0.9302842E-01
       -2   -1    0    0    0  501  0.00000000000E+00  0.00000000000E+00  0.23480158247E+03  0.23480158249E+03  0.25500000920E-02 0.  1.
        2   -1    0    0  501    0  0.00000000000E+00  0.00000000000E+00 -0.10758661508E+04  0.10758661508E+04  0.25500000920E-02 0. -1.
    10030    2    1    2    0    0  0.00000000000E+00  0.00000000000E+00 -0.84106456835E+03  0.13106677333E+04  0.10052165433E+04 0.  0.
        1    1    3    3  502    0  0.15028643391E+03  0.44414280340E+03 -0.65655088754E+03  0.80678864021E+03  0.50400001928E-02 0.  1.
       -1    1    3    3    0  502 -0.15028643391E+03 -0.44414280340E+03 -0.18451368081E+03  0.50387909310E+03  0.50400001928E-02 0. -1.
</event>
<event>
 5   0  0.3569359E-03  0.9985892E+03  0.7818609E-02  0.9310093E-01
        1   -1    0    0  501    0  0.00000000000E+00  0.00000000000E+00  0.55598249328E+03  0.55598249330E+03  0.50400001928E-02 0. -1.
       -1   -1    0    0    0  501  0.00000000000E+00  0.00000000000E+00 -0.44838662603E+03  0.44838662606E+03  0.50400001928E-02 0.  1.
    10030    2    1    2    0    0  0.00000000000E+00  0.00000000000E+00  0.10759586725E+03  0.10043691194E+04  0.99858923350E+03 0.  0.
        4    1    3    3  502    0  0.42123075690E+03  0.25145924080E+03  0.14721393962E+03  0.51219201210E+03  0.12699999809E+01 0. -1.
       -4    1    3    3    0  502 -0.42123075690E+03 -0.25145924080E+03 -0.39618072378E+02  0.49217710725E+03  0.12699999809E+01 0.  1.
</event>
<event>
 5   0  0.6360455E-03  0.1020607E+04  0.7818609E-02  0.9286227E-01
        2   -1    0    0  501    0  0.00000000000E+00  0.00000000000E+00  0.37100975950E+03  0.37100975951E+03  0.25500000920E-02 0. -1.
       -2   -1    0    0    0  501  0.00000000000E+00  0.00000000000E+00 -0.70189500197E+03  0.70189500198E+03  0.25500000920E-02 0.  1.
    10030    2    1    2    0    0  0.00000000000E+00  0.00000000000E+00 -0.33088524248E+03  0.10729047615E+04  0.10206074581E+04 0.  0.
        4    1    3    3  502    0 -0.47277258372E+03  0.62566561909E+01 -0.36725692630E+03  0.59869217841E+03  0.12699999809E+01 0.  1.
       -4    1    3    3    0  502  0.47277258372E+03 -0.62566561909E+01  0.36371683826E+02  0.47421258308E+03  0.12699999809E+01 0. -1.
</event>
<event>
 5   0  0.3608845E-03  0.1019972E+04  0.7818609E-02  0.9286907E-01
       -1   -1    0    0    0  501  0.00000000000E+00  0.00000000000E+00  0.37519888071E+03  0.37519888074E+03  0.50400001928E-02 0.  1.
        1   -1    0    0  501    0  0.00000000000E+00  0.00000000000E+00 -0.69319409952E+03  0.69319409954E+03  0.50400001928E-02 0. -1.
    10030    2    1    2    0    0  0.00000000000E+00  0.00000000000E+00 -0.31799521881E+03  0.10683929803E+04  0.10199718629E+04 0.  0.
        1    1    3    3  502    0  0.51350032410E+02  0.57945606877E+02  0.36900684661E+03  0.37704187042E+03  0.50400001928E-02 0.  1.
       -1    1    3    3    0  502 -0.51350032410E+02 -0.57945606877E+02 -0.68700206542E+03  0.69135110986E+03  0.50400001928E-02 0. -1.
</event>
<event>
 5   0  0.6022787E-03  0.1001777E+04  0.7818609E-02  0.9306598E-01
        2   -1    0    0  501    0  0.00000000000E+00  0.00000000000E+00  0.59251152358E+03  0.59251152359E+03  0.25500000920E-02 0. -1.
       -2   -1    0    0    0  501  0.00000000000E+00  0.00000000000E+00 -0.42343339450E+03  0.42343339451E+03  0.25500000920E-02 0.  1.
    10030    2    1    2    0    0  0.00000000000E+00  0.00000000000E+00  0.16907812908E+03  0.10159449181E+04  0.10017767530E+04 0.  0.
        5    1    3    3  502    0 -0.27766972158E+03 -0.33880760956E+03 -0.16174532682E+03  0.46698470138E+03  0.46999998093E+01 0.  1.
       -5    1    3    3    0  502  0.27766972158E+03  0.33880760956E+03  0.33082345589E+03  0.54896021672E+03  0.46999998093E+01 0. -1.
</event>
<event>
 5   0  0.6022787E-03  0.9968229E+03  0.7818609E-02  0.9312036E-01
       -2   -1    0    0    0  501  0.00000000000E+00  0.00000000000E+00  0.24294992110E+03  0.24294992111E+03  0.25500000920E-02 0. -1.
        2   -1    0    0  501    0  0.00000000000E+00  0.00000000000E+00 -0.10224905346E+04  0.10224905346E+04  0.25500000920E-02 0.  1.
    10030    2    1    2    0    0  0.00000000000E+00  0.00000000000E+00 -0.77954061349E+03  0.12654404557E+04  0.99682294258E+03 0.  0.
        5    1    3    3  502    0  0.26995966257E+03 -0.24080654515E+03  0.45431279539E+02  0.36462597653E+03  0.46999998093E+01 0.  1.
       -5    1    3    3    0  502 -0.26995966257E+03  0.24080654515E+03 -0.82497189303E+03  0.90081447918E+03  0.46999998093E+01 0. -1.
</event>
<event>
 5   0  0.6199539E-03  0.9987402E+03  0.7818609E-02  0.9309928E-01
        2   -1    0    0  501    0  0.00000000000E+00  0.00000000000E+00  0.86620268012E+03  0.86620268012E+03  0.25500000920E-02 0. -1.
       -2   -1    0    0    0  501  0.00000000000E+00  0.00000000000E+00 -0.28788933453E+03  0.28788933454E+03  0.25500000920E-02 0.  1.
    10030    2    1    2    0    0  0.00000000000E+00  0.00000000000E+00  0.57831334559E+03  0.11540920147E+04  0.99874023281E+03 0.  0.
        2    1    3    3  502    0  0.23453405505E+03 -0.40407076109E+03  0.49291060836E+03  0.67914672258E+03  0.25500000920E-02 0. -1.
       -2    1    3    3    0  502 -0.23453405505E+03  0.40407076109E+03  0.85402737225E+02  0.47494529209E+03  0.25500000920E-02 0.  1.
</event>
<event>
 5   0  0.6199539E-03  0.1001572E+04  0.7818609E-02  0.9306822E-01
       -2   -1    0    0    0  501  0.00000000000E+00  0.00000000000E+00  0.24572966637E+03  0.24572966639E+03  0.25500000920E-02 0.  1.
        2   -1    0    0  501    0  0.00000000000E+00  0.00000000000E+00 -0.10205795003E+04  0.10205795003E+04  0.25500000920E-02 0. -1.
    10030    2    1    2    0    0  0.00000000000E+00  0.00000000000E+00 -0.77484983394E+03  0.12663091667E+04  0.10015720845E+04 0.  0.
        2    1    3    3  502    0  0.13113835899E+03  0.48367608513E+02  0.22056780055E+03  0.26112611780E+03  0.25500000920E-02 0.  1.
       -2    1    3    3    0  502 -0.13113835899E+03 -0.48367608513E+02 -0.99541763449E+03  0.10051830489E+04  0.25500000920E-02 0. -1.
</event>
<event>
 5   0  0.6606947E-03  0.9966405E+03  0.7818609E-02  0.9312237E-01
       -2   -1    0    0    0  501  0.00000000000E+00  0.00000000000E+00  0.38980301079E+03  0.38980301080E+03  0.25500000920E-02 0.  1.
        2   -1    0    0  501    0  0.00000000000E+00  0.00000000000E+00 -0.63704756615E+03  0.63704756615E+03  0.25500000920E-02 0. -1.
    10030    2    1    2    0    0  0.00000000000E+00  0.00000000000E+00 -0.24724455535E+03  0.10268505770E+04  0.99664047542E+03 0.  0.
        1    1    3    3  502    0 -0.42394707046E+03 -0.21502444509E+03  0.30430646261E+02  0.47633250445E+03  0.50400001928E-02 0.  1.
       -1    1    3    3    0  502  0.42394707046E+03  0.21502444509E+03 -0.27767520162E+03  0.55051807250E+03  0.50400001928E-02 0. -1.
</event>
<event>
 5   0  0.3466598E-03  0.1000179E+04  0.7818609E-02  0.9308349E-01
       -1   -1    0    0    0  501  0.00000000000E+00  0.00000000000E+00  0.40608116003E+03  0.40608116007E+03  0.50400001928E-02 0. -1.
        1   -1    0    0  501    0  0.00000000000E+00  0.00000000000E+00 -0.61586068487E+03  0.61586068489E+03  0.50400001928E-02 0.  1.
    10030    2    1    2    0    0  0.00000000000E+00  0.00000000000E+00 -0.20977952484E+03  0.10219418450E+04  0.10001788267E+04 0.  0.
        3    1    3    3  502    0  0.13046969000E+02 -0.92799839356E+02  0.39702945685E+03  0.40793925209E+03  0.10100000352E+00 0. -1.
       -3    1    3    3    0  502 -0.13046969000E+02  0.92799839356E+02 -0.60680898169E+03  0.61400259287E+03  0.10100000352E+00 0.  1.
</event>
<event>
 5   0  0.3466598E-03  0.9979956E+03  0.7818609E-02  0.9310746E-01
       -1   -1    0    0    0  501  0.00000000000E+00  0.00000000000E+00  0.32338492505E+03  0.32338492508E+03  0.50400001928E-02 0. -1.
        1   -1    0    0  501    0  0.00000000000E+00  0.00000000000E+00 -0.76997658772E+03  0.76997658774E+03  0.50400001928E-02 0.  1.
    10030    2    1    2    0    0  0.00000000000E+00  0.00000000000E+00 -0.44659166268E+03  0.10933615128E+04  0.99799563353E+03 0.  0.
        3    1    3    3  502    0  0.15707351195E+03  0.88300290762E+02 -0.73308893942E+03  0.75490955273E+03  0.10100000352E+00 0.  1.
       -3    1    3    3    0  502 -0.15707351195E+03 -0.88300290762E+02  0.28649727675E+03  0.33845196009E+03  0.10100000352E+00 0. -1.
</event>
<event>
 5   0  0.2417750E-03  0.9978806E+03  0.7818609E-02  0.9310872E-01
       -3   -1    0    0    0  501  0.00000000000E+00  0.00000000000E+00  0.48712452002E+03  0.48712453049E+03  0.10100000352E+00 0. -1.
        3   -1    0    0  501    0  0.00000000000E+00  0.00000000000E+00 -0.51104270668E+03  0.51104271666E+03  0.10100000352E+00 0.  1.
    10030    2    1    2    0    0  0.00000000000E+00  0.00000000000E+00 -0.23918186665E+02  0.99816724715E+03  0.99788064097E+03 0.  0.
        4    1    3    3  502    0  0.18295230408E+03 -0.63393540205E+02 -0.47192759699E+03  0.51010543636E+03  0.12699999809E+01 0.  1.
       -4    1    3    3    0  502 -0.18295230408E+03  0.63393540205E+02  0.44800941032E+03  0.48806181078E+03  0.12699999809E+01 0. -1.
</event>
<event>
 5   0  0.6376961E-03  0.9964939E+03  0.7818609E-02  0.9312399E-01
        2   -1    0    0  501    0  0.00000000000E+00  0.00000000000E+00  0.25202247997E+03  0.25202247998E+03  0.25500000920E-02 0. -1.
       -2   -1    0    0    0  501  0.00000000000E+00  0.00000000000E+00 -0.98503129652E+03  0.98503129652E+03  0.25500000920E-02 0.  1.
    10030    2    1    2    0    0  0.00000000000E+00  0.00000000000E+00 -0.73300881655E+03  0.12370537765E+04  0.99649391410E+03 0.  0.
        3    1    3    3  502    0 -0.17174826224E+03 -0.38411328180E+03 -0.35233710487E+02  0.42223441758E+03  0.10100000352E+00 0. -1.
       -3    1    3    3    0  502  0.17174826224E+03  0.38411328180E+03 -0.69777510606E+03  0.81481935892E+03  0.10100000352E+00 0.  1.
</event>
<event>
 5   0  0.3608845E-03  0.9442240E+03  0.7818609E-02  0.9371927E-01
       -1   -1    0    0    0  501  0.00000000000E+00  0.00000000000E+00  0.36118573434E+03  0.36118573438E+03  0.50400001928E-02 0. -1.
        1   -1    0    0  501    0  0.00000000000E+00  0.00000000000E+00 -0.61710554820E+03  0.61710554822E+03  0.50400001928E-02 0.  1.
    10030    2    1    2    0    0  0.00000000000E+00  0.00000000000E+00 -0.25591981386E+03  0.97829128260E+03  0.94422395780E+03 0.  0.
        1    1    3    3  502    0 -0.90131846750E+02  0.24180989569E+03  0.28164414567E+03  0.38199371757E+03  0.50400001928E-02 0. -1.
       -1    1    3    3    0  502  0.90131846750E+02 -0.24180989569E+03 -0.53756395953E+03  0.59629756503E+03  0.50400001928E-02 0.  1.
</event>
<event>
 5   0  0.6199539E-03  0.1000155E+04  0.7818609E-02  0.9308375E-01
        2   -1    0    0  501    0  0.00000000000E+00  0.00000000000E+00  0.14975765442E+04  0.14975765442E+04  0.25500000920E-02 0. -1.
       -2   -1    0    0    0  501  0.00000000000E+00  0.00000000000E+00 -0.16698818640E+03  0.16698818642E+03  0.25500000920E-02 0.  1.
    10030    2    1    2    0    0  0.00000000000E+00  0.00000000000E+00  0.13305883578E+04  0.16645647306E+04  0.10001551702E+04 0.  0.
        2    1    3    3  502    0  0.46509967173E+03 -0.48914746464E+02  0.96005612579E+03  0.10679036107E+04  0.25500000920E-02 0. -1.
       -2    1    3    3    0  502 -0.46509967173E+03  0.48914746464E+02  0.37053223201E+03  0.59666111993E+03  0.25500000920E-02 0.  1.
</event>
<event>
 5   0  0.3569359E-03  0.1009523E+04  0.7818609E-02  0.9298162E-01
        1   -1    0    0  501    0  0.00000000000E+00  0.00000000000E+00  0.18663189967E+03  0.18663189974E+03  0.50400001928E-02 0.  1.
       -1   -1    0    0    0  501  0.00000000000E+00  0.00000000000E+00 -0.13651691145E+04  0.13651691145E+04  0.50400001928E-02 0. -1.
    10030    2    1    2    0    0  0.00000000000E+00  0.00000000000E+00 -0.11785372148E+04  0.15518010142E+04  0.10095228680E+04 0.  0.
        4    1    3    3  502    0  0.36032078439E+03  0.35001898473E+03 -0.51336738901E+03  0.71825625395E+03  0.12699999809E+01 0.  1.
       -4    1    3    3    0  502 -0.36032078439E+03 -0.35001898473E+03 -0.66516982577E+03  0.83354476026E+03  0.12699999809E+01 0. -1.
</event>
<event>
 5   0  0.3608845E-03  0.1002239E+04  0.7818609E-02  0.9306092E-01
        1   -1    0    0  501    0  0.00000000000E+00  0.00000000000E+00  0.10289137807E+04  0.10289137807E+04  0.50400001928E-02 0.  1.
       -1   -1    0    0    0  501  0.00000000000E+00  0.00000000000E+00 -0.24406407756E+03  0.24406407761E+03  0.50400001928E-02 0. -1.
    10030    2    1    2    0    0  0.00000000000E+00  0.00000000000E+00  0.78484970317E+03  0.12729778583E+04  0.10022392785E+04 0.  0.
        1    1    3    3  502    0 -0.36388375415E+03  0.19726929037E+02 -0.44472248306E+02  0.36712166806E+03  0.50400001928E-02 0. -1.
       -1    1    3    3    0  502  0.36388375415E+03 -0.19726929037E+02  0.82932195147E+03  0.90585619029E+03  0.50400001928E-02 0.  1.
</event>
<event>
 5   0  0.3643002E-03  0.1009018E+04  0.7818609E-02  0.9298709E-01
       -1   -1    0    0    0  501  0.00000000000E+00  0.00000000000E+00  0.50812552744E+03  0.50812552747E+03  0.50400001928E-02 0. -1.
        1   -1    0    0  501    0  0.00000000000E+00  0.00000000000E+00 -0.50091811915E+03  0.50091811917E+03  0.50400001928E-02 0.  1.
    10030    2    1    2    0    0  0.00000000000E+00  0.00000000000E+00  0.72074082955E+01  0.10090436466E+04  0.10090179057E+04 0.  0.
        2    1    3    3  502    0  0.22406909842E+03 -0.12324622473E+03  0.43850868312E+03  0.50762826749E+03  0.25500000920E-02 0. -1.
       -2    1    3    3    0  502 -0.22406909842E+03  0.12324622473E+03 -0.43130127482E+03  0.50141537915E+03  0.25500000920E-02 0.  1.
</event>
<event>
 5   0  0.3466598E-03  0.1004288E+04  0.7818609E-02  0.9303854E-01
       -1   -1    0    0    0  501  0.00000000000E+00  0.00000000000E+00  0.83766441345E+03  0.83766441346E+03  0.50400001928E-02 0. -1.
        1   -1    0    0  501    0  0.00000000000E+00  0.00000000000E+00 -0.30101391058E+03  0.30101391062E+03  0.50400001928E-02 0.  1.
    10030    2    1    2    0    0  0.00000000000E+00  0.00000000000E+00  0.53665050287E+03  0.11386783241E+04  0.10042880879E+04 0.  0.
        3    1    3    3  502    0 -0.11440259362E+03  0.44456415200E+03  0.37562572843E+02  0.46058245272E+03  0.10100000352E+00 0.  1.
       -3    1    3    3    0  502  0.11440259362E+03 -0.44456415200E+03  0.49908793002E+03  0.67809587137E+03  0.10100000352E+00 0. -1.
</event>
<event>
 5   0  0.6360455E-03  0.9990200E+03  0.7818609E-02  0.9309620E-01
        2   -1    0    0  501    0  0.00000000000E+00  0.00000000000E+00  0.20319931942E+04  0.20319931942E+04  0.25500000920E-02 0. -1.
       -2   -1    0    0    0  501  0.00000000000E+00  0.00000000000E+00 -0.12279088918E+03  0.12279088921E+03  0.25500000920E-02 0.  1.
    10030    2    1    2    0    0  0.00000000000E+00  0.00000000000E+00  0.19092023050E+04  0.21547840834E+04  0.99902002215E+03 0.  0.
        4    1    3    3  502    0 -0.23487552380E+03 -0.80809219666E+02  0.19860283671E+02  0.24918403928E+03  0.12699999809E+01 0.  1.
       -4    1    3    3    0  502  0.23487552380E+03  0.80809219666E+02  0.18893420214E+04  0.19056000442E+04  0.12699999809E+01 0. -1.
</event>
<event>
 5   0  0.6360455E-03  0.9596787E+03  0.7818609E-02  0.9353909E-01
       -2   -1    0    0    0  501  0.00000000000E+00  0.00000000000E+00  0.37513617989E+03  0.37513617990E+03  0.25500000920E-02 0.  1.
        2   -1    0    0  501    0  0.00000000000E+00  0.00000000000E+00 -0.61376592665E+03  0.61376592666E+03  0.25500000920E-02 0. -1.
    10030    2    1    2    0    0  0.00000000000E+00  0.00000000000E+00 -0.23862974677E+03  0.98890210656E+03  0.95967870681E+03 0.  0.
        4    1    3    3  502    0 -0.34425402726E+03  0.32592609429E+03 -0.42856100482E+02  0.47600095848E+03  0.12699999809E+01 0.  1.
       -4    1    3    3    0  502  0.34425402726E+03 -0.32592609429E+03 -0.19577364629E+03  0.51290114808E+03  0.12699999809E+01 0. -1.
</event>
<event>
 5   0  0.3643002E-03  0.1016705E+04  0.7818609E-02  0.9290411E-01
       -1   -1    0    0    0  501  0.00000000000E+00  0.00000000000E+00  0.41578894696E+03  0.41578894699E+03  0.50400001928E-02 0.  1.
        1   -1    0    0  501    0  0.00000000000E+00  0.00000000000E+00 -0.62152243768E+03  0.62152243770E+03  0.50400001928E-02 0. -1.
    10030    2    1    2    0    0  0.00000000000E+00  0.00000000000E+00 -0.20573349072E+03  0.10373113847E+04  0.10167047947E+04 0.  0.
        2    1    3    3  502    0  0.49386091820E+02  0.23512117390E+03 -0.55994363703E+03  0.60930930498E+03  0.25500000920E-02 0. -1.
       -2    1    3    3    0  502 -0.49386091820E+02 -0.23512117390E+03  0.35421014631E+03  0.42800207971E+03  0.25500000920E-02 0.  1.
</event>
<event>
 5   0  0.6360455E-03  0.9929933E+03  0.7818609E-02  0.9316263E-01
       -2   -1    0    0    0  501  0.00000000000E+00  0.00000000000E+00  0.84058677645E+03  0.84058677646E+03  0.25500000920E-02 0.  1.
        2   -1    0    0  501    0  0.00000000000E+00  0.00000000000E+00 -0.29325815378E+03  0.29325815379E+03  0.25500000920E-02 0. -1.
    10030    2    1    2    0    0  0.00000000000E+00  0.00000000000E+00  0.54732862267E+03  0.11338449303E+04  0.99299330545E+03 0.  0.
        4    1    3    3  502    0 -0.14660868670E+03  0.12132066965E+03 -0.24996180658E+03  0.31415812825E+03  0.12699999809E+01 0. -1.
       -4    1    3    3    0  502  0.14660868670E+03 -0.12132066965E+03  0.79729042925E+03  0.81968680200E+03  0.12699999809E+01 0.  1.
</event>
<event>
 5   0  0.6606947E-03  0.1000024E+04  0.7818609E-02  0.9308518E-01
        2   -1    0    0  501    0  0.00000000000E+00  0.00000000000E+00  0.16524546518E+04  0.16524546518E+04  0.25500000920E-02 0.  1.
       -2   -1    0    0    0  501  0.00000000000E+00  0.00000000000E+00 -0.15129742749E+03  0.15129742751E+03  0.25500000920E-02 0. -1.
    10030    2    1    2    0    0  0.00000000000E+00  0.00000000000E+00  0.15011572243E+04  0.18037520793E+04  0.10000242755E+04 0.  0.
        1    1    3    3  502    0  0.15172033037E+03 -0.22373486878E+03  0.15092857049E+04  0.15333035215E+04  0.50400001928E-02 0.  1.
       -1    1    3    3    0  502 -0.15172033037E+03  0.22373486878E+03 -0.81284806207E+01  0.27044855773E+03  0.50400001928E-02 0. -1.
</event>
<event>
 5   0  0.6360455E-03  0.9934746E+03  0.7818609E-02  0.9315731E-01
       -2   -1    0    0    0  501  0.00000000000E+00  0.00000000000E+00  0.28814250345E+03  0.28814250347E+03  0.25500000920E-02 0.  1.
        2   -1    0    0  501    0  0.00000000000E+00  0.00000000000E+00 -0.85633997558E+03  0.85633997558E+03  0.25500000920E-02 0. -1.
    10030    2    1    2    0    0  0.00000000000E+00  0.00000000000E+00 -0.56819747213E+03  0.11444824790E+04  0.99347459833E+03 0.  0.
        4    1    3    3  502    0 -0.37007716058E+03  0.32247399021E+03 -0.19636692281E+03  0.52868531322E+03  0.12699999809E+01 0.  1.
       -4    1    3    3    0  502  0.37007716058E+03 -0.32247399021E+03 -0.37183054931E+03  0.61579716583E+03  0.12699999809E+01 0. -1.
</event>
<event>
 5   0  0.3466598E-03  0.1005394E+04  0.7818609E-02  0.9302649E-01
        1   -1    0    0  501    0  0.00000000000E+00  0.00000000000E+00  0.68045655124E+03  0.68045655126E+03  0.50400001928E-02 0.  1.
       -1   -1    0    0    0  501  0.00000000000E+00  0.00000000000E+00 -0.37137451454E+03  0.37137451457E+03  0.50400001928E-02 0. -1.
    10030    2    1    2    0    0  0.00000000000E+00  0.00000000000E+00  0.30908203670E+03  0.10518310658E+04  0.10053938958E+04 0.  0.
        3    1    3    3  502    0 -0.36715453129E+03 -0.34335771677E+03  0.15172607370E+03  0.52508835747E+03  0.10100000352E+00 0.  1.
       -3    1    3    3    0  502  0.36715453129E+03  0.34335771677E+03  0.15735596300E+03  0.52674270836E+03  0.10100000352E+00 0. -1.
</event>
<event>
 5   0  0.6022787E-03  0.1002356E+04  0.7818609E-02  0.9305965E-01
       -2   -1    0    0    0  501  0.00000000000E+00  0.00000000000E+00  0.27575613138E+03  0.27575613139E+03  0.25500000920E-02 0.  1.
        2   -1    0    0  501    0  0.00000000000E+00  0.00000000000E+00 -0.91087475023E+03  0.91087475023E+03  0.25500000920E-02 0. -1.
    10030    2    1    2    0    0  0.00000000000E+00  0.00000000000E+00 -0.63511861885E+03  0.11866308816E+04  0.10023558197E+04 0.  0.
        5    1    3    3  502    0 -0.37583503576E+03 -0.13967175895E+03 -0.67349441018E+03  0.78382203649E+03  0.46999998093E+01 0. -1.
       -5    1    3    3    0  502  0.37583503576E+03  0.13967175895E+03  0.38375791326E+02  0.40280884512E+03  0.46999998093E+01 0.  1.
</event>
<event>
 5   0  0.3466598E-03  0.1002098E+04  0.7818609E-02  0.9306247E-01
       -1   -1    0    0    0  501  0.00000000000E+00  0.00000000000E+00  0.14618865749E+03  0.14618865758E+03  0.50400001928E-02 0.  1.
        1   -1    0    0  501    0  0.00000000000E+00  0.00000000000E+00 -0.17173005535E+04  0.17173005535E+04  0.50400001928E-02 0. -1.
    10030    2    1    2    0    0  0.00000000000E+00  0.00000000000E+00 -0.15711118960E+04  0.18634892111E+04  0.10020975252E+04 0.  0.
        3    1    3    3  502    0 -0.78824022029E+02 -0.17020402762E+03  0.78437078515E+02  0.20331016442E+03  0.10100000352E+00 0.  1.
       -3    1    3    3    0  502  0.78824022029E+02  0.17020402762E+03 -0.16495489745E+04  0.16601790467E+04  0.10100000352E+00 0. -1.
</event>
<event>
 5   0  0.3466598E-03  0.1000064E+04  0.7818609E-02  0.9308475E-01
        1   -1    0    0  501    0  0.00000000000E+00  0.00000000000E+00  0.37342408177E+03  0.37342408180E+03  0.50400001928E-02 0. -1.
       -1   -1    0    0    0  501  0.00000000000E+00  0.00000000000E+00 -0.66956580023E+03  0.66956580025E+03  0.50400001928E-02 0.  1.
    10030    2    1    2    0    0  0.00000000000E+00  0.00000000000E+00 -0.29614171846E+03  0.10429898821E+04  0.10000639863E+04 0.  0.
        3    1    3    3  502    0  0.47430856555E+03 -0.47420190043E+02  0.94578205269E+01  0.47676697699E+03  0.10100000352E+00 0.  1.
       -3    1    3    3    0  502 -0.47430856555E+03  0.47420190043E+02 -0.30559953898E+03  0.56622290506E+03  0.10100000352E+00 0. -1.
</event>
<event>
 5   0  0.6022787E-03  0.9900093E+03  0.7818609E-02  0.9319571E-01
        2   -1    0    0  501    0  0.00000000000E+00  0.00000000000E+00  0.95541729006E+03  0.95541729006E+03  0.25500000920E-02 0.  1.
       -2   -1    0    0    0  501  0.00000000000E+00  0.00000000000E+00 -0.25646343942E+03  0.25646343943E+03  0.25500000920E-02 0. -1.
    10030    2    1    2    0    0  0.00000000000E+00  0.00000000000E+00  0.69895385064E+03  0.12118807295E+04  0.99000930157E+03 0.  0.
        5    1    3    3  502    0 -0.62726955937E+02 -0.29750306602E+03  0.82760883926E+03  0.88170359311E+03  0.46999998093E+01 0.  1.
       -5    1    3    3    0  502  0.62726955937E+02  0.29750306602E+03 -0.12865498862E+03  0.33017713638E+03  0.46999998093E+01 0. -1.
</event>
<event>
 5   0  0.3608845E-03  0.1009585E+04  0.7818609E-02  0.9298094E-01
        1   -1    0    0  501    0  0.00000000000E+00  0.00000000000E+00  0.84272859904E+03  0.84272859905E+03  0.50400001928E-02 0. -1.
       -1   -1    0    0    0  501  0.00000000000E+00  0.00000000000E+00 -0.30236973295E+03  0.30236973299E+03  0.50400001928E-02 0.  1.
    10030    2    1    2    0    0  0.00000000000E+00  0.00000000000E+00  0.54035886609E+03  0.11450983320E+04  0.10095853039E+04 0.  0.
        1    1    3    3  502    0 -0.16730632139E+03 -0.27783331848E+01 -0.26999880196E+03  0.31764520679E+03  0.50400001928E-02 0.  1.
       -1    1    3    3    0  502  0.16730632139E+03  0.27783331848E+01  0.81035766804E+03  0.82745312526E+03  0.50400001928E-02 0. -1.
</event>
<event>
 5   0  0.3569359E-03  0.1002320E+04  0.7818609E-02  0.9306004E-01
        1   -1    0    0  501    0  0.00000000000E+00  0.00000000000E+00  0.82491772867E+03  0.82491772868E+03  0.50400001928E-02 0.  1.
       -1   -1    0    0    0  501  0.00000000000E+00  0.00000000000E+00 -0.30446854192E+03  0.30446854196E+03  0.50400001928E-02 0. -1.
    10030    2    1    2    0    0  0.00000000000E+00  0.00000000000E+00  0.52044918675E+03  0.11293862706E+04  0.10023203043E+04 0.  0.
        4    1    3    3  502    0 -0.13284646322E+02 -0.11714361095E+03  0.80906863118E+03  0.81761407172E+03  0.12699999809E+01 0.  1.
       -4    1    3    3    0  502  0.13284646322E+02  0.11714361095E+03 -0.28861944443E+03  0.31177219892E+03  0.12699999809E+01 0. -1.
</event>
<event>
 5   0  0.3640180E-03  0.9823339E+03  0.7818609E-02  0.9328136E-01
        1   -1    0    0  501    0  0.00000000000E+00  0.00000000000E+00  0.15825952827E+04  0.15825952827E+04  0.50400001928E-02 0.  1.
       -1   -1    0    0    0  501  0.00000000000E+00  0.00000000000E+00 -0.15243630511E+03  0.15243630520E+03  0.50400001928E-02 0. -1.
    10030    2    1    2    0    0  0.00000000000E+00  0.00000000000E+00  0.14301589776E+04  0.17350315879E+04  0.98233390956E+03 0.  0.
        5    1    3    3  502    0 -0.46982860414E+02 -0.25164631414E+03 -0.25243636003E+02  0.25727920194E+03  0.46999998093E+01 0. -1.
       -5    1    3    3    0  502  0.46982860414E+02  0.25164631414E+03  0.14554026136E+04  0.14777523860E+04  0.46999998093E+01 0.  1.
</event>
<event>
 5   0  0.3569359E-03  0.1010149E+04  0.7818609E-02  0.9297483E-01
       -1   -1    0    0    0  501  0.00000000000E+00  0.00000000000E+00  0.76540020491E+03  0.76540020492E+03  0.50400001928E-02 0. -1.
        1   -1    0    0  501    0  0.00000000000E+00  0.00000000000E+00 -0.33329032328E+03  0.33329032331E+03  0.50400001928E-02 0.  1.
    10030    2    1    2    0    0  0.00000000000E+00  0.00000000000E+00  0.43210988163E+03  0.10986905282E+04  0.10101494578E+04 0.  0.
        4    1    3    3  502    0  0.24084446804E+03 -0.95392576520E+02 -0.25553079731E+03  0.36387278370E+03  0.12699999809E+01 0.  1.
       -4    1    3    3    0  502 -0.24084446804E+03  0.95392576520E+02  0.68764067895E+03  0.73481774453E+03  0.12699999809E+01 0. -1.
</event>
<event>
 5   0  0.3608845E-03  0.1017884E+04  0.7818609E-02  0.9289145E-01
        1   -1    0    0  501    0  0.00000000000E+00  0.00000000000E+00  0.10089596825E+04  0.10089596825E+04  0.50400001928E-02 0. -1.
       -1   -1    0    0    0  501  0.00000000000E+00  0.00000000000E+00 -0.25672159545E+03  0.25672159550E+03  0.50400001928E-02 0.  1.
    10030    2    1    2    0    0  0.00000000000E+00  0.00000000000E+00  0.75223808708E+03  0.12656812780E+04  0.10178835680E+04 0.  0.
        1    1    3    3  502    0 -0.19230271421E+03 -0.18843167653E+03 -0.16092055835E+03  0.31365945982E+03  0.50400001928E-02 0.  1.
       -1    1    3    3    0  502  0.19230271421E+03  0.18843167653E+03  0.91315864543E+03  0.95202181822E+03  0.50400001928E-02 0. -1.
</event>
<event>
 5   0  0.6360455E-03  0.1030644E+04  0.7818609E-02  0.9275559E-01
       -2   -1    0    0    0  501  0.00000000000E+00  0.00000000000E+00  0.11490765638E+03  0.11490765641E+03  0.25500000920E-02 0.  1.
        2   -1    0    0  501    0  0.00000000000E+00  0.00000000000E+00 -0.23110471826E+04  0.23110471826E+04  0.25500000920E-02 0. -1.
    10030    2    1    2    0    0  0.00000000000E+00  0.00000000000E+00 -0.21961395262E+04  0.24259548390E+04  0.10306444888E+04 0.  0.
        4    1    3    3  502    0 -0.16844021737E+03  0.48389689803E+03 -0.12275747057E+04  0.13302141128E+04  0.12699999809E+01 0. -1.
       -4    1    3    3    0  502  0.16844021737E+03 -0.48389689803E+03 -0.96856482049E+03  0.10957407262E+04  0.12699999809E+01 0.  1.
</event>
<event>
 5   0  0.3569359E-03  0.1019047E+04  0.7818609E-02  0.9287898E-01
       -1   -1    0    0    0  501  0.00000000000E+00  0.00000000000E+00  0.47866705120E+03  0.47866705122E+03  0.50400001928E-02 0.  1.
        1   -1    0    0  501    0  0.00000000000E+00  0.00000000000E+00 -0.54236858642E+03  0.54236858644E+03  0.50400001928E-02 0. -1.
    10030    2    1    2    0    0  0.00000000000E+00  0.00000000000E+00 -0.63701535217E+02  0.10210356377E+04  0.10190465582E+04 0.  0.
        4    1    3    3  502    0  0.23878681522E+03 -0.19175471002E+03 -0.43985973917E+03  0.53597314763E+03  0.12699999809E+01 0. -1.
       -4    1    3    3    0  502 -0.23878681522E+03  0.19175471002E+03  0.37615820395E+03  0.48506249003E+03  0.12699999809E+01 0.  1.
</event>
<event>
 5   0  0.3608845E-03  0.1052359E+04  0.7818609E-02  0.9252912E-01
        1   -1    0    0  501    0  0.00000000000E+00  0.00000000000E+00  0.29468270786E+03  0.29468270791E+03  0.50400001928E-02 0. -1.
       -1   -1    0    0    0  501  0.00000000000E+00  0.00000000000E+00 -0.93953571320E+03  0.93953571321E+03  0.50400001928E-02 0.  1.
    10030    2    1    2    0    0  0.00000000000E+00  0.00000000000E+00 -0.64485300534E+03  0.12342184211E+04  0.10523591177E+04 0.  0.
        1    1    3    3  502    0 -0.33028777068E+03 -0.39247939283E+03 -0.18497803473E+03  0.54529529487E+03  0.50400001928E-02 0. -1.
       -1    1    3    3    0  502  0.33028777068E+03  0.39247939283E+03 -0.45987497061E+03  0.68892312624E+03  0.50400001928E-02 0.  1.
</event>
<event>
 5   0  0.3466598E-03  0.9708528E+03  0.7818609E-02  0.9341104E-01
        1   -1    0    0  501    0  0.00000000000E+00  0.00000000000E+00  0.28579755450E+03  0.28579755454E+03  0.50400001928E-02 0.  1.
       -1   -1    0    0    0  501  0.00000000000E+00  0.00000000000E+00 -0.82449545210E+03  0.82449545212E+03  0.50400001928E-02 0. -1.
    10030    2    1    2    0    0  0.00000000000E+00  0.00000000000E+00 -0.53869789761E+03  0.11102930067E+04  0.97085278789E+03 0.  0.
        3    1    3    3  502    0 -0.38953586718E+03  0.78640750241E+02 -0.58816489909E+03  0.70983133077E+03  0.10100000352E+00 0. -1.
       -3    1    3    3    0  502  0.38953586718E+03 -0.78640750241E+02  0.49467001482E+02  0.40046167589E+03  0.10100000352E+00 0.  1.
</event>
<event>
 5   0  0.3466598E-03  0.9867469E+03  0.7818609E-02  0.9323201E-01
       -1   -1    0    0    0  501  0.00000000000E+00  0.00000000000E+00  0.45013625082E+03  0.45013625085E+03  0.50400001928E-02 0. -1.
        1   -1    0    0  501    0  0.00000000000E+00  0.00000000000E+00 -0.54076378101E+03  0.54076378104E+03  0.50400001928E-02 0.  1.
    10030    2    1    2    0    0  0.00000000000E+00  0.00000000000E+00 -0.90627530191E+02  0.99090003189E+03  0.98674694019E+03 0.  0.
        3    1    3    3  502    0 -0.32463978633E+03 -0.29510104937E+02  0.32659012503E+03  0.46143575624E+03  0.10100000352E+00 0. -1.
       -3    1    3    3    0  502  0.32463978633E+03  0.29510104937E+02 -0.41721765522E+03  0.52946427565E+03  0.10100000352E+00 0.  1.
</event>
<event>
 5   0  0.6360455E-03  0.9936774E+03  0.7818609E-02  0.9315507E-01
       -2   -1    0    0    0  501  0.00000000000E+00  0.00000000000E+00  0.18466716364E+03  0.18466716366E+03  0.25500000920E-02 0. -1.
        2   -1    0    0  501    0  0.00000000000E+00  0.00000000000E+00 -0.13367221289E+04  0.13367221289E+04  0.25500000920E-02 0.  1.
    10030    2    1    2    0    0  0.00000000000E+00  0.00000000000E+00 -0.11520549653E+04  0.15213892926E+04  0.99367738053E+03 0.  0.
        4    1    3    3  502    0  0.39380261412E+03  0.19475438943E+03 -0.22077543666E+03  0.49168402193E+03  0.12699999809E+01 0. -1.
       -4    1    3    3    0  502 -0.39380261412E+03 -0.19475438943E+03 -0.93127952863E+03  0.10297052707E+04  0.12699999809E+01 0.  1.
</event>
<event>
 5   0  0.3643002E-03  0.9868213E+03  0.7818609E-02  0.9323118E-01
        1   -1    0    0  501    0  0.00000000000E+00  0.00000000000E+00  0.12108398615E+04  0.12108398615E+04  0.50400001928E-02 0. -1.
       -1   -1    0    0    0  501  0.00000000000E+00  0.00000000000E+00 -0.20106213979E+03  0.20106213986E+03  0.50400001928E-02 0.  1.
    10030    2    1    2    0    0  0.00000000000E+00  0.00000000000E+00  0.10097777217E+04  0.14119020014E+04  0.98682126762E+03 0.  0.
        2    1    3    3  502    0 -0.19228192531E+02 -0.32111183808E+03  0.10401748658E+04  0.10887820201E+04  0.25500000920E-02 0. -1.
       -2    1    3    3    0  502  0.19228192531E+02  0.32111183808E+03 -0.30397144017E+02  0.32311998129E+03  0.25500000920E-02 0.  1.
</event>
<event>
 5   0  0.3569359E-03  0.1017461E+04  0.7818609E-02  0.9289599E-01
       -1   -1    0    0    0  501  0.00000000000E+00  0.00000000000E+00  0.18834645370E+03  0.18834645377E+03  0.50400001928E-02 0. -1.
        1   -1    0    0  501    0  0.00000000000E+00  0.00000000000E+00 -0.13740989034E+04  0.13740989035E+04  0.50400001928E-02 0.  1.
    10030    2    1    2    0    0  0.00000000000E+00  0.00000000000E+00 -0.11857524497E+04  0.15624453572E+04  0.10174608701E+04 0.  0.
        4    1    3    3  502    0  0.29897621381E+03  0.16501541409E+03 -0.11719299616E+04  0.12206712544E+04  0.12699999809E+01 0.  1.
       -4    1    3    3    0  502 -0.29897621381E+03 -0.16501541409E+03 -0.13822488098E+02  0.34177410287E+03  0.12699999809E+01 0. -1.
</event>
<event>
 5   0  0.6360455E-03  0.9998844E+03  0.7818609E-02  0.9308672E-01
        2   -1    0    0  501    0  0.00000000000E+00  0.00000000000E+00  0.18196762095E+04  0.18196762095E+04  0.25500000920E-02 0.  1.
       -2   -1    0    0    0  501  0.00000000000E+00  0.00000000000E+00 -0.13735531513E+03  0.13735531515E+03  0.25500000920E-02 0. -1.
    10030    2    1    2    0    0  0.00000000000E+00  0.00000000000E+00  0.16823208943E+04  0.19570315246E+04  0.99988439174E+03 0.  0.
        4    1    3    3  502    0 -0.26635747049E+02 -0.49701398929E+03  0.74918562005E+03  0.89945154108E+03  0.12699999809E+01 0.  1.
       -4    1    3    3    0  502  0.26635747049E+02  0.49701398929E+03  0.93313527429E+03  0.10575799835E+04  0.12699999809E+01 0. -1.
</event>
<event>
 5   0  0.6022787E-03  0.9999986E+03  0.7818609E-02  0.9308546E-01
        2   -1    0    0  501    0  0.00000000000E+00  0.00000000000E+00  0.16011720930E+04  0.16011720930E+04  0.25500000920E-02 0. -1.
       -2   -1    0    0    0  501  0.00000000000E+00  0.00000000000E+00 -0.15613518382E+03  0.15613518384E+03  0.25500000920E-02 0.  1.
    10030    2    1    2    0    0  0.00000000000E+00  0.00000000000E+00  0.14450369092E+04  0.17573072768E+04  0.99999859816E+03 0.  0.
        5    1    3    3  502    0  0.12980894981E+03  0.25337028516E+03  0.14447927341E+04  0.14725810672E+04  0.46999998093E+01 0. -1.
       -5    1    3    3    0  502 -0.12980894981E+03 -0.25337028516E+03  0.24417507347E+00  0.28472620967E+03  0.46999998093E+01 0.  1.
</event>
<event>
 5   0  0.3569359E-03  0.9582826E+03  0.7818609E-02  0.9355522E-01
       -1   -1    0    0    0  501  0.00000000000E+00  0.00000000000E+00  0.33602347823E+03  0.33602347827E+03  0.50400001928E-02 0. -1.
        1   -1    0    0  501    0  0.00000000000E+00  0.00000000000E+00 -0.68321535218E+03  0.68321535220E+03  0.50400001928E-02 0.  1.
    10030    2    1    2    0    0  0.00000000000E+00  0.00000000000E+00 -0.34719187395E+03  0.10192388305E+04  0.95828262856E+03 0.  0.
        4    1    3    3  502    0 -0.62128151847E+00 -0.34409521363E+03  0.18103921526E+03  0.38881706804E+03  0.12699999809E+01 0. -1.
       -4    1    3    3    0  502  0.62128151847E+00  0.34409521363E+03 -0.52823108921E+03  0.63042176243E+03  0.12699999809E+01 0.  1.
</event>
<event>
 5   0  0.6360455E-03  0.9924788E+03  0.7818609E-02  0.9316833E-01
        2   -1    0    0  501    0  0.00000000000E+00  0.00000000000E+00  0.97572453654E+03  0.97572453655E+03  0.25500000920E-02 0. -1.
       -2   -1    0    0    0  501  0.00000000000E+00  0.00000000000E+00 -0.25238019508E+03  0.25238019510E+03  0.25500000920E-02 0.  1.
    10030    2    1    2    0    0  0.00000000000E+00  0.00000000000E+00  0.72334434146E+03  0.12281047316E+04  0.99247881366E+03 0.  0.
        4    1    3    3  502    0  0.29703320758E+03  0.36204590471E+03  0.56479610081E+03  0.73369081493E+03  0.12699999809E+01 0. -1.
       -4    1    3    3    0  502 -0.29703320758E+03 -0.36204590471E+03  0.15854824065E+03  0.49441391671E+03  0.12699999809E+01 0.  1.
</event>
<event>
 5   0  0.6376961E-03  0.9994038E+03  0.7818609E-02  0.9309199E-01
       -2   -1    0    0    0  501  0.00000000000E+00  0.00000000000E+00  0.32725135265E+03  0.32725135266E+03  0.25500000920E-02 0.  1.
        2   -1    0    0  501    0  0.00000000000E+00  0.00000000000E+00 -0.76302810623E+03  0.76302810624E+03  0.25500000920E-02 0. -1.
    10030    2    1    2    0    0  0.00000000000E+00  0.00000000000E+00 -0.43577675358E+03  0.10902794589E+04  0.99940378203E+03 0.  0.
        3    1    3    3  502    0  0.48794307208E+03  0.10322773316E+03 -0.18413007714E+03  0.53164678312E+03  0.10100000352E+00 0.  1.
       -3    1    3    3    0  502 -0.48794307208E+03 -0.10322773316E+03 -0.25164667644E+03  0.55863267578E+03  0.10100000352E+00 0. -1.
</event>
<event>
 5   0  0.3640180E-03  0.9819811E+03  0.7818609E-02  0.9328531E-01
        1   -1    0    0  501    0  0.00000000000E+00  0.00000000000E+00  0.44159896320E+03  0.44159896323E+03  0.50400001928E-02 0.  1.
       -1   -1    0    0    0  501  0.00000000000E+00  0.00000000000E+00 -0.54590648495E+03  0.54590648498E+03  0.50400001928E-02 0. -1.
    10030    2    1    2    0    0  0.00000000000E+00  0.00000000000E+00 -0.10430752175E+03  0.98750544821E+03  0.98198113584E+03 0.  0.
        5    1    3    3  502    0  0.41789901800E+03 -0.12028201821E+03  0.17703690223E+03  0.46954393607E+03  0.46999998093E+01 0.  1.
       -5    1    3    3    0  502 -0.41789901800E+03  0.12028201821E+03 -0.28134442398E+03  0.51796151214E+03  0.46999998093E+01 0. -1.
</event>
<event>
 5   0  0.6199539E-03  0.1006557E+04  0.7818609E-02  0.9301382E-01
        2   -1    0    0  501    0  0.00000000000E+00  0.00000000000E+00  0.75040198074E+03  0.75040198074E+03  0.25500000920E-02 0.  1.
       -2   -1    0    0    0  501  0.00000000000E+00  0.00000000000E+00 -0.33753830024E+03  0.33753830025E+03  0.25500000920E-02 0. -1.
    10030    2    1    2    0    0  0.00000000000E+00  0.00000000000E+00  0.41286368050E+03  0.10879402810E+04  0.10065573189E+04 0.  0.
        2    1    3    3  502    0 -0.48001128822E+03  0.14295820329E+03  0.25983870430E+03  0.56423757139E+03  0.25500000920E-02 0.  1.
       -2    1    3    3    0  502  0.48001128822E+03 -0.14295820329E+03  0.15302497620E+03  0.52370270961E+03  0.25500000920E-02 0. -1.
</event>
<event>
 5   0  0.3640180E-03  0.1068367E+04  0.7818609E-02  0.9236584E-01
        1   -1    0    0  501    0  0.00000000000E+00  0.00000000000E+00  0.90830335854E+03  0.90830335855E+03  0.50400001928E-02 0.  1.
       -1   -1    0    0    0  501  0.00000000000E+00  0.00000000000E+00 -0.31415936456E+03  0.31415936460E+03  0.50400001928E-02 0. -1.
    10030    2    1    2    0    0  0.00000000000E+00  0.00000000000E+00  0.59414399397E+03  0.12224627232E+04  0.10683669893E+04 0.  0.
        5    1    3    3  502    0  0.15716109944E+03 -0.21258721337E+03 -0.23402676873E+03  0.35310558328E+03  0.46999998093E+01 0. -1.
       -5    1    3    3    0  502 -0.15716109944E+03  0.21258721337E+03  0.82817076270E+03  0.86935713988E+03  0.46999998093E+01 0.  1.
</event>
<event>
 5   0  0.6199539E-03  0.1012594E+04  0.7818609E-02  0.9294838E-01
       -2   -1    0    0    0  501  0.00000000000E+00  0.00000000000E+00  0.37935216580E+03  0.37935216581E+03  0.25500000920E-02 0. -1.
        2   -1    0    0  501    0  0.00000000000E+00  0.00000000000E+00 -0.67572269649E+03  0.67572269649E+03  0.25500000920E-02 0.  1.
    10030    2    1    2    0    0  0.00000000000E+00  0.00000000000E+00 -0.29637053068E+03  0.10550748623E+04  0.10125944270E+04 0.  0.
        2    1    3    3  502    0  0.20493044794E+03  0.31139962247E+03  0.20878127256E+03  0.42726553003E+03  0.25500000920E-02 0. -1.
       -2    1    3    3    0  502 -0.20493044794E+03 -0.31139962247E+03 -0.50515180324E+03  0.62780933228E+03  0.25500000920E-02 0.  1.
</event>
<event>
 5   0  0.3466598E-03  0.9527252E+03  0.7818609E-02  0.9361971E-01
        1   -1    0    0  501    0  0.00000000000E+00  0.00000000000E+00  0.84928660580E+03  0.84928660581E+03  0.50400001928E-02 0. -1.
       -1   -1    0    0    0  501  0.00000000000E+00  0.00000000000E+00 -0.26719049810E+03  0.26719049815E+03  0.50400001928E-02 0.  1.
    10030    2    1    2    0    0  0.00000000000E+00  0.00000000000E+00  0.58209610770E+03  0.11164771040E+04  0.95272516765E+03 0.  0.
        3    1    3    3  502    0  0.39566380682E+03  0.26086843809E+03  0.34748232960E+03  0.58766161148E+03  0.10100000352E+00 0.  1.
       -3    1    3    3    0  502 -0.39566380682E+03 -0.26086843809E+03  0.23461377810E+03  0.52881549248E+03  0.10100000352E+00 0. -1.
</event>
<event>
 5   0  0.6376961E-03  0.9951626E+03  0.7818609E-02  0.9313866E-01
       -2   -1    0    0    0  501  0.00000000000E+00  0.00000000000E+00  0.13696780277E+03  0.13696780280E+03  0.25500000920E-02 0.  1.
        2   -1    0    0  501    0  0.00000000000E+00  0.00000000000E+00 -0.18076302583E+04  0.18076302583E+04  0.25500000920E-02 0. -1.
    10030    2    1    2    0    0  0.00000000000E+00  0.00000000000E+00 -0.16706624555E+04  0.19445980611E+04  0.99516258919E+03 0.  0.
        3    1    3    3  502    0  0.21229955883E+03 -0.11958267028E+03 -0.16830740009E+04  0.17006202458E+04  0.10100000352E+00 0. -1.
       -3    1    3    3    0  502 -0.21229955883E+03  0.11958267028E+03  0.12411545353E+02  0.24397781532E+03  0.10100000352E+00 0.  1.
</event>
<event>
 5   0  0.3643002E-03  0.9041766E+03  0.7818609E-02  0.9420376E-01
       -1   -1    0    0    0  501  0.00000000000E+00  0.00000000000E+00  0.22612456107E+03  0.22612456112E+03  0.50400001928E-02 0. -1.
        1   -1    0    0  501    0  0.00000000000E+00  0.00000000000E+00 -0.90385498554E+03  0.90385498556E+03  0.50400001928E-02 0.  1.
    10030    2    1    2    0    0  0.00000000000E+00  0.00000000000E+00 -0.67773042448E+03  0.11299795467E+04  0.90417655779E+03 0.  0.
        2    1    3    3  502    0  0.12679370735E+03  0.12149523658E+03 -0.85948987527E+03  0.87724602161E+03  0.25500000920E-02 0.  1.
       -2    1    3    3    0  502 -0.12679370735E+03 -0.12149523658E+03  0.18175945079E+03  0.25273352507E+03  0.25500000920E-02 0. -1.
</event>
<event>
 5   0  0.3608845E-03  0.1007570E+04  0.7818609E-02  0.9300281E-01
        1   -1    0    0  501    0  0.00000000000E+00  0.00000000000E+00  0.14084770723E+04  0.14084770723E+04  0.50400001928E-02 0. -1.
       -1   -1    0    0    0  501  0.00000000000E+00  0.00000000000E+00 -0.18019424839E+03  0.18019424847E+03  0.50400001928E-02 0.  1.
    10030    2    1    2    0    0  0.00000000000E+00  0.00000000000E+00  0.12282828239E+04  0.15886713207E+04  0.10075702804E+04 0.  0.
        1    1    3    3  502    0 -0.19017318265E+03 -0.36769347796E+03  0.10668459850E+04  0.11443446548E+04  0.50400001928E-02 0. -1.
       -1    1    3    3    0  502  0.19017318265E+03  0.36769347796E+03  0.16143683888E+03  0.44432666599E+03  0.50400001928E-02 0.  1.
</event>
<event>
 5   0  0.6199539E-03  0.9900535E+03  0.7818609E-02  0.9319522E-01
        2   -1    0    0  501    0  0.00000000000E+00  0.00000000000E+00  0.38768449868E+03  0.38768449869E+03  0.25500000920E-02 0.  1.
       -2   -1    0    0    0  501  0.00000000000E+00  0.00000000000E+00 -0.63208996584E+03  0.63208996585E+03  0.25500000920E-02 0. -1.
    10030    2    1    2    0    0  0.00000000000E+00  0.00000000000E+00 -0.24440546716E+03  0.10197744645E+04  0.99005349660E+03 0.  0.
        2    1    3    3  502    0 -0.26087964311E+03  0.39181058669E+03 -0.28002699922E+03  0.54771237372E+03  0.25500000920E-02 0. -1.
       -2    1    3    3    0  502  0.26087964311E+03 -0.39181058669E+03  0.35621532051E+02  0.47206209081E+03  0.25500000920E-02 0.  1.
</event>
<event>
 5   0  0.3466598E-03  0.1004146E+04  0.7818609E-02  0.9304009E-01
        1   -1    0    0  501    0  0.00000000000E+00  0.00000000000E+00  0.91789377366E+03  0.91789377367E+03  0.50400001928E-02 0. -1.
       -1   -1    0    0    0  501  0.00000000000E+00  0.00000000000E+00 -0.27462575215E+03  0.27462575219E+03  0.50400001928E-02 0.  1.
    10030    2    1    2    0    0  0.00000000000E+00  0.00000000000E+00  0.64326802151E+03  0.11925195259E+04  0.10041459416E+04 0.  0.
        3    1    3    3  502    0 -0.40961004051E+03 -0.26159853890E+03  0.17205785158E+03  0.51557549916E+03  0.10100000352E+00 0. -1.
       -3    1    3    3    0  502  0.40961004051E+03  0.26159853890E+03  0.47121016993E+03  0.67694402670E+03  0.10100000352E+00 0.  1.
</event>
<event>
 5   0  0.6360455E-03  0.1003878E+04  0.7818609E-02  0.9304302E-01
        2   -1    0    0  501    0  0.00000000000E+00  0.00000000000E+00  0.23447198032E+04  0.23447198032E+04  0.25500000920E-02 0. -1.
       -2   -1    0    0    0  501  0.00000000000E+00  0.00000000000E+00 -0.10745109932E+03  0.10745109935E+03  0.25500000920E-02 0.  1.
    10030    2    1    2    0    0  0.00000000000E+00  0.00000000000E+00  0.22372687039E+04  0.24521709026E+04  0.10038779218E+04 0.  0.
        4    1    3    3  502    0  0.32734530412E+03 -0.17032302336E+02  0.20471684028E+04  0.20732450723E+04  0.12699999809E+01 0. -1.
       -4    1    3    3    0  502 -0.32734530412E+03  0.17032302336E+02  0.19010030104E+03  0.37892583022E+03  0.12699999809E+01 0.  1.
</event>
<event>
 5   0  0.6376961E-03  0.9897668E+03  0.7818609E-02  0.9319840E-01
       -2   -1    0    0    0  501  0.00000000000E+00  0.00000000000E+00  0.13947122161E+03  0.13947122163E+03  0.25500000920E-02 0. -1.
        2   -1    0    0  501    0  0.00000000000E+00  0.00000000000E+00 -0.17559864219E+04  0.17559864219E+04  0.25500000920E-02 0.  1.
    10030    2    1    2    0    0  0.00000000000E+00  0.00000000000E+00 -0.16165152003E+04  0.18954576435E+04  0.98976678346E+03 0.  0.
        3    1    3    3  502    0  0.45497109513E+03 -0.10845971209E+03 -0.49859048517E+03  0.68363344612E+03  0.10100000352E+00 0. -1.
       -3    1    3    3    0  502 -0.45497109513E+03  0.10845971209E+03 -0.11179247151E+04  0.12118241974E+04  0.10100000352E+00 0.  1.
</event>
<event>
 5   0  0.2417750E-03  0.1006900E+04  0.7818609E-02  0.9301009E-01
        4   -1    0    0  501    0  0.00000000000E+00  0.00000000000E+00  0.33486121578E+03  0.33486362408E+03  0.12699999809E+01 0.  1.
       -4   -1    0    0    0  501  0.00000000000E+00  0.00000000000E+00 -0.75691129856E+03  0.75691236400E+03  0.12699999809E+01 0. -1.
    10030    2    1    2    0    0  0.00000000000E+00  0.00000000000E+00 -0.42205008278E+03  0.10917759881E+04  0.10069004597E+04 0.  0.
        2    1    3    3  502    0 -0.43918316220E+03 -0.24612977707E+03 -0.21032500640E+03  0.54561738008E+03  0.25500000920E-02 0. -1.
       -2    1    3    3    0  502  0.43918316220E+03  0.24612977707E+03 -0.21172507637E+03  0.54615860800E+03  0.25500000920E-02 0.  1.
</event>
<event>
 5   0  0.3569359E-03  0.9954378E+03  0.7818609E-02  0.9313563E-01
       -1   -1    0    0    0  501  0.00000000000E+00  0.00000000000E+00  0.50294257416E+03  0.50294257418E+03  0.50400001928E-02 0. -1.
        1   -1    0    0  501    0  0.00000000000E+00  0.00000000000E+00 -0.49254950412E+03  0.49254950415E+03  0.50400001928E-02 0.  1.
    10030    2    1    2    0    0  0.00000000000E+00  0.00000000000E+00  0.10393070034E+02  0.99549207833E+03  0.99543782433E+03 0.  0.
        4    1    3    3  502    0  0.42250996125E+03 -0.11641971000E+03  0.24112100000E+03  0.50020912204E+03  0.12699999809E+01 0. -1.
       -4    1    3    3    0  502 -0.42250996125E+03  0.11641971000E+03 -0.23072792996E+03  0.49528295629E+03  0.12699999809E+01 0.  1.
</event>
<event>
 5   0  0.3466598E-03  0.9974836E+03  0.7818609E-02  0.9311309E-01
       -1   -1    0    0    0  501  0.00000000000E+00  0.00000000000E+00  0.50420056786E+03  0.50420056788E+03  0.50400001928E-02 0. -1.
        1   -1    0    0  501    0  0.00000000000E+00  0.00000000000E+00 -0.49334210297E+03  0.49334210300E+03  0.50400001928E-02 0.  1.
    10030    2    1    2    0    0  0.00000000000E+00  0.00000000000E+00  0.10858464884E+02  0.99754267088E+03  0.99748357077E+03 0.  0.
        3    1    3    3  502    0  0.15565238782E+03  0.60181176188E+02 -0.46459214456E+03  0.49365505243E+03  0.10100000352E+00 0.  1.
       -3    1    3    3    0  502 -0.15565238782E+03 -0.60181176188E+02  0.47545060945E+03  0.50388761845E+03  0.10100000352E+00 0. -1.
</event>
<event>
 5   0  0.3640180E-03  0.9987575E+03  0.7818609E-02  0.9309909E-01
       -1   -1    0    0    0  501  0.00000000000E+00  0.00000000000E+00  0.10645385553E+03  0.10645385565E+03  0.50400001928E-02 0. -1.
        1   -1    0    0  501    0  0.00000000000E+00  0.00000000000E+00 -0.23426029252E+04  0.23426029252E+04  0.50400001928E-02 0.  1.
    10030    2    1    2    0    0  0.00000000000E+00  0.00000000000E+00 -0.22361490696E+04  0.24490567808E+04  0.99875745508E+03 0.  0.
        5    1    3    3  502    0  0.43215310592E+03 -0.24993877767E+03 -0.10899742422E+04  0.11988709848E+04  0.46999998093E+01 0. -1.
       -5    1    3    3    0  502 -0.43215310592E+03  0.24993877767E+03 -0.11461748274E+04  0.12501857960E+04  0.46999998093E+01 0.  1.
</event>
<event>
 5   0  0.6360455E-03  0.9861186E+03  0.7818609E-02  0.9323902E-01
       -2   -1    0    0    0  501  0.00000000000E+00  0.00000000000E+00  0.62403861949E+03  0.62403861950E+03  0.25500000920E-02 0.  1.
        2   -1    0    0  501    0  0.00000000000E+00  0.00000000000E+00 -0.38957123271E+03  0.38957123272E+03  0.25500000920E-02 0. -1.
    10030    2    1    2    0    0  0.00000000000E+00  0.00000000000E+00  0.23446738678E+03  0.10136098522E+04  0.98611864248E+03 0.  0.
        4    1    3    3  502    0 -0.45195760796E+03 -0.11385841133E+03 -0.48112469235E+02  0.46855718949E+03  0.12699999809E+01 0. -1.
       -4    1    3    3    0  502  0.45195760796E+03  0.11385841133E+03  0.28257985601E+03  0.54505266273E+03  0.12699999809E+01 0.  1.
</event>
<event>
 5   0  0.6606947E-03  0.1024900E+04  0.7818609E-02  0.9281648E-01
        2   -1    0    0  501    0  0.00000000000E+00  0.00000000000E+00  0.19248032311E+04  0.19248032311E+04  0.25500000920E-02 0.  1.
       -2   -1    0    0    0  501  0.00000000000E+00  0.00000000000E+00 -0.13643224100E+03  0.13643224103E+03  0.25500000920E-02 0. -1.
    10030    2    1    2    0    0  0.00000000000E+00  0.00000000000E+00  0.17883709901E+04  0.20612354722E+04  0.10249004212E+04 0.  0.
        1    1    3    3  502    0  0.27223590159E+03  0.35344743904E+03  0.38711969252E+03  0.59067684451E+03  0.50400001928E-02 0. -1.
       -1    1    3    3    0  502 -0.27223590159E+03 -0.35344743904E+03  0.14012512976E+04  0.14705586277E+04  0.50400001928E-02 0.  1.
</event>
<event>
 5   0  0.6022787E-03  0.9984485E+03  0.7818609E-02  0.9310248E-01
       -2   -1    0    0    0  501  0.00000000000E+00  0.00000000000E+00  0.19773622712E+03  0.19773622714E+03  0.25500000920E-02 0.  1.
        2   -1    0    0  501    0  0.00000000000E+00  0.00000000000E+00 -0.12603903284E+04  0.12603903284E+04  0.25500000920E-02 0. -1.
    10030    2    1    2    0    0  0.00000000000E+00  0.00000000000E+00 -0.10626541012E+04  0.14581265555E+04  0.99844845284E+03 0.  0.
        5    1    3    3  502    0 -0.17895099268E+03 -0.23608421445E+03 -0.11181132427E+04  0.11567015724E+04  0.46999998093E+01 0. -1.
       -5    1    3    3    0  502  0.17895099268E+03  0.23608421445E+03  0.55459141421E+02  0.30142498314E+03  0.46999998093E+01 0.  1.
</event>
<event>
 5   0  0.6360455E-03  0.9965817E+03  0.7818609E-02  0.9312302E-01
        2   -1    0    0  501    0  0.00000000000E+00  0.00000000000E+00  0.51273554686E+03  0.51273554686E+03  0.25500000920E-02 0.  1.
       -2   -1    0    0    0  501  0.00000000000E+00  0.00000000000E+00 -0.48425309821E+03  0.48425309822E+03  0.25500000920E-02 0. -1.
    10030    2    1    2    0    0  0.00000000000E+00  0.00000000000E+00  0.28482448647E+02  0.99698864508E+03  0.99658171192E+03 0.  0.
        4    1    3    3  502    0  0.29543669935E+03 -0.72176484419E+02  0.40911732791E+03  0.50977533201E+03  0.12699999809E+01 0.  1.
       -4    1    3    3    0  502 -0.29543669935E+03  0.72176484419E+02 -0.38063487926E+03  0.48721331307E+03  0.12699999809E+01 0. -1.
</event>
<event>
 5   0  0.6199539E-03  0.1002155E+04  0.7818609E-02  0.9306184E-01
        2   -1    0    0  501    0  0.00000000000E+00  0.00000000000E+00  0.14448480684E+04  0.14448480684E+04  0.25500000920E-02 0. -1.
       -2   -1    0    0    0  501  0.00000000000E+00  0.00000000000E+00 -0.17377525638E+03  0.17377525640E+03  0.25500000920E-02 0.  1.
    10030    2    1    2    0    0  0.00000000000E+00  0.00000000000E+00  0.12710728120E+04  0.16186233248E+04  0.10021553643E+04 0.  0.
        2    1    3    3  502    0  0.30437610541E+03 -0.25365362917E+03  0.11309767814E+04  0.11983711684E+04  0.25500000920E-02 0. -1.
       -2    1    3    3    0  502 -0.30437610541E+03  0.25365362917E+03  0.14009603056E+03  0.42025215636E+03  0.25500000920E-02 0.  1.
</event>
<event>
 5   0  0.6022787E-03  0.1027811E+04  0.7818609E-02  0.9278557E-01
       -2   -1    0    0    0  501  0.00000000000E+00  0.00000000000E+00  0.70793032975E+03  0.70793032975E+03  0.25500000920E-02 0.  1.
        2   -1    0    0  501    0  0.00000000000E+00  0.00000000000E+00 -0.37305770671E+03  0.37305770672E+03  0.25500000920E-02 0. -1.
    10030    2    1    2    0    0  0.00000000000E+00  0.00000000000E+00  0.33487262304E+03  0.10809880365E+04  0.10278110047E+04 0.  0.
        5    1    3    3  502    0 -0.38499743652E+03 -0.33571669936E+03  0.22644666634E+03  0.55877447245E+03  0.46999998093E+01 0.  1.
       -5    1    3    3    0  502  0.38499743652E+03  0.33571669936E+03  0.10842595670E+03  0.52221356402E+03  0.46999998093E+01 0. -1.
</event>
<event>
 5   0  0.6022787E-03  0.1005893E+04  0.7818609E-02  0.9302105E-01
        2   -1    0    0  501    0  0.00000000000E+00  0.00000000000E+00  0.10844372140E+04  0.10844372140E+04  0.25500000920E-02 0. -1.
       -2   -1    0    0    0  501  0.00000000000E+00  0.00000000000E+00 -0.23325943376E+03  0.23325943377E+03  0.25500000920E-02 0.  1.
    10030    2    1    2    0    0  0.00000000000E+00  0.00000000000E+00  0.85117778022E+03  0.13176966478E+04  0.10058930569E+04 0.  0.
        5    1    3    3  502    0  0.13945468859E+03  0.21738777180E+03 -0.13972049858E+03  0.29368173457E+03  0.46999998093E+01 0.  1.
       -5    1    3    3    0  502 -0.13945468859E+03 -0.21738777180E+03  0.99089827880E+03  0.10240149132E+04  0.46999998093E+01 0. -1.
</event>
<event>
 5   0  0.3643002E-03  0.9990036E+03  0.7818609E-02  0.9309638E-01
        1   -1    0    0  501    0  0.00000000000E+00  0.00000000000E+00  0.21604249674E+04  0.21604249674E+04  0.50400001928E-02 0. -1.
       -1   -1    0    0    0  501  0.00000000000E+00  0.00000000000E+00 -0.11548747760E+03  0.11548747771E+03  0.50400001928E-02 0.  1.
    10030    2    1    2    0    0  0.00000000000E+00  0.00000000000E+00  0.20449374898E+04  0.22759124451E+04  0.99900356386E+03 0.  0.
        2    1    3    3  502    0 -0.15325371904E+03  0.28469890793E+03  0.15507679177E+03  0.35859305895E+03  0.25500000920E-02 0.  1.
       -2    1    3    3    0  502  0.15325371904E+03 -0.28469890793E+03  0.18898606980E+04  0.19173193861E+04  0.25500000920E-02 0. -1.
</event>
<event>
 5   0  0.3643002E-03  0.1007182E+04  0.7818609E-02  0.9300702E-01
       -1   -1    0    0    0  501  0.00000000000E+00  0.00000000000E+00  0.11861007158E+03  0.11861007169E+03  0.50400001928E-02 0.  1.
        1   -1    0    0  501    0  0.00000000000E+00  0.00000000000E+00 -0.21381318868E+04  0.21381318868E+04  0.50400001928E-02 0. -1.
    10030    2    1    2    0    0  0.00000000000E+00  0.00000000000E+00 -0.20195218153E+04  0.22567419585E+04  0.10071821608E+04 0.  0.
        2    1    3    3  502    0  0.11125962927E+03 -0.36126932076E+03 -0.26422801040E+03  0.46120566856E+03  0.25500000920E-02 0.  1.
       -2    1    3    3    0  502 -0.11125962927E+03  0.36126932076E+03 -0.17552938049E+04  0.17955362900E+04  0.25500000920E-02 0. -1.
</event>
<event>
 5   0  0.2417750E-03  0.1018721E+04  0.7818609E-02  0.9288247E-01
        4   -1    0    0  501    0  0.00000000000E+00  0.00000000000E+00  0.54982296314E+03  0.54982442989E+03  0.12699999809E+01 0. -1.
       -4   -1    0    0    0  501  0.00000000000E+00  0.00000000000E+00 -0.47187247537E+03  0.47187418441E+03  0.12699999809E+01 0.  1.
    10030    2    1    2    0    0  0.00000000000E+00  0.00000000000E+00  0.77950487773E+02  0.10216986143E+04  0.10187206584E+04 0.  0.
        3    1    3    3  502    0  0.12364806778E+03  0.20187462929E+03  0.49129887380E+03  0.54535933495E+03  0.10100000352E+00 0. -1.
       -3    1    3    3    0  502 -0.12364806778E+03 -0.20187462929E+03 -0.41334838603E+03  0.47633927935E+03  0.10100000352E+00 0.  1.
</event>
<event>
 5   0  0.3640180E-03  0.9977563E+03  0.7818609E-02  0.9311009E-01
        1   -1    0    0  501    0  0.00000000000E+00  0.00000000000E+00  0.11153909390E+04  0.11153909390E+04  0.50400001928E-02 0.  1.
       -1   -1    0    0    0  501  0.00000000000E+00  0.00000000000E+00 -0.22313198754E+03  0.22313198760E+03  0.50400001928E-02 0. -1.
    10030    2    1    2    0    0  0.00000000000E+00  0.00000000000E+00  0.89225895144E+03  0.13385229266E+04  0.99775627715E+03 0.  0.
        5    1    3    3  502    0 -0.36601727951E+03 -0.16382134003E+03  0.48050674141E+02  0.40390226247E+03  0.46999998093E+01 0. -1.
       -5    1    3    3    0  502  0.36601727951E+03  0.16382134003E+03  0.84420827730E+03  0.93462066412E+03  0.46999998093E+01 0.  1.
</event>
<event>
 5   0  0.6022787E-03  0.1003809E+04  0.7818609E-02  0.9304377E-01
        2   -1    0    0  501    0  0.00000000000E+00  0.00000000000E+00  0.93676079838E+03  0.93676079838E+03  0.25500000920E-02 0.  1.
       -2   -1    0    0    0  501  0.00000000000E+00  0.00000000000E+00 -0.26891402871E+03  0.26891402872E+03  0.25500000920E-02 0. -1.
    10030    2    1    2    0    0  0.00000000000E+00  0.00000000000E+00  0.66784676967E+03  0.12056748271E+04  0.10038089863E+04 0.  0.
        5    1    3    3  502    0  0.44469187461E+03  0.22092057459E+03  0.24624090211E+03  0.55426837858E+03  0.46999998093E+01 0. -1.
       -5    1    3    3    0  502 -0.44469187461E+03 -0.22092057459E+03  0.42160586756E+03  0.65140644852E+03  0.46999998093E+01 0.  1.
</event>
<event>
 5   0  0.3608845E-03  0.9904486E+03  0.7818609E-02  0.9319083E-01
       -1   -1    0    0    0  501  0.00000000000E+00  0.00000000000E+00  0.23379330430E+03  0.23379330435E+03  0.50400001928E-02 0.  1.
        1   -1    0    0  501    0  0.00000000000E+00  0.00000000000E+00 -0.10489912115E+04  0.10489912115E+04  0.50400001928E-02 0. -1.
    10030    2    1    2    0    0  0.00000000000E+00  0.00000000000E+00 -0.81519790723E+03  0.12827845159E+04  0.99044862879E+03 0.  0.
        1    1    3    3  502    0  0.74147145034E+02 -0.31986425268E+03  0.72545918879E+02  0.33626455304E+03  0.50400001928E-02 0.  1.
       -1    1    3    3    0  502 -0.74147145034E+02  0.31986425268E+03 -0.88774382611E+03  0.94651996286E+03  0.50400001928E-02 0. -1.
</event>
<event>
 5   0  0.3643002E-03  0.1010377E+04  0.7818609E-02  0.9297236E-01
       -1   -1    0    0    0  501  0.00000000000E+00  0.00000000000E+00  0.55177979183E+03  0.55177979186E+03  0.50400001928E-02 0.  1.
        1   -1    0    0  501    0  0.00000000000E+00  0.00000000000E+00 -0.46253138133E+03  0.46253138135E+03  0.50400001928E-02 0. -1.
    10030    2    1    2    0    0  0.00000000000E+00  0.00000000000E+00  0.89248410508E+02  0.10143111732E+04  0.10103770966E+04 0.  0.
        2    1    3    3  502    0 -0.48593037866E+03  0.11490343484E+03  0.12163231938E+03  0.51393146758E+03  0.25500000920E-02 0. -1.
       -2    1    3    3    0  502  0.48593037866E+03 -0.11490343484E+03 -0.32383908877E+02  0.50037970563E+03  0.25500000920E-02 0.  1.
</event>
<event>
 5   0  0.3640180E-03  0.1026416E+04  0.7818609E-02  0.9280038E-01
        1   -1    0    0  501    0  0.00000000000E+00  0.00000000000E+00  0.84532243030E+03  0.84532243031E+03  0.50400001928E-02 0. -1.
       -1   -1    0    0    0  501  0.00000000000E+00  0.00000000000E+00 -0.31157621371E+03  0.31157621375E+03  0.50400001928E-02 0.  1.
    10030    2    1    2    0    0  0.00000000000E+00  0.00000000000E+00  0.53374621659E+03  0.11568986441E+04  0.10264158265E+04 0.  0.
        5    1    3    3  502    0  0.42071810077E+01  0.35227421064E+02  0.84391429028E+03  0.84467277149E+03  0.46999998093E+01 0. -1.
       -5    1    3    3    0  502 -0.42071810077E+01 -0.35227421064E+02 -0.31016807369E+03  0.31222587257E+03  0.46999998093E+01 0.  1.
</event>
<event>
 5   0  0.6199539E-03  0.1000876E+04  0.7818609E-02  0.9307585E-01
       -2   -1    0    0    0  501  0.00000000000E+00  0.00000000000E+00  0.71934862940E+03  0.71934862941E+03  0.25500000920E-02 0.  1.
        2   -1    0    0  501    0  0.00000000000E+00  0.00000000000E+00 -0.34814565978E+03  0.34814565979E+03  0.25500000920E-02 0. -1.
    10030    2    1    2    0    0  0.00000000000E+00  0.00000000000E+00  0.37120296962E+03  0.10674942892E+04  0.10008758229E+04 0.  0.
        2    1    3    3  502    0 -0.14781267293E+02  0.64968632215E+02  0.71459672293E+03  0.71769623481E+03  0.25500000920E-02 0.  1.
       -2    1    3    3    0  502  0.14781267293E+02 -0.64968632215E+02 -0.34339375331E+03  0.34979805438E+03  0.25500000920E-02 0. -1.
</event>
<event>
 5   0  0.6360455E-03  0.1006236E+04  0.7818609E-02  0.9301732E-01
        2   -1    0    0  501    0  0.00000000000E+00  0.00000000000E+00  0.77093137529E+03  0.77093137529E+03  0.25500000920E-02 0. -1.
       -2   -1    0    0    0  501  0.00000000000E+00  0.00000000000E+00 -0.32833991796E+03  0.32833991797E+03  0.25500000920E-02 0.  1.
    10030    2    1    2    0    0  0.00000000000E+00  0.00000000000E+00  0.44259145732E+03  0.10992712933E+04  0.10062356474E+04 0.  0.
        4    1    3    3  502    0 -0.68824425631E+02 -0.14224913415E+03  0.74311429875E+03  0.75973159183E+03  0.12699999809E+01 0. -1.
       -4    1    3    3    0  502  0.68824425631E+02  0.14224913415E+03 -0.30052284142E+03  0.33953970143E+03  0.12699999809E+01 0.  1.
</event>
<event>
 5   0  0.3466598E-03  0.9891740E+03  0.7818609E-02  0.9320499E-01
       -1   -1    0    0    0  501  0.00000000000E+00  0.00000000000E+00  0.64273009575E+03  0.64273009577E+03  0.50400001928E-02 0.  1.
        1   -1    0    0  501    0  0.00000000000E+00  0.00000000000E+00 -0.38058943802E+03  0.38058943806E+03  0.50400001928E-02 0. -1.
    10030    2    1    2    0    0  0.00000000000E+00  0.00000000000E+00  0.26214065773E+03  0.10233195338E+04  0.98917397048E+03 0.  0.
        3    1    3    3  502    0  0.15903909352E+02  0.78015628992E+02  0.63605658467E+03  0.64102056270E+03  0.10100000352E+00 0.  1.
       -3    1    3    3    0  502 -0.15903909352E+02 -0.78015628992E+02 -0.37391592695E+03  0.38229897113E+03  0.10100000352E+00 0. -1.
</event>
<event>
 5   0  0.6199539E-03  0.1004380E+04  0.7818609E-02  0.9303754E-01
        2   -1    0    0  501    0  0.00000000000E+00  0.00000000000E+00  0.84383713056E+03  0.84383713056E+03  0.25500000920E-02 0.  1.
       -2   -1    0    0    0  501  0.00000000000E+00  0.00000000000E+00 -0.29886644065E+03  0.29886644066E+03  0.25500000920E-02 0. -1.
    10030    2    1    2    0    0  0.00000000000E+00  0.00000000000E+00  0.54497068990E+03  0.11427035712E+04  0.10043796089E+04 0.  0.
        2    1    3    3  502    0 -0.31514843077E+02 -0.37652396694E+03 -0.10387695439E+03  0.39185954713E+03  0.25500000920E-02 0. -1.
       -2    1    3    3    0  502  0.31514843077E+02  0.37652396694E+03  0.64884764429E+03  0.75084402410E+03  0.25500000920E-02 0.  1.
</event>
<event>
 5   0  0.3640180E-03  0.1004770E+04  0.7818609E-02  0.9303328E-01
        1   -1    0    0  501    0  0.00000000000E+00  0.00000000000E+00  0.92230409719E+03  0.92230409721E+03  0.50400001928E-02 0.  1.
       -1   -1    0    0    0  501  0.00000000000E+00  0.00000000000E+00 -0.27365250001E+03  0.27365250006E+03  0.50400001928E-02 0. -1.
    10030    2    1    2    0    0  0.00000000000E+00  0.00000000000E+00  0.64865159718E+03  0.11959565973E+04  0.10047702663E+04 0.  0.
        5    1    3    3  502    0  0.33711173377E+03  0.17737681130E+03 -0.65500686423E+02  0.38654790667E+03  0.46999998093E+01 0. -1.
       -5    1    3    3    0  502 -0.33711173377E+03 -0.17737681130E+03  0.71415228360E+03  0.80940869059E+03  0.46999998093E+01 0.  1.
</event>
<event>
 5   0  0.2417750E-03  0.9893941E+03  0.7818609E-02  0.9320254E-01
        3   -1    0    0  501    0  0.00000000000E+00  0.00000000000E+00  0.19529302528E+03  0.19529305140E+03  0.10100000352E+00 0. -1.
       -3   -1    0    0    0  501  0.00000000000E+00  0.00000000000E+00 -0.12531176468E+04  0.12531176509E+04  0.10100000352E+00 0.  1.
    10030    2    1    2    0    0  0.00000000000E+00  0.00000000000E+00 -0.10578246215E+04  0.14484107023E+04  0.98939407344E+03 0.  0.
        4    1    3    3  502    0 -0.64647709367E+02 -0.41530648625E+03 -0.91084208835E+03  0.10031419275E+04  0.12699999809E+01 0.  1.
       -4    1    3    3    0  502  0.64647709367E+02  0.41530648625E+03 -0.14698253318E+03  0.44526877480E+03  0.12699999809E+01 0. -1.
</event>
<event>
 5   0  0.3569359E-03  0.1007300E+04  0.7818609E-02  0.9300574E-01
       -1   -1    0    0    0  501  0.00000000000E+00  0.00000000000E+00  0.43832800126E+03  0.43832800129E+03  0.50400001928E-02 0.  1.
        1   -1    0    0  501    0  0.00000000000E+00  0.00000000000E+00 -0.57870680864E+03  0.57870680867E+03  0.50400001928E-02 0. -1.
    10030    2    1    2    0    0  0.00000000000E+00  0.00000000000E+00 -0.14037880738E+03  0.10170348100E+04  0.10073001514E+04 0.  0.
        4    1    3    3  502    0 -0.19757995763E+03  0.20212554207E+03 -0.49107429277E+03  0.56661110855E+03  0.12699999809E+01 0. -1.
       -4    1    3    3    0  502  0.19757995763E+03 -0.20212554207E+03  0.35069548539E+03  0.45042370140E+03  0.12699999809E+01 0.  1.
</event>
<event>
 5   0  0.3643002E-03  0.9946226E+03  0.7818609E-02  0.9314462E-01
       -1   -1    0    0    0  501  0.00000000000E+00  0.00000000000E+00  0.47840856893E+03  0.47840856895E+03  0.50400001928E-02 0. -1.
        1   -1    0    0  501    0  0.00000000000E+00  0.00000000000E+00 -0.51696089426E+03  0.51696089428E+03  0.50400001928E-02 0.  1.
    10030    2    1    2    0    0  0.00000000000E+00  0.00000000000E+00 -0.38552325331E+02  0.99536946324E+03  0.99462258498E+03 0.  0.
        2    1    3    3  502    0 -0.12249937356E+03  0.37091304479E+03 -0.32729932615E+03  0.50961498430E+03  0.25500000920E-02 0.  1.
       -2    1    3    3    0  502  0.12249937356E+03 -0.37091304479E+03  0.28874700082E+03  0.48575447894E+03  0.25500000920E-02 0. -1.
</event>
<event>
 5   0  0.3640180E-03  0.9782430E+03  0.7818609E-02  0.9332735E-01
       -1   -1    0    0    0  501  0.00000000000E+00  0.00000000000E+00  0.24950355005E+03  0.24950355010E+03  0.50400001928E-02 0.  1.
        1   -1    0    0  501    0  0.00000000000E+00  0.00000000000E+00 -0.95886342713E+03  0.95886342714E+03  0.50400001928E-02 0. -1.
    10030    2    1    2    0    0  0.00000000000E+00  0.00000000000E+00 -0.70935987708E+03  0.12083669772E+04  0.97824297414E+03 0.  0.
        5    1    3    3  502    0 -0.19443411588E+03 -0.15505382105E+03  0.16554832088E+03  0.29878863664E+03  0.46999998093E+01 0.  1.
       -5    1    3    3    0  502  0.19443411588E+03  0.15505382105E+03 -0.87490819796E+03  0.90957834060E+03  0.46999998093E+01 0. -1.
</event>
<event>
 5   0  0.3608845E-03  0.9885556E+03  0.7818609E-02  0.9321187E-01
        1   -1    0    0  501    0  0.00000000000E+00  0.00000000000E+00  0.69894030740E+03  0.69894030741E+03  0.50400001928E-02 0. -1.
       -1   -1    0    0    0  501  0.00000000000E+00  0.00000000000E+00 -0.34954421550E+03  0.34954421554E+03  0.50400001928E-02 0.  1.
    10030    2    1    2    0    0  0.00000000000E+00  0.00000000000E+00  0.34939609189E+03  0.10484845230E+04  0.98855559572E+03 0.  0.
        1    1    3    3  502    0 -0.65095532683E+02  0.29591859146E+03  0.58889165564E+03  0.66226778817E+03  0.50400001928E-02 0. -1.
       -1    1    3    3    0  502  0.65095532683E+02 -0.29591859146E+03 -0.23949556374E+03  0.38621673478E+03  0.50400001928E-02 0.  1.
</event>
<event>
 5   0  0.6376961E-03  0.1004434E+04  0.7818609E-02  0.9303695E-01
        2   -1    0    0  501    0  0.00000000000E+00  0.00000000000E+00  0.16955499858E+04  0.16955499858E+04  0.25500000920E-02 0. -1.
       -2   -1    0    0    0  501  0.00000000000E+00  0.00000000000E+00 -0.14875524908E+03  0.14875524910E+03  0.25500000920E-02 0.  1.
    10030    2    1    2    0    0  0.00000000000E+00  0.00000000000E+00  0.15467947367E+04  0.18443052349E+04  0.10044340904E+04 0.  0.
        3    1    3    3  502    0  0.18325515256E+03 -0.21101091352E+03  0.15395725300E+04  0.15647337288E+04  0.10100000352E+00 0. -1.
       -3    1    3    3    0  502 -0.18325515256E+03  0.21101091352E+03  0.72222066871E+01  0.27957150612E+03  0.10100000352E+00 0.  1.
</event>
<event>
 5   0  0.6376961E-03  0.1013186E+04  0.7818609E-02  0.9294200E-01
        2   -1    0    0  501    0  0.00000000000E+00  0.00000000000E+00  0.14955234872E+04  0.14955234872E+04  0.25500000920E-02 0.  1.
       -2   -1    0    0    0  501  0.00000000000E+00  0.00000000000E+00 -0.17160313225E+03  0.17160313227E+03  0.25500000920E-02 0. -1.
    10030    2    1    2    0    0  0.00000000000E+00  0.00000000000E+00  0.13239203549E+04  0.16671266194E+04  0.10131860930E+04 0.  0.
        3    1    3    3  502    0  0.39253017731E+03 -0.68113793891E+02  0.11768432132E+04  0.12424489477E+04  0.10100000352E+00 0.  1.
       -3    1    3    3    0  502 -0.39253017731E+03  0.68113793891E+02  0.14707714168E+03  0.42467767168E+03  0.10100000352E+00 0. -1.
</event>
<event>
 5   0  0.3640180E-03  0.9993111E+03  0.7818609E-02  0.9309301E-01
       -1   -1    0    0    0  501  0.00000000000E+00  0.00000000000E+00  0.13310935534E+03  0.13310935543E+03  0.50400001928E-02 0. -1.
        1   -1    0    0  501    0  0.00000000000E+00  0.00000000000E+00 -0.18755682782E+04  0.18755682782E+04  0.50400001928E-02 0.  1.
    10030    2    1    2    0    0  0.00000000000E+00  0.00000000000E+00 -0.17424589228E+04  0.20086776336E+04  0.99931113173E+03 0.  0.
        5    1    3    3  502    0  0.31189726594E+03  0.17699564388E+03 -0.17195241192E+03  0.39773997086E+03  0.46999998093E+01 0. -1.
       -5    1    3    3    0  502 -0.31189726594E+03 -0.17699564388E+03 -0.15705065109E+04  0.16109376628E+04  0.46999998093E+01 0.  1.
</event>
<event>
 5   0  0.3466598E-03  0.1006990E+04  0.7818609E-02  0.9300911E-01
        1   -1    0    0  501    0  0.00000000000E+00  0.00000000000E+00  0.15093151802E+04  0.15093151802E+04  0.50400001928E-02 0. -1.
       -1   -1    0    0    0  501  0.00000000000E+00  0.00000000000E+00 -0.16796172795E+03  0.16796172803E+03  0.50400001928E-02 0.  1.
    10030    2    1    2    0    0  0.00000000000E+00  0.00000000000E+00  0.13413534523E+04  0.16772769083E+04  0.10069899419E+04 0.  0.
        3    1    3    3  502    0 -0.54333826065E+02 -0.40681398107E+03  0.18490114960E+03  0.45015355732E+03  0.10100000352E+00 0.  1.
       -3    1    3    3    0  502  0.54333826065E+02  0.40681398107E+03  0.11564523027E+04  0.12271233509E+04  0.10100000352E+00 0. -1.
</event>
<event>
 5   0  0.3466598E-03  0.9984675E+03  0.7818609E-02  0.9310227E-01
       -1   -1    0    0    0  501  0.00000000000E+00  0.00000000000E+00  0.30263046243E+03  0.30263046248E+03  0.50400001928E-02 0. -1.
        1   -1    0    0  501    0  0.00000000000E+00  0.00000000000E+00 -0.82356002650E+03  0.82356002651E+03  0.50400001928E-02 0.  1.
    10030    2    1    2    0    0  0.00000000000E+00  0.00000000000E+00 -0.52092956407E+03  0.11261904890E+04  0.99846752915E+03 0.  0.
        3    1    3    3  502    0 -0.12988730789E+03 -0.25560817229E+03 -0.72143478817E+03  0.77632107680E+03  0.10100000352E+00 0.  1.
       -3    1    3    3    0  502  0.12988730789E+03  0.25560817229E+03  0.20050522411E+03  0.34986941219E+03  0.10100000352E+00 0. -1.
</event>
<event>
 5   0  0.6199539E-03  0.9947261E+03  0.7818609E-02  0.9314348E-01
       -2   -1    0    0    0  501  0.00000000000E+00  0.00000000000E+00  0.50027200228E+03  0.50027200229E+03  0.25500000920E-02 0. -1.
        2   -1    0    0  501    0  0.00000000000E+00  0.00000000000E+00 -0.49447103172E+03  0.49447103172E+03  0.25500000920E-02 0.  1.
    10030    2    1    2    0    0  0.00000000000E+00  0.00000000000E+00  0.58009705689E+01  0.99474303401E+03  0.99472611932E+03 0.  0.
        2    1    3    3  502    0 -0.29927843251E+03  0.37250298947E+03  0.14090267165E+03  0.49817629431E+03  0.25500000920E-02 0. -1.
       -2    1    3    3    0  502  0.29927843251E+03 -0.37250298947E+03 -0.13510170108E+03  0.49656673970E+03  0.25500000920E-02 0.  1.
</event>
<event>
 5   0  0.6199539E-03  0.8660946E+03  0.7818609E-02  0.9468986E-01
       -2   -1    0    0    0  501  0.00000000000E+00  0.00000000000E+00  0.17368753648E+03  0.17368753650E+03  0.25500000920E-02 0. -1.
        2   -1    0    0  501    0  0.00000000000E+00  0.00000000000E+00 -0.10796973165E+04  0.10796973165E+04  0.25500000920E-02 0.  1.
    10030    2    1    2    0    0  0.00000000000E+00  0.00000000000E+00 -0.90600978005E+03  0.12533848530E+04  0.86609460700E+03 0.  0.
        2    1    3    3  502    0 -0.23953234654E+03 -0.29075609217E+03 -0.14392303953E+03  0.40327247797E+03  0.25500000920E-02 0. -1.
       -2    1    3    3    0  502  0.23953234654E+03  0.29075609217E+03 -0.76208674052E+03  0.85011237507E+03  0.25500000920E-02 0.  1.
</event>
<event>
 5   0  0.3569359E-03  0.9956018E+03  0.7818609E-02  0.9313382E-01
        1   -1    0    0  501    0  0.00000000000E+00  0.00000000000E+00  0.10729977761E+04  0.10729977761E+04  0.50400001928E-02 0. -1.
       -1   -1    0    0    0  501  0.00000000000E+00  0.00000000000E+00 -0.23094709184E+03  0.23094709190E+03  0.50400001928E-02 0.  1.
    10030    2    1    2    0    0  0.00000000000E+00  0.00000000000E+00  0.84205068428E+03  0.13039448680E+04  0.99560175973E+03 0.  0.
        4    1    3    3  502    0 -0.25904184190E+02 -0.38210700459E+03  0.45322442641E+01  0.38301298131E+03  0.12699999809E+01 0. -1.
       -4    1    3    3    0  502  0.25904184190E+02  0.38210700459E+03  0.83751844002E+03  0.92093188672E+03  0.12699999809E+01 0.  1.
</event>
<event>
 5   0  0.6606947E-03  0.9985094E+03  0.7818609E-02  0.9310181E-01
        2   -1    0    0  501    0  0.00000000000E+00  0.00000000000E+00  0.82311773638E+03  0.82311773638E+03  0.25500000920E-02 0.  1.
       -2   -1    0    0    0  501  0.00000000000E+00  0.00000000000E+00 -0.30281844926E+03  0.30281844928E+03  0.25500000920E-02 0. -1.
    10030    2    1    2    0    0  0.00000000000E+00  0.00000000000E+00  0.52029928711E+03  0.11259361857E+04  0.99850936200E+03 0.  0.
        1    1    3    3  502    0 -0.43103908271E+03 -0.14771985059E+03  0.49024816195E+03  0.66929747154E+03  0.50400001928E-02 0.  1.
       -1    1    3    3    0  502  0.43103908271E+03  0.14771985059E+03  0.30051125162E+02  0.45663871412E+03  0.50400001928E-02 0. -1.
</event>
<event>
 5   0  0.2417750E-03  0.1002841E+04  0.7818609E-02  0.9305435E-01
        3   -1    0    0  501    0  0.00000000000E+00  0.00000000000E+00  0.17469803972E+03  0.17469806892E+03  0.10100000352E+00 0. -1.
       -3   -1    0    0    0  501  0.00000000000E+00  0.00000000000E+00 -0.14391821677E+04  0.14391821713E+04  0.10100000352E+00 0.  1.
    10030    2    1    2    0    0  0.00000000000E+00  0.00000000000E+00 -0.12644841280E+04  0.16138802402E+04  0.10028406253E+04 0.  0.
        4    1    3    3  502    0  0.69289356364E+02 -0.51920406518E+02 -0.14270581138E+04  0.14296829077E+04  0.12699999809E+01 0.  1.
       -4    1    3    3    0  502 -0.69289356364E+02  0.51920406518E+02  0.16257398582E+03  0.18419733246E+03  0.12699999809E+01 0. -1.
</event>
<event>
 5   0  0.2417750E-03  0.9395901E+03  0.7818609E-02  0.9377402E-01
       -4   -1    0    0    0  501  0.00000000000E+00  0.00000000000E+00  0.10453742341E+04  0.10453750055E+04  0.12699999809E+01 0. -1.
        4   -1    0    0  501    0  0.00000000000E+00  0.00000000000E+00 -0.21112488776E+03  0.21112870750E+03  0.12699999809E+01 0.  1.
    10030    2    1    2    0    0  0.00000000000E+00  0.00000000000E+00  0.83424934633E+03  0.12565037130E+04  0.93959012819E+03 0.  0.
        2    1    3    3  502    0 -0.13249708389E+03  0.23356708821E+03  0.93262899483E+03  0.97051836868E+03  0.25500000920E-02 0. -1.
       -2    1    3    3    0  502  0.13249708389E+03 -0.23356708821E+03 -0.98379648508E+02  0.28598534435E+03  0.25500000920E-02 0.  1.
</event>
<event>
 5   0  0.6022787E-03  0.9975835E+03  0.7818609E-02  0.9311199E-01
        2   -1    0    0  501    0  0.00000000000E+00  0.00000000000E+00  0.34051507124E+03  0.34051507125E+03  0.25500000920E-02 0.  1.
       -2   -1    0    0    0  501  0.00000000000E+00  0.00000000000E+00 -0.73063783952E+03  0.73063783952E+03  0.25500000920E-02 0. -1.
    10030    2    1    2    0    0  0.00000000000E+00  0.00000000000E+00 -0.39012276827E+03  0.10711529108E+04  0.99758347216E+03 0.  0.
        5    1    3    3  502    0 -0.13361376474E+03 -0.22325685869E+03  0.26184927073E+03  0.36916580781E+03  0.46999998093E+01 0.  1.
       -5    1    3    3    0  502  0.13361376474E+03  0.22325685869E+03 -0.65197203901E+03  0.70198710296E+03  0.46999998093E+01 0. -1.
</event>
<event>
 5   0  0.6199539E-03  0.1008038E+04  0.7818609E-02  0.9299772E-01
        2   -1    0    0  501    0  0.00000000000E+00  0.00000000000E+00  0.23743187065E+04  0.23743187065E+04  0.25500000920E-02 0.  1.
       -2   -1    0    0    0  501  0.00000000000E+00  0.00000000000E+00 -0.10699295125E+03  0.10699295128E+03  0.25500000920E-02 0. -1.
    10030    2    1    2    0    0  0.00000000000E+00  0.00000000000E+00  0.22673257553E+04  0.24813116578E+04  0.10080384232E+04 0.  0.
        2    1    3    3  502    0  0.12679129447E+03  0.43388474702E+03  0.16824413951E+04  0.17421082211E+04  0.25500000920E-02 0.  1.
       -2    1    3    3    0  502 -0.12679129447E+03 -0.43388474702E+03  0.58488436017E+03  0.73920343671E+03  0.25500000920E-02 0. -1.
</event>
<event>
 5   0  0.3640180E-03  0.1001255E+04  0.7818609E-02  0.9307170E-01
        1   -1    0    0  501    0  0.00000000000E+00  0.00000000000E+00  0.57138377347E+03  0.57138377349E+03  0.50400001928E-02 0. -1.
       -1   -1    0    0    0  501  0.00000000000E+00  0.00000000000E+00 -0.43863280961E+03  0.43863280964E+03  0.50400001928E-02 0.  1.
    10030    2    1    2    0    0  0.00000000000E+00  0.00000000000E+00  0.13275096386E+03  0.10100165831E+04  0.10012545529E+04 0.  0.
        5    1    3    3  502    0  0.14018599967E+03  0.43044006266E+03  0.28196240429E+03  0.53334383795E+03  0.46999998093E+01 0. -1.
       -5    1    3    3    0  502 -0.14018599967E+03 -0.43044006266E+03 -0.14921144043E+03  0.47667274518E+03  0.46999998093E+01 0.  1.
</event>
<event>
 5   0  0.6022787E-03  0.1005894E+04  0.7818609E-02  0.9302104E-01
       -2   -1    0    0    0  501  0.00000000000E+00  0.00000000000E+00  0.17984901060E+03  0.17984901062E+03  0.25500000920E-02 0.  1.
        2   -1    0    0  501    0  0.00000000000E+00  0.00000000000E+00 -0.14064892286E+04  0.14064892286E+04  0.25500000920E-02 0. -1.
    10030    2    1    2    0    0  0.00000000000E+00  0.00000000000E+00 -0.12266402180E+04  0.15863382392E+04  0.10058940227E+04 0.  0.
        5    1    3    3  502    0  0.25983768856E+03  0.37394660939E+03 -0.95001757651E+03  0.10535213224E+04  0.46999998093E+01 0.  1.
       -5    1    3    3    0  502 -0.25983768856E+03 -0.37394660939E+03 -0.27662264148E+03  0.53281691682E+03  0.46999998093E+01 0. -1.
</event>
<event>
 5   0  0.3466598E-03  0.1004814E+04  0.7818609E-02  0.9303281E-01
       -1   -1    0    0    0  501  0.00000000000E+00  0.00000000000E+00  0.26766265297E+03  0.26766265301E+03  0.50400001928E-02 0.  1.
        1   -1    0    0  501    0  0.00000000000E+00  0.00000000000E+00 -0.94302519672E+03  0.94302519673E+03  0.50400001928E-02 0. -1.
    10030    2    1    2    0    0  0.00000000000E+00  0.00000000000E+00 -0.67536254375E+03  0.12106878497E+04  0.10048136663E+04 0.  0.
        3    1    3    3  502    0  0.40944190170E+03  0.29112902013E+03 -0.34216348345E+03  0.60784425377E+03  0.10100000352E+00 0.  1.
       -3    1    3    3    0  502 -0.40944190170E+03 -0.29112902013E+03 -0.33319906030E+03  0.60284359598E+03  0.10100000352E+00 0. -1.
</event>
<event>
 5   0  0.6360455E-03  0.9286020E+03  0.7818609E-02  0.9390517E-01
        2   -1    0    0  501    0  0.00000000000E+00  0.00000000000E+00  0.21340092732E+04  0.21340092732E+04  0.25500000920E-02 0.  1.
       -2   -1    0    0    0  501  0.00000000000E+00  0.00000000000E+00 -0.10101896507E+03  0.10101896510E+03  0.25500000920E-02 0. -1.
    10030    2    1    2    0    0  0.00000000000E+00  0.00000000000E+00  0.20329903081E+04  0.22350282383E+04  0.92860197773E+03 0.  0.
        4    1    3    3  502    0  0.16971242153E+02  0.11303213863E+03  0.20996140174E+04  0.21027232159E+04  0.12699999809E+01 0.  1.
       -4    1    3    3    0  502 -0.16971242153E+02 -0.11303213863E+03 -0.66623709296E+02  0.13230502244E+03  0.12699999809E+01 0. -1.
</event>
<event>
 5   0  0.3643002E-03  0.1011603E+04  0.7818609E-02  0.9295910E-01
       -1   -1    0    0    0  501  0.00000000000E+00  0.00000000000E+00  0.18279043825E+03  0.18279043832E+03  0.50400001928E-02 0.  1.
        1   -1    0    0  501    0  0.00000000000E+00  0.00000000000E+00 -0.13996078917E+04  0.13996078918E+04  0.50400001928E-02 0. -1.
    10030    2    1    2    0    0  0.00000000000E+00  0.00000000000E+00 -0.12168174535E+04  0.15823983301E+04  0.10116025701E+04 0.  0.
        2    1    3    3  502    0  0.21610153107E+03 -0.41764625784E+03 -0.89982404370E+03  0.10152889136E+04  0.25500000920E-02 0.  1.
       -2    1    3    3    0  502 -0.21610153107E+03  0.41764625784E+03 -0.31699340979E+03  0.56710941650E+03  0.25500000920E-02 0. -1.
</event>
<event>
 5   0  0.3608845E-03  0.1015139E+04  0.7818609E-02  0.9292095E-01
       -1   -1    0    0    0  501  0.00000000000E+00  0.00000000000E+00  0.23367846800E+03  0.23367846805E+03  0.50400001928E-02 0. -1.
        1   -1    0    0  501    0  0.00000000000E+00  0.00000000000E+00 -0.11024844913E+04  0.11024844913E+04  0.50400001928E-02 0.  1.
    10030    2    1    2    0    0  0.00000000000E+00  0.00000000000E+00 -0.86880602328E+03  0.13361629593E+04  0.10151391766E+04 0.  0.
        1    1    3    3  502    0  0.37899600694E+03  0.33566879326E+03 -0.38666562804E+03  0.63704145860E+03  0.50400001928E-02 0.  1.
       -1    1    3    3    0  502 -0.37899600694E+03 -0.33566879326E+03 -0.48214039524E+03  0.69912150074E+03  0.50400001928E-02 0. -1.
</event>
<event>
 5   0  0.6022787E-03  0.9934957E+03  0.7818609E-02  0.9315707E-01
       -2   -1    0    0    0  501  0.00000000000E+00  0.00000000000E+00  0.10076977424E+04  0.10076977424E+04  0.25500000920E-02 0. -1.
        2   -1    0    0  501    0  0.00000000000E+00  0.00000000000E+00 -0.24487347263E+03  0.24487347264E+03  0.25500000920E-02 0.  1.
    10030    2    1    2    0    0  0.00000000000E+00  0.00000000000E+00  0.76282426976E+03  0.12525712150E+04  0.99349573839E+03 0.  0.
        5    1    3    3  502    0 -0.39358732614E+03  0.13581638201E+03  0.39886624215E+02  0.41829428123E+03  0.46999998093E+01 0.  1.
       -5    1    3    3    0  502  0.39358732614E+03 -0.13581638201E+03  0.72293764555E+03  0.83427693380E+03  0.46999998093E+01 0. -1.
</event>
<event>
 5   0  0.3640180E-03  0.9742093E+03  0.7818609E-02  0.9337293E-01
       -1   -1    0    0    0  501  0.00000000000E+00  0.00000000000E+00  0.50001100647E+03  0.50001100649E+03  0.50400001928E-02 0. -1.
        1   -1    0    0  501    0  0.00000000000E+00  0.00000000000E+00 -0.47453146684E+03  0.47453146687E+03  0.50400001928E-02 0.  1.
    10030    2    1    2    0    0  0.00000000000E+00  0.00000000000E+00  0.25479539626E+02  0.97454247336E+03  0.97420933348E+03 0.  0.
        5    1    3    3  502    0  0.32062625358E+03  0.71157840981E+02  0.37256297215E+03  0.49667886107E+03  0.46999998093E+01 0. -1.
       -5    1    3    3    0  502 -0.32062625358E+03 -0.71157840981E+02 -0.34708343253E+03  0.47786361229E+03  0.46999998093E+01 0.  1.
</event>
<event>
 5   0  0.6376961E-03  0.1001847E+04  0.7818609E-02  0.9306521E-01
       -2   -1    0    0    0  501  0.00000000000E+00  0.00000000000E+00  0.12808928491E+04  0.12808928491E+04  0.25500000920E-02 0. -1.
        2   -1    0    0  501    0  0.00000000000E+00  0.00000000000E+00 -0.19589808749E+03  0.19589808751E+03  0.25500000920E-02 0.  1.
    10030    2    1    2    0    0  0.00000000000E+00  0.00000000000E+00  0.10849947616E+04  0.14767909366E+04  0.10018472128E+04 0.  0.
        3    1    3    3  502    0 -0.55486067529E+02 -0.13380186066E+03 -0.16435290669E+03  0.21907425624E+03  0.10100000352E+00 0.  1.
       -3    1    3    3    0  502  0.55486067529E+02  0.13380186066E+03  0.12493476683E+04  0.12577166804E+04  0.10100000352E+00 0. -1.
</event>
<event>
 5   0  0.6606947E-03  0.1000520E+04  0.7818609E-02  0.9307975E-01
       -2   -1    0    0    0  501  0.00000000000E+00  0.00000000000E+00  0.22656384788E+03  0.22656384789E+03  0.25500000920E-02 0.  1.
        2   -1    0    0  501    0  0.00000000000E+00  0.00000000000E+00 -0.11045888401E+04  0.11045888401E+04  0.25500000920E-02 0. -1.
    10030    2    1    2    0    0  0.00000000000E+00  0.00000000000E+00 -0.87802499219E+03  0.13311526880E+04  0.10005196609E+04 0.  0.
        1    1    3    3  502    0 -0.31016433885E+03  0.37903608121E+00 -0.96122124605E+03  0.10100239327E+04  0.50400001928E-02 0. -1.
       -1    1    3    3    0  502  0.31016433885E+03 -0.37903608121E+00  0.83196253867E+02  0.32112875524E+03  0.50400001928E-02 0.  1.
</event>
<event>
 5   0  0.3643002E-03  0.9862597E+03  0.7818609E-02  0.9323745E-01
       -1   -1    0    0    0  501  0.00000000000E+00  0.00000000000E+00  0.23522219456E+03  0.23522219461E+03  0.50400001928E-02 0. -1.
        1   -1    0    0  501    0  0.00000000000E+00  0.00000000000E+00 -0.10338184745E+04  0.10338184745E+04  0.50400001928E-02 0.  1.
    10030    2    1    2    0    0  0.00000000000E+00  0.00000000000E+00 -0.79859627990E+03  0.12690406691E+04  0.98625970288E+03 0.  0.
        2    1    3    3  502    0  0.31715425780E+03 -0.25129674004E+02 -0.88410114023E+03  0.93960265534E+03  0.25500000920E-02 0.  1.
       -2    1    3    3    0  502 -0.31715425780E+03  0.25129674004E+02  0.85504860325E+02  0.32943801375E+03  0.25500000920E-02 0. -1.
</event>
<event>
 5   0  0.3643002E-03  0.9907222E+03  0.7818609E-02  0.9318779E-01
       -1   -1    0    0    0  501  0.00000000000E+00  0.00000000000E+00  0.55139632887E+03  0.55139632889E+03  0.50400001928E-02 0.  1.
        1   -1    0    0  501    0  0.00000000000E+00  0.00000000000E+00 -0.44502043089E+03  0.44502043091E+03  0.50400001928E-02 0. -1.
    10030    2    1    2    0    0  0.00000000000E+00  0.00000000000E+00  0.10637589798E+03  0.99641675981E+03  0.99072222522E+03 0.  0.
        2    1    3    3  502    0 -0.43514320551E+03  0.23268566545E+03  0.94592663507E+01  0.49353997400E+03  0.25500000920E-02 0.  1.
       -2    1    3    3    0  502  0.43514320551E+03 -0.23268566545E+03  0.96916631631E+02  0.50287678581E+03  0.25500000920E-02 0. -1.
</event>
<event>
 5   0  0.6376961E-03  0.9971888E+03  0.7818609E-02  0.9311633E-01
       -2   -1    0    0    0  501  0.00000000000E+00  0.00000000000E+00  0.27848814658E+03  0.27848814660E+03  0.25500000920E-02 0.  1.
        2   -1    0    0  501    0  0.00000000000E+00  0.00000000000E+00 -0.89266412287E+03  0.89266412287E+03  0.25500000920E-02 0. -1.
    10030    2    1    2    0    0  0.00000000000E+00  0.00000000000E+00 -0.61417597628E+03  0.11711522695E+04  0.99718880280E+03 0.  0.
        3    1    3    3  502    0  0.33276773404E+03 -0.15218283363E+03  0.90673012410E+02  0.37698220787E+03  0.10100000352E+00 0.  1.
       -3    1    3    3    0  502 -0.33276773404E+03  0.15218283363E+03 -0.70484898869E+03  0.79417006160E+03  0.10100000352E+00 0. -1.
</event>
<event>
 5   0  0.6022787E-03  0.1028061E+04  0.7818609E-02  0.9278292E-01
        2   -1    0    0  501    0  0.00000000000E+00  0.00000000000E+00  0.45745871781E+03  0.45745871782E+03  0.25500000920E-02 0. -1.
       -2   -1    0    0    0  501  0.00000000000E+00  0.00000000000E+00 -0.57759843190E+03  0.57759843190E+03  0.25500000920E-02 0.  1.
    10030    2    1    2    0    0  0.00000000000E+00  0.00000000000E+00 -0.12013971409E+03  0.10350571497E+04  0.10280611617E+04 0.  0.
        5    1    3    3  502    0  0.36226560929E+03 -0.32550664129E+03 -0.22554892390E+03  0.53673583099E+03  0.46999998093E+01 0.  1.
       -5    1    3    3    0  502 -0.36226560929E+03  0.32550664129E+03  0.10540920982E+03  0.49832131874E+03  0.46999998093E+01 0. -1.
</event>
<event>
 5   0  0.3569359E-03  0.9931581E+03  0.7818609E-02  0.9316081E-01
       -1   -1    0    0    0  501  0.00000000000E+00  0.00000000000E+00  0.35882929282E+03  0.35882929286E+03  0.50400001928E-02 0. -1.
        1   -1    0    0  501    0  0.00000000000E+00  0.00000000000E+00 -0.68720907969E+03  0.68720907971E+03  0.50400001928E-02 0.  1.
    10030    2    1    2    0    0  0.00000000000E+00  0.00000000000E+00 -0.32837978687E+03  0.10460383726E+04  0.99315809036E+03 0.  0.
        4    1    3    3  502    0 -0.45169667843E+03 -0.41091883387E+02  0.48739337602E+02  0.45617493148E+03  0.12699999809E+01 0. -1.
       -4    1    3    3    0  502  0.45169667843E+03  0.41091883387E+02 -0.37711912447E+03  0.58986344108E+03  0.12699999809E+01 0.  1.
</event>
<event>
 5   0  0.3569359E-03  0.9736121E+03  0.7818609E-02  0.9337970E-01
       -1   -1    0    0    0  501  0.00000000000E+00  0.00000000000E+00  0.21749944938E+03  0.21749944944E+03  0.50400001928E-02 0.  1.
        1   -1    0    0  501    0  0.00000000000E+00  0.00000000000E+00 -0.10895664885E+04  0.10895664885E+04  0.50400001928E-02 0. -1.
    10030    2    1    2    0    0  0.00000000000E+00  0.00000000000E+00 -0.87206703914E+03  0.13070659380E+04  0.97361206107E+03 0.  0.
        4    1    3    3  502    0  0.24859596651E+03 -0.29461303504E+03 -0.83514363568E+03  0.91981699272E+03  0.12699999809E+01 0. -1.
       -4    1    3    3    0  502 -0.24859596651E+03  0.29461303504E+03 -0.36923403459E+02  0.38724894526E+03  0.12699999809E+01 0.  1.
</event>
<event>
 5   0  0.3608845E-03  0.1039768E+04  0.7818609E-02  0.9265972E-01
        1   -1    0    0  501    0  0.00000000000E+00  0.00000000000E+00  0.50168020569E+03  0.50168020571E+03  0.50400001928E-02 0.  1.
       -1   -1    0    0    0  501  0.00000000000E+00  0.00000000000E+00 -0.53874810374E+03  0.53874810377E+03  0.50400001928E-02 0. -1.
    10030    2    1    2    0    0  0.00000000000E+00  0.00000000000E+00 -0.37067898059E+02  0.10404283095E+04  0.10397677809E+04 0.  0.
        1    1    3    3  502    0  0.39635172393E+02 -0.18607884732E+03  0.46559462825E+03  0.50296584595E+03  0.50400001928E-02 0.  1.
       -1    1    3    3    0  502 -0.39635172393E+02  0.18607884732E+03 -0.50266252631E+03  0.53746246352E+03  0.50400001928E-02 0. -1.
</event>
<event>
 5   0  0.3608845E-03  0.1051775E+04  0.7818609E-02  0.9253514E-01
        1   -1    0    0  501    0  0.00000000000E+00  0.00000000000E+00  0.27703034009E+03  0.27703034014E+03  0.50400001928E-02 0. -1.
       -1   -1    0    0    0  501  0.00000000000E+00  0.00000000000E+00 -0.99829285989E+03  0.99829285990E+03  0.50400001928E-02 0.  1.
    10030    2    1    2    0    0  0.00000000000E+00  0.00000000000E+00 -0.72126251979E+03  0.12753232000E+04  0.10517745206E+04 0.  0.
        1    1    3    3  502    0  0.42130321370E+03  0.18690819675E+03 -0.53576498339E+02  0.46400594079E+03  0.50400001928E-02 0. -1.
       -1    1    3    3    0  502 -0.42130321370E+03 -0.18690819675E+03 -0.66768602146E+03  0.81131725925E+03  0.50400001928E-02 0.  1.
</event>
<event>
 5   0  0.3643002E-03  0.1004945E+04  0.7818609E-02  0.9303138E-01
       -1   -1    0    0    0  501  0.00000000000E+00  0.00000000000E+00  0.56257668350E+03  0.56257668352E+03  0.50400001928E-02 0. -1.
        1   -1    0    0  501    0  0.00000000000E+00  0.00000000000E+00 -0.44878953595E+03  0.44878953598E+03  0.50400001928E-02 0.  1.
    10030    2    1    2    0    0  0.00000000000E+00  0.00000000000E+00  0.11378714754E+03  0.10113662195E+04  0.10049448318E+04 0.  0.
        2    1    3    3  502    0 -0.16997039592E+03  0.23346774315E+03  0.47071611960E+03  0.55224160278E+03  0.25500000920E-02 0. -1.
       -2    1    3    3    0  502  0.16997039592E+03 -0.23346774315E+03 -0.35692897206E+03  0.45912461672E+03  0.25500000920E-02 0.  1.
</event>
<event>
 5   0  0.3640180E-03  0.9952874E+03  0.7818609E-02  0.9313729E-01
       -1   -1    0    0    0  501  0.00000000000E+00  0.00000000000E+00  0.16233039691E+03  0.16233039699E+03  0.50400001928E-02 0.  1.
        1   -1    0    0  501    0  0.00000000000E+00  0.00000000000E+00 -0.15255877290E+04  0.15255877290E+04  0.50400001928E-02 0. -1.
    10030    2    1    2    0    0  0.00000000000E+00  0.00000000000E+00 -0.13632573321E+04  0.16879181260E+04  0.99528741909E+03 0.  0.
        5    1    3    3  502    0 -0.13093728558E+03  0.23738615264E+03 -0.13893139719E+04  0.14155254009E+04  0.46999998093E+01 0. -1.
       -5    1    3    3    0  502  0.13093728558E+03 -0.23738615264E+03  0.26056639744E+02  0.27239272511E+03  0.46999998093E+01 0.  1.
</event>
<event>
 5   0  0.3643002E-03  0.9841716E+03  0.7818609E-02  0.9326078E-01
        1   -1    0    0  501    0  0.00000000000E+00  0.00000000000E+00  0.10668959109E+04  0.10668959109E+04  0.50400001928E-02 0.  1.
       -1   -1    0    0    0  501  0.00000000000E+00  0.00000000000E+00 -0.22696535579E+03  0.22696535584E+03  0.50400001928E-02 0. -1.
    10030    2    1    2    0    0  0.00000000000E+00  0.00000000000E+00  0.83993055506E+03  0.12938612667E+04  0.98417155017E+03 0.  0.
        2    1    3    3  502    0  0.11363725125E+03 -0.13071522762E+03 -0.18556644920E+03  0.25384011243E+03  0.25500000920E-02 0. -1.
       -2    1    3    3    0  502 -0.11363725125E+03  0.13071522762E+03  0.10254970043E+04  0.10400211543E+04  0.25500000920E-02 0.  1.
</event>
<event>
 5   0  0.6606947E-03  0.1002889E+04  0.7818609E-02  0.9305381E-01
        2   -1    0    0  501    0  0.00000000000E+00  0.00000000000E+00  0.11378423510E+04  0.11378423510E+04  0.25500000920E-02 0.  1.
       -2   -1    0    0    0  501  0.00000000000E+00  0.00000000000E+00 -0.22098564489E+03  0.22098564491E+03  0.25500000920E-02 0. -1.
    10030    2    1    2    0    0  0.00000000000E+00  0.00000000000E+00  0.91685670607E+03  0.13588279959E+04  0.10028894769E+04 0.  0.
        1    1    3    3  502    0 -0.18731385810E+02  0.45259357931E+03  0.74982920328E+03  0.87603404441E+03  0.50400001928E-02 0.  1.
       -1    1    3    3    0  502  0.18731385810E+02 -0.45259357931E+03  0.16702750279E+03  0.48279395146E+03  0.50400001928E-02 0. -1.
</event>
<event>
 5   0  0.6606947E-03  0.1003937E+04  0.7818609E-02  0.9304238E-01
        2   -1    0    0  501    0  0.00000000000E+00  0.00000000000E+00  0.18473467831E+04  0.18473467832E+04  0.25500000920E-02 0. -1.
       -2   -1    0    0    0  501  0.00000000000E+00  0.00000000000E+00 -0.13639684344E+03  0.13639684346E+03  0.25500000920E-02 0.  1.
    10030    2    1    2    0    0  0.00000000000E+00  0.00000000000E+00  0.17109499397E+04  0.19837436266E+04  0.10039367908E+04 0.  0.
        1    1    3    3  502    0 -0.63208526083E+02 -0.34330551950E+03  0.14270676429E+03  0.37711963366E+03  0.50400001928E-02 0.  1.
       -1    1    3    3    0  502  0.63208526083E+02  0.34330551950E+03  0.15682431754E+04  0.16066239930E+04  0.50400001928E-02 0. -1.
</event>
<event>
 5   0  0.6199539E-03  0.9677099E+03  0.7818609E-02  0.9344687E-01
       -2   -1    0    0    0  501  0.00000000000E+00  0.00000000000E+00  0.11480866450E+04  0.11480866450E+04  0.25500000920E-02 0.  1.
        2   -1    0    0  501    0  0.00000000000E+00  0.00000000000E+00 -0.20391808482E+03  0.20391808484E+03  0.25500000920E-02 0. -1.
    10030    2    1    2    0    0  0.00000000000E+00  0.00000000000E+00  0.94416856020E+03  0.13520047299E+04  0.96770993562E+03 0.  0.
        2    1    3    3  502    0 -0.67473950172E+02 -0.45411534900E+03  0.68553783836E+03  0.82506703484E+03  0.25500000920E-02 0. -1.
       -2    1    3    3    0  502  0.67473950172E+02  0.45411534900E+03  0.25863072184E+03  0.52693769502E+03  0.25500000920E-02 0.  1.
</event>
<event>
 5   0  0.3569359E-03  0.9905604E+03  0.7818609E-02  0.9318959E-01
        1   -1    0    0  501    0  0.00000000000E+00  0.00000000000E+00  0.18287230555E+04  0.18287230555E+04  0.50400001928E-02 0.  1.
       -1   -1    0    0    0  501  0.00000000000E+00  0.00000000000E+00 -0.13413865702E+03  0.13413865712E+03  0.50400001928E-02 0. -1.
    10030    2    1    2    0    0  0.00000000000E+00  0.00000000000E+00  0.16945843985E+04  0.19628617126E+04  0.99056035622E+03 0.  0.
        4    1    3    3  502    0  0.23489186674E+03 -0.39384893552E+03  0.47652375687E+03  0.66133779329E+03  0.12699999809E+01 0. -1.
       -4    1    3    3    0  502 -0.23489186674E+03  0.39384893552E+03  0.12180606416E+04  0.13015239193E+04  0.12699999809E+01 0.  1.
</event>
<event>
 5   0  0.3569359E-03  0.1005358E+04  0.7818609E-02  0.9302687E-01
       -1   -1    0    0    0  501  0.00000000000E+00  0.00000000000E+00  0.24912832237E+03  0.24912832242E+03  0.50400001928E-02 0. -1.
        1   -1    0    0  501    0  0.00000000000E+00  0.00000000000E+00 -0.10142818312E+04  0.10142818312E+04  0.50400001928E-02 0.  1.
    10030    2    1    2    0    0  0.00000000000E+00  0.00000000000E+00 -0.76515350884E+03  0.12634101536E+04  0.10053583064E+04 0.  0.
        4    1    3    3  502    0  0.11399010791E+03 -0.22869991989E+03  0.16141659780E+03  0.30224878660E+03  0.12699999809E+01 0. -1.
       -4    1    3    3    0  502 -0.11399010791E+03  0.22869991989E+03 -0.92657010664E+03  0.96116136703E+03  0.12699999809E+01 0.  1.
</event>
<event>
 5   0  0.3608845E-03  0.9915851E+03  0.7818609E-02  0.9317823E-01
        1   -1    0    0  501    0  0.00000000000E+00  0.00000000000E+00  0.92612791469E+02  0.92612791606E+02  0.50400001928E-02 0.  1.
       -1   -1    0    0    0  501  0.00000000000E+00  0.00000000000E+00 -0.26541719146E+04  0.26541719146E+04  0.50400001928E-02 0. -1.
    10030    2    1    2    0    0  0.00000000000E+00  0.00000000000E+00 -0.25615591232E+04  0.27467847062E+04  0.99158513552E+03 0.  0.
        1    1    3    3  502    0 -0.33180109306E+03  0.15398561994E+02 -0.23003896239E+04  0.23242464376E+04  0.50400001928E-02 0. -1.
       -1    1    3    3    0  502  0.33180109306E+03 -0.15398561994E+02 -0.26116949926E+03  0.42253826861E+03  0.50400001928E-02 0.  1.
</event>
<event>
 5   0  0.3643002E-03  0.9987859E+03  0.7818609E-02  0.9309877E-01
        1   -1    0    0  501    0  0.00000000000E+00  0.00000000000E+00  0.32586932488E+03  0.32586932492E+03  0.50400001928E-02 0. -1.
       -1   -1    0    0    0  501  0.00000000000E+00  0.00000000000E+00 -0.76531691675E+03  0.76531691677E+03  0.50400001928E-02 0.  1.
    10030    2    1    2    0    0  0.00000000000E+00  0.00000000000E+00 -0.43944759187E+03  0.10911862417E+04  0.99878587698E+03 0.  0.
        2    1    3    3  502    0  0.18230778204E+03  0.28774300007E+03  0.17924703701E+03  0.38491773376E+03  0.25500000920E-02 0. -1.
       -2    1    3    3    0  502 -0.18230778204E+03 -0.28774300007E+03 -0.61869462888E+03  0.70626850793E+03  0.25500000920E-02 0.  1.
</event>
<event>
 5   0  0.3643002E-03  0.1002402E+04  0.7818609E-02  0.9305914E-01
       -1   -1    0    0    0  501  0.00000000000E+00  0.00000000000E+00  0.34509316937E+03  0.34509316941E+03  0.50400001928E-02 0.  1.
        1   -1    0    0  501    0  0.00000000000E+00  0.00000000000E+00 -0.72792707568E+03  0.72792707569E+03  0.50400001928E-02 0. -1.
    10030    2    1    2    0    0  0.00000000000E+00  0.00000000000E+00 -0.38283390631E+03  0.10730202451E+04  0.10024024374E+04 0.  0.
        2    1    3    3  502    0  0.24246056992E+03  0.34125117399E+03 -0.48644774286E+03  0.64177168702E+03  0.25500000920E-02 0. -1.
       -2    1    3    3    0  502 -0.24246056992E+03 -0.34125117399E+03  0.10361383655E+03  0.43124855808E+03  0.25500000920E-02 0.  1.
</event>
<event>
 5   0  0.6376961E-03  0.1004432E+04  0.7818609E-02  0.9303697E-01
       -2   -1    0    0    0  501  0.00000000000E+00  0.00000000000E+00  0.77407592258E+03  0.77407592258E+03  0.25500000920E-02 0.  1.
        2   -1    0    0  501    0  0.00000000000E+00  0.00000000000E+00 -0.32583507663E+03  0.32583507664E+03  0.25500000920E-02 0. -1.
    10030    2    1    2    0    0  0.00000000000E+00  0.00000000000E+00  0.44824084594E+03  0.10999109992E+04  0.10044323522E+04 0.  0.
        3    1    3    3  502    0  0.13574153864E+03  0.47433451521E+03  0.12138280279E+03  0.50808738682E+03  0.10100000352E+00 0. -1.
       -3    1    3    3    0  502 -0.13574153864E+03 -0.47433451521E+03  0.32685804315E+03  0.59182361241E+03  0.10100000352E+00 0.  1.
</event>
<event>
 5   0  0.6606947E-03  0.9978627E+03  0.7818609E-02  0.9310892E-01
       -2   -1    0    0    0  501  0.00000000000E+00  0.00000000000E+00  0.33547688472E+03  0.33547688473E+03  0.25500000920E-02 0.  1.
        2   -1    0    0  501    0  0.00000000000E+00  0.00000000000E+00 -0.74202582077E+03  0.74202582078E+03  0.25500000920E-02 0. -1.
    10030    2    1    2    0    0  0.00000000000E+00  0.00000000000E+00 -0.40654893605E+03  0.10775027055E+04  0.99786273754E+03 0.  0.
        1    1    3    3  502    0 -0.84671538563E+01  0.40914810067E+03  0.10491384628E+03  0.42246985235E+03  0.50400001928E-02 0.  1.
       -1    1    3    3    0  502  0.84671538563E+01 -0.40914810067E+03 -0.51146278233E+03  0.65503285316E+03  0.50400001928E-02 0. -1.
</event>
<event>
 5   0  0.6376961E-03  0.9960760E+03  0.7818609E-02  0.9312859E-01
        2   -1    0    0  501    0  0.00000000000E+00  0.00000000000E+00  0.11182508908E+04  0.11182508908E+04  0.25500000920E-02 0.  1.
       -2   -1    0    0    0  501  0.00000000000E+00  0.00000000000E+00 -0.22181233505E+03  0.22181233507E+03  0.25500000920E-02 0. -1.
    10030    2    1    2    0    0  0.00000000000E+00  0.00000000000E+00  0.89643855575E+03  0.13400632259E+04  0.99607598360E+03 0.  0.
        3    1    3    3  502    0 -0.31628082623E+03 -0.72538598761E+02  0.95651380741E+03  0.10100564753E+04  0.10100000352E+00 0.  1.
       -3    1    3    3    0  502  0.31628082623E+03  0.72538598761E+02 -0.60075251661E+02  0.33000675056E+03  0.10100000352E+00 0. -1.
</event>
<event>
 5   0  0.3608845E-03  0.1001338E+04  0.7818609E-02  0.9307079E-01
       -1   -1    0    0    0  501  0.00000000000E+00  0.00000000000E+00  0.13054407013E+04  0.13054407013E+04  0.50400001928E-02 0.  1.
        1   -1    0    0  501    0  0.00000000000E+00  0.00000000000E+00 -0.19201896105E+03  0.19201896111E+03  0.50400001928E-02 0. -1.
    10030    2    1    2    0    0  0.00000000000E+00  0.00000000000E+00  0.11134217403E+04  0.14974596624E+04  0.10013378396E+04 0.  0.
        1    1    3    3  502    0 -0.26372007866E+03  0.38302653362E+03  0.83412460469E+03  0.95499814739E+03  0.50400001928E-02 0.  1.
       -1    1    3    3    0  502  0.26372007866E+03 -0.38302653362E+03  0.27929713559E+03  0.54246151505E+03  0.50400001928E-02 0. -1.
</event>
<event>
 5   0  0.6199539E-03  0.1003019E+04  0.7818609E-02  0.9305240E-01
        2   -1    0    0  501    0  0.00000000000E+00  0.00000000000E+00  0.27058623082E+04  0.27058623082E+04  0.25500000920E-02 0.  1.
       -2   -1    0    0    0  501  0.00000000000E+00  0.00000000000E+00 -0.92950668021E+02  0.92950668056E+02  0.25500000920E-02 0. -1.
    10030    2    1    2    0    0  0.00000000000E+00  0.00000000000E+00  0.26129116401E+04  0.27988129762E+04  0.10030188616E+04 0.  0.
        2    1    3    3  502    0  0.36811407371E+03 -0.33310019768E+03  0.11082007563E+04  0.12143198216E+04  0.25500000920E-02 0. -1.
       -2    1    3    3    0  502 -0.36811407371E+03  0.33310019768E+03  0.15047108838E+04  0.15844931546E+04  0.25500000920E-02 0.  1.
</event>
<event>
 5   0  0.6199539E-03  0.9965675E+03  0.7818609E-02  0.9312318E-01
       -2   -1    0    0    0  501  0.00000000000E+00  0.00000000000E+00  0.12372972155E+03  0.12372972157E+03  0.25500000920E-02 0.  1.
        2   -1    0    0  501    0  0.00000000000E+00  0.00000000000E+00 -0.20066857638E+04  0.20066857638E+04  0.25500000920E-02 0. -1.
    10030    2    1    2    0    0  0.00000000000E+00  0.00000000000E+00 -0.18829560422E+04  0.21304154853E+04  0.99656745043E+03 0.  0.
        2    1    3    3  502    0 -0.36492282015E+03 -0.33850304240E+03 -0.99086412426E+03  0.11088573791E+04  0.25500000920E-02 0. -1.
       -2    1    3    3    0  502  0.36492282015E+03  0.33850304240E+03 -0.89209191796E+03  0.10215581063E+04  0.25500000920E-02 0.  1.
</event>
<event>
 5   0  0.3569359E-03  0.9948993E+03  0.7818609E-02  0.9314157E-01
       -1   -1    0    0    0  501  0.00000000000E+00  0.00000000000E+00  0.17792542362E+03  0.17792542369E+03  0.50400001928E-02 0.  1.
        1   -1    0    0  501    0  0.00000000000E+00  0.00000000000E+00 -0.13907856943E+04  0.13907856943E+04  0.50400001928E-02 0. -1.
    10030    2    1    2    0    0  0.00000000000E+00  0.00000000000E+00 -0.12128602707E+04  0.15687111180E+04  0.99489925901E+03 0.  0.
        4    1    3    3  502    0  0.17620996743E+03 -0.21664727179E+03 -0.12555253326E+04  0.12862081740E+04  0.12699999809E+01 0. -1.
       -4    1    3    3    0  502 -0.17620996743E+03  0.21664727179E+03  0.42665061923E+02  0.28250294407E+03  0.12699999809E+01 0.  1.
</event>
<event>
 5   0  0.3643002E-03  0.1004362E+04  0.7818609E-02  0.9303774E-01
        1   -1    0    0  501    0  0.00000000000E+00  0.00000000000E+00  0.85954364770E+03  0.85954364772E+03  0.50400001928E-02 0. -1.
       -1   -1    0    0    0  501  0.00000000000E+00  0.00000000000E+00 -0.29339490295E+03  0.29339490299E+03  0.50400001928E-02 0.  1.
    10030    2    1    2    0    0  0.00000000000E+00  0.00000000000E+00  0.56614874475E+03  0.11529385507E+04  0.10043619370E+04 0.  0.
        2    1    3    3  502    0 -0.48219173938E+03  0.23733430108E+02  0.12437073231E+03  0.49853809112E+03  0.25500000920E-02 0.  1.
       -2    1    3    3    0  502  0.48219173938E+03 -0.23733430108E+02  0.44177801244E+03  0.65440045959E+03  0.25500000920E-02 0. -1.
</event>
<event>
 5   0  0.3640180E-03  0.9862920E+03  0.7818609E-02  0.9323709E-01
       -1   -1    0    0    0  501  0.00000000000E+00  0.00000000000E+00  0.39531137097E+03  0.39531137100E+03  0.50400001928E-02 0.  1.
        1   -1    0    0  501    0  0.00000000000E+00  0.00000000000E+00 -0.61519342833E+03  0.61519342835E+03  0.50400001928E-02 0. -1.
    10030    2    1    2    0    0  0.00000000000E+00  0.00000000000E+00 -0.21988205736E+03  0.10105047994E+04  0.98629196001E+03 0.  0.
        5    1    3    3  502    0  0.19700490101E+03  0.35085076159E+03 -0.40200711382E+03  0.56880488526E+03  0.46999998093E+01 0. -1.
       -5    1    3    3    0  502 -0.19700490101E+03 -0.35085076159E+03  0.18212505646E+03  0.44169991410E+03  0.46999998093E+01 0.  1.
</event>
<event>
 5   0  0.6360455E-03  0.9592489E+03  0.7818609E-02  0.9354405E-01
       -2   -1    0    0    0  501  0.00000000000E+00  0.00000000000E+00  0.14758467754E+03  0.14758467756E+03  0.25500000920E-02 0.  1.
        2   -1    0    0  501    0  0.00000000000E+00  0.00000000000E+00 -0.15586957761E+04  0.15586957761E+04  0.25500000920E-02 0. -1.
    10030    2    1    2    0    0  0.00000000000E+00  0.00000000000E+00 -0.14111110986E+04  0.17062804537E+04  0.95924890102E+03 0.  0.
        4    1    3    3  502    0 -0.32739160264E+03  0.34445745578E+03 -0.59025355755E+03  0.75778431986E+03  0.12699999809E+01 0.  1.
       -4    1    3    3    0  502  0.32739160264E+03 -0.34445745578E+03 -0.82085754105E+03  0.94849613384E+03  0.12699999809E+01 0. -1.
</event>
<event>
 5   0  0.3640180E-03  0.9855237E+03  0.7818609E-02  0.9324566E-01
        1   -1    0    0  501    0  0.00000000000E+00  0.00000000000E+00  0.21819278888E+03  0.21819278894E+03  0.50400001928E-02 0. -1.
       -1   -1    0    0    0  501  0.00000000000E+00  0.00000000000E+00 -0.11128427064E+04  0.11128427064E+04  0.50400001928E-02 0.  1.
    10030    2    1    2    0    0  0.00000000000E+00  0.00000000000E+00 -0.89464991750E+03  0.13310354953E+04  0.98552372623E+03 0.  0.
        5    1    3    3  502    0  0.26674650251E+03  0.39667704233E+03 -0.60875141110E+03  0.77401985958E+03  0.46999998093E+01 0. -1.
       -5    1    3    3    0  502 -0.26674650251E+03 -0.39667704233E+03 -0.28589850640E+03  0.55701563575E+03  0.46999998093E+01 0.  1.
</event>
<event>
 5   0  0.6376961E-03  0.9872949E+03  0.7818609E-02  0.9322590E-01
        2   -1    0    0  501    0  0.00000000000E+00  0.00000000000E+00  0.11686307780E+04  0.11686307780E+04  0.25500000920E-02 0.  1.
       -2   -1    0    0    0  501  0.00000000000E+00  0.00000000000E+00 -0.20852420652E+03  0.20852420654E+03  0.25500000920E-02 0. -1.
    10030    2    1    2    0    0  0.00000000000E+00  0.00000000000E+00  0.96010657148E+03  0.13771549845E+04  0.98729490166E+03 0.  0.
        3    1    3    3  502    0  0.23507578382E+02  0.45208070262E+03  0.20544231819E+03  0.49712787512E+03  0.10100000352E+00 0. -1.
       -3    1    3    3    0  502 -0.23507578382E+02 -0.45208070262E+03  0.75466425328E+03  0.88002710941E+03  0.10100000352E+00 0.  1.
</event>
<event>
 5   0  0.3640180E-03  0.1003429E+04  0.7818609E-02  0.9304792E-01
       -1   -1    0    0    0  501  0.00000000000E+00  0.00000000000E+00  0.59214325142E+03  0.59214325144E+03  0.50400001928E-02 0.  1.
        1   -1    0    0  501    0  0.00000000000E+00  0.00000000000E+00 -0.42509552863E+03  0.42509552866E+03  0.50400001928E-02 0. -1.
    10030    2    1    2    0    0  0.00000000000E+00  0.00000000000E+00  0.16704772279E+03  0.10172387801E+04  0.10034290179E+04 0.  0.
        5    1    3    3  502    0 -0.46802764832E+03 -0.15701222278E+03  0.17415582731E+03  0.52350268374E+03  0.46999998093E+01 0.  1.
       -5    1    3    3    0  502  0.46802764832E+03  0.15701222278E+03 -0.71081045162E+01  0.49373609636E+03  0.46999998093E+01 0. -1.
</event>
<event>
 5   0  0.3466598E-03  0.1038016E+04  0.7818609E-02  0.9267804E-01
       -1   -1    0    0    0  501  0.00000000000E+00  0.00000000000E+00  0.24808961159E+03  0.24808961164E+03  0.50400001928E-02 0.  1.
        1   -1    0    0  501    0  0.00000000000E+00  0.00000000000E+00 -0.10857752551E+04  0.10857752551E+04  0.50400001928E-02 0. -1.
    10030    2    1    2    0    0  0.00000000000E+00  0.00000000000E+00 -0.83768564353E+03  0.13338648668E+04  0.10380164958E+04 0.  0.
        3    1    3    3  502    0 -0.39046440889E+03  0.20219502725E+03 -0.64532584640E+02  0.44442068847E+03  0.10100000352E+00 0.  1.
       -3    1    3    3    0  502  0.39046440889E+03 -0.20219502725E+03 -0.77315305889E+03  0.88944417831E+03  0.10100000352E+00 0. -1.
</event>
<event>
 5   0  0.3466598E-03  0.9669489E+03  0.7818609E-02  0.9345556E-01
        1   -1    0    0  501    0  0.00000000000E+00  0.00000000000E+00  0.86491262939E+03  0.86491262940E+03  0.50400001928E-02 0. -1.
       -1   -1    0    0    0  501  0.00000000000E+00  0.00000000000E+00 -0.27025567611E+03  0.27025567616E+03  0.50400001928E-02 0.  1.
    10030    2    1    2    0    0  0.00000000000E+00  0.00000000000E+00  0.59465695328E+03  0.11351683056E+04  0.96694890758E+03 0.  0.
        3    1    3    3  502    0 -0.90121096109E+02  0.44086392686E+03  0.50490776776E+03  0.67632438823E+03  0.10100000352E+00 0. -1.
       -3    1    3    3    0  502  0.90121096109E+02 -0.44086392686E+03  0.89749185523E+02  0.45884391733E+03  0.10100000352E+00 0.  1.
</event>
<event>
 5   0  0.3640180E-03  0.1005015E+04  0.7818609E-02  0.9303062E-01
       -1   -1    0    0    0  501  0.00000000000E+00  0.00000000000E+00  0.28486315776E+03  0.28486315780E+03  0.50400001928E-02 0. -1.
        1   -1    0    0  501    0  0.00000000000E+00  0.00000000000E+00 -0.88643804085E+03  0.88643804086E+03  0.50400001928E-02 0.  1.
    10030    2    1    2    0    0  0.00000000000E+00  0.00000000000E+00 -0.60157488309E+03  0.11713011987E+04  0.10050145064E+04 0.  0.
        5    1    3    3  502    0 -0.25649570752E+03 -0.43050214685E+03 -0.25766075897E+03  0.56350093445E+03  0.46999998093E+01 0. -1.
       -5    1    3    3    0  502  0.25649570752E+03  0.43050214685E+03 -0.34391412412E+03  0.60780026422E+03  0.46999998093E+01 0.  1.
</event>
<event>
 5   0  0.6360455E-03  0.1005497E+04  0.7818609E-02  0.9302537E-01
        2   -1    0    0  501    0  0.00000000000E+00  0.00000000000E+00  0.24786842231E+03  0.24786842232E+03  0.25500000920E-02 0. -1.
       -2   -1    0    0    0  501  0.00000000000E+00  0.00000000000E+00 -0.10197179861E+04  0.10197179861E+04  0.25500000920E-02 0.  1.
    10030    2    1    2    0    0  0.00000000000E+00  0.00000000000E+00 -0.77184956384E+03  0.12675864085E+04  0.10054966702E+04 0.  0.
        4    1    3    3  502    0 -0.25481569464E+03 -0.25701827340E+03  0.53979203199E+02  0.36593004573E+03  0.12699999809E+01 0. -1.
       -4    1    3    3    0  502  0.25481569464E+03  0.25701827340E+03 -0.82582876704E+03  0.90165636273E+03  0.12699999809E+01 0.  1.
</event>
<event>
 5   0  0.6376961E-03  0.9917357E+03  0.7818609E-02  0.9317656E-01
        2   -1    0    0  501    0  0.00000000000E+00  0.00000000000E+00  0.17816813735E+04  0.17816813735E+04  0.25500000920E-02 0. -1.
       -2   -1    0    0    0  501  0.00000000000E+00  0.00000000000E+00 -0.13800724524E+03  0.13800724526E+03  0.25500000920E-02 0.  1.
    10030    2    1    2    0    0  0.00000000000E+00  0.00000000000E+00  0.16436741283E+04  0.19196886188E+04  0.99173572746E+03 0.  0.
        3    1    3    3  502    0 -0.27537354054E+03  0.11163980140E+02  0.23898444550E+02  0.27663399490E+03  0.10100000352E+00 0.  1.
       -3    1    3    3    0  502  0.27537354054E+03 -0.11163980140E+02  0.16197756837E+04  0.16430546239E+04  0.10100000352E+00 0. -1.
</event>
<event>
 5   0  0.6199539E-03  0.1014908E+04  0.7818609E-02  0.9292344E-01
        2   -1    0    0  501    0  0.00000000000E+00  0.00000000000E+00  0.19682933532E+03  0.19682933534E+03  0.25500000920E-02 0. -1.
       -2   -1    0    0    0  501  0.00000000000E+00  0.00000000000E+00 -0.13082879761E+04  0.13082879761E+04  0.25500000920E-02 0.  1.
    10030    2    1    2    0    0  0.00000000000E+00  0.00000000000E+00 -0.11114586408E+04  0.15051173114E+04  0.10149077845E+04 0.  0.
        2    1    3    3  502    0 -0.37937299679E+03 -0.70286287494E+02 -0.10445498965E+04  0.11135297568E+04  0.25500000920E-02 0.  1.
       -2    1    3    3    0  502  0.37937299679E+03  0.70286287494E+02 -0.66908744265E+02  0.39158755467E+03  0.25500000920E-02 0. -1.
</event>
<event>
 5   0  0.6606947E-03  0.9886182E+03  0.7818609E-02  0.9321117E-01
        2   -1    0    0  501    0  0.00000000000E+00  0.00000000000E+00  0.30803674734E+04  0.30803674734E+04  0.25500000920E-02 0.  1.
       -2   -1    0    0    0  501  0.00000000000E+00  0.00000000000E+00 -0.79322187394E+02  0.79322187435E+02  0.25500000920E-02 0. -1.
    10030    2    1    2    0    0  0.00000000000E+00  0.00000000000E+00  0.30010452860E+04  0.31596896608E+04  0.98861819937E+03 0.  0.
        1    1    3    3  502    0  0.26974578541E+03 -0.10388699937E+03  0.21895894111E+03  0.36262696439E+03  0.50400001928E-02 0. -1.
       -1    1    3    3    0  502 -0.26974578541E+03  0.10388699937E+03  0.27820863449E+04  0.27970626964E+04  0.50400001928E-02 0.  1.
</event>
<event>
 5   0  0.6022787E-03  0.9984145E+03  0.7818609E-02  0.9310285E-01
        2   -1    0    0  501    0  0.00000000000E+00  0.00000000000E+00  0.83342675724E+03  0.83342675724E+03  0.25500000920E-02 0. -1.
       -2   -1    0    0    0  501  0.00000000000E+00  0.00000000000E+00 -0.29901594850E+03  0.29901594851E+03  0.25500000920E-02 0.  1.
    10030    2    1    2    0    0  0.00000000000E+00  0.00000000000E+00  0.53441080874E+03  0.11324427058E+04  0.99841452780E+03 0.  0.
        5    1    3    3  502    0  0.11866000999E+03 -0.48444291265E+03  0.24394188215E+03  0.55524306880E+03  0.46999998093E+01 0.  1.
       -5    1    3    3    0  502 -0.11866000999E+03  0.48444291265E+03  0.29046892659E+03  0.57719963695E+03  0.46999998093E+01 0. -1.
</event>
<event>
 5   0  0.6376961E-03  0.9964202E+03  0.7818609E-02  0.9312480E-01
        2   -1    0    0  501    0  0.00000000000E+00  0.00000000000E+00  0.93729277317E+03  0.93729277318E+03  0.25500000920E-02 0. -1.
       -2   -1    0    0    0  501  0.00000000000E+00  0.00000000000E+00 -0.26481941564E+03  0.26481941565E+03  0.25500000920E-02 0.  1.
    10030    2    1    2    0    0  0.00000000000E+00  0.00000000000E+00  0.67247335753E+03  0.12021121888E+04  0.99642024163E+03 0.  0.
        3    1    3    3  502    0  0.11643502028E+03  0.47071533498E+03  0.47423082807E+03  0.67825137599E+03  0.10100000352E+00 0. -1.
       -3    1    3    3    0  502 -0.11643502028E+03 -0.47071533498E+03  0.19824252946E+03  0.52386081284E+03  0.10100000352E+00 0.  1.
</event>
<event>
 5   0  0.3608845E-03  0.1009780E+04  0.7818609E-02  0.9297883E-01
       -1   -1    0    0    0  501  0.00000000000E+00  0.00000000000E+00  0.18390129509E+03  0.18390129516E+03  0.50400001928E-02 0.  1.
        1   -1    0    0  501    0  0.00000000000E+00  0.00000000000E+00 -0.13861453559E+04  0.13861453559E+04  0.50400001928E-02 0. -1.
    10030    2    1    2    0    0  0.00000000000E+00  0.00000000000E+00 -0.12022440608E+04  0.15700466511E+04  0.10097800279E+04 0.  0.
        1    1    3    3  502    0  0.81910408079E+02 -0.49286071367E+03 -0.48800349355E+03  0.69840418654E+03  0.50400001928E-02 0.  1.
       -1    1    3    3    0  502 -0.81910408079E+02  0.49286071367E+03 -0.71424056723E+03  0.87164246451E+03  0.50400001928E-02 0. -1.
</event>
<event>
 5   0  0.3466598E-03  0.9616068E+03  0.7818609E-02  0.9351686E-01
       -1   -1    0    0    0  501  0.00000000000E+00  0.00000000000E+00  0.13646100355E+03  0.13646100364E+03  0.50400001928E-02 0.  1.
        1   -1    0    0  501    0  0.00000000000E+00  0.00000000000E+00 -0.16940510385E+04  0.16940510385E+04  0.50400001928E-02 0. -1.
    10030    2    1    2    0    0  0.00000000000E+00  0.00000000000E+00 -0.15575900349E+04  0.18305120421E+04  0.96160679046E+03 0.  0.
        3    1    3    3  502    0  0.27084495505E+03  0.34107994127E+03 -0.39109913386E+03  0.58536403948E+03  0.10100000352E+00 0. -1.
       -3    1    3    3    0  502 -0.27084495505E+03 -0.34107994127E+03 -0.11664909011E+04  0.12451480026E+04  0.10100000352E+00 0.  1.
</event>
<event>
 5   0  0.3640180E-03  0.1145858E+04  0.7818609E-02  0.9161613E-01
       -1   -1    0    0    0  501  0.00000000000E+00  0.00000000000E+00  0.28363372312E+03  0.28363372316E+03  0.50400001928E-02 0.  1.
        1   -1    0    0  501    0  0.00000000000E+00  0.00000000000E+00 -0.11572950889E+04  0.11572950889E+04  0.50400001928E-02 0. -1.
    10030    2    1    2    0    0  0.00000000000E+00  0.00000000000E+00 -0.87366136581E+03  0.14409288121E+04  0.11458584814E+04 0.  0.
        5    1    3    3  502    0 -0.31742843347E+03 -0.44924487781E+03 -0.63820537305E+03  0.84256154601E+03  0.46999998093E+01 0. -1.
       -5    1    3    3    0  502  0.31742843347E+03  0.44924487781E+03 -0.23545599275E+03  0.59836726610E+03  0.46999998093E+01 0.  1.
</event>
<event>
 5   0  0.3466598E-03  0.1007583E+04  0.7818609E-02  0.9300266E-01
       -1   -1    0    0    0  501  0.00000000000E+00  0.00000000000E+00  0.17479560652E+03  0.17479560659E+03  0.50400001928E-02 0. -1.
        1   -1    0    0  501    0  0.00000000000E+00  0.00000000000E+00 -0.14520165210E+04  0.14520165210E+04  0.50400001928E-02 0.  1.
    10030    2    1    2    0    0  0.00000000000E+00  0.00000000000E+00 -0.12772209144E+04  0.16268121276E+04  0.10075834626E+04 0.  0.
        3    1    3    3  502    0 -0.45953203403E+03 -0.41224508462E+02 -0.96528410402E+03  0.10698796951E+04  0.10100000352E+00 0.  1.
       -3    1    3    3    0  502  0.45953203403E+03  0.41224508462E+02 -0.31193681043E+03  0.55693243244E+03  0.10100000352E+00 0. -1.
</event>
<event>
 5   0  0.6199539E-03  0.1020386E+04  0.7818609E-02  0.9286464E-01
       -2   -1    0    0    0  501  0.00000000000E+00  0.00000000000E+00  0.85464651717E+03  0.85464651718E+03  0.25500000920E-02 0.  1.
        2   -1    0    0  501    0  0.00000000000E+00  0.00000000000E+00 -0.30456667992E+03  0.30456667993E+03  0.25500000920E-02 0. -1.
    10030    2    1    2    0    0  0.00000000000E+00  0.00000000000E+00  0.55007983725E+03  0.11592131971E+04  0.10203859118E+04 0.  0.
        2    1    3    3  502    0  0.60261430881E+02  0.46317938234E+03  0.41857397094E+02  0.46895481870E+03  0.25500000920E-02 0. -1.
       -2    1    3    3    0  502 -0.60261430881E+02 -0.46317938234E+03  0.50822244016E+03  0.69025837841E+03  0.25500000920E-02 0.  1.
</event>
<event>
 5   0  0.6376961E-03  0.9417911E+03  0.7818609E-02  0.9374797E-01
        2   -1    0    0  501    0  0.00000000000E+00  0.00000000000E+00  0.21504778142E+04  0.21504778142E+04  0.25500000920E-02 0.  1.
       -2   -1    0    0    0  501  0.00000000000E+00  0.00000000000E+00 -0.10311317607E+03  0.10311317611E+03  0.25500000920E-02 0. -1.
    10030    2    1    2    0    0  0.00000000000E+00  0.00000000000E+00  0.20473646381E+04  0.22535909903E+04  0.94179105440E+03 0.  0.
        3    1    3    3  502    0 -0.33752278591E+02  0.22260559659E+02  0.21463165779E+04  0.21466973731E+04  0.10100000352E+00 0.  1.
       -3    1    3    3    0  502  0.33752278591E+02 -0.22260559659E+02 -0.98951939752E+02  0.10689361725E+03  0.10100000352E+00 0. -1.
</event>
<event>
 5   0  0.3466598E-03  0.9971763E+03  0.7818609E-02  0.9311647E-01
       -1   -1    0    0    0  501  0.00000000000E+00  0.00000000000E+00  0.36165940631E+03  0.36165940634E+03  0.50400001928E-02 0. -1.
        1   -1    0    0  501    0  0.00000000000E+00  0.00000000000E+00 -0.68735983393E+03  0.68735983395E+03  0.50400001928E-02 0.  1.
    10030    2    1    2    0    0  0.00000000000E+00  0.00000000000E+00 -0.32570042763E+03  0.10490192403E+04  0.99717631237E+03 0.  0.
        3    1    3    3  502    0  0.38013045771E+03  0.24570797023E+03  0.57110167218E+02  0.45621612522E+03  0.10100000352E+00 0. -1.
       -3    1    3    3    0  502 -0.38013045771E+03 -0.24570797023E+03 -0.38281059484E+03  0.59280311507E+03  0.10100000352E+00 0.  1.
</event>
<event>
 5   0  0.3643002E-03  0.1016423E+04  0.7818609E-02  0.9290714E-01
        1   -1    0    0  501    0  0.00000000000E+00  0.00000000000E+00  0.44197865489E+03  0.44197865491E+03  0.50400001928E-02 0.  1.
       -1   -1    0    0    0  501  0.00000000000E+00  0.00000000000E+00 -0.58436968646E+03  0.58436968648E+03  0.50400001928E-02 0. -1.
    10030    2    1    2    0    0  0.00000000000E+00  0.00000000000E+00 -0.14239103157E+03  0.10263483414E+04  0.10164229986E+04 0.  0.
        2    1    3    3  502    0  0.41068415903E+03 -0.17463815291E+03  0.17432269635E+03  0.47911205934E+03  0.25500000920E-02 0.  1.
       -2    1    3    3    0  502 -0.41068415903E+03  0.17463815291E+03 -0.31671372792E+03  0.54723628205E+03  0.25500000920E-02 0. -1.
</event>
<event>
 5   0  0.6199539E-03  0.9913453E+03  0.7818609E-02  0.9318088E-01
        2   -1    0    0  501    0  0.00000000000E+00  0.00000000000E+00  0.11156584351E+04  0.11156584351E+04  0.25500000920E-02 0. -1.
       -2   -1    0    0    0  501  0.00000000000E+00  0.00000000000E+00 -0.22022097950E+03  0.22022097951E+03  0.25500000920E-02 0.  1.
    10030    2    1    2    0    0  0.00000000000E+00  0.00000000000E+00  0.89543745559E+03  0.13358794146E+04  0.99134533513E+03 0.  0.
        2    1    3    3  502    0 -0.41770357894E+03 -0.20805380007E+03  0.22251898905E+03  0.51698874657E+03  0.25500000920E-02 0.  1.
       -2    1    3    3    0  502  0.41770357894E+03  0.20805380007E+03  0.67291846654E+03  0.81889066804E+03  0.25500000920E-02 0. -1.
</event>
<event>
 5   0  0.3569359E-03  0.9642339E+03  0.7818609E-02  0.9348666E-01
        1   -1    0    0  501    0  0.00000000000E+00  0.00000000000E+00  0.38583204012E+03  0.38583204016E+03  0.50400001928E-02 0.  1.
       -1   -1    0    0    0  501  0.00000000000E+00  0.00000000000E+00 -0.60242988738E+03  0.60242988740E+03  0.50400001928E-02 0. -1.
    10030    2    1    2    0    0  0.00000000000E+00  0.00000000000E+00 -0.21659784725E+03  0.98826192756E+03  0.96423389799E+03 0.  0.
        4    1    3    3  502    0  0.13918927324E+03 -0.41298956300E+03 -0.31959420025E+03  0.54044065231E+03  0.12699999809E+01 0. -1.
       -4    1    3    3    0  502 -0.13918927324E+03  0.41298956300E+03  0.10299635300E+03  0.44782127525E+03  0.12699999809E+01 0.  1.
</event>
<event>
 5   0  0.2417750E-03  0.1007842E+04  0.7818609E-02  0.9299986E-01
        3   -1    0    0  501    0  0.00000000000E+00  0.00000000000E+00  0.39757059040E+03  0.39757060323E+03  0.10100000352E+00 0.  1.
       -3   -1    0    0    0  501  0.00000000000E+00  0.00000000000E+00 -0.63871979678E+03  0.63871980476E+03  0.10100000352E+00 0. -1.
    10030    2    1    2    0    0  0.00000000000E+00  0.00000000000E+00 -0.24114920637E+03  0.10362904080E+04  0.10078416889E+04 0.  0.
        1    1    3    3  502    0 -0.61959228258E+02 -0.32780970503E+03  0.26776070981E+03  0.42777791717E+03  0.50400001928E-02 0.  1.
       -1    1    3    3    0  502  0.61959228258E+02  0.32780970503E+03 -0.50890991618E+03  0.60851249083E+03  0.50400001928E-02 0. -1.
</event>
<event>
 5   0  0.6606947E-03  0.1001166E+04  0.7818609E-02  0.9307267E-01
        2   -1    0    0  501    0  0.00000000000E+00  0.00000000000E+00  0.43450371439E+03  0.43450371440E+03  0.25500000920E-02 0.  1.
       -2   -1    0    0    0  501  0.00000000000E+00  0.00000000000E+00 -0.57671166467E+03  0.57671166467E+03  0.25500000920E-02 0. -1.
    10030    2    1    2    0    0  0.00000000000E+00  0.00000000000E+00 -0.14220795028E+03  0.10112153791E+04  0.10011660410E+04 0.  0.
        1    1    3    3  502    0 -0.80077034257E+02  0.16038240062E+03 -0.54318017291E+03  0.57199610673E+03  0.50400001928E-02 0. -1.
       -1    1    3    3    0  502  0.80077034257E+02 -0.16038240062E+03  0.40097222264E+03  0.43921927234E+03  0.50400001928E-02 0.  1.
</event>
<event>
 5   0  0.3569359E-03  0.1005466E+04  0.7818609E-02  0.9302570E-01
       -1   -1    0    0    0  501  0.00000000000E+00  0.00000000000E+00  0.22698054806E+03  0.22698054812E+03  0.50400001928E-02 0. -1.
        1   -1    0    0  501    0  0.00000000000E+00  0.00000000000E+00 -0.11134892861E+04  0.11134892861E+04  0.50400001928E-02 0.  1.
    10030    2    1    2    0    0  0.00000000000E+00  0.00000000000E+00 -0.88650873804E+03  0.13404698342E+04  0.10054658790E+04 0.  0.
        4    1    3    3  502    0  0.14125942938E+03  0.34597830181E+02 -0.10848292039E+04  0.10945351756E+04  0.12699999809E+01 0.  1.
       -4    1    3    3    0  502 -0.14125942938E+03 -0.34597830181E+02  0.19832046582E+03  0.24593465860E+03  0.12699999809E+01 0. -1.
</event>
<event>
 5   0  0.3608845E-03  0.1000377E+04  0.7818609E-02  0.9308131E-01
       -1   -1    0    0    0  501  0.00000000000E+00  0.00000000000E+00  0.61140546174E+03  0.61140546176E+03  0.50400001928E-02 0. -1.
        1   -1    0    0  501    0  0.00000000000E+00  0.00000000000E+00 -0.40920243077E+03  0.40920243080E+03  0.50400001928E-02 0.  1.
    10030    2    1    2    0    0  0.00000000000E+00  0.00000000000E+00  0.20220303097E+03  0.10206078926E+04  0.10003771312E+04 0.  0.
        1    1    3    3  502    0 -0.21033863045E+03  0.10660242075E+02 -0.36176127513E+03  0.41860148164E+03  0.50400001928E-02 0.  1.
       -1    1    3    3    0  502  0.21033863045E+03 -0.10660242075E+02  0.56396430610E+03  0.60200641093E+03  0.50400001928E-02 0. -1.
</event>
<event>
 5   0  0.3643002E-03  0.1000383E+04  0.7818609E-02  0.9308125E-01
        1   -1    0    0  501    0  0.00000000000E+00  0.00000000000E+00  0.75677034571E+03  0.75677034573E+03  0.50400001928E-02 0. -1.
       -1   -1    0    0    0  501  0.00000000000E+00  0.00000000000E+00 -0.33060422773E+03  0.33060422777E+03  0.50400001928E-02 0.  1.
    10030    2    1    2    0    0  0.00000000000E+00  0.00000000000E+00  0.42616611799E+03  0.10873745735E+04  0.10003828782E+04 0.  0.
        2    1    3    3  502    0  0.36608204115E+03 -0.30297943747E+02  0.58210095292E+03  0.68831355184E+03  0.25500000920E-02 0. -1.
       -2    1    3    3    0  502 -0.36608204115E+03  0.30297943747E+02 -0.15593483494E+03  0.39906102165E+03  0.25500000920E-02 0.  1.
</event>
<event>
 5   0  0.6606947E-03  0.9999904E+03  0.7818609E-02  0.9308555E-01
        2   -1    0    0  501    0  0.00000000000E+00  0.00000000000E+00  0.94909429796E+03  0.94909429796E+03  0.25500000920E-02 0.  1.
       -2   -1    0    0    0  501  0.00000000000E+00  0.00000000000E+00 -0.26340397825E+03  0.26340397827E+03  0.25500000920E-02 0. -1.
    10030    2    1    2    0    0  0.00000000000E+00  0.00000000000E+00  0.68569031971E+03  0.12124982762E+04  0.99999042761E+03 0.  0.
        1    1    3    3  502    0  0.22405099418E+03  0.72632686057E+02 -0.19192649057E+03  0.30382582656E+03  0.50400001928E-02 0. -1.
       -1    1    3    3    0  502 -0.22405099418E+03 -0.72632686057E+02  0.87761681028E+03  0.90867244967E+03  0.50400001928E-02 0.  1.
</event>
<event>
 5   0  0.6022787E-03  0.1005404E+04  0.7818609E-02  0.9302637E-01
        2   -1    0    0  501    0  0.00000000000E+00  0.00000000000E+00  0.16400947402E+04  0.16400947402E+04  0.25500000920E-02 0.  1.
       -2   -1    0    0    0  501  0.00000000000E+00  0.00000000000E+00 -0.15408217852E+03  0.15408217854E+03  0.25500000920E-02 0. -1.
    10030    2    1    2    0    0  0.00000000000E+00  0.00000000000E+00  0.14860125617E+04  0.17941769187E+04  0.10054041388E+04 0.  0.
        5    1    3    3  502    0  0.35534883447E+03  0.21420321819E+03  0.12494222637E+04  0.13165234126E+04  0.46999998093E+01 0.  1.
       -5    1    3    3    0  502 -0.35534883447E+03 -0.21420321819E+03  0.23659029797E+03  0.47765350615E+03  0.46999998093E+01 0. -1.
</event>
<event>
 5   0  0.3466598E-03  0.9994584E+03  0.7818609E-02  0.9309139E-01
        1   -1    0    0  501    0  0.00000000000E+00  0.00000000000E+00  0.19287673908E+04  0.19287673908E+04  0.50400001928E-02 0.  1.
       -1   -1    0    0    0  501  0.00000000000E+00  0.00000000000E+00 -0.12947610538E+03  0.12947610548E+03  0.50400001928E-02 0. -1.
    10030    2    1    2    0    0  0.00000000000E+00  0.00000000000E+00  0.17992912854E+04  0.20582434963E+04  0.99945843347E+03 0.  0.
        3    1    3    3  502    0 -0.39797384714E+03 -0.26421463495E+03  0.59742659600E+03  0.76492555463E+03  0.10100000352E+00 0. -1.
       -3    1    3    3    0  502  0.39797384714E+03  0.26421463495E+03  0.12018646894E+04  0.12933179416E+04  0.10100000352E+00 0.  1.
</event>
<event>
 5   0  0.6360455E-03  0.1010043E+04  0.7818609E-02  0.9297598E-01
       -2   -1    0    0    0  501  0.00000000000E+00  0.00000000000E+00  0.28978061634E+03  0.28978061635E+03  0.25500000920E-02 0.  1.
        2   -1    0    0  501    0  0.00000000000E+00  0.00000000000E+00 -0.88013659648E+03  0.88013659649E+03  0.25500000920E-02 0. -1.
    10030    2    1    2    0    0  0.00000000000E+00  0.00000000000E+00 -0.59035598014E+03  0.11699172128E+04  0.10100426237E+04 0.  0.
        4    1    3    3  502    0 -0.32040194151E+03 -0.11860890535E+03  0.13560349989E+03  0.36758046552E+03  0.12699999809E+01 0.  1.
       -4    1    3    3    0  502  0.32040194151E+03  0.11860890535E+03 -0.72595948003E+03  0.80233674732E+03  0.12699999809E+01 0. -1.
</event>
<event>
 5   0  0.3608845E-03  0.1000160E+04  0.7818609E-02  0.9308369E-01
        1   -1    0    0  501    0  0.00000000000E+00  0.00000000000E+00  0.43317704111E+03  0.43317704114E+03  0.50400001928E-02 0. -1.
       -1   -1    0    0    0  501  0.00000000000E+00  0.00000000000E+00 -0.57731623881E+03  0.57731623884E+03  0.50400001928E-02 0.  1.
    10030    2    1    2    0    0  0.00000000000E+00  0.00000000000E+00 -0.14413919771E+03  0.10104932800E+04  0.10001602674E+04 0.  0.
        1    1    3    3  502    0 -0.25661988720E+03 -0.82582898746E+02 -0.49761756639E+03  0.56594782805E+03  0.50400001928E-02 0.  1.
       -1    1    3    3    0  502  0.25661988720E+03  0.82582898746E+02  0.35347836868E+03  0.44454545192E+03  0.50400001928E-02 0. -1.
</event>
<event>
 5   0  0.3640180E-03  0.9920108E+03  0.7818609E-02  0.9317351E-01
       -1   -1    0    0    0  501  0.00000000000E+00  0.00000000000E+00  0.50099253461E+03  0.50099253464E+03  0.50400001928E-02 0. -1.
        1   -1    0    0  501    0  0.00000000000E+00  0.00000000000E+00 -0.49106790763E+03  0.49106790765E+03  0.50400001928E-02 0.  1.
    10030    2    1    2    0    0  0.00000000000E+00  0.00000000000E+00  0.99246269862E+01  0.99206044229E+03  0.99201079780E+03 0.  0.
        5    1    3    3  502    0 -0.33370832826E+03  0.14303122572E+02  0.37163231999E+03  0.49969840797E+03  0.46999998093E+01 0. -1.
       -5    1    3    3    0  502  0.33370832826E+03 -0.14303122572E+02 -0.36170769301E+03  0.49236203432E+03  0.46999998093E+01 0.  1.
</event>
<event>
 5   0  0.3643002E-03  0.1004048E+04  0.7818609E-02  0.9304117E-01
        1   -1    0    0  501    0  0.00000000000E+00  0.00000000000E+00  0.11000323413E+04  0.11000323413E+04  0.50400001928E-02 0.  1.
       -1   -1    0    0    0  501  0.00000000000E+00  0.00000000000E+00 -0.22910950357E+03  0.22910950363E+03  0.50400001928E-02 0. -1.
    10030    2    1    2    0    0  0.00000000000E+00  0.00000000000E+00  0.87092283771E+03  0.13291418449E+04  0.10040475361E+04 0.  0.
        2    1    3    3  502    0  0.11009910483E+02  0.49591597672E+03  0.53777876948E+03  0.73161456998E+03  0.25500000920E-02 0. -1.
       -2    1    3    3    0  502 -0.11009910483E+02 -0.49591597672E+03  0.33314406823E+03  0.59752727494E+03  0.25500000920E-02 0.  1.
</event>
<event>
 5   0  0.3643002E-03  0.1041257E+04  0.7818609E-02  0.9264417E-01
        1   -1    0    0  501    0  0.00000000000E+00  0.00000000000E+00  0.69199345655E+03  0.69199345657E+03  0.50400001928E-02 0. -1.
       -1   -1    0    0    0  501  0.00000000000E+00  0.00000000000E+00 -0.39170036827E+03  0.39170036830E+03  0.50400001928E-02 0.  1.
    10030    2    1    2    0    0  0.00000000000E+00  0.00000000000E+00  0.30029308828E+03  0.10836938249E+04  0.10412571091E+04 0.  0.
        2    1    3    3  502    0 -0.28170828522E+03 -0.42636486970E+03  0.46553318836E+02  0.51314108350E+03  0.25500000920E-02 0.  1.
       -2    1    3    3    0  502  0.28170828522E+03  0.42636486970E+03  0.25373976944E+03  0.57055274137E+03  0.25500000920E-02 0. -1.
</event>
<event>
 5   0  0.3640180E-03  0.1002197E+04  0.7818609E-02  0.9306138E-01
       -1   -1    0    0    0  501  0.00000000000E+00  0.00000000000E+00  0.19237506271E+03  0.19237506278E+03  0.50400001928E-02 0.  1.
        1   -1    0    0  501    0  0.00000000000E+00  0.00000000000E+00 -0.13052613177E+04  0.13052613177E+04  0.50400001928E-02 0. -1.
    10030    2    1    2    0    0  0.00000000000E+00  0.00000000000E+00 -0.11128862550E+04  0.14976363805E+04  0.10021970423E+04 0.  0.
        5    1    3    3  502    0 -0.18706409024E+03 -0.35188942219E+03 -0.10254702246E+03  0.41153021897E+03  0.46999998093E+01 0.  1.
       -5    1    3    3    0  502  0.18706409024E+03  0.35188942219E+03 -0.10103392325E+04  0.10861061615E+04  0.46999998093E+01 0. -1.
</event>
<event>
 5   0  0.3640180E-03  0.9896819E+03  0.7818609E-02  0.9319934E-01
       -1   -1    0    0    0  501  0.00000000000E+00  0.00000000000E+00  0.42688017195E+03  0.42688017198E+03  0.50400001928E-02 0.  1.
        1   -1    0    0  501    0  0.00000000000E+00  0.00000000000E+00 -0.57362128222E+03  0.57362128224E+03  0.50400001928E-02 0. -1.
    10030    2    1    2    0    0  0.00000000000E+00  0.00000000000E+00 -0.14674111027E+03  0.10005014542E+04  0.98968187133E+03 0.  0.
        5    1    3    3  502    0  0.25218406742E+02  0.44341014523E+03  0.14718175469E+03  0.46790285727E+03  0.46999998093E+01 0.  1.
       -5    1    3    3    0  502 -0.25218406742E+02 -0.44341014523E+03 -0.29392286495E+03  0.53259859695E+03  0.46999998093E+01 0. -1.
</event>
<event>
 5   0  0.3643002E-03  0.1012039E+04  0.7818609E-02  0.9295439E-01
       -1   -1    0    0    0  501  0.00000000000E+00  0.00000000000E+00  0.17496853768E+03  0.17496853776E+03  0.50400001928E-02 0.  1.
        1   -1    0    0  501    0  0.00000000000E+00  0.00000000000E+00 -0.14634378665E+04  0.14634378665E+04  0.50400001928E-02 0. -1.
    10030    2    1    2    0    0  0.00000000000E+00  0.00000000000E+00 -0.12884693288E+04  0.16384064042E+04  0.10120387019E+04 0.  0.
        2    1    3    3  502    0 -0.43445396645E+03  0.84067250582E+02 -0.10415724831E+04  0.11316760973E+04  0.25500000920E-02 0. -1.
       -2    1    3    3    0  502  0.43445396645E+03 -0.84067250582E+02 -0.24689684570E+03  0.50673030698E+03  0.25500000920E-02 0.  1.
</event>
<event>
 5   0  0.3643002E-03  0.9756605E+03  0.7818609E-02  0.9335650E-01
        1   -1    0    0  501    0  0.00000000000E+00  0.00000000000E+00  0.16511174405E+04  0.16511174405E+04  0.50400001928E-02 0. -1.
       -1   -1    0    0    0  501  0.00000000000E+00  0.00000000000E+00 -0.14413170792E+03  0.14413170801E+03  0.50400001928E-02 0.  1.
    10030    2    1    2    0    0  0.00000000000E+00  0.00000000000E+00  0.15069857326E+04  0.17952491485E+04  0.97566054908E+03 0.  0.
        2    1    3    3  502    0 -0.47625215841E+03 -0.10045248897E+03  0.81372571240E+03  0.94818582354E+03  0.25500000920E-02 0. -1.
       -2    1    3    3    0  502  0.47625215841E+03  0.10045248897E+03  0.69326002018E+03  0.84706332497E+03  0.25500000920E-02 0.  1.
</event>
<event>
 5   0  0.2417750E-03  0.9839273E+03  0.7818609E-02  0.9326351E-01
        4   -1    0    0  501    0  0.00000000000E+00  0.00000000000E+00  0.48301012999E+03  0.48301179962E+03  0.12699999809E+01 0.  1.
       -4   -1    0    0    0  501  0.00000000000E+00  0.00000000000E+00 -0.50107984245E+03  0.50108145187E+03  0.12699999809E+01 0. -1.
    10030    2    1    2    0    0  0.00000000000E+00  0.00000000000E+00 -0.18069712457E+02  0.98409325149E+03  0.98392734138E+03 0.  0.
        3    1    3    3  502    0  0.37150662892E+02 -0.20839799780E+03 -0.45320246139E+03  0.50020233751E+03  0.10100000352E+00 0. -1.
       -3    1    3    3    0  502 -0.37150662892E+02  0.20839799780E+03  0.43513274893E+03  0.48389091398E+03  0.10100000352E+00 0.  1.
</event>
<event>
 5   0  0.6606947E-03  0.1016950E+04  0.7818609E-02  0.9290148E-01
        2   -1    0    0  501    0  0.00000000000E+00  0.00000000000E+00  0.16547918401E+04  0.16547918401E+04  0.25500000920E-02 0. -1.
       -2   -1    0    0    0  501  0.00000000000E+00  0.00000000000E+00 -0.15624121689E+03  0.15624121691E+03  0.25500000920E-02 0.  1.
    10030    2    1    2    0    0  0.00000000000E+00  0.00000000000E+00  0.14985506232E+04  0.18110330570E+04  0.10169497349E+04 0.  0.
        1    1    3    3  502    0  0.42389078438E+02 -0.28043282341E+03  0.15008423693E+04  0.15274053882E+04  0.50400001928E-02 0. -1.
       -1    1    3    3    0  502 -0.42389078438E+02  0.28043282341E+03 -0.22917460409E+01  0.28362766886E+03  0.50400001928E-02 0.  1.
</event>
<event>
 5   0  0.3640180E-03  0.1016634E+04  0.7818609E-02  0.9290487E-01
        1   -1    0    0  501    0  0.00000000000E+00  0.00000000000E+00  0.54964182762E+03  0.54964182765E+03  0.50400001928E-02 0.  1.
       -1   -1    0    0    0  501  0.00000000000E+00  0.00000000000E+00 -0.47009905560E+03  0.47009905563E+03  0.50400001928E-02 0. -1.
    10030    2    1    2    0    0  0.00000000000E+00  0.00000000000E+00  0.79542772018E+02  0.10197408833E+04  0.10166338655E+04 0.  0.
        5    1    3    3  502    0  0.34367646396E+03  0.29390842293E+03  0.27257625533E+03  0.52802990249E+03  0.46999998093E+01 0.  1.
       -5    1    3    3    0  502 -0.34367646396E+03 -0.29390842293E+03 -0.19303348332E+03  0.49171098079E+03  0.46999998093E+01 0. -1.
</event>
<event>
 5   0  0.3643002E-03  0.1013293E+04  0.7818609E-02  0.9294084E-01
       -1   -1    0    0    0  501  0.00000000000E+00  0.00000000000E+00  0.20403615118E+03  0.20403615124E+03  0.50400001928E-02 0.  1.
        1   -1    0    0  501    0  0.00000000000E+00  0.00000000000E+00 -0.12580654782E+04  0.12580654782E+04  0.50400001928E-02 0. -1.
    10030    2    1    2    0    0  0.00000000000E+00  0.00000000000E+00 -0.10540293270E+04  0.14621016294E+04  0.10132933201E+04 0.  0.
        2    1    3    3  502    0 -0.30093873793E+03  0.31365681468E+03 -0.90257920711E+03  0.10017953616E+04  0.25500000920E-02 0. -1.
       -2    1    3    3    0  502  0.30093873793E+03 -0.31365681468E+03 -0.15145011987E+03  0.46030626782E+03  0.25500000920E-02 0.  1.
</event>
<event>
 5   0  0.3608845E-03  0.1009338E+04  0.7818609E-02  0.9298362E-01
       -1   -1    0    0    0  501  0.00000000000E+00  0.00000000000E+00  0.73603404108E+03  0.73603404110E+03  0.50400001928E-02 0. -1.
        1   -1    0    0  501    0  0.00000000000E+00  0.00000000000E+00 -0.34603132902E+03  0.34603132905E+03  0.50400001928E-02 0.  1.
    10030    2    1    2    0    0  0.00000000000E+00  0.00000000000E+00  0.39000271206E+03  0.10820653701E+04  0.10093380751E+04 0.  0.
        1    1    3    3  502    0 -0.20902642349E+03  0.15363462397E+03 -0.26908207825E+03  0.37376571306E+03  0.50400001928E-02 0.  1.
       -1    1    3    3    0  502  0.20902642349E+03 -0.15363462397E+03  0.65908479031E+03  0.70829965709E+03  0.50400001928E-02 0. -1.
</event>
<event>
 5   0  0.6022787E-03  0.9011939E+03  0.7818609E-02  0.9424090E-01
        2   -1    0    0  501    0  0.00000000000E+00  0.00000000000E+00  0.10206223941E+04  0.10206223941E+04  0.25500000920E-02 0. -1.
       -2   -1    0    0    0  501  0.00000000000E+00  0.00000000000E+00 -0.19893509657E+03  0.19893509658E+03  0.25500000920E-02 0.  1.
    10030    2    1    2    0    0  0.00000000000E+00  0.00000000000E+00  0.82168729754E+03  0.12195574907E+04  0.90119390709E+03 0.  0.
        5    1    3    3  502    0  0.24424509938E+03 -0.37862859789E+03  0.41150776415E+03  0.61022619877E+03  0.46999998093E+01 0. -1.
       -5    1    3    3    0  502 -0.24424509938E+03  0.37862859789E+03  0.41017953339E+03  0.60933129192E+03  0.46999998093E+01 0.  1.
</event>
<event>
 5   0  0.6022787E-03  0.9982082E+03  0.7818609E-02  0.9310512E-01
        2   -1    0    0  501    0  0.00000000000E+00  0.00000000000E+00  0.13714395930E+04  0.13714395930E+04  0.25500000920E-02 0.  1.
       -2   -1    0    0    0  501  0.00000000000E+00  0.00000000000E+00 -0.18163752176E+03  0.18163752177E+03  0.25500000920E-02 0. -1.
    10030    2    1    2    0    0  0.00000000000E+00  0.00000000000E+00  0.11898020712E+04  0.15530771147E+04  0.99820817252E+03 0.  0.
        5    1    3    3  502    0 -0.48310822881E+02 -0.49212280626E+03  0.70001127950E+03  0.85706281770E+03  0.46999998093E+01 0.  1.
       -5    1    3    3    0  502  0.48310822881E+02  0.49212280626E+03  0.48979079170E+03  0.69601429704E+03  0.46999998093E+01 0. -1.
</event>
<event>
 5   0  0.6360455E-03  0.9935417E+03  0.7818609E-02  0.9315657E-01
        2   -1    0    0  501    0  0.00000000000E+00  0.00000000000E+00  0.14179305612E+04  0.14179305612E+04  0.25500000920E-02 0.  1.
       -2   -1    0    0    0  501  0.00000000000E+00  0.00000000000E+00 -0.17404326705E+03  0.17404326707E+03  0.25500000920E-02 0. -1.
    10030    2    1    2    0    0  0.00000000000E+00  0.00000000000E+00  0.12438872941E+04  0.15919738283E+04  0.99354167973E+03 0.  0.
        4    1    3    3  502    0  0.33514524376E+03 -0.25292361793E+02  0.12080905546E+04  0.12539722640E+04  0.12699999809E+01 0.  1.
       -4    1    3    3    0  502 -0.33514524376E+03  0.25292361793E+02  0.35796739578E+02  0.33800156426E+03  0.12699999809E+01 0. -1.
</event>
<event>
 5   0  0.3640180E-03  0.1014759E+04  0.7818609E-02  0.9292504E-01
        1   -1    0    0  501    0  0.00000000000E+00  0.00000000000E+00  0.12888116599E+04  0.12888116599E+04  0.50400001928E-02 0.  1.
       -1   -1    0    0    0  501  0.00000000000E+00  0.00000000000E+00 -0.19974503585E+03  0.19974503591E+03  0.50400001928E-02 0. -1.
    10030    2    1    2    0    0  0.00000000000E+00  0.00000000000E+00  0.10890666241E+04  0.14885566958E+04  0.10147585551E+04 0.  0.
        5    1    3    3  502    0 -0.19614355210E+03 -0.73782668636E+02 -0.13325954465E+03  0.24838754288E+03  0.46999998093E+01 0. -1.
       -5    1    3    3    0  502  0.19614355210E+03  0.73782668636E+02  0.12223261687E+04  0.12401691530E+04  0.46999998093E+01 0.  1.
</event>
<event>
 5   0  0.6199539E-03  0.1023374E+04  0.7818609E-02  0.9283274E-01
        2   -1    0    0  501    0  0.00000000000E+00  0.00000000000E+00  0.60031334950E+03  0.60031334951E+03  0.25500000920E-02 0.  1.
       -2   -1    0    0    0  501  0.00000000000E+00  0.00000000000E+00 -0.43614463105E+03  0.43614463105E+03  0.25500000920E-02 0. -1.
    10030    2    1    2    0    0  0.00000000000E+00  0.00000000000E+00  0.16416871846E+03  0.10364579806E+04  0.10233737232E+04 0.  0.
        2    1    3    3  502    0 -0.43624902654E+03 -0.26380820833E+03  0.37758820140E+02  0.51120809114E+03  0.25500000920E-02 0.  1.
       -2    1    3    3    0  502  0.43624902654E+03  0.26380820833E+03  0.12640989832E+03  0.52524988942E+03  0.25500000920E-02 0. -1.
</event>
<event>
 5   0  0.3643002E-03  0.1013055E+04  0.7818609E-02  0.9294341E-01
        1   -1    0    0  501    0  0.00000000000E+00  0.00000000000E+00  0.11767772846E+04  0.11767772846E+04  0.50400001928E-02 0.  1.
       -1   -1    0    0    0  501  0.00000000000E+00  0.00000000000E+00 -0.21802763710E+03  0.21802763716E+03  0.50400001928E-02 0. -1.
    10030    2    1    2    0    0  0.00000000000E+00  0.00000000000E+00  0.95874964752E+03  0.13948049218E+04  0.10130547287E+04 0.  0.
        2    1    3    3  502    0  0.45443440334E+03 -0.12228140254E+03  0.73734824531E+03  0.87472613040E+03  0.25500000920E-02 0.  1.
       -2    1    3    3    0  502 -0.45443440334E+03  0.12228140254E+03  0.22140140222E+03  0.52007879139E+03  0.25500000920E-02 0. -1.
</event>
<event>
 5   0  0.6199539E-03  0.1005243E+04  0.7818609E-02  0.9302813E-01
       -2   -1    0    0    0  501  0.00000000000E+00  0.00000000000E+00  0.28821991914E+03  0.28821991915E+03  0.25500000920E-02 0. -1.
        2   -1    0    0  501    0  0.00000000000E+00  0.00000000000E+00 -0.87651190916E+03  0.87651190916E+03  0.25500000920E-02 0.  1.
    10030    2    1    2    0    0  0.00000000000E+00  0.00000000000E+00 -0.58829199002E+03  0.11647318283E+04  0.10052426405E+04 0.  0.
        2    1    3    3  502    0 -0.15927944139E+03 -0.22818874279E+03  0.19081566204E+03  0.33741763390E+03  0.25500000920E-02 0. -1.
       -2    1    3    3    0  502  0.15927944139E+03  0.22818874279E+03 -0.77910765205E+03  0.82731419441E+03  0.25500000920E-02 0.  1.
</event>
<event>
 5   0  0.3640180E-03  0.9966082E+03  0.7818609E-02  0.9312273E-01
       -1   -1    0    0    0  501  0.00000000000E+00  0.00000000000E+00  0.75575241201E+03  0.75575241202E+03  0.50400001928E-02 0. -1.
        1   -1    0    0  501    0  0.00000000000E+00  0.00000000000E+00 -0.32855600178E+03  0.32855600182E+03  0.50400001928E-02 0.  1.
    10030    2    1    2    0    0  0.00000000000E+00  0.00000000000E+00  0.42719641023E+03  0.10843084138E+04  0.99660822966E+03 0.  0.
        5    1    3    3  502    0 -0.61205404579E+02 -0.44700683815E+03 -0.16491481872E+02  0.45150334868E+03  0.46999998093E+01 0. -1.
       -5    1    3    3    0  502  0.61205404579E+02  0.44700683815E+03  0.44368789210E+03  0.63280506516E+03  0.46999998093E+01 0.  1.
</event>
<event>
 5   0  0.6360455E-03  0.9994574E+03  0.7818609E-02  0.9309140E-01
        2   -1    0    0  501    0  0.00000000000E+00  0.00000000000E+00  0.63226076891E+03  0.63226076891E+03  0.25500000920E-02 0.  1.
       -2   -1    0    0    0  501  0.00000000000E+00  0.00000000000E+00 -0.39497752850E+03  0.39497752851E+03  0.25500000920E-02 0. -1.
    10030    2    1    2    0    0  0.00000000000E+00  0.00000000000E+00  0.23728324040E+03  0.10272382974E+04  0.99945744458E+03 0.  0.
        4    1    3    3  502    0 -0.42431266823E+03 -0.17461974283E+03 -0.84835727781E+02  0.46661762570E+03  0.12699999809E+01 0.  1.
       -4    1    3    3    0  502  0.42431266823E+03  0.17461974283E+03  0.32211896819E+03  0.56062067173E+03  0.12699999809E+01 0. -1.
</event>
<event>
 5   0  0.3608845E-03  0.1008718E+04  0.7818609E-02  0.9299034E-01
        1   -1    0    0  501    0  0.00000000000E+00  0.00000000000E+00  0.37367240920E+03  0.37367240923E+03  0.50400001928E-02 0.  1.
       -1   -1    0    0    0  501  0.00000000000E+00  0.00000000000E+00 -0.68075195377E+03  0.68075195379E+03  0.50400001928E-02 0. -1.
    10030    2    1    2    0    0  0.00000000000E+00  0.00000000000E+00 -0.30707954457E+03  0.10544243630E+04  0.10087184397E+04 0.  0.
        1    1    3    3  502    0  0.81535559679E+02 -0.27096742955E+02 -0.67304554859E+03  0.67850762079E+03  0.50400001928E-02 0. -1.
       -1    1    3    3    0  502 -0.81535559679E+02  0.27096742955E+02  0.36596600401E+03  0.37591674223E+03  0.50400001928E-02 0.  1.
</event>
<event>
 5   0  0.3640180E-03  0.1005954E+04  0.7818609E-02  0.9302038E-01
       -1   -1    0    0    0  501  0.00000000000E+00  0.00000000000E+00  0.25470977236E+03  0.25470977241E+03  0.50400001928E-02 0.  1.
        1   -1    0    0  501    0  0.00000000000E+00  0.00000000000E+00 -0.99323238910E+03  0.99323238911E+03  0.50400001928E-02 0. -1.
    10030    2    1    2    0    0  0.00000000000E+00  0.00000000000E+00 -0.73852261674E+03  0.12479421615E+04  0.10059542649E+04 0.  0.
        5    1    3    3  502    0 -0.18609012519E+03 -0.28253795493E+03 -0.83095248337E+03  0.89719638334E+03  0.46999998093E+01 0. -1.
       -5    1    3    3    0  502  0.18609012519E+03  0.28253795493E+03  0.92429866623E+02  0.35074577818E+03  0.46999998093E+01 0.  1.
</event>
<event>
 5   0  0.3569359E-03  0.9546998E+03  0.7818609E-02  0.9359674E-01
        1   -1    0    0  501    0  0.00000000000E+00  0.00000000000E+00  0.41830504439E+03  0.41830504442E+03  0.50400001928E-02 0.  1.
       -1   -1    0    0    0  501  0.00000000000E+00  0.00000000000E+00 -0.54472908014E+03  0.54472908016E+03  0.50400001928E-02 0. -1.
    10030    2    1    2    0    0  0.00000000000E+00  0.00000000000E+00 -0.12642403575E+03  0.96303412458E+03  0.95469978962E+03 0.  0.
        4    1    3    3  502    0 -0.32499327175E+03 -0.27865779618E+03 -0.27622010595E+03  0.50948008193E+03  0.12699999809E+01 0. -1.
       -4    1    3    3    0  502  0.32499327175E+03  0.27865779618E+03  0.14979607021E+03  0.45355404265E+03  0.12699999809E+01 0.  1.
</event>
<event>
 5   0  0.6199539E-03  0.1009928E+04  0.7818609E-02  0.9297722E-01
       -2   -1    0    0    0  501  0.00000000000E+00  0.00000000000E+00  0.44874530736E+03  0.44874530737E+03  0.25500000920E-02 0.  1.
        2   -1    0    0  501    0  0.00000000000E+00  0.00000000000E+00 -0.56822575121E+03  0.56822575121E+03  0.25500000920E-02 0. -1.
    10030    2    1    2    0    0  0.00000000000E+00  0.00000000000E+00 -0.11948044385E+03  0.10169710586E+04  0.10099279962E+04 0.  0.
        2    1    3    3  502    0  0.43868895039E+03 -0.10743326349E+03 -0.28714411599E+03  0.53520243334E+03  0.25500000920E-02 0. -1.
       -2    1    3    3    0  502 -0.43868895039E+03  0.10743326349E+03  0.16766367214E+03  0.48176862524E+03  0.25500000920E-02 0.  1.
</event>
<event>
 5   0  0.6376961E-03  0.9983094E+03  0.7818609E-02  0.9310401E-01
       -2   -1    0    0    0  501  0.00000000000E+00  0.00000000000E+00  0.11800664343E+03  0.11800664345E+03  0.25500000920E-02 0.  1.
        2   -1    0    0  501    0  0.00000000000E+00  0.00000000000E+00 -0.21113676439E+04  0.21113676439E+04  0.25500000920E-02 0. -1.
    10030    2    1    2    0    0  0.00000000000E+00  0.00000000000E+00 -0.19933610004E+04  0.22293742873E+04  0.99830938837E+03 0.  0.
        3    1    3    3  502    0  0.34551078898E+03  0.19838910487E+03 -0.32517623103E+03  0.51427184801E+03  0.10100000352E+00 0.  1.
       -3    1    3    3    0  502 -0.34551078898E+03 -0.19838910487E+03 -0.16681847694E+04  0.17151024393E+04  0.10100000352E+00 0. -1.
</event>
<event>
 5   0  0.3640180E-03  0.1000936E+04  0.7818609E-02  0.9307519E-01
        1   -1    0    0  501    0  0.00000000000E+00  0.00000000000E+00  0.82058877288E+03  0.82058877289E+03  0.50400001928E-02 0. -1.
       -1   -1    0    0    0  501  0.00000000000E+00  0.00000000000E+00 -0.30522984214E+03  0.30522984218E+03  0.50400001928E-02 0.  1.
    10030    2    1    2    0    0  0.00000000000E+00  0.00000000000E+00  0.51535893074E+03  0.11258186151E+04  0.10009359253E+04 0.  0.
        5    1    3    3  502    0 -0.12348730880E+03  0.46767032970E+03  0.40207697757E+03  0.62900925161E+03  0.46999998093E+01 0. -1.
       -5    1    3    3    0  502  0.12348730880E+03 -0.46767032970E+03  0.11328195317E+03  0.49680936347E+03  0.46999998093E+01 0.  1.
</event>
<event>
 5   0  0.6022787E-03  0.9749518E+03  0.7818609E-02  0.9336452E-01
       -2   -1    0    0    0  501  0.00000000000E+00  0.00000000000E+00  0.18878704941E+03  0.18878704943E+03  0.25500000920E-02 0.  1.
        2   -1    0    0  501    0  0.00000000000E+00  0.00000000000E+00 -0.12587344815E+04  0.12587344815E+04  0.25500000920E-02 0. -1.
    10030    2    1    2    0    0  0.00000000000E+00  0.00000000000E+00 -0.10699474321E+04  0.14475215309E+04  0.97495183217E+03 0.  0.
        5    1    3    3  502    0 -0.28109573328E+03 -0.39095906261E+03 -0.64752692815E+03  0.80695539690E+03  0.46999998093E+01 0.  1.
       -5    1    3    3    0  502  0.28109573328E+03  0.39095906261E+03 -0.42242050392E+03  0.64056613401E+03  0.46999998093E+01 0. -1.
</event>
<event>
 5   0  0.6022787E-03  0.9920264E+03  0.7818609E-02  0.9317334E-01
        2   -1    0    0  501    0  0.00000000000E+00  0.00000000000E+00  0.13962083792E+04  0.13962083792E+04  0.25500000920E-02 0. -1.
       -2   -1    0    0    0  501  0.00000000000E+00  0.00000000000E+00 -0.17621229007E+03  0.17621229009E+03  0.25500000920E-02 0.  1.
    10030    2    1    2    0    0  0.00000000000E+00  0.00000000000E+00  0.12199960891E+04  0.15724206693E+04  0.99202636240E+03 0.  0.
        5    1    3    3  502    0  0.34882517522E+03 -0.14575564419E+02  0.51581079316E+02  0.35295063066E+03  0.46999998093E+01 0.  1.
       -5    1    3    3    0  502 -0.34882517522E+03  0.14575564419E+02  0.11684150098E+04  0.12194700386E+04  0.46999998093E+01 0. -1.
</event>
<event>
 5   0  0.6022787E-03  0.9954832E+03  0.7818609E-02  0.9313513E-01
        2   -1    0    0  501    0  0.00000000000E+00  0.00000000000E+00  0.13334105179E+04  0.13334105179E+04  0.25500000920E-02 0. -1.
       -2   -1    0    0    0  501  0.00000000000E+00  0.00000000000E+00 -0.18579926185E+03  0.18579926186E+03  0.25500000920E-02 0.  1.
    10030    2    1    2    0    0  0.00000000000E+00  0.00000000000E+00  0.11476112560E+04  0.15192097797E+04  0.99548317911E+03 0.  0.
        5    1    3    3  502    0  0.18389603880E+03 -0.31674883556E+03  0.10881204734E+04  0.11481183878E+04  0.46999998093E+01 0. -1.
       -5    1    3    3    0  502 -0.18389603880E+03  0.31674883556E+03  0.59490782639E+02  0.37109139189E+03  0.46999998093E+01 0.  1.
</event>
<event>
 5   0  0.3608845E-03  0.1002046E+04  0.7818609E-02  0.9306304E-01
       -1   -1    0    0    0  501  0.00000000000E+00  0.00000000000E+00  0.38746569389E+03  0.38746569392E+03  0.50400001928E-02 0. -1.
        1   -1    0    0  501    0  0.00000000000E+00  0.00000000000E+00 -0.64786086812E+03  0.64786086814E+03  0.50400001928E-02 0.  1.
    10030    2    1    2    0    0  0.00000000000E+00  0.00000000000E+00 -0.26039517423E+03  0.10353265621E+04  0.10020456294E+04 0.  0.
        1    1    3    3  502    0 -0.14077846642E+03  0.42159466526E+03 -0.36909828811E+03  0.57774924032E+03  0.50400001928E-02 0. -1.
       -1    1    3    3    0  502  0.14077846642E+03 -0.42159466526E+03  0.10870311388E+03  0.45757732174E+03  0.50400001928E-02 0.  1.
</event>
<event>
 5   0  0.6360455E-03  0.1004773E+04  0.7818609E-02  0.9303326E-01
        2   -1    0    0  501    0  0.00000000000E+00  0.00000000000E+00  0.14614651591E+04  0.14614651591E+04  0.25500000920E-02 0. -1.
       -2   -1    0    0    0  501  0.00000000000E+00  0.00000000000E+00 -0.17269789423E+03  0.17269789425E+03  0.25500000920E-02 0.  1.
    10030    2    1    2    0    0  0.00000000000E+00  0.00000000000E+00  0.12887672649E+04  0.16341630534E+04  0.10047725225E+04 0.  0.
        4    1    3    3  502    0 -0.10741386124E+03  0.34454031424E+03  0.12127975881E+04  0.12653558267E+04  0.12699999809E+01 0. -1.
       -4    1    3    3    0  502  0.10741386124E+03 -0.34454031424E+03  0.75969676816E+02  0.36880722664E+03  0.12699999809E+01 0.  1.
</event>
<event>
 5   0  0.3608845E-03  0.9699429E+03  0.7818609E-02  0.9342139E-01
       -1   -1    0    0    0  501  0.00000000000E+00  0.00000000000E+00  0.62147097938E+03  0.62147097940E+03  0.50400001928E-02 0.  1.
        1   -1    0    0  501    0  0.00000000000E+00  0.00000000000E+00 -0.37845260598E+03  0.37845260601E+03  0.50400001928E-02 0. -1.
    10030    2    1    2    0    0  0.00000000000E+00  0.00000000000E+00  0.24301837340E+03  0.99992358541E+03  0.96994290907E+03 0.  0.
        1    1    3    3  502    0 -0.17619943091E+03  0.40701719877E+03 -0.80738572640E+02  0.45080811515E+03  0.50400001928E-02 0. -1.
       -1    1    3    3    0  502  0.17619943091E+03 -0.40701719877E+03  0.32375694604E+03  0.54911547026E+03  0.50400001928E-02 0.  1.
</event>
<event>
 5   0  0.2417750E-03  0.9933797E+03  0.7818609E-02  0.9315836E-01
        3   -1    0    0  501    0  0.00000000000E+00  0.00000000000E+00  0.17262888700E+03  0.17262891655E+03  0.10100000352E+00 0.  1.
       -3   -1    0    0    0  501  0.00000000000E+00  0.00000000000E+00 -0.14290816935E+04  0.14290816971E+04  0.10100000352E+00 0. -1.
    10030    2    1    2    0    0  0.00000000000E+00  0.00000000000E+00 -0.12564528065E+04  0.16017106136E+04  0.99337970325E+03 0.  0.
        5    1    3    3  502    0  0.14624085219E+03  0.15286297723E+03 -0.13527692569E+04  0.13692188390E+04  0.46999998093E+01 0. -1.
       -5    1    3    3    0  502 -0.14624085219E+03 -0.15286297723E+03  0.96316450396E+02  0.23249177463E+03  0.46999998093E+01 0.  1.
</event>
<event>
 5   0  0.3608845E-03  0.9771774E+03  0.7818609E-02  0.9333937E-01
       -1   -1    0    0    0  501  0.00000000000E+00  0.00000000000E+00  0.30512692512E+03  0.30512692516E+03  0.50400001928E-02 0. -1.
        1   -1    0    0  501    0  0.00000000000E+00  0.00000000000E+00 -0.78235932843E+03  0.78235932845E+03  0.50400001928E-02 0.  1.
    10030    2    1    2    0    0  0.00000000000E+00  0.00000000000E+00 -0.47723240331E+03  0.10874862536E+04  0.97717735597E+03 0.  0.
        1    1    3    3  502    0 -0.35881201383E+03 -0.13348222888E+03  0.99223441436E+02  0.39548559778E+03  0.50400001928E-02 0.  1.
       -1    1    3    3    0  502  0.35881201383E+03  0.13348222888E+03 -0.57645584475E+03  0.69200065583E+03  0.50400001928E-02 0. -1.
</event>
<event>
 5   0  0.3643002E-03  0.1023501E+04  0.7818609E-02  0.9283138E-01
       -1   -1    0    0    0  501  0.00000000000E+00  0.00000000000E+00  0.32696488578E+03  0.32696488582E+03  0.50400001928E-02 0.  1.
        1   -1    0    0  501    0  0.00000000000E+00  0.00000000000E+00 -0.80096926498E+03  0.80096926500E+03  0.50400001928E-02 0. -1.
    10030    2    1    2    0    0  0.00000000000E+00  0.00000000000E+00 -0.47400437920E+03  0.11279341508E+04  0.10235014886E+04 0.  0.
        2    1    3    3  502    0  0.32925293386E+03  0.11535975521E+03  0.17559679904E+03  0.39057598930E+03  0.25500000920E-02 0.  1.
       -2    1    3    3    0  502 -0.32925293386E+03 -0.11535975521E+03 -0.64960117824E+03  0.73735816152E+03  0.25500000920E-02 0. -1.
</event>
<event>
 5   0  0.6360455E-03  0.1003039E+04  0.7818609E-02  0.9305218E-01
        2   -1    0    0  501    0  0.00000000000E+00  0.00000000000E+00  0.26333924143E+03  0.26333924144E+03  0.25500000920E-02 0.  1.
       -2   -1    0    0    0  501  0.00000000000E+00  0.00000000000E+00 -0.95512466203E+03  0.95512466203E+03  0.25500000920E-02 0. -1.
    10030    2    1    2    0    0  0.00000000000E+00  0.00000000000E+00 -0.69178542060E+03  0.12184639035E+04  0.10030389902E+04 0.  0.
        4    1    3    3  502    0 -0.41528187762E+02 -0.40727562832E+03  0.60185696933E+01  0.40943358910E+03  0.12699999809E+01 0.  1.
       -4    1    3    3    0  502  0.41528187762E+02  0.40727562832E+03 -0.69780399029E+03  0.80903031437E+03  0.12699999809E+01 0. -1.
</event>
<event>
 5   0  0.3569359E-03  0.1095088E+04  0.7818609E-02  0.9209993E-01
       -1   -1    0    0    0  501  0.00000000000E+00  0.00000000000E+00  0.59606989452E+03  0.59606989454E+03  0.50400001928E-02 0. -1.
        1   -1    0    0  501    0  0.00000000000E+00  0.00000000000E+00 -0.50296835110E+03  0.50296835112E+03  0.50400001928E-02 0.  1.
    10030    2    1    2    0    0  0.00000000000E+00  0.00000000000E+00  0.93101543423E+02  0.10990382457E+04  0.10950877445E+04 0.  0.
        4    1    3    3  502    0 -0.16125551190E+03 -0.11641180355E+03  0.55853582155E+03  0.59289031445E+03  0.12699999809E+01 0. -1.
       -4    1    3    3    0  502  0.16125551190E+03  0.11641180355E+03 -0.46543427812E+03  0.50614793122E+03  0.12699999809E+01 0.  1.
</event>
<event>
 5   0  0.3466598E-03  0.1004603E+04  0.7818609E-02  0.9303511E-01
       -1   -1    0    0    0  501  0.00000000000E+00  0.00000000000E+00  0.27403104678E+03  0.27403104682E+03  0.50400001928E-02 0.  1.
        1   -1    0    0  501    0  0.00000000000E+00  0.00000000000E+00 -0.92072358186E+03  0.92072358188E+03  0.50400001928E-02 0. -1.
    10030    2    1    2    0    0  0.00000000000E+00  0.00000000000E+00 -0.64669253509E+03  0.11947546287E+04  0.10046030997E+04 0.  0.
        3    1    3    3  502    0 -0.45037238271E+03  0.13500695689E+03 -0.53356538837E+03  0.71116397222E+03  0.10100000352E+00 0. -1.
       -3    1    3    3    0  502  0.45037238271E+03 -0.13500695689E+03 -0.11312714672E+03  0.48359065648E+03  0.10100000352E+00 0.  1.
</event>
<event>
 5   0  0.6606947E-03  0.9916490E+03  0.7818609E-02  0.9317752E-01
       -2   -1    0    0    0  501  0.00000000000E+00  0.00000000000E+00  0.22762672854E+03  0.22762672855E+03  0.25500000920E-02 0.  1.
        2   -1    0    0  501    0  0.00000000000E+00  0.00000000000E+00 -0.10800221739E+04  0.10800221740E+04  0.25500000920E-02 0. -1.
    10030    2    1    2    0    0  0.00000000000E+00  0.00000000000E+00 -0.85239544541E+03  0.13076489025E+04  0.99164895849E+03 0.  0.
        1    1    3    3  502    0 -0.47826180365E+03  0.69670222928E+02 -0.57216833254E+03  0.74897589653E+03  0.50400001928E-02 0. -1.
       -1    1    3    3    0  502  0.47826180365E+03 -0.69670222928E+02 -0.28022711287E+03  0.55867300598E+03  0.50400001928E-02 0.  1.
</event>
<event>
 5   0  0.6022787E-03  0.9959677E+03  0.7818609E-02  0.9312978E-01
       -2   -1    0    0    0  501  0.00000000000E+00  0.00000000000E+00  0.80329303647E+03  0.80329303647E+03  0.25500000920E-02 0.  1.
        2   -1    0    0  501    0  0.00000000000E+00  0.00000000000E+00 -0.30871416387E+03  0.30871416388E+03  0.25500000920E-02 0. -1.
    10030    2    1    2    0    0  0.00000000000E+00  0.00000000000E+00  0.49457887260E+03  0.11120072004E+04  0.99596774667E+03 0.  0.
        5    1    3    3  502    0 -0.87967714801E+02 -0.39360750046E+03 -0.78801353697E+02  0.41097071259E+03  0.46999998093E+01 0. -1.
       -5    1    3    3    0  502  0.87967714801E+02  0.39360750046E+03  0.57338022630E+03  0.70103648776E+03  0.46999998093E+01 0.  1.
</event>
<event>
 5   0  0.3569359E-03  0.1102307E+04  0.7818609E-02  0.9202946E-01
        1   -1    0    0  501    0  0.00000000000E+00  0.00000000000E+00  0.80957809439E+03  0.80957809441E+03  0.50400001928E-02 0.  1.
       -1   -1    0    0    0  501  0.00000000000E+00  0.00000000000E+00 -0.37522037726E+03  0.37522037729E+03  0.50400001928E-02 0. -1.
    10030    2    1    2    0    0  0.00000000000E+00  0.00000000000E+00  0.43435771713E+03  0.11847984717E+04  0.11023070317E+04 0.  0.
        4    1    3    3  502    0 -0.14498038149E+03  0.35948994866E+03 -0.20395395846E+03  0.43800817832E+03  0.12699999809E+01 0. -1.
       -4    1    3    3    0  502  0.14498038149E+03 -0.35948994866E+03  0.63831167559E+03  0.74679029338E+03  0.12699999809E+01 0.  1.
</event>
<event>
 5   0  0.6360455E-03  0.9952203E+03  0.7818609E-02  0.9313803E-01
        2   -1    0    0  501    0  0.00000000000E+00  0.00000000000E+00  0.88486511344E+03  0.88486511344E+03  0.25500000920E-02 0.  1.
       -2   -1    0    0    0  501  0.00000000000E+00  0.00000000000E+00 -0.27983458362E+03  0.27983458363E+03  0.25500000920E-02 0. -1.
    10030    2    1    2    0    0  0.00000000000E+00  0.00000000000E+00  0.60503052982E+03  0.11646996971E+04  0.99522029840E+03 0.  0.
        4    1    3    3  502    0  0.34933488312E+03  0.25543315516E+03  0.58997249913E+03  0.73167623984E+03  0.12699999809E+01 0.  1.
       -4    1    3    3    0  502 -0.34933488312E+03 -0.25543315516E+03  0.15058030690E+02  0.43302345723E+03  0.12699999809E+01 0. -1.
</event>
<event>
 5   0  0.6199539E-03  0.9970678E+03  0.7818609E-02  0.9311767E-01
        2   -1    0    0  501    0  0.00000000000E+00  0.00000000000E+00  0.74943990583E+03  0.74943990584E+03  0.25500000920E-02 0.  1.
       -2   -1    0    0    0  501  0.00000000000E+00  0.00000000000E+00 -0.33162906335E+03  0.33162906336E+03  0.25500000920E-02 0. -1.
    10030    2    1    2    0    0  0.00000000000E+00  0.00000000000E+00  0.41781084249E+03  0.10810689692E+04  0.99706780916E+03 0.  0.
        2    1    3    3  502    0 -0.18426235881E+03 -0.21395133320E+03 -0.23657185805E+03  0.36836671115E+03  0.25500000920E-02 0. -1.
       -2    1    3    3    0  502  0.18426235881E+03  0.21395133320E+03  0.65438270054E+03  0.71270225805E+03  0.25500000920E-02 0.  1.
</event>
<event>
 5   0  0.3608845E-03  0.1000476E+04  0.7818609E-02  0.9308023E-01
        1   -1    0    0  501    0  0.00000000000E+00  0.00000000000E+00  0.12473261019E+04  0.12473261019E+04  0.50400001928E-02 0.  1.
       -1   -1    0    0    0  501  0.00000000000E+00  0.00000000000E+00 -0.20061947178E+03  0.20061947184E+03  0.50400001928E-02 0. -1.
    10030    2    1    2    0    0  0.00000000000E+00  0.00000000000E+00  0.10467066301E+04  0.14479455738E+04  0.10004756944E+04 0.  0.
        1    1    3    3  502    0  0.25732791125E+03 -0.18530348745E+03  0.10832807436E+04  0.11287392108E+04  0.50400001928E-02 0.  1.
       -1    1    3    3    0  502 -0.25732791125E+03  0.18530348745E+03 -0.36574113500E+02  0.31920636299E+03  0.50400001928E-02 0. -1.
</event>
<event>
 5   0  0.6199539E-03  0.9833541E+03  0.7818609E-02  0.9326993E-01
        2   -1    0    0  501    0  0.00000000000E+00  0.00000000000E+00  0.80164270477E+03  0.80164270477E+03  0.25500000920E-02 0.  1.
       -2   -1    0    0    0  501  0.00000000000E+00  0.00000000000E+00 -0.30156366771E+03  0.30156366772E+03  0.25500000920E-02 0. -1.
    10030    2    1    2    0    0  0.00000000000E+00  0.00000000000E+00  0.50007903706E+03  0.11032063725E+04  0.98335408526E+03 0.  0.
        2    1    3    3  502    0 -0.44535265579E+03  0.31911183566E+02  0.19060019904E+02  0.44690110318E+03  0.25500000920E-02 0. -1.
       -2    1    3    3    0  502  0.44535265579E+03 -0.31911183566E+02  0.48101901716E+03  0.65630526931E+03  0.25500000920E-02 0.  1.
</event>
<event>
 5   0  0.3643002E-03  0.9981833E+03  0.7818609E-02  0.9310540E-01
        1   -1    0    0  501    0  0.00000000000E+00  0.00000000000E+00  0.69275462950E+03  0.69275462952E+03  0.50400001928E-02 0.  1.
       -1   -1    0    0    0  501  0.00000000000E+00  0.00000000000E+00 -0.35956811990E+03  0.35956811993E+03  0.50400001928E-02 0. -1.
    10030    2    1    2    0    0  0.00000000000E+00  0.00000000000E+00  0.33318650960E+03  0.10523227495E+04  0.99818330923E+03 0.  0.
        2    1    3    3  502    0  0.31009881456E+03  0.17897654775E+03 -0.19997030708E+03  0.41009999166E+03  0.25500000920E-02 0.  1.
       -2    1    3    3    0  502 -0.31009881456E+03 -0.17897654775E+03  0.53315681669E+03  0.64222275779E+03  0.25500000920E-02 0. -1.
</event>
<event>
 5   0  0.3569359E-03  0.1021402E+04  0.7818609E-02  0.9285378E-01
       -1   -1    0    0    0  501  0.00000000000E+00  0.00000000000E+00  0.26048497923E+03  0.26048497928E+03  0.50400001928E-02 0. -1.
        1   -1    0    0  501    0  0.00000000000E+00  0.00000000000E+00 -0.10012693940E+04  0.10012693940E+04  0.50400001928E-02 0.  1.
    10030    2    1    2    0    0  0.00000000000E+00  0.00000000000E+00 -0.74078441479E+03  0.12617543733E+04  0.10214022466E+04 0.  0.
        4    1    3    3  502    0 -0.18372586990E+03  0.45883921575E+03 -0.52919350360E+03  0.72411048766E+03  0.12699999809E+01 0.  1.
       -4    1    3    3    0  502  0.18372586990E+03 -0.45883921575E+03 -0.21159091119E+03  0.53764388565E+03  0.12699999809E+01 0. -1.
</event>
<event>
 5   0  0.6606947E-03  0.9714806E+03  0.7818609E-02  0.9340390E-01
        2   -1    0    0  501    0  0.00000000000E+00  0.00000000000E+00  0.55561382608E+03  0.55561382608E+03  0.25500000920E-02 0. -1.
       -2   -1    0    0    0  501  0.00000000000E+00  0.00000000000E+00 -0.42465397844E+03  0.42465397845E+03  0.25500000920E-02 0.  1.
    10030    2    1    2    0    0  0.00000000000E+00  0.00000000000E+00  0.13095984764E+03  0.98026780453E+03  0.97148056435E+03 0.  0.
        1    1    3    3  502    0  0.36852601624E+03  0.18150708117E+03 -0.19606991964E+03  0.45519189204E+03  0.50400001928E-02 0.  1.
       -1    1    3    3    0  502 -0.36852601624E+03 -0.18150708117E+03  0.32702976728E+03  0.52507591249E+03  0.50400001928E-02 0. -1.
</event>
<event>
 5   0  0.6199539E-03  0.9976372E+03  0.7818609E-02  0.9311140E-01
        2   -1    0    0  501    0  0.00000000000E+00  0.00000000000E+00  0.11400462253E+04  0.11400462253E+04  0.25500000920E-02 0. -1.
       -2   -1    0    0    0  501  0.00000000000E+00  0.00000000000E+00 -0.21825431493E+03  0.21825431494E+03  0.25500000920E-02 0.  1.
    10030    2    1    2    0    0  0.00000000000E+00  0.00000000000E+00  0.92179191033E+03  0.13583005402E+04  0.99763722442E+03 0.  0.
        2    1    3    3  502    0 -0.29847965112E+03 -0.37849402251E+02  0.10025974335E+04  0.10467685002E+04  0.25500000920E-02 0. -1.
       -2    1    3    3    0  502  0.29847965112E+03  0.37849402251E+02 -0.80805523126E+02  0.31153204002E+03  0.25500000920E-02 0.  1.
</event>
<event>
 5   0  0.3608845E-03  0.9960779E+03  0.7818609E-02  0.9312857E-01
       -1   -1    0    0    0  501  0.00000000000E+00  0.00000000000E+00  0.48625568026E+03  0.48625568029E+03  0.50400001928E-02 0.  1.
        1   -1    0    0  501    0  0.00000000000E+00  0.00000000000E+00 -0.51010775113E+03  0.51010775116E+03  0.50400001928E-02 0. -1.
    10030    2    1    2    0    0  0.00000000000E+00  0.00000000000E+00 -0.23852070871E+02  0.99636343144E+03  0.99607789165E+03 0.  0.
        1    1    3    3  502    0 -0.35468991226E+03 -0.17254717969E+01  0.33779524098E+03  0.48980969362E+03  0.50400001928E-02 0.  1.
       -1    1    3    3    0  502  0.35468991226E+03  0.17254717969E+01 -0.36164731185E+03  0.50655373782E+03  0.50400001928E-02 0. -1.
</event>
<event>
 5   0  0.3643002E-03  0.1002081E+04  0.7818609E-02  0.9306265E-01
       -1   -1    0    0    0  501  0.00000000000E+00  0.00000000000E+00  0.40041864035E+03  0.40041864038E+03  0.50400001928E-02 0. -1.
        1   -1    0    0  501    0  0.00000000000E+00  0.00000000000E+00 -0.62694809273E+03  0.62694809275E+03  0.50400001928E-02 0.  1.
    10030    2    1    2    0    0  0.00000000000E+00  0.00000000000E+00 -0.22652945238E+03  0.10273667331E+04  0.10020812400E+04 0.  0.
        2    1    3    3  502    0 -0.58968109879E+02 -0.16848145830E+03 -0.59324291848E+03  0.61951626298E+03  0.25500000920E-02 0.  1.
       -2    1    3    3    0  502  0.58968109879E+02  0.16848145830E+03  0.36671346609E+03  0.40785047014E+03  0.25500000920E-02 0. -1.
</event>
<event>
 5   0  0.6606947E-03  0.9858920E+03  0.7818609E-02  0.9324155E-01
        2   -1    0    0  501    0  0.00000000000E+00  0.00000000000E+00  0.14911893700E+04  0.14911893700E+04  0.25500000920E-02 0. -1.
       -2   -1    0    0    0  501  0.00000000000E+00  0.00000000000E+00 -0.16295433147E+03  0.16295433149E+03  0.25500000920E-02 0.  1.
    10030    2    1    2    0    0  0.00000000000E+00  0.00000000000E+00  0.13282350385E+04  0.16541437015E+04  0.98589201620E+03 0.  0.
        1    1    3    3  502    0 -0.26484225061E+03 -0.15776363773E+03  0.13095091976E+04  0.13453048434E+04  0.50400001928E-02 0. -1.
       -1    1    3    3    0  502  0.26484225061E+03  0.15776363773E+03  0.18725840897E+02  0.30883885805E+03  0.50400001928E-02 0.  1.
</event>
<event>
 5   0  0.3643002E-03  0.9938542E+03  0.7818609E-02  0.9315311E-01
        1   -1    0    0  501    0  0.00000000000E+00  0.00000000000E+00  0.56098903287E+03  0.56098903289E+03  0.50400001928E-02 0. -1.
       -1   -1    0    0    0  501  0.00000000000E+00  0.00000000000E+00 -0.44018072519E+03  0.44018072522E+03  0.50400001928E-02 0.  1.
    10030    2    1    2    0    0  0.00000000000E+00  0.00000000000E+00  0.12080830768E+03  0.10011697581E+04  0.99385423345E+03 0.  0.
        2    1    3    3  502    0 -0.10965656177E+02 -0.36574221268E+03  0.39910656822E+03  0.54145513623E+03  0.25500000920E-02 0. -1.
       -2    1    3    3    0  502  0.10965656177E+02  0.36574221268E+03 -0.27829826053E+03  0.45971462188E+03  0.25500000920E-02 0.  1.
</event>
<event>
 5   0  0.3466598E-03  0.1010175E+04  0.7818609E-02  0.9297455E-01
       -1   -1    0    0    0  501  0.00000000000E+00  0.00000000000E+00  0.96952022839E+03  0.96952022840E+03  0.50400001928E-02 0. -1.
        1   -1    0    0  501    0  0.00000000000E+00  0.00000000000E+00 -0.26313337700E+03  0.26313337704E+03  0.50400001928E-02 0.  1.
    10030    2    1    2    0    0  0.00000000000E+00  0.00000000000E+00  0.70638685139E+03  0.12326536054E+04  0.10101745033E+04 0.  0.
        3    1    3    3  502    0 -0.29795089516E+03 -0.13495963103E+03  0.82282553135E+03  0.88545508252E+03  0.10100000352E+00 0. -1.
       -3    1    3    3    0  502  0.29795089516E+03  0.13495963103E+03 -0.11643867995E+03  0.34719852292E+03  0.10100000352E+00 0.  1.
</event>
<event>
 5   0  0.6360455E-03  0.1003503E+04  0.7818609E-02  0.9304711E-01
       -2   -1    0    0    0  501  0.00000000000E+00  0.00000000000E+00  0.16886899385E+03  0.16886899386E+03  0.25500000920E-02 0. -1.
        2   -1    0    0  501    0  0.00000000000E+00  0.00000000000E+00 -0.14908268627E+04  0.14908268627E+04  0.25500000920E-02 0.  1.
    10030    2    1    2    0    0  0.00000000000E+00  0.00000000000E+00 -0.13219578688E+04  0.16596958565E+04  0.10035027301E+04 0.  0.
        4    1    3    3  502    0 -0.28123501002E+03 -0.15236263528E+03 -0.21610626917E+02  0.32058717315E+03  0.12699999809E+01 0. -1.
       -4    1    3    3    0  502  0.28123501002E+03  0.15236263528E+03 -0.13003472419E+04  0.13391086834E+04  0.12699999809E+01 0.  1.
</event>
<event>
 5   0  0.6360455E-03  0.1005151E+04  0.7818609E-02  0.9302913E-01
        2   -1    0    0  501    0  0.00000000000E+00  0.00000000000E+00  0.22169790668E+04  0.22169790668E+04  0.25500000920E-02 0. -1.
       -2   -1    0    0    0  501  0.00000000000E+00  0.00000000000E+00 -0.11393082542E+03  0.11393082545E+03  0.25500000920E-02 0.  1.
    10030    2    1    2    0    0  0.00000000000E+00  0.00000000000E+00  0.21030482414E+04  0.23309098922E+04  0.10051512425E+04 0.  0.
        4    1    3    3  502    0 -0.15093038020E+03 -0.44074552863E+03  0.14887214242E+04  0.15599133606E+04  0.12699999809E+01 0.  1.
       -4    1    3    3    0  502  0.15093038020E+03  0.44074552863E+03  0.61432681718E+03  0.77099653169E+03  0.12699999809E+01 0. -1.
</event>
<event>
 5   0  0.6360455E-03  0.9982478E+03  0.7818609E-02  0.9310469E-01
       -2   -1    0    0    0  501  0.00000000000E+00  0.00000000000E+00  0.30305013236E+03  0.30305013237E+03  0.25500000920E-02 0.  1.
        2   -1    0    0  501    0  0.00000000000E+00  0.00000000000E+00 -0.82205767042E+03  0.82205767043E+03  0.25500000920E-02 0. -1.
    10030    2    1    2    0    0  0.00000000000E+00  0.00000000000E+00 -0.51900753806E+03  0.11251078028E+04  0.99824783663E+03 0.  0.
        4    1    3    3  502    0  0.41919462811E+03  0.11174699958E+03  0.18663204769E+02  0.43423663626E+03  0.12699999809E+01 0.  1.
       -4    1    3    3    0  502 -0.41919462811E+03 -0.11174699958E+03 -0.53767074283E+03  0.69087116654E+03  0.12699999809E+01 0. -1.
</event>
<event>
 5   0  0.6376961E-03  0.9861381E+03  0.7818609E-02  0.9323880E-01
       -2   -1    0    0    0  501  0.00000000000E+00  0.00000000000E+00  0.22266345060E+03  0.22266345062E+03  0.25500000920E-02 0. -1.
        2   -1    0    0  501    0  0.00000000000E+00  0.00000000000E+00 -0.10918590703E+04  0.10918590703E+04  0.25500000920E-02 0.  1.
    10030    2    1    2    0    0  0.00000000000E+00  0.00000000000E+00 -0.86919561973E+03  0.13145225209E+04  0.98613814079E+03 0.  0.
        3    1    3    3  502    0  0.70924354162E+02  0.10188365143E+03 -0.10706870389E+04  0.10778595863E+04  0.10100000352E+00 0.  1.
       -3    1    3    3    0  502 -0.70924354162E+02 -0.10188365143E+03  0.20149141913E+03  0.23666293463E+03  0.10100000352E+00 0. -1.
</event>
<event>
 5   0  0.3608845E-03  0.9806684E+03  0.7818609E-02  0.9330005E-01
        1   -1    0    0  501    0  0.00000000000E+00  0.00000000000E+00  0.40205279157E+03  0.40205279160E+03  0.50400001928E-02 0.  1.
       -1   -1    0    0    0  501  0.00000000000E+00  0.00000000000E+00 -0.59800018502E+03  0.59800018504E+03  0.50400001928E-02 0. -1.
    10030    2    1    2    0    0  0.00000000000E+00  0.00000000000E+00 -0.19594739345E+03  0.10000529766E+04  0.98066843279E+03 0.  0.
        1    1    3    3  502    0 -0.15587961310E+03 -0.13616504801E+03  0.35532178484E+03  0.41120912549E+03  0.50400001928E-02 0.  1.
       -1    1    3    3    0  502  0.15587961310E+03  0.13616504801E+03 -0.55126917829E+03  0.58884385115E+03  0.50400001928E-02 0. -1.
</event>
<event>
 5   0  0.6199539E-03  0.9984705E+03  0.7818609E-02  0.9310224E-01
       -2   -1    0    0    0  501  0.00000000000E+00  0.00000000000E+00  0.54808599222E+03  0.54808599222E+03  0.25500000920E-02 0.  1.
        2   -1    0    0  501    0  0.00000000000E+00  0.00000000000E+00 -0.45473856500E+03  0.45473856501E+03  0.25500000920E-02 0. -1.
    10030    2    1    2    0    0  0.00000000000E+00  0.00000000000E+00  0.93347427219E+02  0.10028245572E+04  0.99847050553E+03 0.  0.
        2    1    3    3  502    0 -0.40518665746E+03  0.21944658190E+03  0.23961244839E+03  0.51937188518E+03  0.25500000920E-02 0. -1.
       -2    1    3    3    0  502  0.40518665746E+03 -0.21944658190E+03 -0.14626502117E+03  0.48345267205E+03  0.25500000920E-02 0.  1.
</event>
<event>
 5   0  0.6606947E-03  0.1002941E+04  0.7818609E-02  0.9305325E-01
        2   -1    0    0  501    0  0.00000000000E+00  0.00000000000E+00  0.76848622537E+03  0.76848622538E+03  0.25500000920E-02 0.  1.
       -2   -1    0    0    0  501  0.00000000000E+00  0.00000000000E+00 -0.32723110033E+03  0.32723110034E+03  0.25500000920E-02 0. -1.
    10030    2    1    2    0    0  0.00000000000E+00  0.00000000000E+00  0.44125512505E+03  0.10957173257E+04  0.10029408619E+04 0.  0.
        1    1    3    3  502    0 -0.40823025660E+03 -0.61343599595E+02 -0.90415206574E+02  0.42259896973E+03  0.50400001928E-02 0. -1.
       -1    1    3    3    0  502  0.40823025660E+03  0.61343599595E+02  0.53167033162E+03  0.67311835599E+03  0.50400001928E-02 0.  1.
</event>
<event>
 5   0  0.3643002E-03  0.1175342E+04  0.7818609E-02  0.9134717E-01
        1   -1    0    0  501    0  0.00000000000E+00  0.00000000000E+00  0.45334607944E+03  0.45334607947E+03  0.50400001928E-02 0.  1.
       -1   -1    0    0    0  501  0.00000000000E+00  0.00000000000E+00 -0.76179619387E+03  0.76179619388E+03  0.50400001928E-02 0. -1.
    10030    2    1    2    0    0  0.00000000000E+00  0.00000000000E+00 -0.30845011443E+03  0.12151422734E+04  0.11753421933E+04 0.  0.
        2    1    3    3  502    0 -0.12579390376E+03  0.17850816522E+03  0.40983962926E+03  0.46438969949E+03  0.25500000920E-02 0.  1.
       -2    1    3    3    0  502  0.12579390376E+03 -0.17850816522E+03 -0.71828974369E+03  0.75075257386E+03  0.25500000920E-02 0. -1.
</event>
<event>
 5   0  0.3643002E-03  0.9743368E+03  0.7818609E-02  0.9337148E-01
        1   -1    0    0  501    0  0.00000000000E+00  0.00000000000E+00  0.13025067662E+04  0.13025067662E+04  0.50400001928E-02 0.  1.
       -1   -1    0    0    0  501  0.00000000000E+00  0.00000000000E+00 -0.18221251401E+03  0.18221251408E+03  0.50400001928E-02 0. -1.
    10030    2    1    2    0    0  0.00000000000E+00  0.00000000000E+00  0.11202942522E+04  0.14847192803E+04  0.97433676404E+03 0.  0.
        2    1    3    3  502    0 -0.14652701113E+03  0.52703037154E+02  0.12635626684E+04  0.12731215151E+04  0.25500000920E-02 0.  1.
       -2    1    3    3    0  502  0.14652701113E+03 -0.52703037154E+02 -0.14326841628E+03  0.21159776517E+03  0.25500000920E-02 0. -1.
</event>
<event>
 5   0  0.6606947E-03  0.9973001E+03  0.7818609E-02  0.9311511E-01
       -2   -1    0    0    0  501  0.00000000000E+00  0.00000000000E+00  0.17482589008E+03  0.17482589009E+03  0.25500000920E-02 0. -1.
        2   -1    0    0  501    0  0.00000000000E+00  0.00000000000E+00 -0.14222830298E+04  0.14222830298E+04  0.25500000920E-02 0.  1.
    10030    2    1    2    0    0  0.00000000000E+00  0.00000000000E+00 -0.12474571397E+04  0.15971089199E+04  0.99730014868E+03 0.  0.
        1    1    3    3  502    0  0.18471599005E+03  0.25217120091E+03 -0.12459043551E+04  0.12845185766E+04  0.50400001928E-02 0.  1.
       -1    1    3    3    0  502 -0.18471599005E+03 -0.25217120091E+03 -0.15527846153E+01  0.31259034329E+03  0.50400001928E-02 0. -1.
</event>
<event>
 5   0  0.6360455E-03  0.1008045E+04  0.7818609E-02  0.9299765E-01
       -2   -1    0    0    0  501  0.00000000000E+00  0.00000000000E+00  0.18175183030E+03  0.18175183032E+03  0.25500000920E-02 0. -1.
        2   -1    0    0  501    0  0.00000000000E+00  0.00000000000E+00 -0.13977223655E+04  0.13977223655E+04  0.25500000920E-02 0.  1.
    10030    2    1    2    0    0  0.00000000000E+00  0.00000000000E+00 -0.12159705352E+04  0.15794741958E+04  0.10080448367E+04 0.  0.
        4    1    3    3  502    0 -0.46520775408E+03 -0.31994863495E+02 -0.30824581158E+03  0.55898033866E+03  0.12699999809E+01 0. -1.
       -4    1    3    3    0  502  0.46520775408E+03  0.31994863495E+02 -0.90772472360E+03  0.10204938572E+04  0.12699999809E+01 0.  1.
</event>
<event>
 5   0  0.6360455E-03  0.9947125E+03  0.7818609E-02  0.9314363E-01
       -2   -1    0    0    0  501  0.00000000000E+00  0.00000000000E+00  0.17653884223E+03  0.17653884225E+03  0.25500000920E-02 0. -1.
        2   -1    0    0  501    0  0.00000000000E+00  0.00000000000E+00 -0.14011830199E+04  0.14011830199E+04  0.25500000920E-02 0.  1.
    10030    2    1    2    0    0  0.00000000000E+00  0.00000000000E+00 -0.12246441777E+04  0.15777218622E+04  0.99471247725E+03 0.  0.
        4    1    3    3  502    0 -0.33774898411E+02  0.11121224804E+03 -0.13793374805E+04  0.13842262842E+04  0.12699999809E+01 0.  1.
       -4    1    3    3    0  502  0.33774898411E+02 -0.11121224804E+03  0.15469330278E+03  0.19349557799E+03  0.12699999809E+01 0. -1.
</event>
<event>
 5   0  0.3466598E-03  0.9909744E+03  0.7818609E-02  0.9318500E-01
       -1   -1    0    0    0  501  0.00000000000E+00  0.00000000000E+00  0.48636977392E+03  0.48636977395E+03  0.50400001928E-02 0.  1.
        1   -1    0    0  501    0  0.00000000000E+00  0.00000000000E+00 -0.50477554777E+03  0.50477554780E+03  0.50400001928E-02 0. -1.
    10030    2    1    2    0    0  0.00000000000E+00  0.00000000000E+00 -0.18405773849E+02  0.99114532175E+03  0.99097440750E+03 0.  0.
        3    1    3    3  502    0  0.28692078505E+02 -0.81839200416E+01  0.48547047297E+03  0.48638647415E+03  0.10100000352E+00 0.  1.
       -3    1    3    3    0  502 -0.28692078505E+02  0.81839200416E+01 -0.50387624682E+03  0.50475884759E+03  0.10100000352E+00 0. -1.
</event>
<event>
 5   0  0.2417750E-03  0.1038701E+04  0.7818609E-02  0.9267087E-01
       -3   -1    0    0    0  501  0.00000000000E+00  0.00000000000E+00  0.67846080002E+03  0.67846080754E+03  0.10100000352E+00 0.  1.
        3   -1    0    0  501    0  0.00000000000E+00  0.00000000000E+00 -0.39755455425E+03  0.39755456708E+03  0.10100000352E+00 0. -1.
    10030    2    1    2    0    0  0.00000000000E+00  0.00000000000E+00  0.28090624577E+03  0.10760153746E+04  0.10387014814E+04 0.  0.
        3    1    3    3  502    0  0.21425965590E+03  0.37727184046E+03 -0.15525532770E+03  0.46080957969E+03  0.10100000352E+00 0. -1.
       -3    1    3    3    0  502 -0.21425965590E+03 -0.37727184046E+03  0.43616157347E+03  0.61520579494E+03  0.10100000352E+00 0.  1.
</event>
<event>
 5   0  0.3466598E-03  0.1041923E+04  0.7818609E-02  0.9263723E-01
        1   -1    0    0  501    0  0.00000000000E+00  0.00000000000E+00  0.47144804109E+03  0.47144804112E+03  0.50400001928E-02 0.  1.
       -1   -1    0    0    0  501  0.00000000000E+00  0.00000000000E+00 -0.57567470758E+03  0.57567470760E+03  0.50400001928E-02 0. -1.
    10030    2    1    2    0    0  0.00000000000E+00  0.00000000000E+00 -0.10422666649E+03  0.10471227487E+04  0.10419226713E+04 0.  0.
        3    1    3    3  502    0  0.38717299738E+03 -0.28121421901E+03  0.15486680984E+03  0.50295934812E+03  0.10100000352E+00 0.  1.
       -3    1    3    3    0  502 -0.38717299738E+03  0.28121421901E+03 -0.25909347632E+03  0.54416340059E+03  0.10100000352E+00 0. -1.
</event>
<event>
 5   0  0.6199539E-03  0.9738177E+03  0.7818609E-02  0.9337737E-01
        2   -1    0    0  501    0  0.00000000000E+00  0.00000000000E+00  0.10390685151E+04  0.10390685151E+04  0.25500000920E-02 0.  1.
       -2   -1    0    0    0  501  0.00000000000E+00  0.00000000000E+00 -0.22816613389E+03  0.22816613390E+03  0.25500000920E-02 0. -1.
    10030    2    1    2    0    0  0.00000000000E+00  0.00000000000E+00  0.81090238125E+03  0.12672346490E+04  0.97381773645E+03 0.  0.
        2    1    3    3  502    0 -0.35657342292E+03 -0.33008457288E+03  0.36471772612E+03  0.60755201500E+03  0.25500000920E-02 0.  1.
       -2    1    3    3    0  502  0.35657342292E+03  0.33008457288E+03  0.44618465513E+03  0.65968263404E+03  0.25500000920E-02 0. -1.
</event>
<event>
 5   0  0.3643002E-03  0.9944322E+03  0.7818609E-02  0.9314673E-01
        1   -1    0    0  501    0  0.00000000000E+00  0.00000000000E+00  0.17857903190E+04  0.17857903190E+04  0.50400001928E-02 0.  1.
       -1   -1    0    0    0  501  0.00000000000E+00  0.00000000000E+00 -0.13843945315E+03  0.13843945324E+03  0.50400001928E-02 0. -1.
    10030    2    1    2    0    0  0.00000000000E+00  0.00000000000E+00  0.16473508659E+04  0.19242297723E+04  0.99443217022E+03 0.  0.
        2    1    3    3  502    0  0.24970050421E+03  0.41413065714E+02 -0.44483283782E+01  0.25315049169E+03  0.25500000920E-02 0. -1.
       -2    1    3    3    0  502 -0.24970050421E+03 -0.41413065714E+02  0.16517991942E+04  0.16710792806E+04  0.25500000920E-02 0.  1.
</event>
<event>
 5   0  0.3643002E-03  0.9972787E+03  0.7818609E-02  0.9311534E-01
        1   -1    0    0  501    0  0.00000000000E+00  0.00000000000E+00  0.16477658299E+04  0.16477658299E+04  0.50400001928E-02 0.  1.
       -1   -1    0    0    0  501  0.00000000000E+00  0.00000000000E+00 -0.15089596850E+03  0.15089596858E+03  0.50400001928E-02 0. -1.
    10030    2    1    2    0    0  0.00000000000E+00  0.00000000000E+00  0.14968698614E+04  0.17986617985E+04  0.99727873905E+03 0.  0.
        2    1    3    3  502    0  0.69832287186E+02 -0.22771989777E+03  0.15385309122E+04  0.15568591034E+04  0.25500000920E-02 0.  1.
       -2    1    3    3    0  502 -0.69832287186E+02  0.22771989777E+03 -0.41661050796E+02  0.24180269505E+03  0.25500000920E-02 0. -1.
</event>
<event>
 5   0  0.3608845E-03  0.9930562E+03  0.7818609E-02  0.9316194E-01
        1   -1    0    0  501    0  0.00000000000E+00  0.00000000000E+00  0.11439498976E+04  0.11439498976E+04  0.50400001928E-02 0. -1.
       -1   -1    0    0    0  501  0.00000000000E+00  0.00000000000E+00 -0.21551655824E+03  0.21551655830E+03  0.50400001928E-02 0.  1.
    10030    2    1    2    0    0  0.00000000000E+00  0.00000000000E+00  0.92843333933E+03  0.13594664559E+04  0.99305618123E+03 0.  0.
        1    1    3    3  502    0  0.36460097491E+03 -0.65057257981E+02  0.91695929129E+03  0.98892904681E+03  0.50400001928E-02 0. -1.
       -1    1    3    3    0  502 -0.36460097491E+03  0.65057257981E+02  0.11474048043E+02  0.37053740907E+03  0.50400001928E-02 0.  1.
</event>
<event>
 5   0  0.6199539E-03  0.9975954E+03  0.7818609E-02  0.9311186E-01
        2   -1    0    0  501    0  0.00000000000E+00  0.00000000000E+00  0.98967706185E+03  0.98967706185E+03  0.25500000920E-02 0. -1.
       -2   -1    0    0    0  501  0.00000000000E+00  0.00000000000E+00 -0.25139427375E+03  0.25139427376E+03  0.25500000920E-02 0.  1.
    10030    2    1    2    0    0  0.00000000000E+00  0.00000000000E+00  0.73828278810E+03  0.12410713356E+04  0.99759540140E+03 0.  0.
        2    1    3    3  502    0 -0.73046507584E+02 -0.12844107536E+03  0.96182503750E+03  0.97310857816E+03  0.25500000920E-02 0. -1.
       -2    1    3    3    0  502  0.73046507584E+02  0.12844107536E+03 -0.22354224940E+03  0.26796275746E+03  0.25500000920E-02 0.  1.
</event>
<event>
 5   0  0.6360455E-03  0.1010904E+04  0.7818609E-02  0.9296666E-01
       -2   -1    0    0    0  501  0.00000000000E+00  0.00000000000E+00  0.13043844710E+03  0.13043844712E+03  0.25500000920E-02 0.  1.
        2   -1    0    0  501    0  0.00000000000E+00  0.00000000000E+00 -0.19586387073E+04  0.19586387073E+04  0.25500000920E-02 0. -1.
    10030    2    1    2    0    0  0.00000000000E+00  0.00000000000E+00 -0.18282002602E+04  0.20890771544E+04  0.10109041328E+04 0.  0.
        4    1    3    3  502    0 -0.28744316468E+03 -0.31534857382E+03 -0.35417792810E+03  0.55453756733E+03  0.12699999809E+01 0. -1.
       -4    1    3    3    0  502  0.28744316468E+03  0.31534857382E+03 -0.14740223321E+04  0.15345395871E+04  0.12699999809E+01 0.  1.
</event>
<event>
 5   0  0.3608845E-03  0.9829026E+03  0.7818609E-02  0.9327498E-01
       -1   -1    0    0    0  501  0.00000000000E+00  0.00000000000E+00  0.46440714137E+03  0.46440714140E+03  0.50400001928E-02 0.  1.
        1   -1    0    0  501    0  0.00000000000E+00  0.00000000000E+00 -0.52007033882E+03  0.52007033884E+03  0.50400001928E-02 0. -1.
    10030    2    1    2    0    0  0.00000000000E+00  0.00000000000E+00 -0.55663197448E+02  0.98447748024E+03  0.98290259820E+03 0.  0.
        1    1    3    3  502    0  0.19074201676E+03 -0.10629671065E+03 -0.46881294667E+03  0.51717220212E+03  0.50400001928E-02 0. -1.
       -1    1    3    3    0  502 -0.19074201676E+03  0.10629671065E+03  0.41314974922E+03  0.46730527812E+03  0.50400001928E-02 0.  1.
</event>
<event>
 5   0  0.6606947E-03  0.1072351E+04  0.7818609E-02  0.9232567E-01
       -2   -1    0    0    0  501  0.00000000000E+00  0.00000000000E+00  0.18250976352E+03  0.18250976354E+03  0.25500000920E-02 0.  1.
        2   -1    0    0  501    0  0.00000000000E+00  0.00000000000E+00 -0.15751725815E+04  0.15751725815E+04  0.25500000920E-02 0. -1.
    10030    2    1    2    0    0  0.00000000000E+00  0.00000000000E+00 -0.13926628180E+04  0.17576823450E+04  0.10723513890E+04 0.  0.
        1    1    3    3  502    0 -0.51033506266E+03  0.13129173909E+03 -0.85863442596E+03  0.10074385710E+04  0.50400001928E-02 0. -1.
       -1    1    3    3    0  502  0.51033506266E+03 -0.13129173909E+03 -0.53402839201E+03  0.75024377400E+03  0.50400001928E-02 0.  1.
</event>
<event>
 5   0  0.3643002E-03  0.8591240E+03  0.7818609E-02  0.9478172E-01
       -1   -1    0    0    0  501  0.00000000000E+00  0.00000000000E+00  0.10854235221E+03  0.10854235233E+03  0.50400001928E-02 0.  1.
        1   -1    0    0  501    0  0.00000000000E+00  0.00000000000E+00 -0.17000138701E+04  0.17000138701E+04  0.50400001928E-02 0. -1.
    10030    2    1    2    0    0  0.00000000000E+00  0.00000000000E+00 -0.15914715179E+04  0.18085562224E+04  0.85912398258E+03 0.  0.
        2    1    3    3  502    0 -0.12105228777E+03  0.20332310968E+03 -0.41029965624E+02  0.24016119876E+03  0.25500000920E-02 0.  1.
       -2    1    3    3    0  502  0.12105228777E+03 -0.20332310968E+03 -0.15504415522E+04  0.15683950237E+04  0.25500000920E-02 0. -1.
</event>
<event>
 5   0  0.3608845E-03  0.1003306E+04  0.7818609E-02  0.9304926E-01
        1   -1    0    0  501    0  0.00000000000E+00  0.00000000000E+00  0.18997815723E+03  0.18997815730E+03  0.50400001928E-02 0.  1.
       -1   -1    0    0    0  501  0.00000000000E+00  0.00000000000E+00 -0.13246572280E+04  0.13246572280E+04  0.50400001928E-02 0. -1.
    10030    2    1    2    0    0  0.00000000000E+00  0.00000000000E+00 -0.11346790708E+04  0.15146353853E+04  0.10033064122E+04 0.  0.
        1    1    3    3  502    0 -0.37713615094E+03  0.14283814094E+03 -0.10177640652E+04  0.10947502470E+04  0.50400001928E-02 0. -1.
       -1    1    3    3    0  502  0.37713615094E+03 -0.14283814094E+03 -0.11691500562E+03  0.41988513836E+03  0.50400001928E-02 0.  1.
</event>
<event>
 5   0  0.3608845E-03  0.1007206E+04  0.7818609E-02  0.9300676E-01
        1   -1    0    0  501    0  0.00000000000E+00  0.00000000000E+00  0.47829111431E+03  0.47829111433E+03  0.50400001928E-02 0.  1.
       -1   -1    0    0    0  501  0.00000000000E+00  0.00000000000E+00 -0.53025447967E+03  0.53025447970E+03  0.50400001928E-02 0. -1.
    10030    2    1    2    0    0  0.00000000000E+00  0.00000000000E+00 -0.51963365366E+02  0.10085455940E+04  0.10072060484E+04 0.  0.
        1    1    3    3  502    0  0.21283150202E+03  0.24078534134E+03  0.36227253698E+03  0.48426874763E+03  0.50400001928E-02 0.  1.
       -1    1    3    3    0  502 -0.21283150202E+03 -0.24078534134E+03 -0.41423590234E+03  0.52427684640E+03  0.50400001928E-02 0. -1.
</event>
<event>
 5   0  0.3608845E-03  0.1001740E+04  0.7818609E-02  0.9306638E-01
       -1   -1    0    0    0  501  0.00000000000E+00  0.00000000000E+00  0.57822227418E+03  0.57822227420E+03  0.50400001928E-02 0.  1.
        1   -1    0    0  501    0  0.00000000000E+00  0.00000000000E+00 -0.43386575937E+03  0.43386575940E+03  0.50400001928E-02 0. -1.
    10030    2    1    2    0    0  0.00000000000E+00  0.00000000000E+00  0.14435651481E+03  0.10120880336E+04  0.10017401781E+04 0.  0.
        1    1    3    3  502    0  0.31338883752E+03 -0.15566942783E+03  0.43424489723E+03  0.55768643971E+03  0.50400001928E-02 0.  1.
       -1    1    3    3    0  502 -0.31338883752E+03  0.15566942783E+03 -0.28988838242E+03  0.45440159389E+03  0.50400001928E-02 0. -1.
</event>
<event>
 5   0  0.3608845E-03  0.1013347E+04  0.7818609E-02  0.9294026E-01
        1   -1    0    0  501    0  0.00000000000E+00  0.00000000000E+00  0.73677704294E+03  0.73677704296E+03  0.50400001928E-02 0. -1.
       -1   -1    0    0    0  501  0.00000000000E+00  0.00000000000E+00 -0.34843398720E+03  0.34843398723E+03  0.50400001928E-02 0.  1.
    10030    2    1    2    0    0  0.00000000000E+00  0.00000000000E+00  0.38834305575E+03  0.10852110302E+04  0.10133472510E+04 0.  0.
        1    1    3    3  502    0  0.25210954540E+03 -0.21150124749E+03 -0.21841128716E+03  0.39496264502E+03  0.50400001928E-02 0.  1.
       -1    1    3    3    0  502 -0.25210954540E+03  0.21150124749E+03  0.60675434291E+03  0.69024838518E+03  0.50400001928E-02 0. -1.
</event>
<event>
 5   0  0.3643002E-03  0.9954619E+03  0.7818609E-02  0.9313536E-01
        1   -1    0    0  501    0  0.00000000000E+00  0.00000000000E+00  0.11563554120E+04  0.11563554120E+04  0.50400001928E-02 0.  1.
       -1   -1    0    0    0  501  0.00000000000E+00  0.00000000000E+00 -0.21423872451E+03  0.21423872457E+03  0.50400001928E-02 0. -1.
    10030    2    1    2    0    0  0.00000000000E+00  0.00000000000E+00  0.94211668744E+03  0.13705941365E+04  0.99546192009E+03 0.  0.
        2    1    3    3  502    0  0.28548319414E+03 -0.34917359579E+03  0.18122320194E+03  0.48607067702E+03  0.25500000920E-02 0. -1.
       -2    1    3    3    0  502 -0.28548319414E+03  0.34917359579E+03  0.76089348551E+03  0.88452345951E+03  0.25500000920E-02 0.  1.
</event>
<event>
 5   0  0.3569359E-03  0.9882619E+03  0.7818609E-02  0.9321513E-01
        1   -1    0    0  501    0  0.00000000000E+00  0.00000000000E+00  0.21454020218E+04  0.21454020218E+04  0.50400001928E-02 0.  1.
       -1   -1    0    0    0  501  0.00000000000E+00  0.00000000000E+00 -0.11380868898E+03  0.11380868909E+03  0.50400001928E-02 0. -1.
    10030    2    1    2    0    0  0.00000000000E+00  0.00000000000E+00  0.20315933328E+04  0.22592107109E+04  0.98826189155E+03 0.  0.
        4    1    3    3  502    0  0.26331406336E+03 -0.19971644024E+03  0.17602814650E+03  0.37444421978E+03  0.12699999809E+01 0. -1.
       -4    1    3    3    0  502 -0.26331406336E+03  0.19971644024E+03  0.18555651863E+04  0.18847664911E+04  0.12699999809E+01 0.  1.
</event>
<event>
 5   0  0.6199539E-03  0.1000659E+04  0.7818609E-02  0.9307823E-01
       -2   -1    0    0    0  501  0.00000000000E+00  0.00000000000E+00  0.39861603908E+03  0.39861603908E+03  0.25500000920E-02 0.  1.
        2   -1    0    0  501    0  0.00000000000E+00  0.00000000000E+00 -0.62799650295E+03  0.62799650295E+03  0.25500000920E-02 0. -1.
    10030    2    1    2    0    0  0.00000000000E+00  0.00000000000E+00 -0.22938046387E+03  0.10266125420E+04  0.10006587402E+04 0.  0.
        2    1    3    3  502    0  0.47420986858E+02  0.13431354385E+02  0.39611945283E+03  0.39917386211E+03  0.25500000920E-02 0.  1.
       -2    1    3    3    0  502 -0.47420986858E+02 -0.13431354385E+02 -0.62549991670E+03  0.62743867993E+03  0.25500000920E-02 0. -1.
</event>
<event>
 5   0  0.3643002E-03  0.1000013E+04  0.7818609E-02  0.9308531E-01
       -1   -1    0    0    0  501  0.00000000000E+00  0.00000000000E+00  0.81749604396E+03  0.81749604398E+03  0.50400001928E-02 0. -1.
        1   -1    0    0  501    0  0.00000000000E+00  0.00000000000E+00 -0.30581979221E+03  0.30581979225E+03  0.50400001928E-02 0.  1.
    10030    2    1    2    0    0  0.00000000000E+00  0.00000000000E+00  0.51167625175E+03  0.11233158362E+04  0.10000129406E+04 0.  0.
        2    1    3    3  502    0  0.30201568856E+03 -0.37973219596E+03  0.39155065253E+03  0.62347568540E+03  0.25500000920E-02 0. -1.
       -2    1    3    3    0  502 -0.30201568856E+03  0.37973219596E+03  0.12012559922E+03  0.49984015083E+03  0.25500000920E-02 0.  1.
</event>
<event>
 5   0  0.3640180E-03  0.9923907E+03  0.7818609E-02  0.9316930E-01
        1   -1    0    0  501    0  0.00000000000E+00  0.00000000000E+00  0.10740806850E+04  0.10740806851E+04  0.50400001928E-02 0. -1.
       -1   -1    0    0    0  501  0.00000000000E+00  0.00000000000E+00 -0.22922841147E+03  0.22922841153E+03  0.50400001928E-02 0.  1.
    10030    2    1    2    0    0  0.00000000000E+00  0.00000000000E+00  0.84485227357E+03  0.13033090966E+04  0.99239066757E+03 0.  0.
        5    1    3    3  502    0 -0.40218420974E+03  0.22723899545E+03  0.66026814646E+03  0.80583237391E+03  0.46999998093E+01 0. -1.
       -5    1    3    3    0  502  0.40218420974E+03 -0.22723899545E+03  0.18458412711E+03  0.49747672267E+03  0.46999998093E+01 0.  1.
</event>
<event>
 5   0  0.6606947E-03  0.1003301E+04  0.7818609E-02  0.9304931E-01
        2   -1    0    0  501    0  0.00000000000E+00  0.00000000000E+00  0.78624599031E+03  0.78624599031E+03  0.25500000920E-02 0. -1.
       -2   -1    0    0    0  501  0.00000000000E+00  0.00000000000E+00 -0.32006955790E+03  0.32006955791E+03  0.25500000920E-02 0.  1.
    10030    2    1    2    0    0  0.00000000000E+00  0.00000000000E+00  0.46617643240E+03  0.11063155482E+04  0.10033013636E+04 0.  0.
        1    1    3    3  502    0 -0.25798653997E+03  0.14995956600E+03 -0.21156271792E+03  0.36579189422E+03  0.50400001928E-02 0.  1.
       -1    1    3    3    0  502  0.25798653997E+03 -0.14995956600E+03  0.67773915032E+03  0.74052365400E+03  0.50400001928E-02 0. -1.
</event>
<event>
 5   0  0.6606947E-03  0.1048907E+04  0.7818609E-02  0.9256473E-01
       -2   -1    0    0    0  501  0.00000000000E+00  0.00000000000E+00  0.38315750055E+03  0.38315750056E+03  0.25500000920E-02 0. -1.
        2   -1    0    0  501    0  0.00000000000E+00  0.00000000000E+00 -0.71785509261E+03  0.71785509261E+03  0.25500000920E-02 0.  1.
    10030    2    1    2    0    0  0.00000000000E+00  0.00000000000E+00 -0.33469759205E+03  0.11010125932E+04  0.10489071704E+04 0.  0.
        1    1    3    3  502    0 -0.43633191480E+03  0.18718166893E+03  0.66493569382E+02  0.47942039157E+03  0.50400001928E-02 0. -1.
       -1    1    3    3    0  502  0.43633191480E+03 -0.18718166893E+03 -0.40119116144E+03  0.62159220161E+03  0.50400001928E-02 0.  1.
</event>
<event>
 5   0  0.6199539E-03  0.9920952E+03  0.7818609E-02  0.9317257E-01
        2   -1    0    0  501    0  0.00000000000E+00  0.00000000000E+00  0.87734733847E+03  0.87734733847E+03  0.25500000920E-02 0. -1.
       -2   -1    0    0    0  501  0.00000000000E+00  0.00000000000E+00 -0.28046274818E+03  0.28046274819E+03  0.25500000920E-02 0.  1.
    10030    2    1    2    0    0  0.00000000000E+00  0.00000000000E+00  0.59688459029E+03  0.11578100867E+04  0.99209524877E+03 0.  0.
        2    1    3    3  502    0  0.81565819928E+02 -0.35482905237E+03  0.69162511083E+03  0.78160215795E+03  0.25500000920E-02 0. -1.
       -2    1    3    3    0  502 -0.81565819928E+02  0.35482905237E+03 -0.94740520536E+02  0.37620792871E+03  0.25500000920E-02 0.  1.
</event>
<event>
 5   0  0.6022787E-03  0.9993602E+03  0.7818609E-02  0.9309247E-01
       -2   -1    0    0    0  501  0.00000000000E+00  0.00000000000E+00  0.33345785156E+03  0.33345785157E+03  0.25500000920E-02 0. -1.
        2   -1    0    0  501    0  0.00000000000E+00  0.00000000000E+00 -0.74876090118E+03  0.74876090119E+03  0.25500000920E-02 0.  1.
    10030    2    1    2    0    0  0.00000000000E+00  0.00000000000E+00 -0.41530304963E+03  0.10822187528E+04  0.99936019822E+03 0.  0.
        5    1    3    3  502    0  0.10932517870E+03  0.10083135900E+03  0.30890883483E+03  0.34287857310E+03  0.46999998093E+01 0. -1.
       -5    1    3    3    0  502 -0.10932517870E+03 -0.10083135900E+03 -0.72421188446E+03  0.73934017965E+03  0.46999998093E+01 0.  1.
</event>
<event>
 5   0  0.3569359E-03  0.1011876E+04  0.7818609E-02  0.9295614E-01
       -1   -1    0    0    0  501  0.00000000000E+00  0.00000000000E+00  0.34539093168E+03  0.34539093172E+03  0.50400001928E-02 0.  1.
        1   -1    0    0  501    0  0.00000000000E+00  0.00000000000E+00 -0.74111213934E+03  0.74111213935E+03  0.50400001928E-02 0. -1.
    10030    2    1    2    0    0  0.00000000000E+00  0.00000000000E+00 -0.39572120765E+03  0.10865030711E+04  0.10118763014E+04 0.  0.
        4    1    3    3  502    0 -0.26476678509E+03 -0.14195138737E+02  0.26481122159E+03  0.37473930729E+03  0.12699999809E+01 0.  1.
       -4    1    3    3    0  502  0.26476678509E+03  0.14195138737E+02 -0.66053242924E+03  0.71176376378E+03  0.12699999809E+01 0. -1.
</event>
<event>
 5   0  0.6606947E-03  0.9960477E+03  0.7818609E-02  0.9312890E-01
       -2   -1    0    0    0  501  0.00000000000E+00  0.00000000000E+00  0.27245487933E+03  0.27245487934E+03  0.25500000920E-02 0. -1.
        2   -1    0    0  501    0  0.00000000000E+00  0.00000000000E+00 -0.91034435485E+03  0.91034435485E+03  0.25500000920E-02 0.  1.
    10030    2    1    2    0    0  0.00000000000E+00  0.00000000000E+00 -0.63788947552E+03  0.11827992342E+04  0.99604771242E+03 0.  0.
        1    1    3    3  502    0  0.30383992754E+03 -0.38280816006E+03 -0.43264038885E+03  0.65271624391E+03  0.50400001928E-02 0. -1.
       -1    1    3    3    0  502 -0.30383992754E+03  0.38280816006E+03 -0.20524908667E+03  0.53008299028E+03  0.50400001928E-02 0.  1.
</event>
<event>
 5   0  0.3608845E-03  0.9994383E+03  0.7818609E-02  0.9309161E-01
        1   -1    0    0  501    0  0.00000000000E+00  0.00000000000E+00  0.13670972220E+04  0.13670972220E+04  0.50400001928E-02 0.  1.
       -1   -1    0    0    0  501  0.00000000000E+00  0.00000000000E+00 -0.18266384704E+03  0.18266384711E+03  0.50400001928E-02 0. -1.
    10030    2    1    2    0    0  0.00000000000E+00  0.00000000000E+00  0.11844333750E+04  0.15497610691E+04  0.99943831808E+03 0.  0.
        1    1    3    3  502    0 -0.20201295899E+03  0.31496722405E+03  0.78618776674E+02  0.38235389353E+03  0.50400001928E-02 0. -1.
       -1    1    3    3    0  502  0.20201295899E+03 -0.31496722405E+03  0.11058145983E+04  0.11674071756E+04  0.50400001928E-02 0.  1.
</event>
<event>
 5   0  0.3643002E-03  0.1008375E+04  0.7818609E-02  0.9299407E-01
       -1   -1    0    0    0  501  0.00000000000E+00  0.00000000000E+00  0.51487921206E+03  0.51487921208E+03  0.50400001928E-02 0.  1.
        1   -1    0    0  501    0  0.00000000000E+00  0.00000000000E+00 -0.49371735901E+03  0.49371735904E+03  0.50400001928E-02 0. -1.
    10030    2    1    2    0    0  0.00000000000E+00  0.00000000000E+00  0.21161853044E+02  0.10085965711E+04  0.10083745431E+04 0.  0.
        2    1    3    3  502    0  0.32841300786E+03 -0.25471604917E+03 -0.27491043212E+03  0.49830825312E+03  0.25500000920E-02 0. -1.
       -2    1    3    3    0  502 -0.32841300786E+03  0.25471604917E+03  0.29607228516E+03  0.51028831800E+03  0.25500000920E-02 0.  1.
</event>
<event>
 5   0  0.3608845E-03  0.1006234E+04  0.7818609E-02  0.9301734E-01
       -1   -1    0    0    0  501  0.00000000000E+00  0.00000000000E+00  0.71791896123E+03  0.71791896125E+03  0.50400001928E-02 0.  1.
        1   -1    0    0  501    0  0.00000000000E+00  0.00000000000E+00 -0.35258399324E+03  0.35258399328E+03  0.50400001928E-02 0. -1.
    10030    2    1    2    0    0  0.00000000000E+00  0.00000000000E+00  0.36533496799E+03  0.10705029545E+04  0.10062340368E+04 0.  0.
        1    1    3    3  502    0  0.23192778849E+03 -0.20723332404E+03 -0.23805349465E+03  0.39167028992E+03  0.50400001928E-02 0. -1.
       -1    1    3    3    0  502 -0.23192778849E+03  0.20723332404E+03  0.60338846264E+03  0.67883266460E+03  0.50400001928E-02 0.  1.
</event>
<event>
 5   0  0.3640180E-03  0.1009296E+04  0.7818609E-02  0.9298408E-01
       -1   -1    0    0    0  501  0.00000000000E+00  0.00000000000E+00  0.46916585258E+03  0.46916585260E+03  0.50400001928E-02 0.  1.
        1   -1    0    0  501    0  0.00000000000E+00  0.00000000000E+00 -0.54281335890E+03  0.54281335893E+03  0.50400001928E-02 0. -1.
    10030    2    1    2    0    0  0.00000000000E+00  0.00000000000E+00 -0.73647506324E+02  0.10119792115E+04  0.10092957789E+04 0.  0.
        5    1    3    3  502    0 -0.17414887083E+03 -0.45528039136E+03  0.94058118778E+02  0.49646458452E+03  0.46999998093E+01 0.  1.
       -5    1    3    3    0  502  0.17414887083E+03  0.45528039136E+03 -0.16770562510E+03  0.51551462701E+03  0.46999998093E+01 0. -1.
</event>
<event>
 5   0  0.3643002E-03  0.9832577E+03  0.7818609E-02  0.9327100E-01
       -1   -1    0    0    0  501  0.00000000000E+00  0.00000000000E+00  0.31846162634E+03  0.31846162638E+03  0.50400001928E-02 0.  1.
        1   -1    0    0  501    0  0.00000000000E+00  0.00000000000E+00 -0.75895780317E+03  0.75895780319E+03  0.50400001928E-02 0. -1.
    10030    2    1    2    0    0  0.00000000000E+00  0.00000000000E+00 -0.44049617683E+03  0.10774194296E+04  0.98325772075E+03 0.  0.
        2    1    3    3  502    0  0.31188086571E+03 -0.37917313207E+03 -0.24833470448E+03  0.55019275162E+03  0.25500000920E-02 0.  1.
       -2    1    3    3    0  502 -0.31188086571E+03  0.37917313207E+03 -0.19216147235E+03  0.52722667795E+03  0.25500000920E-02 0. -1.
</event>
<event>
 5   0  0.6606947E-03  0.9925486E+03  0.7818609E-02  0.9316755E-01
       -2   -1    0    0    0  501  0.00000000000E+00  0.00000000000E+00  0.72937103466E+03  0.72937103466E+03  0.25500000920E-02 0.  1.
        2   -1    0    0  501    0  0.00000000000E+00  0.00000000000E+00 -0.33767199778E+03  0.33767199779E+03  0.25500000920E-02 0. -1.
    10030    2    1    2    0    0  0.00000000000E+00  0.00000000000E+00  0.39169903688E+03  0.10670430325E+04  0.99254858703E+03 0.  0.
        1    1    3    3  502    0  0.33441555999E+03 -0.36506954877E+03  0.15894162101E+03  0.51997305807E+03  0.50400001928E-02 0.  1.
       -1    1    3    3    0  502 -0.33441555999E+03  0.36506954877E+03  0.23275741587E+03  0.54706997438E+03  0.50400001928E-02 0. -1.
</event>
<event>
 5   0  0.6376961E-03  0.9941936E+03  0.7818609E-02  0.9314936E-01
        2   -1    0    0  501    0  0.00000000000E+00  0.00000000000E+00  0.21910443801E+04  0.21910443801E+04  0.25500000920E-02 0. -1.
       -2   -1    0    0    0  501  0.00000000000E+00  0.00000000000E+00 -0.11277965024E+03  0.11277965027E+03  0.25500000920E-02 0.  1.
    10030    2    1    2    0    0  0.00000000000E+00  0.00000000000E+00  0.20782647299E+04  0.23038240304E+04  0.99419358052E+03 0.  0.
        3    1    3    3  502    0  0.18678800958E+03  0.18922993849E+03  0.65854501845E+02  0.27392436139E+03  0.10100000352E+00 0.  1.
       -3    1    3    3    0  502 -0.18678800958E+03 -0.18922993849E+03  0.20124102280E+04  0.20298996690E+04  0.10100000352E+00 0. -1.
</event>
<event>
 5   0  0.3608845E-03  0.1003706E+04  0.7818609E-02  0.9304489E-01
        1   -1    0    0  501    0  0.00000000000E+00  0.00000000000E+00  0.27681991596E+03  0.27681991600E+03  0.50400001928E-02 0.  1.
       -1   -1    0    0    0  501  0.00000000000E+00  0.00000000000E+00 -0.90982084809E+03  0.90982084810E+03  0.50400001928E-02 0. -1.
    10030    2    1    2    0    0  0.00000000000E+00  0.00000000000E+00 -0.63300093213E+03  0.11866407641E+04  0.10037061935E+04 0.  0.
        1    1    3    3  502    0  0.23405777553E+03  0.44292282096E+03 -0.35182733090E+03  0.61216512348E+03  0.50400001928E-02 0.  1.
       -1    1    3    3    0  502 -0.23405777553E+03 -0.44292282096E+03 -0.28117360123E+03  0.57447564062E+03  0.50400001928E-02 0. -1.
</event>
<event>
 5   0  0.3643002E-03  0.9982255E+03  0.7818609E-02  0.9310493E-01
        1   -1    0    0  501    0  0.00000000000E+00  0.00000000000E+00  0.15459883907E+04  0.15459883907E+04  0.50400001928E-02 0.  1.
       -1   -1    0    0    0  501  0.00000000000E+00  0.00000000000E+00 -0.16113544936E+03  0.16113544944E+03  0.50400001928E-02 0. -1.
    10030    2    1    2    0    0  0.00000000000E+00  0.00000000000E+00  0.13848529414E+04  0.17071238402E+04  0.99822549381E+03 0.  0.
        2    1    3    3  502    0  0.77778580858E+02  0.44584299942E+03  0.33252830628E+03  0.56160534387E+03  0.25500000920E-02 0.  1.
       -2    1    3    3    0  502 -0.77778580858E+02 -0.44584299942E+03  0.10523246351E+04  0.11455184963E+04  0.25500000920E-02 0. -1.
</event>
<event>
 5   0  0.2417750E-03  0.9995180E+03  0.7818609E-02  0.9309074E-01
       -3   -1    0    0    0  501  0.00000000000E+00  0.00000000000E+00  0.38731620015E+03  0.38731621332E+03  0.10100000352E+00 0.  1.
        3   -1    0    0  501    0  0.00000000000E+00  0.00000000000E+00 -0.64484529285E+03  0.64484530076E+03  0.10100000352E+00 0. -1.
    10030    2    1    2    0    0  0.00000000000E+00  0.00000000000E+00 -0.25752909270E+03  0.10321615141E+04  0.99951796260E+03 0.  0.
        1    1    3    3  502    0  0.19088102357E+03  0.38306742506E+03  0.13769921715E+03  0.44959681018E+03  0.50400001928E-02 0.  1.
       -1    1    3    3    0  502 -0.19088102357E+03 -0.38306742506E+03 -0.39522830985E+03  0.58256470390E+03  0.50400001928E-02 0. -1.
</event>
<event>
 5   0  0.3608845E-03  0.9497838E+03  0.7818609E-02  0.9365403E-01
        1   -1    0    0  501    0  0.00000000000E+00  0.00000000000E+00  0.37146316196E+03  0.37146316199E+03  0.50400001928E-02 0. -1.
       -1   -1    0    0    0  501  0.00000000000E+00  0.00000000000E+00 -0.60711887835E+03  0.60711887837E+03  0.50400001928E-02 0.  1.
    10030    2    1    2    0    0  0.00000000000E+00  0.00000000000E+00 -0.23565571639E+03  0.97858204036E+03  0.94978376120E+03 0.  0.
        1    1    3    3  502    0  0.13516740171E+03  0.20744420303E+03  0.29969876080E+03  0.38874499496E+03  0.50400001928E-02 0. -1.
       -1    1    3    3    0  502 -0.13516740171E+03 -0.20744420303E+03 -0.53535447719E+03  0.58983704540E+03  0.50400001928E-02 0.  1.
</event>
<event>
 5   0  0.3643002E-03  0.1003662E+04  0.7818609E-02  0.9304538E-01
        1   -1    0    0  501    0  0.00000000000E+00  0.00000000000E+00  0.66049194707E+03  0.66049194709E+03  0.50400001928E-02 0. -1.
       -1   -1    0    0    0  501  0.00000000000E+00  0.00000000000E+00 -0.38128280467E+03  0.38128280470E+03  0.50400001928E-02 0.  1.
    10030    2    1    2    0    0  0.00000000000E+00  0.00000000000E+00  0.27920914240E+03  0.10417747518E+04  0.10036617400E+04 0.  0.
        2    1    3    3  502    0 -0.41354303678E+03  0.26789762803E+03  0.40875623765E+02  0.49442673774E+03  0.25500000920E-02 0.  1.
       -2    1    3    3    0  502  0.41354303678E+03 -0.26789762803E+03  0.23833351864E+03  0.54734801405E+03  0.25500000920E-02 0. -1.
</event>
<event>
 5   0  0.3466598E-03  0.9959421E+03  0.7818609E-02  0.9313007E-01
        1   -1    0    0  501    0  0.00000000000E+00  0.00000000000E+00  0.39305193098E+03  0.39305193102E+03  0.50400001928E-02 0. -1.
       -1   -1    0    0    0  501  0.00000000000E+00  0.00000000000E+00 -0.63089668064E+03  0.63089668066E+03  0.50400001928E-02 0.  1.
    10030    2    1    2    0    0  0.00000000000E+00  0.00000000000E+00 -0.23784474965E+03  0.10239486117E+04  0.99594208386E+03 0.  0.
        3    1    3    3  502    0 -0.59801716444E+02  0.45168097056E+03  0.87684354945E+02  0.46398329793E+03  0.10100000352E+00 0. -1.
       -3    1    3    3    0  502  0.59801716444E+02 -0.45168097056E+03 -0.32552910460E+03  0.55996531374E+03  0.10100000352E+00 0.  1.
</event>
<event>
 5   0  0.6606947E-03  0.9903659E+03  0.7818609E-02  0.9319175E-01
        2   -1    0    0  501    0  0.00000000000E+00  0.00000000000E+00  0.13156499727E+04  0.13156499727E+04  0.25500000920E-02 0. -1.
       -2   -1    0    0    0  501  0.00000000000E+00  0.00000000000E+00 -0.18637642421E+03  0.18637642423E+03  0.25500000920E-02 0.  1.
    10030    2    1    2    0    0  0.00000000000E+00  0.00000000000E+00  0.11292735484E+04  0.15020263969E+04  0.99036586661E+03 0.  0.
        1    1    3    3  502    0 -0.29554098609E+03 -0.24419145731E+03  0.10399816601E+04  0.11083933398E+04  0.50400001928E-02 0. -1.
       -1    1    3    3    0  502  0.29554098609E+03  0.24419145731E+03  0.89291888292E+02  0.39363305707E+03  0.50400001928E-02 0.  1.
</event>
<event>
 5   0  0.3640180E-03  0.1010182E+04  0.7818609E-02  0.9297448E-01
        1   -1    0    0  501    0  0.00000000000E+00  0.00000000000E+00  0.15470317569E+04  0.15470317569E+04  0.50400001928E-02 0.  1.
       -1   -1    0    0    0  501  0.00000000000E+00  0.00000000000E+00 -0.16490719936E+03  0.16490719944E+03  0.50400001928E-02 0. -1.
    10030    2    1    2    0    0  0.00000000000E+00  0.00000000000E+00  0.13821245575E+04  0.17119389563E+04  0.10101815172E+04 0.  0.
        5    1    3    3  502    0 -0.39448183989E+03 -0.29427252045E+03  0.49871487067E+03  0.70067884977E+03  0.46999998093E+01 0. -1.
       -5    1    3    3    0  502  0.39448183989E+03  0.29427252045E+03  0.88340968686E+03  0.10112601066E+04  0.46999998093E+01 0.  1.
</event>
<event>
 5   0  0.6199539E-03  0.9987083E+03  0.7818609E-02  0.9309963E-01
       -2   -1    0    0    0  501  0.00000000000E+00  0.00000000000E+00  0.43542323125E+03  0.43542323125E+03  0.25500000920E-02 0.  1.
        2   -1    0    0  501    0  0.00000000000E+00  0.00000000000E+00 -0.57267170665E+03  0.57267170665E+03  0.25500000920E-02 0. -1.
    10030    2    1    2    0    0  0.00000000000E+00  0.00000000000E+00 -0.13724847540E+03  0.10080949379E+04  0.99870829567E+03 0.  0.
        2    1    3    3  502    0  0.11815724172E+03 -0.18114524693E+03 -0.52294321554E+03  0.56590135266E+03  0.25500000920E-02 0. -1.
       -2    1    3    3    0  502 -0.11815724172E+03  0.18114524693E+03  0.38569474014E+03  0.44219358525E+03  0.25500000920E-02 0.  1.
</event>
<event>
 5   0  0.3643002E-03  0.9565623E+03  0.7818609E-02  0.9357513E-01
        1   -1    0    0  501    0  0.00000000000E+00  0.00000000000E+00  0.94986789211E+03  0.94986789212E+03  0.50400001928E-02 0.  1.
       -1   -1    0    0    0  501  0.00000000000E+00  0.00000000000E+00 -0.24082597322E+03  0.24082597327E+03  0.50400001928E-02 0. -1.
    10030    2    1    2    0    0  0.00000000000E+00  0.00000000000E+00  0.70904191889E+03  0.11906938654E+04  0.95656230238E+03 0.  0.
        2    1    3    3  502    0  0.44062870381E+03  0.17885307986E+03  0.29091877121E+03  0.55747269911E+03  0.25500000920E-02 0. -1.
       -2    1    3    3    0  502 -0.44062870381E+03 -0.17885307986E+03  0.41812314768E+03  0.63322116628E+03  0.25500000920E-02 0.  1.
</event>
<event>
 5   0  0.6376961E-03  0.9966127E+03  0.7818609E-02  0.9312268E-01
        2   -1    0    0  501    0  0.00000000000E+00  0.00000000000E+00  0.18967167880E+04  0.18967167880E+04  0.25500000920E-02 0.  1.
       -2   -1    0    0    0  501  0.00000000000E+00  0.00000000000E+00 -0.13091527932E+03  0.13091527935E+03  0.25500000920E-02 0. -1.
    10030    2    1    2    0    0  0.00000000000E+00  0.00000000000E+00  0.17658015087E+04  0.20276320674E+04  0.99661267929E+03 0.  0.
        3    1    3    3  502    0  0.11261073133E+03 -0.44391882814E+03  0.12824352810E+04  0.13617581881E+04  0.10100000352E+00 0.  1.
       -3    1    3    3    0  502 -0.11261073133E+03  0.44391882814E+03  0.48336622774E+03  0.66587387928E+03  0.10100000352E+00 0. -1.
</event>
<event>
 5   0  0.3608845E-03  0.1016317E+04  0.7818609E-02  0.9290827E-01
       -1   -1    0    0    0  501  0.00000000000E+00  0.00000000000E+00  0.61836361611E+03  0.61836361613E+03  0.50400001928E-02 0.  1.
        1   -1    0    0  501    0  0.00000000000E+00  0.00000000000E+00 -0.41759426044E+03  0.41759426047E+03  0.50400001928E-02 0. -1.
    10030    2    1    2    0    0  0.00000000000E+00  0.00000000000E+00  0.20076935566E+03  0.10359578766E+04  0.10163170706E+04 0.  0.
        1    1    3    3  502    0  0.35061635864E+03  0.34146604592E+03  0.23975374164E+03  0.54498875962E+03  0.50400001928E-02 0.  1.
       -1    1    3    3    0  502 -0.35061635864E+03 -0.34146604592E+03 -0.38984385973E+02  0.49096911698E+03  0.50400001928E-02 0. -1.
</event>
<event>
 5   0  0.6376961E-03  0.1007184E+04  0.7818609E-02  0.9300700E-01
        2   -1    0    0  501    0  0.00000000000E+00  0.00000000000E+00  0.94332015063E+03  0.94332015063E+03  0.25500000920E-02 0.  1.
       -2   -1    0    0    0  501  0.00000000000E+00  0.00000000000E+00 -0.26884290725E+03  0.26884290726E+03  0.25500000920E-02 0. -1.
    10030    2    1    2    0    0  0.00000000000E+00  0.00000000000E+00  0.67447724338E+03  0.12121630579E+04  0.10071840582E+04 0.  0.
        3    1    3    3  502    0  0.91692361341E+02 -0.42760911987E+03  0.63775145444E+03  0.77329423660E+03  0.10100000352E+00 0.  1.
       -3    1    3    3    0  502 -0.91692361341E+02  0.42760911987E+03  0.36725788943E+02  0.43886882129E+03  0.10100000352E+00 0. -1.
</event>
<event>
 5   0  0.3466598E-03  0.9908923E+03  0.7818609E-02  0.9318591E-01
        1   -1    0    0  501    0  0.00000000000E+00  0.00000000000E+00  0.55331694108E+03  0.55331694110E+03  0.50400001928E-02 0. -1.
       -1   -1    0    0    0  501  0.00000000000E+00  0.00000000000E+00 -0.44362799842E+03  0.44362799845E+03  0.50400001928E-02 0.  1.
    10030    2    1    2    0    0  0.00000000000E+00  0.00000000000E+00  0.10968894266E+03  0.99694493955E+03  0.99089229907E+03 0.  0.
        3    1    3    3  502    0 -0.40357748400E+03 -0.86934862703E+02  0.33044178985E+03  0.52879508567E+03  0.10100000352E+00 0. -1.
       -3    1    3    3    0  502  0.40357748400E+03  0.86934862703E+02 -0.22075284719E+03  0.46814985388E+03  0.10100000352E+00 0.  1.
</event>
<event>
 5   0  0.3640180E-03  0.1008056E+04  0.7818609E-02  0.9299753E-01
        1   -1    0    0  501    0  0.00000000000E+00  0.00000000000E+00  0.10347475857E+04  0.10347475857E+04  0.50400001928E-02 0.  1.
       -1   -1    0    0    0  501  0.00000000000E+00  0.00000000000E+00 -0.24551322914E+03  0.24551322920E+03  0.50400001928E-02 0. -1.
    10030    2    1    2    0    0  0.00000000000E+00  0.00000000000E+00  0.78923435655E+03  0.12802608149E+04  0.10080559928E+04 0.  0.
        5    1    3    3  502    0 -0.37297305870E+03  0.33816527650E+03  0.36463064461E+03  0.62164479708E+03  0.46999998093E+01 0.  1.
       -5    1    3    3    0  502  0.37297305870E+03 -0.33816527650E+03  0.42460371195E+03  0.65861601783E+03  0.46999998093E+01 0. -1.
</event>
<event>
 5   0  0.3466598E-03  0.9990725E+03  0.7818609E-02  0.9309563E-01
        1   -1    0    0  501    0  0.00000000000E+00  0.00000000000E+00  0.18928102964E+04  0.18928102964E+04  0.50400001928E-02 0. -1.
       -1   -1    0    0    0  501  0.00000000000E+00  0.00000000000E+00 -0.13183383854E+03  0.13183383863E+03  0.50400001928E-02 0.  1.
    10030    2    1    2    0    0  0.00000000000E+00  0.00000000000E+00  0.17609764579E+04  0.20246441350E+04  0.99907246404E+03 0.  0.
        3    1    3    3  502    0  0.71359539167E+02  0.72392213055E+02  0.18716295555E+04  0.18743879053E+04  0.10100000352E+00 0. -1.
       -3    1    3    3    0  502 -0.71359539167E+02 -0.72392213055E+02 -0.11065309767E+03  0.15025622970E+03  0.10100000352E+00 0.  1.
</event>
<event>
 5   0  0.6022787E-03  0.1064744E+04  0.7818609E-02  0.9240253E-01
        2   -1    0    0  501    0  0.00000000000E+00  0.00000000000E+00  0.11431056554E+04  0.11431056554E+04  0.25500000920E-02 0. -1.
       -2   -1    0    0    0  501  0.00000000000E+00  0.00000000000E+00 -0.24793865426E+03  0.24793865428E+03  0.25500000920E-02 0.  1.
    10030    2    1    2    0    0  0.00000000000E+00  0.00000000000E+00  0.89516700114E+03  0.13910443097E+04  0.10647442470E+04 0.  0.
        5    1    3    3  502    0  0.41191140089E+03  0.11495050711E+03  0.86178109441E+03  0.96206723567E+03  0.46999998093E+01 0. -1.
       -5    1    3    3    0  502 -0.41191140089E+03 -0.11495050711E+03  0.33385906729E+02  0.42897707401E+03  0.46999998093E+01 0.  1.
</event>
<event>
 5   0  0.6606947E-03  0.9788152E+03  0.7818609E-02  0.9332090E-01
        2   -1    0    0  501    0  0.00000000000E+00  0.00000000000E+00  0.37010624599E+03  0.37010624600E+03  0.25500000920E-02 0. -1.
       -2   -1    0    0    0  501  0.00000000000E+00  0.00000000000E+00 -0.64716490850E+03  0.64716490850E+03  0.25500000920E-02 0.  1.
    10030    2    1    2    0    0  0.00000000000E+00  0.00000000000E+00 -0.27705866251E+03  0.10172711545E+04  0.97881515074E+03 0.  0.
        1    1    3    3  502    0 -0.31550153037E+03 -0.11348928016E+03 -0.50904508108E+03  0.60954731315E+03  0.50400001928E-02 0.  1.
       -1    1    3    3    0  502  0.31550153037E+03  0.11348928016E+03  0.23198641857E+03  0.40772384135E+03  0.50400001928E-02 0. -1.
</event>
<event>
 5   0  0.6606947E-03  0.9837609E+03  0.7818609E-02  0.9326537E-01
       -2   -1    0    0    0  501  0.00000000000E+00  0.00000000000E+00  0.49770542577E+03  0.49770542577E+03  0.25500000920E-02 0.  1.
        2   -1    0    0  501    0  0.00000000000E+00  0.00000000000E+00 -0.48612368887E+03  0.48612368887E+03  0.25500000920E-02 0. -1.
    10030    2    1    2    0    0  0.00000000000E+00  0.00000000000E+00  0.11581736902E+02  0.98382911465E+03  0.98376094159E+03 0.  0.
        1    1    3    3  502    0 -0.62140300304E+02 -0.27513953973E+03  0.40878680001E+03  0.49665866662E+03  0.50400001928E-02 0.  1.
       -1    1    3    3    0  502  0.62140300304E+02  0.27513953973E+03 -0.39720506311E+03  0.48717044802E+03  0.50400001928E-02 0. -1.
</event>
<event>
 5   0  0.3643002E-03  0.9775686E+03  0.7818609E-02  0.9333495E-01
       -1   -1    0    0    0  501  0.00000000000E+00  0.00000000000E+00  0.14508323570E+03  0.14508323578E+03  0.50400001928E-02 0. -1.
        1   -1    0    0  501    0  0.00000000000E+00  0.00000000000E+00 -0.16467105243E+04  0.16467105243E+04  0.50400001928E-02 0.  1.
    10030    2    1    2    0    0  0.00000000000E+00  0.00000000000E+00 -0.15016272886E+04  0.17917937601E+04  0.97756859852E+03 0.  0.
        2    1    3    3  502    0 -0.28668729017E+03  0.25004976672E+03 -0.13133571204E+04  0.13673410013E+04  0.25500000920E-02 0.  1.
       -2    1    3    3    0  502  0.28668729017E+03 -0.25004976672E+03 -0.18827016820E+03  0.42445275876E+03  0.25500000920E-02 0. -1.
</event>
<event>
 5   0  0.2417750E-03  0.1001994E+04  0.7818609E-02  0.9306361E-01
        4   -1    0    0  501    0  0.00000000000E+00  0.00000000000E+00  0.77818441491E+03  0.77818545123E+03  0.12699999809E+01 0.  1.
       -4   -1    0    0    0  501  0.00000000000E+00  0.00000000000E+00 -0.32254032309E+03  0.32254282339E+03  0.12699999809E+01 0. -1.
    10030    2    1    2    0    0  0.00000000000E+00  0.00000000000E+00  0.45564409182E+03  0.11007282746E+04  0.10019936108E+04 0.  0.
        1    1    3    3  502    0 -0.17238056067E+03 -0.18146170537E+03 -0.24894150363E+03  0.35300889573E+03  0.50400001928E-02 0. -1.
       -1    1    3    3    0  502  0.17238056067E+03  0.18146170537E+03  0.70458559545E+03  0.74771937888E+03  0.50400001928E-02 0.  1.
</event>
<event>
 5   0  0.6199539E-03  0.9955968E+03  0.7818609E-02  0.9313387E-01
       -2   -1    0    0    0  501  0.00000000000E+00  0.00000000000E+00  0.56951229511E+03  0.56951229512E+03  0.25500000920E-02 0. -1.
        2   -1    0    0  501    0  0.00000000000E+00  0.00000000000E+00 -0.43511481207E+03  0.43511481208E+03  0.25500000920E-02 0.  1.
    10030    2    1    2    0    0  0.00000000000E+00  0.00000000000E+00  0.13439748304E+03  0.10046271072E+04  0.99559677635E+03 0.  0.
        2    1    3    3  502    0  0.47461579982E+03 -0.85026355628E+02  0.19206928813E+03  0.51901854499E+03  0.25500000920E-02 0. -1.
       -2    1    3    3    0  502 -0.47461579982E+03  0.85026355628E+02 -0.57671805090E+02  0.48560856222E+03  0.25500000920E-02 0.  1.
</event>
<event>
 5   0  0.3640180E-03  0.1025189E+04  0.7818609E-02  0.9281342E-01
       -1   -1    0    0    0  501  0.00000000000E+00  0.00000000000E+00  0.31779389373E+03  0.31779389377E+03  0.50400001928E-02 0. -1.
        1   -1    0    0  501    0  0.00000000000E+00  0.00000000000E+00 -0.82680303666E+03  0.82680303668E+03  0.50400001928E-02 0.  1.
    10030    2    1    2    0    0  0.00000000000E+00  0.00000000000E+00 -0.50900914293E+03  0.11445969304E+04  0.10251886781E+04 0.  0.
        5    1    3    3  502    0  0.34763900797E+03 -0.37147442155E+03 -0.32409184037E+03  0.60324434247E+03  0.46999998093E+01 0. -1.
       -5    1    3    3    0  502 -0.34763900797E+03  0.37147442155E+03 -0.18491730255E+03  0.54135258798E+03  0.46999998093E+01 0.  1.
</event>
<event>
 5   0  0.3569359E-03  0.9230400E+03  0.7818609E-02  0.9397230E-01
        1   -1    0    0  501    0  0.00000000000E+00  0.00000000000E+00  0.27027558958E+03  0.27027558963E+03  0.50400001928E-02 0. -1.
       -1   -1    0    0    0  501  0.00000000000E+00  0.00000000000E+00 -0.78808706835E+03  0.78808706837E+03  0.50400001928E-02 0.  1.
    10030    2    1    2    0    0  0.00000000000E+00  0.00000000000E+00 -0.51781147877E+03  0.10583626580E+04  0.92303997113E+03 0.  0.
        4    1    3    3  502    0 -0.22125496953E+03 -0.78626292750E+02 -0.71447508212E+03  0.75207187910E+03  0.12699999809E+01 0.  1.
       -4    1    3    3    0  502  0.22125496953E+03  0.78626292750E+02  0.19666360336E+03  0.30629077890E+03  0.12699999809E+01 0. -1.
</event>
<event>
 5   0  0.3466598E-03  0.9937553E+03  0.7818609E-02  0.9315421E-01
       -1   -1    0    0    0  501  0.00000000000E+00  0.00000000000E+00  0.24855652165E+03  0.24855652170E+03  0.50400001928E-02 0. -1.
        1   -1    0    0  501    0  0.00000000000E+00  0.00000000000E+00 -0.99328473392E+03  0.99328473394E+03  0.50400001928E-02 0.  1.
    10030    2    1    2    0    0  0.00000000000E+00  0.00000000000E+00 -0.74472821227E+03  0.12418412556E+04  0.99375529888E+03 0.  0.
        3    1    3    3  502    0  0.67201218069E+02  0.23272466739E+02 -0.98689187715E+03  0.98945095826E+03  0.10100000352E+00 0.  1.
       -3    1    3    3    0  502 -0.67201218069E+02 -0.23272466739E+02  0.24216366488E+03  0.25239029737E+03  0.10100000352E+00 0. -1.
</event>
<event>
 5   0  0.3466598E-03  0.9669800E+03  0.7818609E-02  0.9345521E-01
        1   -1    0    0  501    0  0.00000000000E+00  0.00000000000E+00  0.23465934354E+03  0.23465934359E+03  0.50400001928E-02 0.  1.
       -1   -1    0    0    0  501  0.00000000000E+00  0.00000000000E+00 -0.99617840012E+03  0.99617840013E+03  0.50400001928E-02 0. -1.
    10030    2    1    2    0    0  0.00000000000E+00  0.00000000000E+00 -0.76151905658E+03  0.12308377437E+04  0.96697997799E+03 0.  0.
        3    1    3    3  502    0 -0.10876427131E+03 -0.44930256113E+03 -0.56104049679E+03  0.72695866965E+03  0.10100000352E+00 0.  1.
       -3    1    3    3    0  502  0.10876427131E+03  0.44930256113E+03 -0.20047855980E+03  0.50387907407E+03  0.10100000352E+00 0. -1.
</event>
<event>
 5   0  0.6199539E-03  0.9941973E+03  0.7818609E-02  0.9314932E-01
       -2   -1    0    0    0  501  0.00000000000E+00  0.00000000000E+00  0.52013050633E+03  0.52013050634E+03  0.25500000920E-02 0. -1.
        2   -1    0    0  501    0  0.00000000000E+00  0.00000000000E+00 -0.47508663016E+03  0.47508663017E+03  0.25500000920E-02 0.  1.
    10030    2    1    2    0    0  0.00000000000E+00  0.00000000000E+00  0.45043876171E+02  0.99521713650E+03  0.99419726313E+03 0.  0.
        2    1    3    3  502    0 -0.32078424065E+03  0.43406207650E+02 -0.35511884801E+03  0.48051641400E+03  0.25500000920E-02 0.  1.
       -2    1    3    3    0  502  0.32078424065E+03 -0.43406207650E+02  0.40016272418E+03  0.51470072250E+03  0.25500000920E-02 0. -1.
</event>
<event>
 5   0  0.6199539E-03  0.1041358E+04  0.7818609E-02  0.9264313E-01
       -2   -1    0    0    0  501  0.00000000000E+00  0.00000000000E+00  0.19492268918E+03  0.19492268920E+03  0.25500000920E-02 0. -1.
        2   -1    0    0  501    0  0.00000000000E+00  0.00000000000E+00 -0.13908406059E+04  0.13908406059E+04  0.25500000920E-02 0.  1.
    10030    2    1    2    0    0  0.00000000000E+00  0.00000000000E+00 -0.11959179167E+04  0.15857632951E+04  0.10413575585E+04 0.  0.
        2    1    3    3  502    0  0.15002192750E+03  0.43534800907E+03 -0.96806744490E+03  0.10720023534E+04  0.25500000920E-02 0.  1.
       -2    1    3    3    0  502 -0.15002192750E+03 -0.43534800907E+03 -0.22785047181E+03  0.51376094173E+03  0.25500000920E-02 0. -1.
</event>
<event>
 5   0  0.3569359E-03  0.9961011E+03  0.7818609E-02  0.9312831E-01
        1   -1    0    0  501    0  0.00000000000E+00  0.00000000000E+00  0.75639429440E+03  0.75639429442E+03  0.50400001928E-02 0.  1.
       -1   -1    0    0    0  501  0.00000000000E+00  0.00000000000E+00 -0.32794321025E+03  0.32794321029E+03  0.50400001928E-02 0. -1.
    10030    2    1    2    0    0  0.00000000000E+00  0.00000000000E+00  0.42845108415E+03  0.10843375047E+04  0.99610114578E+03 0.  0.
        4    1    3    3  502    0 -0.11689570051E+03 -0.11426955278E+03 -0.29790631818E+03  0.33981159898E+03  0.12699999809E+01 0. -1.
       -4    1    3    3    0  502  0.11689570051E+03  0.11426955278E+03  0.72635740233E+03  0.74452590573E+03  0.12699999809E+01 0.  1.
</event>
<event>
 5   0  0.3608845E-03  0.1005016E+04  0.7818609E-02  0.9303061E-01
        1   -1    0    0  501    0  0.00000000000E+00  0.00000000000E+00  0.10963331233E+04  0.10963331233E+04  0.50400001928E-02 0. -1.
       -1   -1    0    0    0  501  0.00000000000E+00  0.00000000000E+00 -0.23032614564E+03  0.23032614569E+03  0.50400001928E-02 0.  1.
    10030    2    1    2    0    0  0.00000000000E+00  0.00000000000E+00  0.86600697766E+03  0.13266592690E+04  0.10050157863E+04 0.  0.
        1    1    3    3  502    0  0.29299179219E+03 -0.25554573715E+03  0.85327839156E+03  0.93767362531E+03  0.50400001928E-02 0. -1.
       -1    1    3    3    0  502 -0.29299179219E+03  0.25554573715E+03  0.12728586093E+02  0.38898564369E+03  0.50400001928E-02 0.  1.
</event>
<event>
 5   0  0.3608845E-03  0.1003496E+04  0.7818609E-02  0.9304718E-01
       -1   -1    0    0    0  501  0.00000000000E+00  0.00000000000E+00  0.33724120086E+03  0.33724120089E+03  0.50400001928E-02 0. -1.
        1   -1    0    0  501    0  0.00000000000E+00  0.00000000000E+00 -0.74650184242E+03  0.74650184243E+03  0.50400001928E-02 0.  1.
    10030    2    1    2    0    0  0.00000000000E+00  0.00000000000E+00 -0.40926064156E+03  0.10837430433E+04  0.10034962438E+04 0.  0.
        1    1    3    3  502    0  0.33928946594E+03  0.33131688532E+03 -0.27624525908E+02  0.47502771988E+03  0.50400001928E-02 0. -1.
       -1    1    3    3    0  502 -0.33928946594E+03 -0.33131688532E+03 -0.38163611565E+03  0.60871532344E+03  0.50400001928E-02 0.  1.
</event>
<event>
 5   0  0.2417750E-03  0.9906262E+03  0.7818609E-02  0.9318886E-01
        3   -1    0    0  501    0  0.00000000000E+00  0.00000000000E+00  0.40475645218E+03  0.40475646478E+03  0.10100000352E+00 0.  1.
       -3   -1    0    0    0  501  0.00000000000E+00  0.00000000000E+00 -0.60613001580E+03  0.60613002421E+03  0.10100000352E+00 0. -1.
    10030    2    1    2    0    0  0.00000000000E+00  0.00000000000E+00 -0.20137356361E+03  0.10108864890E+04  0.99062615628E+03 0.  0.
        1    1    3    3  502    0  0.23856149910E+03 -0.61544413512E+02  0.33779392471E+03  0.41809572981E+03  0.50400001928E-02 0.  1.
       -1    1    3    3    0  502 -0.23856149910E+03  0.61544413512E+02 -0.53916748832E+03  0.59279075919E+03  0.50400001928E-02 0. -1.
</event>
<event>
 5   0  0.3640180E-03  0.9576326E+03  0.7818609E-02  0.9356273E-01
        1   -1    0    0  501    0  0.00000000000E+00  0.00000000000E+00  0.11513346239E+04  0.11513346239E+04  0.50400001928E-02 0. -1.
       -1   -1    0    0    0  501  0.00000000000E+00  0.00000000000E+00 -0.19912982077E+03  0.19912982083E+03  0.50400001928E-02 0.  1.
    10030    2    1    2    0    0  0.00000000000E+00  0.00000000000E+00  0.95220480313E+03  0.13504644447E+04  0.95763261714E+03 0.  0.
        5    1    3    3  502    0 -0.13112108313E+03  0.19528180356E+03  0.10642049381E+04  0.10898999777E+04  0.46999998093E+01 0. -1.
       -5    1    3    3    0  502  0.13112108313E+03 -0.19528180356E+03 -0.11200013495E+03  0.26056446701E+03  0.46999998093E+01 0.  1.
</event>
<event>
 5   0  0.6606947E-03  0.1007169E+04  0.7818609E-02  0.9300717E-01
       -2   -1    0    0    0  501  0.00000000000E+00  0.00000000000E+00  0.77521037313E+03  0.77521037313E+03  0.25500000920E-02 0.  1.
        2   -1    0    0  501    0  0.00000000000E+00  0.00000000000E+00 -0.32713360053E+03  0.32713360054E+03  0.25500000920E-02 0. -1.
    10030    2    1    2    0    0  0.00000000000E+00  0.00000000000E+00  0.44807677260E+03  0.11023439737E+04  0.10071690236E+04 0.  0.
        1    1    3    3  502    0 -0.35775529365E+03 -0.32012201403E+02 -0.16228005095E+03  0.39414267231E+03  0.50400001928E-02 0. -1.
       -1    1    3    3    0  502  0.35775529365E+03  0.32012201403E+02  0.61035682355E+03  0.70820130136E+03  0.50400001928E-02 0.  1.
</event>
<event>
 5   0  0.6376961E-03  0.1004959E+04  0.7818609E-02  0.9303122E-01
       -2   -1    0    0    0  501  0.00000000000E+00  0.00000000000E+00  0.25801426056E+03  0.25801426057E+03  0.25500000920E-02 0.  1.
        2   -1    0    0  501    0  0.00000000000E+00  0.00000000000E+00 -0.97857258524E+03  0.97857258524E+03  0.25500000920E-02 0. -1.
    10030    2    1    2    0    0  0.00000000000E+00  0.00000000000E+00 -0.72055832468E+03  0.12365868458E+04  0.10049590678E+04 0.  0.
        3    1    3    3  502    0 -0.20754400617E+03  0.47440273246E+02  0.19977471203E+03  0.29195040639E+03  0.10100000352E+00 0.  1.
       -3    1    3    3    0  502  0.20754400617E+03 -0.47440273246E+02 -0.92033303671E+03  0.94463643943E+03  0.10100000352E+00 0. -1.
</event>
<event>
 5   0  0.6606947E-03  0.9979216E+03  0.7818609E-02  0.9310827E-01
       -2   -1    0    0    0  501  0.00000000000E+00  0.00000000000E+00  0.32721438624E+03  0.32721438625E+03  0.25500000920E-02 0. -1.
        2   -1    0    0  501    0  0.00000000000E+00  0.00000000000E+00 -0.76085249207E+03  0.76085249207E+03  0.25500000920E-02 0.  1.
    10030    2    1    2    0    0  0.00000000000E+00  0.00000000000E+00 -0.43363810583E+03  0.10880668783E+04  0.99792160256E+03 0.  0.
        1    1    3    3  502    0 -0.19768180428E+03 -0.39096056070E+03  0.43571159315E+02  0.44025754022E+03  0.50400001928E-02 0. -1.
       -1    1    3    3    0  502  0.19768180428E+03  0.39096056070E+03 -0.47720926514E+03  0.64780933810E+03  0.50400001928E-02 0.  1.
</event>
<event>
 5   0  0.6376961E-03  0.1002918E+04  0.7818609E-02  0.9305350E-01
        2   -1    0    0  501    0  0.00000000000E+00  0.00000000000E+00  0.41743845992E+03  0.41743845993E+03  0.25500000920E-02 0. -1.
       -2   -1    0    0    0  501  0.00000000000E+00  0.00000000000E+00 -0.60239139490E+03  0.60239139490E+03  0.25500000920E-02 0.  1.
    10030    2    1    2    0    0  0.00000000000E+00  0.00000000000E+00 -0.18495293498E+03  0.10198298548E+04  0.10029184138E+04 0.  0.
        3    1    3    3  502    0 -0.19484195957E+03  0.22533212253E+03 -0.50266837025E+03  0.58430596035E+03  0.10100000352E+00 0.  1.
       -3    1    3    3    0  502  0.19484195957E+03 -0.22533212253E+03  0.31771543527E+03  0.43552389448E+03  0.10100000352E+00 0. -1.
</event>
<event>
 5   0  0.6022787E-03  0.9985309E+03  0.7818609E-02  0.9310158E-01
        2   -1    0    0  501    0  0.00000000000E+00  0.00000000000E+00  0.55319491003E+03  0.55319491004E+03  0.25500000920E-02 0. -1.
       -2   -1    0    0    0  501  0.00000000000E+00  0.00000000000E+00 -0.45059340196E+03  0.45059340197E+03  0.25500000920E-02 0.  1.
    10030    2    1    2    0    0  0.00000000000E+00  0.00000000000E+00  0.10260150807E+03  0.10037883120E+04  0.99853087377E+03 0.  0.
        5    1    3    3  502    0  0.46467428444E+03  0.11573082289E+03 -0.90609338792E+02  0.48738891684E+03  0.46999998093E+01 0.  1.
       -5    1    3    3    0  502 -0.46467428444E+03 -0.11573082289E+03  0.19321084686E+03  0.51639939517E+03  0.46999998093E+01 0. -1.
</event>
<event>
 5   0  0.2417750E-03  0.9970047E+03  0.7818609E-02  0.9311836E-01
       -4   -1    0    0    0  501  0.00000000000E+00  0.00000000000E+00  0.70431251299E+03  0.70431365800E+03  0.12699999809E+01 0. -1.
        4   -1    0    0  501    0  0.00000000000E+00  0.00000000000E+00 -0.35283026599E+03  0.35283255165E+03  0.12699999809E+01 0.  1.
    10030    2    1    2    0    0  0.00000000000E+00  0.00000000000E+00  0.35148224699E+03  0.10571462096E+04  0.99700468335E+03 0.  0.
        1    1    3    3  502    0 -0.11153000911E+03  0.45701403840E+02  0.68863139852E+03  0.69909996732E+03  0.50400001928E-02 0. -1.
       -1    1    3    3    0  502  0.11153000911E+03 -0.45701403840E+02 -0.33714915153E+03  0.35804624233E+03  0.50400001928E-02 0.  1.
</event>
<event>
 5   0  0.3608845E-03  0.1000967E+04  0.7818609E-02  0.9307485E-01
        1   -1    0    0  501    0  0.00000000000E+00  0.00000000000E+00  0.49120280736E+03  0.49120280739E+03  0.50400001928E-02 0. -1.
       -1   -1    0    0    0  501  0.00000000000E+00  0.00000000000E+00 -0.50993922979E+03  0.50993922981E+03  0.50400001928E-02 0.  1.
    10030    2    1    2    0    0  0.00000000000E+00  0.00000000000E+00 -0.18736422424E+02  0.10011420372E+04  0.10009666953E+04 0.  0.
        1    1    3    3  502    0  0.22700104796E+03  0.11478387447E+03  0.42172790339E+03  0.49250303363E+03  0.50400001928E-02 0. -1.
       -1    1    3    3    0  502 -0.22700104796E+03 -0.11478387447E+03 -0.44046432581E+03  0.50863900357E+03  0.50400001928E-02 0.  1.
</event>
<event>
 5   0  0.6606947E-03  0.1005570E+04  0.7818609E-02  0.9302457E-01
        2   -1    0    0  501    0  0.00000000000E+00  0.00000000000E+00  0.65449530092E+03  0.65449530092E+03  0.25500000920E-02 0. -1.
       -2   -1    0    0    0  501  0.00000000000E+00  0.00000000000E+00 -0.38624037415E+03  0.38624037416E+03  0.25500000920E-02 0.  1.
    10030    2    1    2    0    0  0.00000000000E+00  0.00000000000E+00  0.26825492677E+03  0.10407356751E+04  0.10055695101E+04 0.  0.
        1    1    3    3  502    0 -0.45581580378E+03 -0.21117341556E+03  0.11265956514E+03  0.51483437731E+03  0.50400001928E-02 0.  1.
       -1    1    3    3    0  502  0.45581580378E+03  0.21117341556E+03  0.15559536163E+03  0.52590129778E+03  0.50400001928E-02 0. -1.
</event>
<event>
 5   0  0.3466598E-03  0.9943747E+03  0.7818609E-02  0.9314736E-01
       -1   -1    0    0    0  501  0.00000000000E+00  0.00000000000E+00  0.20425171890E+03  0.20425171896E+03  0.50400001928E-02 0.  1.
        1   -1    0    0  501    0  0.00000000000E+00  0.00000000000E+00 -0.12102482108E+04  0.12102482109E+04  0.50400001928E-02 0. -1.
    10030    2    1    2    0    0  0.00000000000E+00  0.00000000000E+00 -0.10059964919E+04  0.14144999298E+04  0.99437473301E+03 0.  0.
        3    1    3    3  502    0 -0.23725854457E+03 -0.26474620216E+03 -0.99743399243E+03  0.10588941156E+04  0.10100000352E+00 0. -1.
       -3    1    3    3    0  502  0.23725854457E+03  0.26474620216E+03 -0.85624995189E+01  0.35560581425E+03  0.10100000352E+00 0.  1.
</event>
<event>
 5   0  0.3643002E-03  0.9998371E+03  0.7818609E-02  0.9308723E-01
        1   -1    0    0  501    0  0.00000000000E+00  0.00000000000E+00  0.11527460664E+04  0.11527460664E+04  0.50400001928E-02 0.  1.
       -1   -1    0    0    0  501  0.00000000000E+00  0.00000000000E+00 -0.21680278954E+03  0.21680278960E+03  0.50400001928E-02 0. -1.
    10030    2    1    2    0    0  0.00000000000E+00  0.00000000000E+00  0.93594327687E+03  0.13695488560E+04  0.99983711249E+03 0.  0.
        2    1    3    3  502    0 -0.18604894553E+03  0.46211770380E+03  0.41064409433E+03  0.64559705274E+03  0.25500000920E-02 0.  1.
       -2    1    3    3    0  502  0.18604894553E+03 -0.46211770380E+03  0.52529918254E+03  0.72395180328E+03  0.25500000920E-02 0. -1.
</event>
<event>
 5   0  0.3569359E-03  0.9979740E+03  0.7818609E-02  0.9310770E-01
       -1   -1    0    0    0  501  0.00000000000E+00  0.00000000000E+00  0.20203481835E+03  0.20203481841E+03  0.50400001928E-02 0. -1.
        1   -1    0    0  501    0  0.00000000000E+00  0.00000000000E+00 -0.12324015344E+04  0.12324015344E+04  0.50400001928E-02 0.  1.
    10030    2    1    2    0    0  0.00000000000E+00  0.00000000000E+00 -0.10303667161E+04  0.14344363528E+04  0.99797398802E+03 0.  0.
        4    1    3    3  502    0 -0.49843753832E+03  0.18880166216E+02 -0.53499411860E+03  0.73144839881E+03  0.12699999809E+01 0. -1.
       -4    1    3    3    0  502  0.49843753832E+03 -0.18880166216E+02 -0.49537259747E+03  0.70298795403E+03  0.12699999809E+01 0.  1.
</event>
<event>
 5   0  0.6360455E-03  0.1004428E+04  0.7818609E-02  0.9303702E-01
       -2   -1    0    0    0  501  0.00000000000E+00  0.00000000000E+00  0.41048315801E+03  0.41048315802E+03  0.25500000920E-02 0. -1.
        2   -1    0    0  501    0  0.00000000000E+00  0.00000000000E+00 -0.61444382932E+03  0.61444382932E+03  0.25500000920E-02 0.  1.
    10030    2    1    2    0    0  0.00000000000E+00  0.00000000000E+00 -0.20396067130E+03  0.10249269873E+04  0.10044278839E+04 0.  0.
        4    1    3    3  502    0  0.42264411178E+03  0.14122523731E+03 -0.33832034338E+03  0.55949520152E+03  0.12699999809E+01 0.  1.
       -4    1    3    3    0  502 -0.42264411178E+03 -0.14122523731E+03  0.13435967208E+03  0.46543178583E+03  0.12699999809E+01 0. -1.
</event>
<event>
 5   0  0.3640180E-03  0.1004771E+04  0.7818609E-02  0.9303327E-01
       -1   -1    0    0    0  501  0.00000000000E+00  0.00000000000E+00  0.51210430020E+03  0.51210430023E+03  0.50400001928E-02 0.  1.
        1   -1    0    0  501    0  0.00000000000E+00  0.00000000000E+00 -0.49285135619E+03  0.49285135622E+03  0.50400001928E-02 0. -1.
    10030    2    1    2    0    0  0.00000000000E+00  0.00000000000E+00  0.19252944009E+02  0.10049556564E+04  0.10047712155E+04 0.  0.
        5    1    3    3  502    0 -0.33482120193E+02 -0.22575353809E+03 -0.43798612101E+03  0.49390246459E+03  0.46999998093E+01 0. -1.
       -5    1    3    3    0  502  0.33482120193E+02  0.22575353809E+03  0.45723906502E+03  0.51105319186E+03  0.46999998093E+01 0.  1.
</event>
<event>
 5   0  0.3640180E-03  0.9968562E+03  0.7818609E-02  0.9312000E-01
        1   -1    0    0  501    0  0.00000000000E+00  0.00000000000E+00  0.85339027891E+03  0.85339027893E+03  0.50400001928E-02 0.  1.
       -1   -1    0    0    0  501  0.00000000000E+00  0.00000000000E+00 -0.29111011965E+03  0.29111011969E+03  0.50400001928E-02 0. -1.
    10030    2    1    2    0    0  0.00000000000E+00  0.00000000000E+00  0.56228015927E+03  0.11445003986E+04  0.99685615057E+03 0.  0.
        5    1    3    3  502    0  0.45075744192E+03  0.10601475611E+03  0.49280078095E+03  0.67623671866E+03  0.46999998093E+01 0. -1.
       -5    1    3    3    0  502 -0.45075744192E+03 -0.10601475611E+03  0.69479378318E+02  0.46826367996E+03  0.46999998093E+01 0.  1.
</event>
<event>
 5   0  0.3640180E-03  0.1060936E+04  0.7818609E-02  0.9244126E-01
       -1   -1    0    0    0  501  0.00000000000E+00  0.00000000000E+00  0.32862774900E+03  0.32862774904E+03  0.50400001928E-02 0.  1.
        1   -1    0    0  501    0  0.00000000000E+00  0.00000000000E+00 -0.85627612471E+03  0.85627612473E+03  0.50400001928E-02 0. -1.
    10030    2    1    2    0    0  0.00000000000E+00  0.00000000000E+00 -0.52764837571E+03  0.11849038738E+04  0.10609356162E+04 0.  0.
        5    1    3    3  502    0  0.36787280790E+03 -0.16287168292E+03 -0.64993136410E+03  0.76438894283E+03  0.46999998093E+01 0. -1.
       -5    1    3    3    0  502 -0.36787280790E+03  0.16287168292E+03  0.12228298839E+03  0.42051493093E+03  0.46999998093E+01 0.  1.
</event>
<event>
 5   0  0.6022787E-03  0.1000508E+04  0.7818609E-02  0.9307988E-01
        2   -1    0    0  501    0  0.00000000000E+00  0.00000000000E+00  0.16249318757E+04  0.16249318757E+04  0.25500000920E-02 0.  1.
       -2   -1    0    0    0  501  0.00000000000E+00  0.00000000000E+00 -0.15400884666E+03  0.15400884668E+03  0.25500000920E-02 0. -1.
    10030    2    1    2    0    0  0.00000000000E+00  0.00000000000E+00  0.14709230291E+04  0.17789407224E+04  0.10005076393E+04 0.  0.
        5    1    3    3  502    0  0.22572110700E+03 -0.79677798351E+02 -0.45526877734E+02  0.24370752203E+03  0.46999998093E+01 0. -1.
       -5    1    3    3    0  502 -0.22572110700E+03  0.79677798351E+02  0.15164499068E+04  0.15352332004E+04  0.46999998093E+01 0.  1.
</event>
<event>
 5   0  0.6606947E-03  0.1002992E+04  0.7818609E-02  0.9305269E-01
        2   -1    0    0  501    0  0.00000000000E+00  0.00000000000E+00  0.37692537685E+03  0.37692537686E+03  0.25500000920E-02 0. -1.
       -2   -1    0    0    0  501  0.00000000000E+00  0.00000000000E+00 -0.66723657011E+03  0.66723657011E+03  0.25500000920E-02 0.  1.
    10030    2    1    2    0    0  0.00000000000E+00  0.00000000000E+00 -0.29031119326E+03  0.10441619470E+04  0.10029923143E+04 0.  0.
        1    1    3    3  502    0  0.29542358832E+03  0.13246803107E+03  0.25354700981E+03  0.41122860067E+03  0.50400001928E-02 0.  1.
       -1    1    3    3    0  502 -0.29542358832E+03 -0.13246803107E+03 -0.54385820307E+03  0.63293334631E+03  0.50400001928E-02 0. -1.
</event>
<event>
 5   0  0.3643002E-03  0.9772995E+03  0.7818609E-02  0.9333799E-01
       -1   -1    0    0    0  501  0.00000000000E+00  0.00000000000E+00  0.10352156646E+03  0.10352156658E+03  0.50400001928E-02 0. -1.
        1   -1    0    0  501    0  0.00000000000E+00  0.00000000000E+00 -0.23065587474E+04  0.23065587474E+04  0.50400001928E-02 0.  1.
    10030    2    1    2    0    0  0.00000000000E+00  0.00000000000E+00 -0.22030371809E+04  0.24100803140E+04  0.97729949313E+03 0.  0.
        2    1    3    3  502    0  0.26532642497E+02 -0.18682524436E+02 -0.23038986870E+04  0.23041272052E+04  0.25500000920E-02 0.  1.
       -2    1    3    3    0  502 -0.26532642497E+02  0.18682524436E+02  0.10086150609E+03  0.10595310875E+03  0.25500000920E-02 0. -1.
</event>
<event>
 5   0  0.2417750E-03  0.1007341E+04  0.7818609E-02  0.9300529E-01
        4   -1    0    0  501    0  0.00000000000E+00  0.00000000000E+00  0.14962852078E+03  0.14963391036E+03  0.12699999809E+01 0.  1.
       -4   -1    0    0    0  501  0.00000000000E+00  0.00000000000E+00 -0.16953901364E+04  0.16953906121E+04  0.12699999809E+01 0. -1.
    10030    2    1    2    0    0  0.00000000000E+00  0.00000000000E+00 -0.15457616156E+04  0.18450245224E+04  0.10073413106E+04 0.  0.
        4    1    3    3  502    0  0.96956128933E+02 -0.26525584831E+03 -0.15367200383E+04  0.15624567978E+04  0.12699999809E+01 0. -1.
       -4    1    3    3    0  502 -0.96956128933E+02  0.26525584831E+03 -0.90415773616E+01  0.28256772466E+03  0.12699999809E+01 0.  1.
</event>
<event>
 5   0  0.6606947E-03  0.1004955E+04  0.7818609E-02  0.9303127E-01
        2   -1    0    0  501    0  0.00000000000E+00  0.00000000000E+00  0.51566958551E+03  0.51566958552E+03  0.25500000920E-02 0.  1.
       -2   -1    0    0    0  501  0.00000000000E+00  0.00000000000E+00 -0.48962267650E+03  0.48962267651E+03  0.25500000920E-02 0. -1.
    10030    2    1    2    0    0  0.00000000000E+00  0.00000000000E+00  0.26046909012E+02  0.10052922620E+04  0.10049547704E+04 0.  0.
        1    1    3    3  502    0  0.19902449091E+03  0.19370235883E+03 -0.40586789993E+03  0.49179274498E+03  0.50400001928E-02 0. -1.
       -1    1    3    3    0  502 -0.19902449091E+03 -0.19370235883E+03  0.43191480894E+03  0.51349951705E+03  0.50400001928E-02 0.  1.
</event>
<event>
 5   0  0.2417750E-03  0.9971655E+03  0.7818609E-02  0.9311659E-01
       -3   -1    0    0    0  501  0.00000000000E+00  0.00000000000E+00  0.19510230088E+03  0.19510232702E+03  0.10100000352E+00 0.  1.
        3   -1    0    0  501    0  0.00000000000E+00  0.00000000000E+00 -0.12741250358E+04  0.12741250398E+04  0.10100000352E+00 0. -1.
    10030    2    1    2    0    0  0.00000000000E+00  0.00000000000E+00 -0.10790227349E+04  0.14692273668E+04  0.99716547922E+03 0.  0.
        4    1    3    3  502    0  0.21163880199E+02  0.35127818562E+01  0.19441955452E+03  0.19560374624E+03  0.12699999809E+01 0.  1.
       -4    1    3    3    0  502 -0.21163880199E+02 -0.35127818562E+01 -0.12734422894E+04  0.12736236206E+04  0.12699999809E+01 0. -1.
</event>
<event>
 5   0  0.6606947E-03  0.1097028E+04  0.7818609E-02  0.9208093E-01
       -2   -1    0    0    0  501  0.00000000000E+00  0.00000000000E+00  0.23396150858E+03  0.23396150859E+03  0.25500000920E-02 0.  1.
        2   -1    0    0  501    0  0.00000000000E+00  0.00000000000E+00 -0.12859712120E+04  0.12859712120E+04  0.25500000920E-02 0. -1.
    10030    2    1    2    0    0  0.00000000000E+00  0.00000000000E+00 -0.10520097035E+04  0.15199327206E+04  0.10970282855E+04 0.  0.
        1    1    3    3  502    0 -0.31595123999E+03  0.36388855407E+03 -0.16304694829E+03  0.50874784835E+03  0.50400001928E-02 0.  1.
       -1    1    3    3    0  502  0.31595123999E+03 -0.36388855407E+03 -0.88896275517E+03  0.10111848723E+04  0.50400001928E-02 0. -1.
</event>
<event>
 5   0  0.6376961E-03  0.1000959E+04  0.7818609E-02  0.9307494E-01
       -2   -1    0    0    0  501  0.00000000000E+00  0.00000000000E+00  0.22863491033E+03  0.22863491035E+03  0.25500000920E-02 0. -1.
        2   -1    0    0  501    0  0.00000000000E+00  0.00000000000E+00 -0.10955445967E+04  0.10955445967E+04  0.25500000920E-02 0.  1.
    10030    2    1    2    0    0  0.00000000000E+00  0.00000000000E+00 -0.86690968641E+03  0.13241795071E+04  0.10009590214E+04 0.  0.
        3    1    3    3  502    0  0.23253937881E+03 -0.41192825543E+03 -0.21720735690E+03  0.52051752747E+03  0.10100000352E+00 0. -1.
       -3    1    3    3    0  502 -0.23253937881E+03  0.41192825543E+03 -0.64970232951E+03  0.80366197962E+03  0.10100000352E+00 0.  1.
</event>
<event>
 5   0  0.3569359E-03  0.1049788E+04  0.7818609E-02  0.9255563E-01
       -1   -1    0    0    0  501  0.00000000000E+00  0.00000000000E+00  0.81637251344E+03  0.81637251346E+03  0.50400001928E-02 0. -1.
        1   -1    0    0  501    0  0.00000000000E+00  0.00000000000E+00 -0.33748539234E+03  0.33748539237E+03  0.50400001928E-02 0.  1.
    10030    2    1    2    0    0  0.00000000000E+00  0.00000000000E+00  0.47888712111E+03  0.11538579058E+04  0.10497881653E+04 0.  0.
        4    1    3    3  502    0  0.41180547049E+03  0.30211947170E+03  0.37248993096E+03  0.63214735804E+03  0.12699999809E+01 0.  1.
       -4    1    3    3    0  502 -0.41180547049E+03 -0.30211947170E+03  0.10639719015E+03  0.52171054779E+03  0.12699999809E+01 0. -1.
</event>
<event>
 5   0  0.3569359E-03  0.1014384E+04  0.7818609E-02  0.9292908E-01
       -1   -1    0    0    0  501  0.00000000000E+00  0.00000000000E+00  0.57478391869E+03  0.57478391871E+03  0.50400001928E-02 0. -1.
        1   -1    0    0  501    0  0.00000000000E+00  0.00000000000E+00 -0.44754853197E+03  0.44754853200E+03  0.50400001928E-02 0.  1.
    10030    2    1    2    0    0  0.00000000000E+00  0.00000000000E+00  0.12723538672E+03  0.10223324507E+04  0.10143839491E+04 0.  0.
        4    1    3    3  502    0  0.25913628302E+03 -0.74389245789E+02  0.49658459835E+03  0.56505154569E+03  0.12699999809E+01 0. -1.
       -4    1    3    3    0  502 -0.25913628302E+03  0.74389245789E+02 -0.36934921163E+03  0.45728090502E+03  0.12699999809E+01 0.  1.
</event>
<event>
 5   0  0.3608845E-03  0.9994262E+03  0.7818609E-02  0.9309174E-01
        1   -1    0    0  501    0  0.00000000000E+00  0.00000000000E+00  0.99738855703E+03  0.99738855705E+03  0.50400001928E-02 0.  1.
       -1   -1    0    0    0  501  0.00000000000E+00  0.00000000000E+00 -0.25036697755E+03  0.25036697760E+03  0.50400001928E-02 0. -1.
    10030    2    1    2    0    0  0.00000000000E+00  0.00000000000E+00  0.74702157948E+03  0.12477555347E+04  0.99942615237E+03 0.  0.
        1    1    3    3  502    0  0.14283285111E+03 -0.37551614592E+03  0.74449725313E+03  0.84598449108E+03  0.50400001928E-02 0.  1.
       -1    1    3    3    0  502 -0.14283285111E+03  0.37551614592E+03  0.25243263531E+01  0.40177104357E+03  0.50400001928E-02 0. -1.
</event>
<event>
 5   0  0.6022787E-03  0.1019516E+04  0.7818609E-02  0.9287395E-01
        2   -1    0    0  501    0  0.00000000000E+00  0.00000000000E+00  0.18789382539E+04  0.18789382539E+04  0.25500000920E-02 0.  1.
       -2   -1    0    0    0  501  0.00000000000E+00  0.00000000000E+00 -0.13829793833E+03  0.13829793835E+03  0.25500000920E-02 0. -1.
    10030    2    1    2    0    0  0.00000000000E+00  0.00000000000E+00  0.17406403156E+04  0.20172361923E+04  0.10195161338E+04 0.  0.
        5    1    3    3  502    0 -0.40107551459E+03  0.29933645201E+03  0.67881950678E+03  0.84337529765E+03  0.46999998093E+01 0. -1.
       -5    1    3    3    0  502  0.40107551459E+03 -0.29933645201E+03  0.10618208088E+04  0.11738608946E+04  0.46999998093E+01 0.  1.
</event>
<event>
 5   0  0.3608845E-03  0.1006172E+04  0.7818609E-02  0.9301802E-01
        1   -1    0    0  501    0  0.00000000000E+00  0.00000000000E+00  0.64027580083E+03  0.64027580085E+03  0.50400001928E-02 0.  1.
       -1   -1    0    0    0  501  0.00000000000E+00  0.00000000000E+00 -0.39529117993E+03  0.39529117996E+03  0.50400001928E-02 0. -1.
    10030    2    1    2    0    0  0.00000000000E+00  0.00000000000E+00  0.24498462090E+03  0.10355669808E+04  0.10061717086E+04 0.  0.
        1    1    3    3  502    0 -0.15938191921E+03 -0.34313317290E+03 -0.21878582219E+03  0.43704714452E+03  0.50400001928E-02 0. -1.
       -1    1    3    3    0  502  0.15938191921E+03  0.34313317290E+03  0.46377044309E+03  0.59851983629E+03  0.50400001928E-02 0.  1.
</event>
<event>
 5   0  0.2417750E-03  0.1001330E+04  0.7818609E-02  0.9307087E-01
       -3   -1    0    0    0  501  0.00000000000E+00  0.00000000000E+00  0.18145588762E+03  0.18145591572E+03  0.10100000352E+00 0.  1.
        3   -1    0    0  501    0  0.00000000000E+00  0.00000000000E+00 -0.13814136680E+04  0.13814136717E+04  0.10100000352E+00 0. -1.
    10030    2    1    2    0    0  0.00000000000E+00  0.00000000000E+00 -0.11999577804E+04  0.15628695874E+04  0.10013304512E+04 0.  0.
        1    1    3    3  502    0 -0.19442407137E+03  0.21618746591E+03  0.36181523755E+02  0.29299631846E+03  0.50400001928E-02 0.  1.
       -1    1    3    3    0  502  0.19442407137E+03 -0.21618746591E+03 -0.12361393041E+04  0.12698732690E+04  0.50400001928E-02 0. -1.
</event>
<event>
 5   0  0.6022787E-03  0.9953269E+03  0.7818609E-02  0.9313685E-01
       -2   -1    0    0    0  501  0.00000000000E+00  0.00000000000E+00  0.36381976387E+03  0.36381976388E+03  0.25500000920E-02 0. -1.
        2   -1    0    0  501    0  0.00000000000E+00  0.00000000000E+00 -0.68074616488E+03  0.68074616489E+03  0.25500000920E-02 0.  1.
    10030    2    1    2    0    0  0.00000000000E+00  0.00000000000E+00 -0.31692640101E+03  0.10445659288E+04  0.99532689900E+03 0.  0.
        5    1    3    3  502    0  0.26723071008E+03 -0.16031821738E+03 -0.56564227218E+03  0.64582308205E+03  0.46999998093E+01 0.  1.
       -5    1    3    3    0  502 -0.26723071008E+03  0.16031821738E+03  0.24871587117E+03  0.39874284671E+03  0.46999998093E+01 0. -1.
</event>
<event>
 5   0  0.6606947E-03  0.1041664E+04  0.7818609E-02  0.9263993E-01
        2   -1    0    0  501    0  0.00000000000E+00  0.00000000000E+00  0.99600425108E+03  0.99600425108E+03  0.25500000920E-02 0. -1.
       -2   -1    0    0    0  501  0.00000000000E+00  0.00000000000E+00 -0.27235424003E+03  0.27235424004E+03  0.25500000920E-02 0.  1.
    10030    2    1    2    0    0  0.00000000000E+00  0.00000000000E+00  0.72365001105E+03  0.12683584911E+04  0.10416640166E+04 0.  0.
        1    1    3    3  502    0 -0.17892569997E+02  0.13640095155E+03 -0.24983197864E+03  0.28520410450E+03  0.50400001928E-02 0.  1.
       -1    1    3    3    0  502  0.17892569997E+02 -0.13640095155E+03  0.97348198969E+03  0.98315438662E+03  0.50400001928E-02 0. -1.
</event>
<event>
 5   0  0.6360455E-03  0.9770926E+03  0.7818609E-02  0.9334032E-01
        2   -1    0    0  501    0  0.00000000000E+00  0.00000000000E+00  0.47629827774E+03  0.47629827775E+03  0.25500000920E-02 0.  1.
       -2   -1    0    0    0  501  0.00000000000E+00  0.00000000000E+00 -0.50110928475E+03  0.50110928476E+03  0.25500000920E-02 0. -1.
    10030    2    1    2    0    0  0.00000000000E+00  0.00000000000E+00 -0.24811007013E+02  0.97740756251E+03  0.97709260420E+03 0.  0.
        4    1    3    3  502    0 -0.18721630685E+03  0.12389872194E+03 -0.44645208527E+03  0.49972183882E+03  0.12699999809E+01 0. -1.
       -4    1    3    3    0  502  0.18721630685E+03 -0.12389872194E+03  0.42164107825E+03  0.47768572369E+03  0.12699999809E+01 0.  1.
</event>
<event>
 5   0  0.6022787E-03  0.1001524E+04  0.7818609E-02  0.9306875E-01
       -2   -1    0    0    0  501  0.00000000000E+00  0.00000000000E+00  0.15042489463E+03  0.15042489465E+03  0.25500000920E-02 0.  1.
        2   -1    0    0  501    0  0.00000000000E+00  0.00000000000E+00 -0.16670276546E+04  0.16670276546E+04  0.25500000920E-02 0. -1.
    10030    2    1    2    0    0  0.00000000000E+00  0.00000000000E+00 -0.15166027600E+04  0.18174525492E+04  0.10015237577E+04 0.  0.
        5    1    3    3  502    0  0.77391356557E+02  0.47792655399E+03 -0.52635368758E+03  0.71517376035E+03  0.46999998093E+01 0.  1.
       -5    1    3    3    0  502 -0.77391356557E+02 -0.47792655399E+03 -0.99024907238E+03  0.11022787889E+04  0.46999998093E+01 0. -1.
</event>
<event>
 5   0  0.3569359E-03  0.1001730E+04  0.7818609E-02  0.9306649E-01
        1   -1    0    0  501    0  0.00000000000E+00  0.00000000000E+00  0.11313502104E+04  0.11313502104E+04  0.50400001928E-02 0.  1.
       -1   -1    0    0    0  501  0.00000000000E+00  0.00000000000E+00 -0.22174025639E+03  0.22174025645E+03  0.50400001928E-02 0. -1.
    10030    2    1    2    0    0  0.00000000000E+00  0.00000000000E+00  0.90960995396E+03  0.13530904668E+04  0.10017302746E+04 0.  0.
        4    1    3    3  502    0 -0.13036739432E+03  0.33241658431E+03  0.92924027974E+03  0.99548257314E+03  0.12699999809E+01 0.  1.
       -4    1    3    3    0  502  0.13036739432E+03 -0.33241658431E+03 -0.19630325777E+02  0.35760789367E+03  0.12699999809E+01 0. -1.
</event>
<event>
 5   0  0.6606947E-03  0.9931420E+03  0.7818609E-02  0.9316099E-01
        2   -1    0    0  501    0  0.00000000000E+00  0.00000000000E+00  0.71194637206E+03  0.71194637206E+03  0.25500000920E-02 0. -1.
       -2   -1    0    0    0  501  0.00000000000E+00  0.00000000000E+00 -0.34635017270E+03  0.34635017270E+03  0.25500000920E-02 0.  1.
    10030    2    1    2    0    0  0.00000000000E+00  0.00000000000E+00  0.36559619936E+03  0.10582965448E+04  0.99314198163E+03 0.  0.
        1    1    3    3  502    0 -0.15334163338E+03  0.13401155060E+03  0.66540047087E+03  0.69586675368E+03  0.50400001928E-02 0. -1.
       -1    1    3    3    0  502  0.15334163338E+03 -0.13401155060E+03 -0.29980427151E+03  0.36242979108E+03  0.50400001928E-02 0.  1.
</event>
<event>
 5   0  0.3569359E-03  0.1002151E+04  0.7818609E-02  0.9306189E-01
        1   -1    0    0  501    0  0.00000000000E+00  0.00000000000E+00  0.12668844482E+04  0.12668844482E+04  0.50400001928E-02 0.  1.
       -1   -1    0    0    0  501  0.00000000000E+00  0.00000000000E+00 -0.19818419700E+03  0.19818419707E+03  0.50400001928E-02 0. -1.
    10030    2    1    2    0    0  0.00000000000E+00  0.00000000000E+00  0.10687002512E+04  0.14650686453E+04  0.10021506416E+04 0.  0.
        4    1    3    3  502    0  0.33011586421E+03  0.30802514505E+03  0.85202499047E+03  0.96426353819E+03  0.12699999809E+01 0.  1.
       -4    1    3    3    0  502 -0.33011586421E+03 -0.30802514505E+03  0.21667526075E+03  0.50080510711E+03  0.12699999809E+01 0. -1.
</event>
<event>
 5   0  0.3643002E-03  0.1005273E+04  0.7818609E-02  0.9302781E-01
        1   -1    0    0  501    0  0.00000000000E+00  0.00000000000E+00  0.13113271521E+04  0.13113271522E+04  0.50400001928E-02 0.  1.
       -1   -1    0    0    0  501  0.00000000000E+00  0.00000000000E+00 -0.19266230947E+03  0.19266230954E+03  0.50400001928E-02 0. -1.
    10030    2    1    2    0    0  0.00000000000E+00  0.00000000000E+00  0.11186648427E+04  0.15039894617E+04  0.10052727345E+04 0.  0.
        2    1    3    3  502    0  0.29422864946E+03 -0.84748699626E+02  0.11556942319E+04  0.11955676468E+04  0.25500000920E-02 0.  1.
       -2    1    3    3    0  502 -0.29422864946E+03  0.84748699626E+02 -0.37029389256E+02  0.30842181493E+03  0.25500000920E-02 0. -1.
</event>
<event>
 5   0  0.2417750E-03  0.9903935E+03  0.7818609E-02  0.9319144E-01
       -4   -1    0    0    0  501  0.00000000000E+00  0.00000000000E+00  0.22102060215E+03  0.22102425088E+03  0.12699999809E+01 0. -1.
        4   -1    0    0  501    0  0.00000000000E+00  0.00000000000E+00 -0.11094754604E+04  0.11094761873E+04  0.12699999809E+01 0.  1.
    10030    2    1    2    0    0  0.00000000000E+00  0.00000000000E+00 -0.88845485826E+03  0.13305004382E+04  0.99039354843E+03 0.  0.
        5    1    3    3  502    0 -0.92162842831E+02 -0.10464736368E+03  0.19407087554E+03  0.23902019800E+03  0.46999998093E+01 0. -1.
       -5    1    3    3    0  502  0.92162842831E+02  0.10464736368E+03 -0.10825257338E+04  0.10914802402E+04  0.46999998093E+01 0.  1.
</event>
<event>
 5   0  0.3608845E-03  0.9684232E+03  0.7818609E-02  0.9343872E-01
        1   -1    0    0  501    0  0.00000000000E+00  0.00000000000E+00  0.16246038548E+04  0.16246038548E+04  0.50400001928E-02 0.  1.
       -1   -1    0    0    0  501  0.00000000000E+00  0.00000000000E+00 -0.14431880107E+03  0.14431880115E+03  0.50400001928E-02 0. -1.
    10030    2    1    2    0    0  0.00000000000E+00  0.00000000000E+00  0.14802850537E+04  0.17689226559E+04  0.96842321453E+03 0.  0.
        1    1    3    3  502    0 -0.46189628291E+02 -0.27075182790E+03  0.14685437782E+04  0.14940083208E+04  0.50400001928E-02 0.  1.
       -1    1    3    3    0  502  0.46189628291E+02  0.27075182790E+03  0.11741275471E+02  0.27491433511E+03  0.50400001928E-02 0. -1.
</event>
<event>
 5   0  0.3569359E-03  0.9964662E+03  0.7818609E-02  0.9312429E-01
       -1   -1    0    0    0  501  0.00000000000E+00  0.00000000000E+00  0.36574575018E+03  0.36574575021E+03  0.50400001928E-02 0. -1.
        1   -1    0    0  501    0  0.00000000000E+00  0.00000000000E+00 -0.67871250995E+03  0.67871250996E+03  0.50400001928E-02 0.  1.
    10030    2    1    2    0    0  0.00000000000E+00  0.00000000000E+00 -0.31296675977E+03  0.10444582602E+04  0.99646618835E+03 0.  0.
        4    1    3    3  502    0 -0.86388006618E+02  0.14136963067E+03  0.33602613486E+03  0.37465108618E+03  0.12699999809E+01 0. -1.
       -4    1    3    3    0  502  0.86388006618E+02 -0.14136963067E+03 -0.64899289463E+03  0.66980717400E+03  0.12699999809E+01 0.  1.
</event>
<event>
 5   0  0.6360455E-03  0.1019971E+04  0.7818609E-02  0.9286909E-01
       -2   -1    0    0    0  501  0.00000000000E+00  0.00000000000E+00  0.20626626888E+03  0.20626626890E+03  0.25500000920E-02 0.  1.
        2   -1    0    0  501    0  0.00000000000E+00  0.00000000000E+00 -0.12609188070E+04  0.12609188070E+04  0.25500000920E-02 0. -1.
    10030    2    1    2    0    0  0.00000000000E+00  0.00000000000E+00 -0.10546525381E+04  0.14671850759E+04  0.10199706225E+04 0.  0.
        4    1    3    3  502    0  0.11895989239E+02 -0.33740661709E+03 -0.10771460509E+04  0.11288179516E+04  0.12699999809E+01 0. -1.
       -4    1    3    3    0  502 -0.11895989239E+02  0.33740661709E+03  0.22493512811E+02  0.33836712434E+03  0.12699999809E+01 0.  1.
</event>
<event>
 5   0  0.6360455E-03  0.1007086E+04  0.7818609E-02  0.9300807E-01
       -2   -1    0    0    0  501  0.00000000000E+00  0.00000000000E+00  0.92872347220E+03  0.92872347220E+03  0.25500000920E-02 0.  1.
        2   -1    0    0  501    0  0.00000000000E+00  0.00000000000E+00 -0.27301495977E+03  0.27301495978E+03  0.25500000920E-02 0. -1.
    10030    2    1    2    0    0  0.00000000000E+00  0.00000000000E+00  0.65570851243E+03  0.12017384320E+04  0.10070856992E+04 0.  0.
        4    1    3    3  502    0  0.37768225264E+02  0.41823069468E+03  0.65942906121E+03  0.78178747270E+03  0.12699999809E+01 0.  1.
       -4    1    3    3    0  502 -0.37768225264E+02 -0.41823069468E+03 -0.37205487768E+01  0.41995095927E+03  0.12699999809E+01 0. -1.
</event>
<event>
 5   0  0.3466598E-03  0.9948502E+03  0.7818609E-02  0.9314211E-01
        1   -1    0    0  501    0  0.00000000000E+00  0.00000000000E+00  0.85857547310E+03  0.85857547312E+03  0.50400001928E-02 0. -1.
       -1   -1    0    0    0  501  0.00000000000E+00  0.00000000000E+00 -0.28818866950E+03  0.28818866954E+03  0.50400001928E-02 0.  1.
    10030    2    1    2    0    0  0.00000000000E+00  0.00000000000E+00  0.57038680360E+03  0.11467641427E+04  0.99485018630E+03 0.  0.
        3    1    3    3  502    0 -0.41483254617E+03  0.11180100790E+03  0.57416552759E+03  0.71711335925E+03  0.10100000352E+00 0. -1.
       -3    1    3    3    0  502  0.41483254617E+03 -0.11180100790E+03 -0.37787239914E+01  0.42965078342E+03  0.10100000352E+00 0.  1.
</event>
<event>
 5   0  0.6199539E-03  0.9995969E+03  0.7818609E-02  0.9308987E-01
       -2   -1    0    0    0  501  0.00000000000E+00  0.00000000000E+00  0.17478901656E+03  0.17478901658E+03  0.25500000920E-02 0. -1.
        2   -1    0    0  501    0  0.00000000000E+00  0.00000000000E+00 -0.14291428331E+04  0.14291428331E+04  0.25500000920E-02 0.  1.
    10030    2    1    2    0    0  0.00000000000E+00  0.00000000000E+00 -0.12543538165E+04  0.16039318496E+04  0.99959685940E+03 0.  0.
        2    1    3    3  502    0 -0.35130953109E+03 -0.76178871242E+02 -0.70000115284E+02  0.36622619132E+03  0.25500000920E-02 0. -1.
       -2    1    3    3    0  502  0.35130953109E+03  0.76178871242E+02 -0.11843537012E+04  0.12377056583E+04  0.25500000920E-02 0.  1.
</event>
<event>
 5   0  0.3640180E-03  0.9849832E+03  0.7818609E-02  0.9325170E-01
        1   -1    0    0  501    0  0.00000000000E+00  0.00000000000E+00  0.83433681455E+03  0.83433681456E+03  0.50400001928E-02 0.  1.
       -1   -1    0    0    0  501  0.00000000000E+00  0.00000000000E+00 -0.29070750370E+03  0.29070750374E+03  0.50400001928E-02 0. -1.
    10030    2    1    2    0    0  0.00000000000E+00  0.00000000000E+00  0.54362931085E+03  0.11250443183E+04  0.98498319302E+03 0.  0.
        5    1    3    3  502    0  0.44714629302E+03  0.19529376297E+03  0.34797802000E+03  0.59932483147E+03  0.46999998093E+01 0.  1.
       -5    1    3    3    0  502 -0.44714629302E+03 -0.19529376297E+03  0.19565129085E+03  0.52571948683E+03  0.46999998093E+01 0. -1.
</event>
<event>
 5   0  0.6606947E-03  0.1000406E+04  0.7818609E-02  0.9308099E-01
        2   -1    0    0  501    0  0.00000000000E+00  0.00000000000E+00  0.33806514736E+03  0.33806514737E+03  0.25500000920E-02 0. -1.
       -2   -1    0    0    0  501  0.00000000000E+00  0.00000000000E+00 -0.74010352326E+03  0.74010352327E+03  0.25500000920E-02 0.  1.
    10030    2    1    2    0    0  0.00000000000E+00  0.00000000000E+00 -0.40203837590E+03  0.10781686706E+04  0.10004063308E+04 0.  0.
        1    1    3    3  502    0 -0.40059502234E+03 -0.11838719894E+03 -0.49756421468E+03  0.64966302692E+03  0.50400001928E-02 0.  1.
       -1    1    3    3    0  502  0.40059502234E+03  0.11838719894E+03  0.95525838776E+02  0.42850564372E+03  0.50400001928E-02 0. -1.
</event>
<event>
 5   0  0.6360455E-03  0.1016999E+04  0.7818609E-02  0.9290094E-01
        2   -1    0    0  501    0  0.00000000000E+00  0.00000000000E+00  0.11971722262E+04  0.11971722262E+04  0.25500000920E-02 0.  1.
       -2   -1    0    0    0  501  0.00000000000E+00  0.00000000000E+00 -0.21598549080E+03  0.21598549081E+03  0.25500000920E-02 0. -1.
    10030    2    1    2    0    0  0.00000000000E+00  0.00000000000E+00  0.98118673544E+03  0.14131577170E+04  0.10169991757E+04 0.  0.
        4    1    3    3  502    0  0.32890587545E+02 -0.11890718768E+03 -0.19487160897E+03  0.23064532710E+03  0.12699999809E+01 0. -1.
       -4    1    3    3    0  502 -0.32890587545E+02  0.11890718768E+03  0.11760583444E+04  0.11825123899E+04  0.12699999809E+01 0.  1.
</event>
<event>
 5   0  0.3466598E-03  0.9969424E+03  0.7818609E-02  0.9311905E-01
        1   -1    0    0  501    0  0.00000000000E+00  0.00000000000E+00  0.42668341243E+03  0.42668341246E+03  0.50400001928E-02 0. -1.
       -1   -1    0    0    0  501  0.00000000000E+00  0.00000000000E+00 -0.58233704801E+03  0.58233704804E+03  0.50400001928E-02 0.  1.
    10030    2    1    2    0    0  0.00000000000E+00  0.00000000000E+00 -0.15565363558E+03  0.10090204605E+04  0.99694244339E+03 0.  0.
        3    1    3    3  502    0 -0.29025619014E+03 -0.51499480774E+02 -0.48465766309E+03  0.56726881902E+03  0.10100000352E+00 0.  1.
       -3    1    3    3    0  502  0.29025619014E+03  0.51499480774E+02  0.32900402751E+03  0.44175164148E+03  0.10100000352E+00 0. -1.
</event>
<event>
 5   0  0.6360455E-03  0.1009964E+04  0.7818609E-02  0.9297683E-01
        2   -1    0    0  501    0  0.00000000000E+00  0.00000000000E+00  0.14980885106E+04  0.14980885106E+04  0.25500000920E-02 0.  1.
       -2   -1    0    0    0  501  0.00000000000E+00  0.00000000000E+00 -0.17022162030E+03  0.17022162032E+03  0.25500000920E-02 0. -1.
    10030    2    1    2    0    0  0.00000000000E+00  0.00000000000E+00  0.13278668903E+04  0.16683101309E+04  0.10099644620E+04 0.  0.
        4    1    3    3  502    0 -0.93464356394E+01  0.12237769556E+03  0.14730733814E+04  0.14781780868E+04  0.12699999809E+01 0.  1.
       -4    1    3    3    0  502  0.93464356394E+01 -0.12237769556E+03 -0.14520649115E+03  0.19013204412E+03  0.12699999809E+01 0. -1.
</event>
<event>
 5   0  0.6022787E-03  0.9848577E+03  0.7818609E-02  0.9325310E-01
       -2   -1    0    0    0  501  0.00000000000E+00  0.00000000000E+00  0.57306020490E+03  0.57306020491E+03  0.25500000920E-02 0.  1.
        2   -1    0    0  501    0  0.00000000000E+00  0.00000000000E+00 -0.42314255810E+03  0.42314255810E+03  0.25500000920E-02 0. -1.
    10030    2    1    2    0    0  0.00000000000E+00  0.00000000000E+00  0.14991764681E+03  0.99620276301E+03  0.98485767713E+03 0.  0.
        5    1    3    3  502    0 -0.33977450789E+03  0.34108737517E+03 -0.29559865534E+02  0.48237245917E+03  0.46999998093E+01 0.  1.
       -5    1    3    3    0  502  0.33977450789E+03 -0.34108737517E+03  0.17947751234E+03  0.51383030384E+03  0.46999998093E+01 0. -1.
</event>
<event>
 5   0  0.6606947E-03  0.1017310E+04  0.7818609E-02  0.9289761E-01
        2   -1    0    0  501    0  0.00000000000E+00  0.00000000000E+00  0.48685160875E+03  0.48685160876E+03  0.25500000920E-02 0. -1.
       -2   -1    0    0    0  501  0.00000000000E+00  0.00000000000E+00 -0.53143467045E+03  0.53143467046E+03  0.25500000920E-02 0.  1.
    10030    2    1    2    0    0  0.00000000000E+00  0.00000000000E+00 -0.44583061701E+02  0.10182862792E+04  0.10173098334E+04 0.  0.
        1    1    3    3  502    0  0.33904040303E+03  0.23923135309E+03 -0.31676736210E+03  0.52203601112E+03  0.50400001928E-02 0.  1.
       -1    1    3    3    0  502 -0.33904040303E+03 -0.23923135309E+03  0.27218430040E+03  0.49625026811E+03  0.50400001928E-02 0. -1.
</event>
<event>
 5   0  0.3569359E-03  0.9957224E+03  0.7818609E-02  0.9313249E-01
        1   -1    0    0  501    0  0.00000000000E+00  0.00000000000E+00  0.13226872340E+04  0.13226872340E+04  0.50400001928E-02 0. -1.
       -1   -1    0    0    0  501  0.00000000000E+00  0.00000000000E+00 -0.18739560041E+03  0.18739560048E+03  0.50400001928E-02 0.  1.
    10030    2    1    2    0    0  0.00000000000E+00  0.00000000000E+00  0.11352916336E+04  0.15100828345E+04  0.99572238788E+03 0.  0.
        4    1    3    3  502    0  0.44403859797E+03  0.54711876149E+02  0.23642020000E+03  0.50602350711E+03  0.12699999809E+01 0.  1.
       -4    1    3    3    0  502 -0.44403859797E+03 -0.54711876149E+02  0.89887143356E+03  0.10040593274E+04  0.12699999809E+01 0. -1.
</event>
<event>
 5   0  0.6606947E-03  0.9949243E+03  0.7818609E-02  0.9314129E-01
       -2   -1    0    0    0  501  0.00000000000E+00  0.00000000000E+00  0.41107262460E+03  0.41107262461E+03  0.25500000920E-02 0. -1.
        2   -1    0    0  501    0  0.00000000000E+00  0.00000000000E+00 -0.60200696958E+03  0.60200696958E+03  0.25500000920E-02 0.  1.
    10030    2    1    2    0    0  0.00000000000E+00  0.00000000000E+00 -0.19093434498E+03  0.10130795942E+04  0.99492428861E+03 0.  0.
        1    1    3    3  502    0  0.15833702665E+03  0.19487808190E+02 -0.57525344682E+03  0.59696475338E+03  0.50400001928E-02 0.  1.
       -1    1    3    3    0  502 -0.15833702665E+03 -0.19487808190E+02  0.38431910184E+03  0.41611484081E+03  0.50400001928E-02 0. -1.
</event>
<event>
 5   0  0.3643002E-03  0.9960211E+03  0.7818609E-02  0.9312920E-01
       -1   -1    0    0    0  501  0.00000000000E+00  0.00000000000E+00  0.59350220663E+03  0.59350220665E+03  0.50400001928E-02 0. -1.
        1   -1    0    0  501    0  0.00000000000E+00  0.00000000000E+00 -0.41788300959E+03  0.41788300962E+03  0.50400001928E-02 0.  1.
    10030    2    1    2    0    0  0.00000000000E+00  0.00000000000E+00  0.17561919705E+03  0.10113852163E+04  0.99602106068E+03 0.  0.
        2    1    3    3  502    0 -0.14877998528E+03  0.36944874801E+03 -0.21577822877E+03  0.45297693699E+03  0.25500000920E-02 0.  1.
       -2    1    3    3    0  502  0.14877998528E+03 -0.36944874801E+03  0.39139742582E+03  0.55840827928E+03  0.25500000920E-02 0. -1.
</event>
<event>
 5   0  0.6376961E-03  0.1010788E+04  0.7818609E-02  0.9296792E-01
       -2   -1    0    0    0  501  0.00000000000E+00  0.00000000000E+00  0.50588500796E+03  0.50588500797E+03  0.25500000920E-02 0.  1.
        2   -1    0    0  501    0  0.00000000000E+00  0.00000000000E+00 -0.50490315455E+03  0.50490315455E+03  0.25500000920E-02 0. -1.
    10030    2    1    2    0    0  0.00000000000E+00  0.00000000000E+00  0.98185341939E+00  0.10107881625E+04  0.10107876856E+04 0.  0.
        3    1    3    3  502    0  0.38869363365E+03 -0.29312516940E+03  0.13620326133E+03  0.50552590871E+03  0.10100000352E+00 0.  1.
       -3    1    3    3    0  502 -0.38869363365E+03  0.29312516940E+03 -0.13522140791E+03  0.50526225382E+03  0.10100000352E+00 0. -1.
</event>
<event>
 5   0  0.3569359E-03  0.9999439E+03  0.7818609E-02  0.9308606E-01
        1   -1    0    0  501    0  0.00000000000E+00  0.00000000000E+00  0.63195277980E+03  0.63195277982E+03  0.50400001928E-02 0.  1.
       -1   -1    0    0    0  501  0.00000000000E+00  0.00000000000E+00 -0.39555480630E+03  0.39555480633E+03  0.50400001928E-02 0. -1.
    10030    2    1    2    0    0  0.00000000000E+00  0.00000000000E+00  0.23639797350E+03  0.10275075861E+04  0.99994391728E+03 0.  0.
        4    1    3    3  502    0 -0.44042008380E+03 -0.25275243491E+01  0.36135250571E+03  0.56969595828E+03  0.12699999809E+01 0.  1.
       -4    1    3    3    0  502  0.44042008380E+03  0.25275243491E+01 -0.12495453221E+03  0.45781162787E+03  0.12699999809E+01 0. -1.
</event>
<event>
 5   0  0.3569359E-03  0.9886199E+03  0.7818609E-02  0.9321115E-01
       -1   -1    0    0    0  501  0.00000000000E+00  0.00000000000E+00  0.45112265504E+03  0.45112265506E+03  0.50400001928E-02 0. -1.
        1   -1    0    0  501    0  0.00000000000E+00  0.00000000000E+00 -0.54163171591E+03  0.54163171593E+03  0.50400001928E-02 0.  1.
    10030    2    1    2    0    0  0.00000000000E+00  0.00000000000E+00 -0.90509060876E+02  0.99275437100E+03  0.98861992244E+03 0.  0.
        4    1    3    3  502    0  0.25646603989E+02  0.10786094038E+03  0.43847465940E+03  0.45227576830E+03  0.12699999809E+01 0. -1.
       -4    1    3    3    0  502 -0.25646603989E+02 -0.10786094038E+03 -0.52898372028E+03  0.54047860270E+03  0.12699999809E+01 0.  1.
</event>
<event>
 5   0  0.6376961E-03  0.1008174E+04  0.7818609E-02  0.9299624E-01
       -2   -1    0    0    0  501  0.00000000000E+00  0.00000000000E+00  0.85956756852E+02  0.85956756890E+02  0.25500000920E-02 0. -1.
        2   -1    0    0  501    0  0.00000000000E+00  0.00000000000E+00 -0.29561832966E+04  0.29561832966E+04  0.25500000920E-02 0.  1.
    10030    2    1    2    0    0  0.00000000000E+00  0.00000000000E+00 -0.28702265397E+04  0.30421400535E+04  0.10081744470E+04 0.  0.
        3    1    3    3  502    0 -0.54081794707E+02 -0.41306939062E+02  0.72032060153E+02  0.99094559004E+02  0.10100000352E+00 0. -1.
       -3    1    3    3    0  502  0.54081794707E+02  0.41306939062E+02 -0.29422585999E+04  0.29430454945E+04  0.10100000352E+00 0.  1.
</event>
<event>
 5   0  0.6360455E-03  0.1019448E+04  0.7818609E-02  0.9287468E-01
        2   -1    0    0  501    0  0.00000000000E+00  0.00000000000E+00  0.59884435019E+03  0.59884435019E+03  0.25500000920E-02 0. -1.
       -2   -1    0    0    0  501  0.00000000000E+00  0.00000000000E+00 -0.43386636131E+03  0.43386636132E+03  0.25500000920E-02 0.  1.
    10030    2    1    2    0    0  0.00000000000E+00  0.00000000000E+00  0.16497798888E+03  0.10327107115E+04  0.10194477313E+04 0.  0.
        4    1    3    3  502    0 -0.70982430024E+02 -0.37923949665E+03 -0.25494476984E+03  0.46244951050E+03  0.12699999809E+01 0.  1.
       -4    1    3    3    0  502  0.70982430024E+02  0.37923949665E+03  0.41992275872E+03  0.57026120101E+03  0.12699999809E+01 0. -1.
</event>
<event>
 5   0  0.3640180E-03  0.9948149E+03  0.7818609E-02  0.9314250E-01
        1   -1    0    0  501    0  0.00000000000E+00  0.00000000000E+00  0.90499722420E+03  0.90499722421E+03  0.50400001928E-02 0. -1.
       -1   -1    0    0    0  501  0.00000000000E+00  0.00000000000E+00 -0.27338664789E+03  0.27338664794E+03  0.50400001928E-02 0.  1.
    10030    2    1    2    0    0  0.00000000000E+00  0.00000000000E+00  0.63161057631E+03  0.11783838722E+04  0.99481487225E+03 0.  0.
        5    1    3    3  502    0 -0.27353429514E+03  0.33989542279E+02 -0.17461666768E+03  0.32632709086E+03  0.46999998093E+01 0.  1.
       -5    1    3    3    0  502  0.27353429514E+03 -0.33989542279E+02  0.80622724398E+03  0.85205678129E+03  0.46999998093E+01 0. -1.
</event>
<event>
 5   0  0.6606947E-03  0.9920040E+03  0.7818609E-02  0.9317358E-01
       -2   -1    0    0    0  501  0.00000000000E+00  0.00000000000E+00  0.39682476488E+03  0.39682476489E+03  0.25500000920E-02 0.  1.
        2   -1    0    0  501    0  0.00000000000E+00  0.00000000000E+00 -0.61996626274E+03  0.61996626275E+03  0.25500000920E-02 0. -1.
    10030    2    1    2    0    0  0.00000000000E+00  0.00000000000E+00 -0.22314149786E+03  0.10167910276E+04  0.99200396462E+03 0.  0.
        1    1    3    3  502    0  0.31707366089E+03  0.37795093953E+03 -0.16418909908E+03  0.51994295783E+03  0.50400001928E-02 0.  1.
       -1    1    3    3    0  502 -0.31707366089E+03 -0.37795093953E+03 -0.58952398781E+02  0.49684806980E+03  0.50400001928E-02 0. -1.
</event>
<event>
 5   0  0.6376961E-03  0.1000997E+04  0.7818609E-02  0.9307452E-01
       -2   -1    0    0    0  501  0.00000000000E+00  0.00000000000E+00  0.32968923729E+03  0.32968923730E+03  0.25500000920E-02 0. -1.
        2   -1    0    0  501    0  0.00000000000E+00  0.00000000000E+00 -0.75980320876E+03  0.75980320876E+03  0.25500000920E-02 0.  1.
    10030    2    1    2    0    0  0.00000000000E+00  0.00000000000E+00 -0.43011397147E+03  0.10894924461E+04  0.10009973834E+04 0.  0.
        3    1    3    3  502    0  0.10609312944E+02 -0.90112073406E+02 -0.75077676736E+03  0.75623971590E+03  0.10100000352E+00 0.  1.
       -3    1    3    3    0  502 -0.10609312944E+02  0.90112073406E+02  0.32066279589E+03  0.33325273017E+03  0.10100000352E+00 0. -1.
</event>
<event>
 5   0  0.3608845E-03  0.1000454E+04  0.7818609E-02  0.9308047E-01
       -1   -1    0    0    0  501  0.00000000000E+00  0.00000000000E+00  0.45239464353E+03  0.45239464355E+03  0.50400001928E-02 0.  1.
        1   -1    0    0  501    0  0.00000000000E+00  0.00000000000E+00 -0.55311684895E+03  0.55311684898E+03  0.50400001928E-02 0. -1.
    10030    2    1    2    0    0  0.00000000000E+00  0.00000000000E+00 -0.10072220543E+03  0.10055114925E+04  0.10004540964E+04 0.  0.
        1    1    3    3  502    0 -0.39418727989E+03  0.30688010523E+03 -0.24383021901E+02  0.50015351883E+03  0.50400001928E-02 0.  1.
       -1    1    3    3    0  502  0.39418727989E+03 -0.30688010523E+03 -0.76339183526E+02  0.50535797370E+03  0.50400001928E-02 0. -1.
</event>
<event>
 5   0  0.3569359E-03  0.1009534E+04  0.7818609E-02  0.9298149E-01
       -1   -1    0    0    0  501  0.00000000000E+00  0.00000000000E+00  0.90435436787E+03  0.90435436788E+03  0.50400001928E-02 0. -1.
        1   -1    0    0  501    0  0.00000000000E+00  0.00000000000E+00 -0.28173666765E+03  0.28173666769E+03  0.50400001928E-02 0.  1.
    10030    2    1    2    0    0  0.00000000000E+00  0.00000000000E+00  0.62261770022E+03  0.11860910356E+04  0.10095341223E+04 0.  0.
        4    1    3    3  502    0  0.32822793125E+03 -0.17511199884E+03 -0.89516864317E+02  0.38263908437E+03  0.12699999809E+01 0.  1.
       -4    1    3    3    0  502 -0.32822793125E+03  0.17511199884E+03  0.71213456454E+03  0.80345195121E+03  0.12699999809E+01 0. -1.
</event>
<event>
 5   0  0.3466598E-03  0.9875960E+03  0.7818609E-02  0.9322255E-01
       -1   -1    0    0    0  501  0.00000000000E+00  0.00000000000E+00  0.14299675792E+03  0.14299675801E+03  0.50400001928E-02 0. -1.
        1   -1    0    0  501    0  0.00000000000E+00  0.00000000000E+00 -0.17051887410E+04  0.17051887410E+04  0.50400001928E-02 0.  1.
    10030    2    1    2    0    0  0.00000000000E+00  0.00000000000E+00 -0.15621919831E+04  0.18481854991E+04  0.98759599372E+03 0.  0.
        3    1    3    3  502    0 -0.15194975311E+03 -0.17540281520E+03 -0.15967800647E+04  0.16135555337E+04  0.10100000352E+00 0.  1.
       -3    1    3    3    0  502  0.15194975311E+03  0.17540281520E+03  0.34588081611E+02  0.23462996535E+03  0.10100000352E+00 0. -1.
</event>
<event>
 5   0  0.3640180E-03  0.9885413E+03  0.7818609E-02  0.9321203E-01
       -1   -1    0    0    0  501  0.00000000000E+00  0.00000000000E+00  0.24998510838E+03  0.24998510843E+03  0.50400001928E-02 0.  1.
        1   -1    0    0  501    0  0.00000000000E+00  0.00000000000E+00 -0.97727215691E+03  0.97727215693E+03  0.50400001928E-02 0. -1.
    10030    2    1    2    0    0  0.00000000000E+00  0.00000000000E+00 -0.72728704854E+03  0.12272572654E+04  0.98854132154E+03 0.  0.
        5    1    3    3  502    0 -0.22787329481E+03 -0.11996763146E+02  0.18064624218E+03  0.29107613373E+03  0.46999998093E+01 0.  1.
       -5    1    3    3    0  502  0.22787329481E+03  0.11996763146E+02 -0.90793329072E+03  0.93618113162E+03  0.46999998093E+01 0. -1.
</event>
<event>
 5   0  0.2417750E-03  0.1027279E+04  0.7818609E-02  0.9279121E-01
        3   -1    0    0  501    0  0.00000000000E+00  0.00000000000E+00  0.13683367630E+03  0.13683371357E+03  0.10100000352E+00 0. -1.
       -3   -1    0    0    0  501  0.00000000000E+00  0.00000000000E+00 -0.19280746154E+04  0.19280746181E+04  0.10100000352E+00 0.  1.
    10030    2    1    2    0    0  0.00000000000E+00  0.00000000000E+00 -0.17912409391E+04  0.20649083317E+04  0.10272790838E+04 0.  0.
        3    1    3    3  502    0  0.25113058854E+03 -0.33843300705E+01 -0.17962318900E+04  0.18137053341E+04  0.10100000352E+00 0.  1.
       -3    1    3    3    0  502 -0.25113058854E+03  0.33843300705E+01  0.49909508328E+01  0.25120299756E+03  0.10100000352E+00 0. -1.
</event>
<event>
 5   0  0.3466598E-03  0.1001524E+04  0.7818609E-02  0.9306875E-01
        1   -1    0    0  501    0  0.00000000000E+00  0.00000000000E+00  0.52099607600E+03  0.52099607602E+03  0.50400001928E-02 0. -1.
       -1   -1    0    0    0  501  0.00000000000E+00  0.00000000000E+00 -0.48131346840E+03  0.48131346843E+03  0.50400001928E-02 0.  1.
    10030    2    1    2    0    0  0.00000000000E+00  0.00000000000E+00  0.39682607596E+02  0.10023095444E+04  0.10015236959E+04 0.  0.
        3    1    3    3  502    0 -0.45008525347E+03  0.12316168061E+03  0.20168936439E+03  0.50835434971E+03  0.10100000352E+00 0. -1.
       -3    1    3    3    0  502  0.45008525347E+03 -0.12316168061E+03 -0.16200675679E+03  0.49395519474E+03  0.10100000352E+00 0.  1.
</event>
<event>
 5   0  0.6360455E-03  0.1003997E+04  0.7818609E-02  0.9304171E-01
       -2   -1    0    0    0  501  0.00000000000E+00  0.00000000000E+00  0.14467183308E+04  0.14467183308E+04  0.25500000920E-02 0.  1.
        2   -1    0    0  501    0  0.00000000000E+00  0.00000000000E+00 -0.17418921842E+03  0.17418921844E+03  0.25500000920E-02 0. -1.
    10030    2    1    2    0    0  0.00000000000E+00  0.00000000000E+00  0.12725291124E+04  0.16209075492E+04  0.10039974807E+04 0.  0.
        4    1    3    3  502    0 -0.21825370917E+03 -0.44066298699E+03  0.47335206565E+03  0.68255574177E+03  0.12699999809E+01 0. -1.
       -4    1    3    3    0  502  0.21825370917E+03  0.44066298699E+03  0.79917704674E+03  0.93835180748E+03  0.12699999809E+01 0.  1.
</event>
<event>
 5   0  0.6606947E-03  0.9511434E+03  0.7818609E-02  0.9363815E-01
       -2   -1    0    0    0  501  0.00000000000E+00  0.00000000000E+00  0.68689934900E+03  0.68689934901E+03  0.25500000920E-02 0. -1.
        2   -1    0    0  501    0  0.00000000000E+00  0.00000000000E+00 -0.32925997234E+03  0.32925997235E+03  0.25500000920E-02 0.  1.
    10030    2    1    2    0    0  0.00000000000E+00  0.00000000000E+00  0.35763937666E+03  0.10161593214E+04  0.95114343958E+03 0.  0.
        1    1    3    3  502    0 -0.13241364162E+03 -0.39860196836E+03  0.41711699597E+03  0.59194889139E+03  0.50400001928E-02 0. -1.
       -1    1    3    3    0  502  0.13241364162E+03  0.39860196836E+03 -0.59477619308E+02  0.42421042997E+03  0.50400001928E-02 0.  1.
</event>
<event>
 5   0  0.3643002E-03  0.1004843E+04  0.7818609E-02  0.9303249E-01
       -1   -1    0    0    0  501  0.00000000000E+00  0.00000000000E+00  0.11303897978E+03  0.11303897989E+03  0.50400001928E-02 0.  1.
        1   -1    0    0  501    0  0.00000000000E+00  0.00000000000E+00 -0.22330989817E+04  0.22330989817E+04  0.50400001928E-02 0. -1.
    10030    2    1    2    0    0  0.00000000000E+00  0.00000000000E+00 -0.21200600019E+04  0.23461379616E+04  0.10048427355E+04 0.  0.
        2    1    3    3  502    0 -0.13418657544E+03 -0.48047858904E+03 -0.11993691311E+04  0.12989811485E+04  0.25500000920E-02 0.  1.
       -2    1    3    3    0  502  0.13418657544E+03  0.48047858904E+03 -0.92069087084E+03  0.10471568131E+04  0.25500000920E-02 0. -1.
</event>
<event>
 5   0  0.6022787E-03  0.1025638E+04  0.7818609E-02  0.9280864E-01
       -2   -1    0    0    0  501  0.00000000000E+00  0.00000000000E+00  0.43431256526E+03  0.43431256527E+03  0.25500000920E-02 0. -1.
        2   -1    0    0  501    0  0.00000000000E+00  0.00000000000E+00 -0.60551616569E+03  0.60551616570E+03  0.25500000920E-02 0.  1.
    10030    2    1    2    0    0  0.00000000000E+00  0.00000000000E+00 -0.17120360043E+03  0.10398287310E+04  0.10256379073E+04 0.  0.
        5    1    3    3  502    0 -0.15496767445E+03  0.38805038823E+03  0.21577043139E+03  0.47029464487E+03  0.46999998093E+01 0. -1.
       -5    1    3    3    0  502  0.15496767445E+03 -0.38805038823E+03 -0.38697403182E+03  0.56953408610E+03  0.46999998093E+01 0.  1.
</event>
<event>
 5   0  0.3643002E-03  0.9872257E+03  0.7818609E-02  0.9322667E-01
        1   -1    0    0  501    0  0.00000000000E+00  0.00000000000E+00  0.13751716856E+04  0.13751716856E+04  0.50400001928E-02 0. -1.
       -1   -1    0    0    0  501  0.00000000000E+00  0.00000000000E+00 -0.17718051944E+03  0.17718051951E+03  0.50400001928E-02 0.  1.
    10030    2    1    2    0    0  0.00000000000E+00  0.00000000000E+00  0.11979911662E+04  0.15523522051E+04  0.98722567561E+03 0.  0.
        2    1    3    3  502    0 -0.20254687240E+03 -0.34103955966E+03  0.13700769957E+03  0.41964786014E+03  0.25500000920E-02 0.  1.
       -2    1    3    3    0  502  0.20254687240E+03  0.34103955966E+03  0.10609834666E+04  0.11327043450E+04  0.25500000920E-02 0. -1.
</event>
<event>
 5   0  0.6199539E-03  0.9999294E+03  0.7818609E-02  0.9308622E-01
       -2   -1    0    0    0  501  0.00000000000E+00  0.00000000000E+00  0.35518433472E+03  0.35518433473E+03  0.25500000920E-02 0.  1.
        2   -1    0    0  501    0  0.00000000000E+00  0.00000000000E+00 -0.70376047914E+03  0.70376047914E+03  0.25500000920E-02 0. -1.
    10030    2    1    2    0    0  0.00000000000E+00  0.00000000000E+00 -0.34857614442E+03  0.10589448139E+04  0.99992939269E+03 0.  0.
        2    1    3    3  502    0 -0.99454165171E+02 -0.44745583876E+03 -0.38571262432E+03  0.59906768163E+03  0.25500000920E-02 0. -1.
       -2    1    3    3    0  502  0.99454165171E+02  0.44745583876E+03  0.37136479902E+02  0.45987713224E+03  0.25500000920E-02 0.  1.
</event>
<event>
 5   0  0.6376961E-03  0.9950580E+03  0.7818609E-02  0.9313982E-01
        2   -1    0    0  501    0  0.00000000000E+00  0.00000000000E+00  0.49621379550E+03  0.49621379551E+03  0.25500000920E-02 0. -1.
       -2   -1    0    0    0  501  0.00000000000E+00  0.00000000000E+00 -0.49884772347E+03  0.49884772348E+03  0.25500000920E-02 0.  1.
    10030    2    1    2    0    0  0.00000000000E+00  0.00000000000E+00 -0.26339279732E+01  0.99506151899E+03  0.99505803298E+03 0.  0.
        3    1    3    3  502    0 -0.31393485793E+02  0.12246812047E+03  0.47988231175E+03  0.49625702495E+03  0.10100000352E+00 0. -1.
       -3    1    3    3    0  502  0.31393485793E+02 -0.12246812047E+03 -0.48251623972E+03  0.49880449404E+03  0.10100000352E+00 0.  1.
</event>
<event>
 5   0  0.2417750E-03  0.9909879E+03  0.7818609E-02  0.9318485E-01
       -3   -1    0    0    0  501  0.00000000000E+00  0.00000000000E+00  0.35765277253E+03  0.35765278679E+03  0.10100000352E+00 0.  1.
        3   -1    0    0  501    0  0.00000000000E+00  0.00000000000E+00 -0.68645971135E+03  0.68645971878E+03  0.10100000352E+00 0. -1.
    10030    2    1    2    0    0  0.00000000000E+00  0.00000000000E+00 -0.32880693882E+03  0.10441125056E+04  0.99098785122E+03 0.  0.
        4    1    3    3  502    0 -0.16591566348E+03  0.11839761345E+03 -0.64024080105E+03  0.67190467962E+03  0.12699999809E+01 0. -1.
       -4    1    3    3    0  502  0.16591566348E+03 -0.11839761345E+03  0.31143386223E+03  0.37220782595E+03  0.12699999809E+01 0.  1.
</event>
<event>
 5   0  0.6606947E-03  0.9768750E+03  0.7818609E-02  0.9334278E-01
       -2   -1    0    0    0  501  0.00000000000E+00  0.00000000000E+00  0.18692854136E+03  0.18692854138E+03  0.25500000920E-02 0.  1.
        2   -1    0    0  501    0  0.00000000000E+00  0.00000000000E+00 -0.12762695181E+04  0.12762695181E+04  0.25500000920E-02 0. -1.
    10030    2    1    2    0    0  0.00000000000E+00  0.00000000000E+00 -0.10893409767E+04  0.14631980595E+04  0.97687501639E+03 0.  0.
        1    1    3    3  502    0 -0.47431619658E+03 -0.10257414251E+03 -0.62771449588E+03  0.79342472699E+03  0.50400001928E-02 0.  1.
       -1    1    3    3    0  502  0.47431619658E+03  0.10257414251E+03 -0.46162648085E+03  0.66977333247E+03  0.50400001928E-02 0. -1.
</event>
<event>
 5   0  0.6360455E-03  0.9983048E+03  0.7818609E-02  0.9310406E-01
        2   -1    0    0  501    0  0.00000000000E+00  0.00000000000E+00  0.43675819507E+03  0.43675819508E+03  0.25500000920E-02 0.  1.
       -2   -1    0    0    0  501  0.00000000000E+00  0.00000000000E+00 -0.57046005922E+03  0.57046005923E+03  0.25500000920E-02 0. -1.
    10030    2    1    2    0    0  0.00000000000E+00  0.00000000000E+00 -0.13370186415E+03  0.10072182543E+04  0.99830477477E+03 0.  0.
        4    1    3    3  502    0 -0.22465305353E+03 -0.21358691668E+03  0.32787506574E+03  0.45121174306E+03  0.12699999809E+01 0.  1.
       -4    1    3    3    0  502  0.22465305353E+03  0.21358691668E+03 -0.46157692989E+03  0.55600651124E+03  0.12699999809E+01 0. -1.
</event>
<event>
 5   0  0.3640180E-03  0.9978893E+03  0.7818609E-02  0.9310863E-01
       -1   -1    0    0    0  501  0.00000000000E+00  0.00000000000E+00  0.47216014125E+03  0.47216014127E+03  0.50400001928E-02 0. -1.
        1   -1    0    0  501    0  0.00000000000E+00  0.00000000000E+00 -0.52724855106E+03  0.52724855109E+03  0.50400001928E-02 0.  1.
    10030    2    1    2    0    0  0.00000000000E+00  0.00000000000E+00 -0.55088409815E+02  0.99940869236E+03  0.99788927315E+03 0.  0.
        5    1    3    3  502    0  0.28052227608E+03 -0.15087508132E+03 -0.41214405264E+03  0.52090387565E+03  0.46999998093E+01 0.  1.
       -5    1    3    3    0  502 -0.28052227608E+03  0.15087508132E+03  0.35705564282E+03  0.47850481671E+03  0.46999998093E+01 0. -1.
</event>
<event>
 5   0  0.3569359E-03  0.1004894E+04  0.7818609E-02  0.9303193E-01
        1   -1    0    0  501    0  0.00000000000E+00  0.00000000000E+00  0.47168196793E+03  0.47168196796E+03  0.50400001928E-02 0.  1.
       -1   -1    0    0    0  501  0.00000000000E+00  0.00000000000E+00 -0.53521888054E+03  0.53521888056E+03  0.50400001928E-02 0. -1.
    10030    2    1    2    0    0  0.00000000000E+00  0.00000000000E+00 -0.63536912603E+02  0.10069008485E+04  0.10048942131E+04 0.  0.
        4    1    3    3  502    0  0.44342758618E+03 -0.16267486629E+02  0.20441142190E+03  0.48854712936E+03  0.12699999809E+01 0.  1.
       -4    1    3    3    0  502 -0.44342758618E+03  0.16267486629E+02 -0.26794833450E+03  0.51835371916E+03  0.12699999809E+01 0. -1.
</event>
<event>
 5   0  0.3640180E-03  0.1034767E+04  0.7818609E-02  0.9271214E-01
       -1   -1    0    0    0  501  0.00000000000E+00  0.00000000000E+00  0.32326413954E+03  0.32326413958E+03  0.50400001928E-02 0.  1.
        1   -1    0    0  501    0  0.00000000000E+00  0.00000000000E+00 -0.82807039959E+03  0.82807039960E+03  0.50400001928E-02 0. -1.
    10030    2    1    2    0    0  0.00000000000E+00  0.00000000000E+00 -0.50480626004E+03  0.11513345392E+04  0.10347665732E+04 0.  0.
        5    1    3    3  502    0  0.16065078066E+02 -0.28248002431E+02  0.32210369507E+03  0.32377294012E+03  0.46999998093E+01 0.  1.
       -5    1    3    3    0  502 -0.16065078066E+02  0.28248002431E+02 -0.82690995512E+03  0.82756159906E+03  0.46999998093E+01 0. -1.
</event>
<event>
 5   0  0.6376961E-03  0.9967942E+03  0.7818609E-02  0.9312068E-01
        2   -1    0    0  501    0  0.00000000000E+00  0.00000000000E+00  0.16980167893E+04  0.16980167893E+04  0.25500000920E-02 0. -1.
       -2   -1    0    0    0  501  0.00000000000E+00  0.00000000000E+00 -0.14628811043E+03  0.14628811046E+03  0.25500000920E-02 0.  1.
    10030    2    1    2    0    0  0.00000000000E+00  0.00000000000E+00  0.15517286789E+04  0.18443048998E+04  0.99679419664E+03 0.  0.
        3    1    3    3  502    0  0.17301338057E+03 -0.85162370059E+02 -0.74466541299E+02  0.20671607364E+03  0.10100000352E+00 0.  1.
       -3    1    3    3    0  502 -0.17301338057E+03  0.85162370059E+02  0.16261952202E+04  0.16375888261E+04  0.10100000352E+00 0. -1.
</event>
<event>
 5   0  0.6199539E-03  0.1011894E+04  0.7818609E-02  0.9295595E-01
       -2   -1    0    0    0  501  0.00000000000E+00  0.00000000000E+00  0.23425500332E+03  0.23425500333E+03  0.25500000920E-02 0.  1.
        2   -1    0    0  501    0  0.00000000000E+00  0.00000000000E+00 -0.10927502500E+04  0.10927502500E+04  0.25500000920E-02 0. -1.
    10030    2    1    2    0    0  0.00000000000E+00  0.00000000000E+00 -0.85849524671E+03  0.13270052534E+04  0.10118936969E+04 0.  0.
        2    1    3    3  502    0  0.68823548516E+02  0.35321902361E+03 -0.89564045083E+03  0.96523166993E+03  0.25500000920E-02 0. -1.
       -2    1    3    3    0  502 -0.68823548516E+02 -0.35321902361E+03  0.37145204121E+02  0.36177358343E+03  0.25500000920E-02 0.  1.
</event>
<event>
 5   0  0.6022787E-03  0.1000159E+04  0.7818609E-02  0.9308371E-01
        2   -1    0    0  501    0  0.00000000000E+00  0.00000000000E+00  0.97604346406E+03  0.97604346406E+03  0.25500000920E-02 0. -1.
       -2   -1    0    0    0  501  0.00000000000E+00  0.00000000000E+00 -0.25621740055E+03  0.25621740057E+03  0.25500000920E-02 0.  1.
    10030    2    1    2    0    0  0.00000000000E+00  0.00000000000E+00  0.71982606350E+03  0.12322608646E+04  0.10001586258E+04 0.  0.
        5    1    3    3  502    0 -0.21755118290E+03 -0.24764780050E+03  0.82320777067E+03  0.88676438469E+03  0.46999998093E+01 0. -1.
       -5    1    3    3    0  502  0.21755118290E+03  0.24764780050E+03 -0.10338170717E+03  0.34549647993E+03  0.46999998093E+01 0.  1.
</event>
<event>
 5   0  0.3569359E-03  0.1013812E+04  0.7818609E-02  0.9293525E-01
        1   -1    0    0  501    0  0.00000000000E+00  0.00000000000E+00  0.63460048311E+03  0.63460048313E+03  0.50400001928E-02 0. -1.
       -1   -1    0    0    0  501  0.00000000000E+00  0.00000000000E+00 -0.40490611707E+03  0.40490611710E+03  0.50400001928E-02 0.  1.
    10030    2    1    2    0    0  0.00000000000E+00  0.00000000000E+00  0.22969436604E+03  0.10395066002E+04  0.10138118514E+04 0.  0.
        4    1    3    3  502    0  0.23963651231E+03 -0.42001874633E+03 -0.41027467043E+02  0.48531048953E+03  0.12699999809E+01 0.  1.
       -4    1    3    3    0  502 -0.23963651231E+03  0.42001874633E+03  0.27072183308E+03  0.55419611069E+03  0.12699999809E+01 0. -1.
</event>
<event>
 5   0  0.3608845E-03  0.1000930E+04  0.7818609E-02  0.9307526E-01
        1   -1    0    0  501    0  0.00000000000E+00  0.00000000000E+00  0.76194636306E+03  0.76194636308E+03  0.50400001928E-02 0.  1.
       -1   -1    0    0    0  501  0.00000000000E+00  0.00000000000E+00 -0.32871755089E+03  0.32871755093E+03  0.50400001928E-02 0. -1.
    10030    2    1    2    0    0  0.00000000000E+00  0.00000000000E+00  0.43322881217E+03  0.10906639140E+04  0.10009298525E+04 0.  0.
        1    1    3    3  502    0  0.22639474002E+03 -0.28365287393E+03 -0.15888310038E+03  0.39617845828E+03  0.50400001928E-02 0. -1.
       -1    1    3    3    0  502 -0.22639474002E+03  0.28365287393E+03  0.59211191255E+03  0.69448545572E+03  0.50400001928E-02 0.  1.
</event>
<event>
 5   0  0.6199539E-03  0.9958342E+03  0.7818609E-02  0.9313126E-01
        2   -1    0    0  501    0  0.00000000000E+00  0.00000000000E+00  0.20934989419E+04  0.20934989419E+04  0.25500000920E-02 0. -1.
       -2   -1    0    0    0  501  0.00000000000E+00  0.00000000000E+00 -0.11842444413E+03  0.11842444416E+03  0.25500000920E-02 0.  1.
    10030    2    1    2    0    0  0.00000000000E+00  0.00000000000E+00  0.19750744978E+04  0.22119233861E+04  0.99583422018E+03 0.  0.
        2    1    3    3  502    0  0.18966558116E+03  0.18187371014E+03  0.48133614068E+02  0.26714775674E+03  0.25500000920E-02 0.  1.
       -2    1    3    3    0  502 -0.18966558116E+03 -0.18187371014E+03  0.19269408837E+04  0.19447756294E+04  0.25500000920E-02 0. -1.
</event>
<event>
 5   0  0.2417750E-03  0.9965339E+03  0.7818609E-02  0.9312355E-01
        3   -1    0    0  501    0  0.00000000000E+00  0.00000000000E+00  0.19725563807E+03  0.19725566392E+03  0.10100000352E+00 0. -1.
       -3   -1    0    0    0  501  0.00000000000E+00  0.00000000000E+00 -0.12586200804E+04  0.12586200844E+04  0.10100000352E+00 0.  1.
    10030    2    1    2    0    0  0.00000000000E+00  0.00000000000E+00 -0.10613644423E+04  0.14558757484E+04  0.99653385052E+03 0.  0.
        4    1    3    3  502    0  0.46054784414E+03 -0.11258436360E+03 -0.30677798843E+03  0.56470691757E+03  0.12699999809E+01 0. -1.
       -4    1    3    3    0  502 -0.46054784414E+03  0.11258436360E+03 -0.75458645389E+03  0.89116883078E+03  0.12699999809E+01 0.  1.
</event>
<event>
 5   0  0.3569359E-03  0.1016716E+04  0.7818609E-02  0.9290398E-01
        1   -1    0    0  501    0  0.00000000000E+00  0.00000000000E+00  0.54482091958E+03  0.54482091960E+03  0.50400001928E-02 0. -1.
       -1   -1    0    0    0  501  0.00000000000E+00  0.00000000000E+00 -0.47433585099E+03  0.47433585102E+03  0.50400001928E-02 0.  1.
    10030    2    1    2    0    0  0.00000000000E+00  0.00000000000E+00  0.70485068587E+02  0.10191567706E+04  0.10167164689E+04 0.  0.
        4    1    3    3  502    0  0.30285929199E+03 -0.42148580574E+02  0.44232837680E+03  0.53773251660E+03  0.12699999809E+01 0. -1.
       -4    1    3    3    0  502 -0.30285929199E+03  0.42148580574E+02 -0.37184330821E+03  0.48142425401E+03  0.12699999809E+01 0.  1.
</event>
<event>
 5   0  0.6360455E-03  0.1035398E+04  0.7818609E-02  0.9270551E-01
       -2   -1    0    0    0  501  0.00000000000E+00  0.00000000000E+00  0.52904380260E+03  0.52904380261E+03  0.25500000920E-02 0.  1.
        2   -1    0    0  501    0  0.00000000000E+00  0.00000000000E+00 -0.50659703535E+03  0.50659703535E+03  0.25500000920E-02 0. -1.
    10030    2    1    2    0    0  0.00000000000E+00  0.00000000000E+00  0.22446767253E+02  0.10356408380E+04  0.10353975506E+04 0.  0.
        4    1    3    3  502    0 -0.17690335319E+03 -0.40891637552E+03 -0.25247279876E+03  0.51210499466E+03  0.12699999809E+01 0. -1.
       -4    1    3    3    0  502  0.17690335319E+03  0.40891637552E+03  0.27491956601E+03  0.52353584330E+03  0.12699999809E+01 0.  1.
</event>
<event>
 5   0  0.3640180E-03  0.1002772E+04  0.7818609E-02  0.9305510E-01
        1   -1    0    0  501    0  0.00000000000E+00  0.00000000000E+00  0.37818376692E+03  0.37818376695E+03  0.50400001928E-02 0.  1.
       -1   -1    0    0    0  501  0.00000000000E+00  0.00000000000E+00 -0.66472415352E+03  0.66472415354E+03  0.50400001928E-02 0. -1.
    10030    2    1    2    0    0  0.00000000000E+00  0.00000000000E+00 -0.28654038661E+03  0.10429079205E+04  0.10027719269E+04 0.  0.
        5    1    3    3  502    0 -0.34954771594E+03  0.34162244256E+03 -0.25943822284E+03  0.55337128626E+03  0.46999998093E+01 0. -1.
       -5    1    3    3    0  502  0.34954771594E+03 -0.34162244256E+03 -0.27102163767E+02  0.48953663424E+03  0.46999998093E+01 0.  1.
</event>
<event>
 5   0  0.6022787E-03  0.1048244E+04  0.7818609E-02  0.9257159E-01
       -2   -1    0    0    0  501  0.00000000000E+00  0.00000000000E+00  0.80050047154E+03  0.80050047154E+03  0.25500000920E-02 0.  1.
        2   -1    0    0  501    0  0.00000000000E+00  0.00000000000E+00 -0.34316529994E+03  0.34316529995E+03  0.25500000920E-02 0. -1.
    10030    2    1    2    0    0  0.00000000000E+00  0.00000000000E+00  0.45733517159E+03  0.11436657715E+04  0.10482442166E+04 0.  0.
        5    1    3    3  502    0  0.50402698125E+03 -0.14264563314E+03  0.24727660143E+03  0.57927435822E+03  0.46999998093E+01 0.  1.
       -5    1    3    3    0  502 -0.50402698125E+03  0.14264563314E+03  0.21005857017E+03  0.56439141327E+03  0.46999998093E+01 0. -1.
</event>
<event>
 5   0  0.6606947E-03  0.1004674E+04  0.7818609E-02  0.9303433E-01
        2   -1    0    0  501    0  0.00000000000E+00  0.00000000000E+00  0.27338158119E+04  0.27338158119E+04  0.25500000920E-02 0.  1.
       -2   -1    0    0    0  501  0.00000000000E+00  0.00000000000E+00 -0.92304172644E+02  0.92304172680E+02  0.25500000920E-02 0. -1.
    10030    2    1    2    0    0  0.00000000000E+00  0.00000000000E+00  0.26415116392E+04  0.28261199846E+04  0.10046742890E+04 0.  0.
        1    1    3    3  502    0  0.41573110640E+02  0.17701543073E+02 -0.86576129113E+02  0.97658047866E+02  0.50400001928E-02 0. -1.
       -1    1    3    3    0  502 -0.41573110640E+02 -0.17701543073E+02  0.27280877683E+04  0.27284619367E+04  0.50400001928E-02 0.  1.
</event>
<event>
 5   0  0.3466598E-03  0.1004236E+04  0.7818609E-02  0.9303911E-01
       -1   -1    0    0    0  501  0.00000000000E+00  0.00000000000E+00  0.93271409867E+03  0.93271409868E+03  0.50400001928E-02 0. -1.
        1   -1    0    0  501    0  0.00000000000E+00  0.00000000000E+00 -0.27031080622E+03  0.27031080626E+03  0.50400001928E-02 0.  1.
    10030    2    1    2    0    0  0.00000000000E+00  0.00000000000E+00  0.66240329245E+03  0.12030249049E+04  0.10042364264E+04 0.  0.
        3    1    3    3  502    0 -0.15347327904E+03 -0.44850863883E+03  0.13287438365E+03  0.49231053057E+03  0.10100000352E+00 0. -1.
       -3    1    3    3    0  502  0.15347327904E+03  0.44850863883E+03  0.52952890880E+03  0.71071437437E+03  0.10100000352E+00 0.  1.
</event>
<event>
 5   0  0.2417750E-03  0.9738895E+03  0.7818609E-02  0.9337655E-01
       -3   -1    0    0    0  501  0.00000000000E+00  0.00000000000E+00  0.85021257531E+03  0.85021258131E+03  0.10100000352E+00 0.  1.
        3   -1    0    0  501    0  0.00000000000E+00  0.00000000000E+00 -0.27888926491E+03  0.27888928320E+03  0.10100000352E+00 0. -1.
    10030    2    1    2    0    0  0.00000000000E+00  0.00000000000E+00  0.57132331040E+03  0.11291018645E+04  0.97388946777E+03 0.  0.
        3    1    3    3  502    0  0.21583044275E+03  0.18050950788E+03 -0.17510546946E+03  0.33140367845E+03  0.10100000352E+00 0. -1.
       -3    1    3    3    0  502 -0.21583044275E+03 -0.18050950788E+03  0.74642877986E+03  0.79769818606E+03  0.10100000352E+00 0.  1.
</event>
<event>
 5   0  0.3643002E-03  0.9999792E+03  0.7818609E-02  0.9308568E-01
        1   -1    0    0  501    0  0.00000000000E+00  0.00000000000E+00  0.71481940542E+03  0.71481940543E+03  0.50400001928E-02 0.  1.
       -1   -1    0    0    0  501  0.00000000000E+00  0.00000000000E+00 -0.34972415321E+03  0.34972415325E+03  0.50400001928E-02 0. -1.
    10030    2    1    2    0    0  0.00000000000E+00  0.00000000000E+00  0.36509525220E+03  0.10645435587E+04  0.99997922236E+03 0.  0.
        2    1    3    3  502    0  0.98029864615E+02 -0.30174477025E+03 -0.22883483821E+03  0.39118428383E+03  0.25500000920E-02 0. -1.
       -2    1    3    3    0  502 -0.98029864615E+02  0.30174477025E+03  0.59393009042E+03  0.67335927486E+03  0.25500000920E-02 0.  1.
</event>
<event>
 5   0  0.3569359E-03  0.9936345E+03  0.7818609E-02  0.9315554E-01
        1   -1    0    0  501    0  0.00000000000E+00  0.00000000000E+00  0.51251099757E+03  0.51251099759E+03  0.50400001928E-02 0. -1.
       -1   -1    0    0    0  501  0.00000000000E+00  0.00000000000E+00 -0.48160410382E+03  0.48160410385E+03  0.50400001928E-02 0.  1.
    10030    2    1    2    0    0  0.00000000000E+00  0.00000000000E+00  0.30906893749E+02  0.99411510144E+03  0.99363453987E+03 0.  0.
        4    1    3    3  502    0 -0.49096374839E+03  0.35613152001E+02 -0.51751117596E+02  0.49496817060E+03  0.12699999809E+01 0. -1.
       -4    1    3    3    0  502  0.49096374839E+03 -0.35613152001E+02  0.82658011345E+02  0.49914693084E+03  0.12699999809E+01 0.  1.
</event>
<event>
 5   0  0.3569359E-03  0.1135207E+04  0.7818609E-02  0.9171540E-01
       -1   -1    0    0    0  501  0.00000000000E+00  0.00000000000E+00  0.99532024008E+03  0.99532024009E+03  0.50400001928E-02 0.  1.
        1   -1    0    0  501    0  0.00000000000E+00  0.00000000000E+00 -0.32368858723E+03  0.32368858727E+03  0.50400001928E-02 0. -1.
    10030    2    1    2    0    0  0.00000000000E+00  0.00000000000E+00  0.67163165285E+03  0.13190088274E+04  0.11352071219E+04 0.  0.
        4    1    3    3  502    0 -0.26197436113E+03 -0.17122389617E+03  0.88600703151E+03  0.93965858762E+03  0.12699999809E+01 0.  1.
       -4    1    3    3    0  502  0.26197436113E+03  0.17122389617E+03 -0.21437537866E+03  0.37935023973E+03  0.12699999809E+01 0. -1.
</event>
<event>
 5   0  0.3608845E-03  0.9350472E+03  0.7818609E-02  0.9382801E-01
        1   -1    0    0  501    0  0.00000000000E+00  0.00000000000E+00  0.10132013723E+04  0.10132013723E+04  0.50400001928E-02 0.  1.
       -1   -1    0    0    0  501  0.00000000000E+00  0.00000000000E+00 -0.21573037177E+03  0.21573037183E+03  0.50400001928E-02 0. -1.
    10030    2    1    2    0    0  0.00000000000E+00  0.00000000000E+00  0.79747100054E+03  0.12289317442E+04  0.93504718335E+03 0.  0.
        1    1    3    3  502    0  0.36385559298E+03  0.25221124108E+03  0.20125398574E+03  0.48631735469E+03  0.50400001928E-02 0. -1.
       -1    1    3    3    0  502 -0.36385559298E+03 -0.25221124108E+03  0.59621701481E+03  0.74261438947E+03  0.50400001928E-02 0.  1.
</event>
<event>
 5   0  0.6022787E-03  0.1012540E+04  0.7818609E-02  0.9294897E-01
        2   -1    0    0  501    0  0.00000000000E+00  0.00000000000E+00  0.14179546570E+04  0.14179546570E+04  0.25500000920E-02 0. -1.
       -2   -1    0    0    0  501  0.00000000000E+00  0.00000000000E+00 -0.18075997669E+03  0.18075997671E+03  0.25500000920E-02 0.  1.
    10030    2    1    2    0    0  0.00000000000E+00  0.00000000000E+00  0.12371946803E+04  0.15987146337E+04  0.10125402723E+04 0.  0.
        5    1    3    3  502    0 -0.23904814925E+03  0.43896032454E+03  0.49172119460E+03  0.70117188149E+03  0.46999998093E+01 0.  1.
       -5    1    3    3    0  502  0.23904814925E+03 -0.43896032454E+03  0.74547348570E+03  0.89754275222E+03  0.46999998093E+01 0. -1.
</event>
<event>
 5   0  0.6199539E-03  0.9582439E+03  0.7818609E-02  0.9355566E-01
        2   -1    0    0  501    0  0.00000000000E+00  0.00000000000E+00  0.93296119241E+03  0.93296119241E+03  0.25500000920E-02 0.  1.
       -2   -1    0    0    0  501  0.00000000000E+00  0.00000000000E+00 -0.24605293512E+03  0.24605293514E+03  0.25500000920E-02 0. -1.
    10030    2    1    2    0    0  0.00000000000E+00  0.00000000000E+00  0.68690825729E+03  0.11790141275E+04  0.95824389329E+03 0.  0.
        2    1    3    3  502    0  0.44372324792E+03 -0.17796417532E+03  0.30461837299E+03  0.56688087074E+03  0.25500000920E-02 0.  1.
       -2    1    3    3    0  502 -0.44372324792E+03  0.17796417532E+03  0.38228988430E+03  0.61213325681E+03  0.25500000920E-02 0. -1.
</event>
<event>
 5   0  0.3643002E-03  0.1012238E+04  0.7818609E-02  0.9295224E-01
        1   -1    0    0  501    0  0.00000000000E+00  0.00000000000E+00  0.29442476953E+03  0.29442476957E+03  0.50400001928E-02 0.  1.
       -1   -1    0    0    0  501  0.00000000000E+00  0.00000000000E+00 -0.87002268423E+03  0.87002268424E+03  0.50400001928E-02 0. -1.
    10030    2    1    2    0    0  0.00000000000E+00  0.00000000000E+00 -0.57559791470E+03  0.11644474538E+04  0.10122375775E+04 0.  0.
        2    1    3    3  502    0  0.79910078233E+02  0.93539094323E+02  0.27696233449E+03  0.30305662425E+03  0.25500000920E-02 0.  1.
       -2    1    3    3    0  502 -0.79910078233E+02 -0.93539094323E+02 -0.85256024918E+03  0.86139082957E+03  0.25500000920E-02 0. -1.
</event>
<event>
 5   0  0.3608845E-03  0.9986740E+03  0.7818609E-02  0.9310000E-01
       -1   -1    0    0    0  501  0.00000000000E+00  0.00000000000E+00  0.85516310252E+03  0.85516310253E+03  0.50400001928E-02 0.  1.
        1   -1    0    0  501    0  0.00000000000E+00  0.00000000000E+00 -0.29156712316E+03  0.29156712320E+03  0.50400001928E-02 0. -1.
    10030    2    1    2    0    0  0.00000000000E+00  0.00000000000E+00  0.56359597935E+03  0.11467302257E+04  0.99867401221E+03 0.  0.
        1    1    3    3  502    0  0.23382217533E+03 -0.32975915035E+03 -0.54786104374E+02  0.40794046646E+03  0.50400001928E-02 0. -1.
       -1    1    3    3    0  502 -0.23382217533E+03  0.32975915035E+03  0.61838208373E+03  0.73878975928E+03  0.50400001928E-02 0.  1.
</event>
<event>
 5   0  0.3466598E-03  0.9974722E+03  0.7818609E-02  0.9311322E-01
        1   -1    0    0  501    0  0.00000000000E+00  0.00000000000E+00  0.75637432617E+03  0.75637432619E+03  0.50400001928E-02 0.  1.
       -1   -1    0    0    0  501  0.00000000000E+00  0.00000000000E+00 -0.32885529189E+03  0.32885529193E+03  0.50400001928E-02 0. -1.
    10030    2    1    2    0    0  0.00000000000E+00  0.00000000000E+00  0.42751903428E+03  0.10852296181E+04  0.99747220481E+03 0.  0.
        3    1    3    3  502    0  0.41022235615E+03 -0.26721696986E+03  0.11025609655E+03  0.50184032071E+03  0.10100000352E+00 0. -1.
       -3    1    3    3    0  502 -0.41022235615E+03  0.26721696986E+03  0.31726293774E+03  0.58338929741E+03  0.10100000352E+00 0.  1.
</event>
<event>
 5   0  0.3608845E-03  0.9842111E+03  0.7818609E-02  0.9326033E-01
       -1   -1    0    0    0  501  0.00000000000E+00  0.00000000000E+00  0.57297877174E+03  0.57297877177E+03  0.50400001928E-02 0. -1.
        1   -1    0    0  501    0  0.00000000000E+00  0.00000000000E+00 -0.42264719969E+03  0.42264719972E+03  0.50400001928E-02 0.  1.
    10030    2    1    2    0    0  0.00000000000E+00  0.00000000000E+00  0.15033157206E+03  0.99562597148E+03  0.98421110212E+03 0.  0.
        1    1    3    3  502    0 -0.43620707060E+02 -0.14189509340E+03 -0.39945685511E+03  0.42614875658E+03  0.50400001928E-02 0.  1.
       -1    1    3    3    0  502  0.43620707060E+02  0.14189509340E+03  0.54978842717E+03  0.56947721490E+03  0.50400001928E-02 0. -1.
</event>
<event>
 5   0  0.3569359E-03  0.1007290E+04  0.7818609E-02  0.9300585E-01
       -1   -1    0    0    0  501  0.00000000000E+00  0.00000000000E+00  0.14004991409E+03  0.14004991418E+03  0.50400001928E-02 0.  1.
        1   -1    0    0  501    0  0.00000000000E+00  0.00000000000E+00 -0.18111996574E+04  0.18111996574E+04  0.50400001928E-02 0. -1.
    10030    2    1    2    0    0  0.00000000000E+00  0.00000000000E+00 -0.16711497433E+04  0.19512495715E+04  0.10072901399E+04 0.  0.
        4    1    3    3  502    0  0.29875143776E+03 -0.58979566859E+02 -0.16126642727E+04  0.16411638188E+04  0.12699999809E+01 0. -1.
       -4    1    3    3    0  502 -0.29875143776E+03  0.58979566859E+02 -0.58485470553E+02  0.31008575271E+03  0.12699999809E+01 0.  1.
</event>
<event>
 5   0  0.3569359E-03  0.1022915E+04  0.7818609E-02  0.9283763E-01
        1   -1    0    0  501    0  0.00000000000E+00  0.00000000000E+00  0.26384711397E+04  0.26384711397E+04  0.50400001928E-02 0.  1.
       -1   -1    0    0    0  501  0.00000000000E+00  0.00000000000E+00 -0.99144154950E+02  0.99144155078E+02  0.50400001928E-02 0. -1.
    10030    2    1    2    0    0  0.00000000000E+00  0.00000000000E+00  0.25393269847E+04  0.27376152947E+04  0.10229154250E+04 0.  0.
        4    1    3    3  502    0 -0.39218188869E+03 -0.28826801084E+03  0.84920270954E+03  0.97880127435E+03  0.12699999809E+01 0. -1.
       -4    1    3    3    0  502  0.39218188869E+03  0.28826801084E+03  0.16901242752E+04  0.17588140204E+04  0.12699999809E+01 0.  1.
</event>
<event>
 5   0  0.3466598E-03  0.1001437E+04  0.7818609E-02  0.9306970E-01
        1   -1    0    0  501    0  0.00000000000E+00  0.00000000000E+00  0.61223882091E+03  0.61223882093E+03  0.50400001928E-02 0. -1.
       -1   -1    0    0    0  501  0.00000000000E+00  0.00000000000E+00 -0.40951165916E+03  0.40951165919E+03  0.50400001928E-02 0.  1.
    10030    2    1    2    0    0  0.00000000000E+00  0.00000000000E+00  0.20272716175E+03  0.10217504801E+04  0.10014368385E+04 0.  0.
        3    1    3    3  502    0  0.32124260307E+01  0.24238002520E+03  0.54838389171E+03  0.59956926138E+03  0.10100000352E+00 0. -1.
       -3    1    3    3    0  502 -0.32124260307E+01 -0.24238002520E+03 -0.34565672996E+03  0.42218121875E+03  0.10100000352E+00 0.  1.
</event>
<event>
 5   0  0.6199539E-03  0.1002010E+04  0.7818609E-02  0.9306343E-01
       -2   -1    0    0    0  501  0.00000000000E+00  0.00000000000E+00  0.13523497497E+03  0.13523497499E+03  0.25500000920E-02 0. -1.
        2   -1    0    0  501    0  0.00000000000E+00  0.00000000000E+00 -0.18560746770E+04  0.18560746770E+04  0.25500000920E-02 0.  1.
    10030    2    1    2    0    0  0.00000000000E+00  0.00000000000E+00 -0.17208397020E+04  0.19913096520E+04  0.10020104041E+04 0.  0.
        2    1    3    3  502    0 -0.40598686541E+03 -0.29106713661E+03 -0.93637581633E+03  0.10612940602E+04  0.25500000920E-02 0. -1.
       -2    1    3    3    0  502  0.40598686541E+03  0.29106713661E+03 -0.78446388567E+03  0.93001559172E+03  0.25500000920E-02 0.  1.
</event>
<event>
 5   0  0.3640180E-03  0.9920262E+03  0.7818609E-02  0.9317334E-01
        1   -1    0    0  501    0  0.00000000000E+00  0.00000000000E+00  0.53952140815E+03  0.53952140817E+03  0.50400001928E-02 0.  1.
       -1   -1    0    0    0  501  0.00000000000E+00  0.00000000000E+00 -0.45601340569E+03  0.45601340572E+03  0.50400001928E-02 0. -1.
    10030    2    1    2    0    0  0.00000000000E+00  0.00000000000E+00  0.83508002457E+02  0.99553481389E+03  0.99202619885E+03 0.  0.
        5    1    3    3  502    0  0.32072761858E+03  0.28359502230E+03  0.29306847984E+03  0.51884830719E+03  0.46999998093E+01 0.  1.
       -5    1    3    3    0  502 -0.32072761858E+03 -0.28359502230E+03 -0.20956047738E+03  0.47668650671E+03  0.46999998093E+01 0. -1.
</event>
<event>
 5   0  0.6606947E-03  0.1106273E+04  0.7818609E-02  0.9199099E-01
       -2   -1    0    0    0  501  0.00000000000E+00  0.00000000000E+00  0.16091917377E+03  0.16091917379E+03  0.25500000920E-02 0. -1.
        2   -1    0    0  501    0  0.00000000000E+00  0.00000000000E+00 -0.19013268449E+04  0.19013268449E+04  0.25500000920E-02 0.  1.
    10030    2    1    2    0    0  0.00000000000E+00  0.00000000000E+00 -0.17404076711E+04  0.20622460187E+04  0.11062729229E+04 0.  0.
        1    1    3    3  502    0 -0.14465750055E+02 -0.24123911334E+03  0.57295262658E+02  0.24837132458E+03  0.50400001928E-02 0. -1.
       -1    1    3    3    0  502  0.14465750055E+02  0.24123911334E+03 -0.17977029338E+04  0.18138746941E+04  0.50400001928E-02 0.  1.
</event>
<event>
 5   0  0.3466598E-03  0.9840915E+03  0.7818609E-02  0.9326167E-01
       -1   -1    0    0    0  501  0.00000000000E+00  0.00000000000E+00  0.54493730810E+03  0.54493730812E+03  0.50400001928E-02 0.  1.
        1   -1    0    0  501    0  0.00000000000E+00  0.00000000000E+00 -0.44428780518E+03  0.44428780520E+03  0.50400001928E-02 0. -1.
    10030    2    1    2    0    0  0.00000000000E+00  0.00000000000E+00  0.10064950292E+03  0.98922511332E+03  0.98409146038E+03 0.  0.
        3    1    3    3  502    0 -0.41273727164E+02  0.56263552918E+02  0.53993840493E+03  0.54442869071E+03  0.10100000352E+00 0.  1.
       -3    1    3    3    0  502  0.41273727164E+02 -0.56263552918E+02 -0.43928890201E+03  0.44479642262E+03  0.10100000352E+00 0. -1.
</event>
<event>
 5   0  0.6606947E-03  0.9996966E+03  0.7818609E-02  0.9308878E-01
       -2   -1    0    0    0  501  0.00000000000E+00  0.00000000000E+00  0.11857932502E+03  0.11857932505E+03  0.25500000920E-02 0. -1.
        2   -1    0    0  501    0  0.00000000000E+00  0.00000000000E+00 -0.21070140707E+04  0.21070140707E+04  0.25500000920E-02 0.  1.
    10030    2    1    2    0    0  0.00000000000E+00  0.00000000000E+00 -0.19884347457E+04  0.22255933958E+04  0.99969656664E+03 0.  0.
        1    1    3    3  502    0  0.27713251905E+03 -0.38396435515E+03 -0.13505403700E+04  0.14311500096E+04  0.50400001928E-02 0.  1.
       -1    1    3    3    0  502 -0.27713251905E+03  0.38396435515E+03 -0.63789437572E+03  0.79444338611E+03  0.50400001928E-02 0. -1.
</event>
<event>
 5   0  0.3608845E-03  0.1045279E+04  0.7818609E-02  0.9260232E-01
       -1   -1    0    0    0  501  0.00000000000E+00  0.00000000000E+00  0.82568956930E+03  0.82568956931E+03  0.50400001928E-02 0. -1.
        1   -1    0    0  501    0  0.00000000000E+00  0.00000000000E+00 -0.33081674813E+03  0.33081674817E+03  0.50400001928E-02 0.  1.
    10030    2    1    2    0    0  0.00000000000E+00  0.00000000000E+00  0.49487282117E+03  0.11565063175E+04  0.10452787921E+04 0.  0.
        1    1    3    3  502    0 -0.34734850314E+03  0.38852554271E+03  0.29097974830E+03  0.59688549481E+03  0.50400001928E-02 0. -1.
       -1    1    3    3    0  502  0.34734850314E+03 -0.38852554271E+03  0.20389307286E+03  0.55962082266E+03  0.50400001928E-02 0.  1.
</event>
<event>
 5   0  0.6022787E-03  0.9948764E+03  0.7818609E-02  0.9314182E-01
       -2   -1    0    0    0  501  0.00000000000E+00  0.00000000000E+00  0.12476815133E+04  0.12476815133E+04  0.25500000920E-02 0.  1.
        2   -1    0    0  501    0  0.00000000000E+00  0.00000000000E+00 -0.19832367394E+03  0.19832367395E+03  0.25500000920E-02 0. -1.
    10030    2    1    2    0    0  0.00000000000E+00  0.00000000000E+00  0.10493578394E+04  0.14460051873E+04  0.99487643784E+03 0.  0.
        5    1    3    3  502    0 -0.22803355492E+03 -0.43799782106E+03  0.61165922923E+03  0.78612371553E+03  0.46999998093E+01 0.  1.
       -5    1    3    3    0  502  0.22803355492E+03  0.43799782106E+03  0.43769861018E+03  0.65988147177E+03  0.46999998093E+01 0. -1.
</event>
<event>
 5   0  0.3643002E-03  0.1011324E+04  0.7818609E-02  0.9296211E-01
       -1   -1    0    0    0  501  0.00000000000E+00  0.00000000000E+00  0.39346518404E+03  0.39346518407E+03  0.50400001928E-02 0. -1.
        1   -1    0    0  501    0  0.00000000000E+00  0.00000000000E+00 -0.64985203134E+03  0.64985203136E+03  0.50400001928E-02 0.  1.
    10030    2    1    2    0    0  0.00000000000E+00  0.00000000000E+00 -0.25638684730E+03  0.10433172154E+04  0.10113241797E+04 0.  0.
        2    1    3    3  502    0  0.27815076611E+03  0.12037825267E+03  0.28937709092E+03  0.41904399907E+03  0.25500000920E-02 0. -1.
       -2    1    3    3    0  502 -0.27815076611E+03 -0.12037825267E+03 -0.54576393822E+03  0.62427321636E+03  0.25500000920E-02 0.  1.
</event>
<event>
 5   0  0.6376961E-03  0.9760862E+03  0.7818609E-02  0.9335169E-01
       -2   -1    0    0    0  501  0.00000000000E+00  0.00000000000E+00  0.20495835685E+03  0.20495835686E+03  0.25500000920E-02 0.  1.
        2   -1    0    0  501    0  0.00000000000E+00  0.00000000000E+00 -0.11621193241E+04  0.11621193241E+04  0.25500000920E-02 0. -1.
    10030    2    1    2    0    0  0.00000000000E+00  0.00000000000E+00 -0.95716096730E+03  0.13670776810E+04  0.97608619937E+03 0.  0.
        3    1    3    3  502    0 -0.67814198450E+02  0.45254020703E+03 -0.71624313684E+03  0.84993861293E+03  0.10100000352E+00 0. -1.
       -3    1    3    3    0  502  0.67814198450E+02 -0.45254020703E+03 -0.24091783046E+03  0.51713906808E+03  0.10100000352E+00 0.  1.
</event>
<event>
 5   0  0.6199539E-03  0.9997133E+03  0.7818609E-02  0.9308859E-01
        2   -1    0    0  501    0  0.00000000000E+00  0.00000000000E+00  0.47685067328E+03  0.47685067329E+03  0.25500000920E-02 0.  1.
       -2   -1    0    0    0  501  0.00000000000E+00  0.00000000000E+00 -0.52397256177E+03  0.52397256178E+03  0.25500000920E-02 0. -1.
    10030    2    1    2    0    0  0.00000000000E+00  0.00000000000E+00 -0.47121888491E+02  0.10008232351E+04  0.99971329663E+03 0.  0.
        2    1    3    3  502    0  0.43245002877E+02  0.22323918042E+03 -0.46919649905E+03  0.52139353340E+03  0.25500000920E-02 0. -1.
       -2    1    3    3    0  502 -0.43245002877E+02 -0.22323918042E+03  0.42207461056E+03  0.47942970166E+03  0.25500000920E-02 0.  1.
</event>
<event>
 5   0  0.3643002E-03  0.1003536E+04  0.7818609E-02  0.9304675E-01
       -1   -1    0    0    0  501  0.00000000000E+00  0.00000000000E+00  0.58398374803E+03  0.58398374805E+03  0.50400001928E-02 0.  1.
        1   -1    0    0  501    0  0.00000000000E+00  0.00000000000E+00 -0.43112678722E+03  0.43112678725E+03  0.50400001928E-02 0. -1.
    10030    2    1    2    0    0  0.00000000000E+00  0.00000000000E+00  0.15285696080E+03  0.10151105353E+04  0.10035358232E+04 0.  0.
        2    1    3    3  502    0 -0.18839870644E+03 -0.40176130393E+03  0.31336250478E+03  0.54323317032E+03  0.25500000920E-02 0.  1.
       -2    1    3    3    0  502  0.18839870644E+03  0.40176130393E+03 -0.16050554398E+03  0.47187736498E+03  0.25500000920E-02 0. -1.
</event>
<event>
 5   0  0.6022787E-03  0.1016604E+04  0.7818609E-02  0.9290519E-01
        2   -1    0    0  501    0  0.00000000000E+00  0.00000000000E+00  0.34205903321E+03  0.34205903322E+03  0.25500000920E-02 0. -1.
       -2   -1    0    0    0  501  0.00000000000E+00  0.00000000000E+00 -0.75534065384E+03  0.75534065385E+03  0.25500000920E-02 0.  1.
    10030    2    1    2    0    0  0.00000000000E+00  0.00000000000E+00 -0.41328162063E+03  0.10973996871E+04  0.10166043356E+04 0.  0.
        5    1    3    3  502    0  0.40866229382E+03  0.17738408581E+03  0.57508946182E+02  0.44922082897E+03  0.46999998093E+01 0.  1.
       -5    1    3    3    0  502 -0.40866229382E+03 -0.17738408581E+03 -0.47079056681E+03  0.64817885810E+03  0.46999998093E+01 0. -1.
</event>
<event>
 5   0  0.6022787E-03  0.9324956E+03  0.7818609E-02  0.9385848E-01
        2   -1    0    0  501    0  0.00000000000E+00  0.00000000000E+00  0.71455569095E+03  0.71455569095E+03  0.25500000920E-02 0.  1.
       -2   -1    0    0    0  501  0.00000000000E+00  0.00000000000E+00 -0.30422680213E+03  0.30422680214E+03  0.25500000920E-02 0. -1.
    10030    2    1    2    0    0  0.00000000000E+00  0.00000000000E+00  0.41032888881E+03  0.10187824931E+04  0.93249556098E+03 0.  0.
        5    1    3    3  502    0 -0.34109654374E+02 -0.10625794599E+03  0.69972218196E+03  0.70858128787E+03  0.46999998093E+01 0.  1.
       -5    1    3    3    0  502  0.34109654374E+02  0.10625794599E+03 -0.28939329314E+03  0.31020120522E+03  0.46999998093E+01 0. -1.
</event>
<event>
 5   0  0.6376961E-03  0.9871037E+03  0.7818609E-02  0.9322803E-01
       -2   -1    0    0    0  501  0.00000000000E+00  0.00000000000E+00  0.64819249086E+03  0.64819249086E+03  0.25500000920E-02 0. -1.
        2   -1    0    0  501    0  0.00000000000E+00  0.00000000000E+00 -0.37580415477E+03  0.37580415478E+03  0.25500000920E-02 0.  1.
    10030    2    1    2    0    0  0.00000000000E+00  0.00000000000E+00  0.27238833609E+03  0.10239966456E+04  0.98710370511E+03 0.  0.
        3    1    3    3  502    0 -0.82695124065E+02  0.15073818994E+03 -0.34373379618E+03  0.38433503391E+03  0.10100000352E+00 0.  1.
       -3    1    3    3    0  502  0.82695124065E+02 -0.15073818994E+03  0.61612213227E+03  0.63966161173E+03  0.10100000352E+00 0. -1.
</event>
<event>
 5   0  0.6606947E-03  0.9996068E+03  0.7818609E-02  0.9308976E-01
        2   -1    0    0  501    0  0.00000000000E+00  0.00000000000E+00  0.16043669770E+04  0.16043669770E+04  0.25500000920E-02 0.  1.
       -2   -1    0    0    0  501  0.00000000000E+00  0.00000000000E+00 -0.15570217964E+03  0.15570217966E+03  0.25500000920E-02 0. -1.
    10030    2    1    2    0    0  0.00000000000E+00  0.00000000000E+00  0.14486647973E+04  0.17600691566E+04  0.99960679323E+03 0.  0.
        1    1    3    3  502    0  0.36936503915E+03 -0.31809122598E+03  0.91874211814E+03  0.10400479027E+04  0.50400001928E-02 0. -1.
       -1    1    3    3    0  502 -0.36936503915E+03  0.31809122598E+03  0.52992267918E+03  0.72002125394E+03  0.50400001928E-02 0.  1.
</event>
<event>
 5   0  0.3640180E-03  0.1002218E+04  0.7818609E-02  0.9306116E-01
       -1   -1    0    0    0  501  0.00000000000E+00  0.00000000000E+00  0.42501658556E+03  0.42501658559E+03  0.50400001928E-02 0.  1.
        1   -1    0    0  501    0  0.00000000000E+00  0.00000000000E+00 -0.59082405403E+03  0.59082405406E+03  0.50400001928E-02 0. -1.
    10030    2    1    2    0    0  0.00000000000E+00  0.00000000000E+00 -0.16580746847E+03  0.10158406397E+04  0.10022175854E+04 0.  0.
        5    1    3    3  502    0  0.18046136266E+03 -0.29507022733E+03 -0.45039957858E+03  0.56790370033E+03  0.46999998093E+01 0. -1.
       -5    1    3    3    0  502 -0.18046136266E+03  0.29507022733E+03  0.28459211011E+03  0.44793693932E+03  0.46999998093E+01 0.  1.
</event>
<event>
 5   0  0.3608845E-03  0.9913967E+03  0.7818609E-02  0.9318031E-01
        1   -1    0    0  501    0  0.00000000000E+00  0.00000000000E+00  0.11035603521E+04  0.11035603521E+04  0.50400001928E-02 0.  1.
       -1   -1    0    0    0  501  0.00000000000E+00  0.00000000000E+00 -0.22265827032E+03  0.22265827038E+03  0.50400001928E-02 0. -1.
    10030    2    1    2    0    0  0.00000000000E+00  0.00000000000E+00  0.88090208182E+03  0.13262186225E+04  0.99139666985E+03 0.  0.
        1    1    3    3  502    0  0.48893257489E+03 -0.34185621502E+02  0.34130458416E+03  0.59725416591E+03  0.50400001928E-02 0.  1.
       -1    1    3    3    0  502 -0.48893257489E+03  0.34185621502E+02  0.53959749765E+03  0.72896445661E+03  0.50400001928E-02 0. -1.
</event>
<event>
 5   0  0.2417750E-03  0.1011534E+04  0.7818609E-02  0.9295984E-01
        3   -1    0    0  501    0  0.00000000000E+00  0.00000000000E+00  0.36475797506E+03  0.36475798904E+03  0.10100000352E+00 0.  1.
       -3   -1    0    0    0  501  0.00000000000E+00  0.00000000000E+00 -0.70128789659E+03  0.70128790387E+03  0.10100000352E+00 0. -1.
    10030    2    1    2    0    0  0.00000000000E+00  0.00000000000E+00 -0.33652992154E+03  0.10660458929E+04  0.10115342099E+04 0.  0.
        1    1    3    3  502    0 -0.47501924570E+03  0.10666742713E+03 -0.31268690361E+03  0.57861414043E+03  0.50400001928E-02 0. -1.
       -1    1    3    3    0  502  0.47501924570E+03 -0.10666742713E+03 -0.23843017928E+02  0.48743175248E+03  0.50400001928E-02 0.  1.
</event>
<event>
 5   0  0.6199539E-03  0.9948738E+03  0.7818609E-02  0.9314185E-01
       -2   -1    0    0    0  501  0.00000000000E+00  0.00000000000E+00  0.19141538659E+03  0.19141538660E+03  0.25500000920E-02 0. -1.
        2   -1    0    0  501    0  0.00000000000E+00  0.00000000000E+00 -0.12927042792E+04  0.12927042792E+04  0.25500000920E-02 0.  1.
    10030    2    1    2    0    0  0.00000000000E+00  0.00000000000E+00 -0.11012888926E+04  0.14841196658E+04  0.99487383995E+03 0.  0.
        2    1    3    3  502    0  0.42281723381E+03  0.97089211013E+02 -0.18755087909E+03  0.47262676644E+03  0.25500000920E-02 0. -1.
       -2    1    3    3    0  502 -0.42281723381E+03 -0.97089211013E+02 -0.91373801349E+03  0.10114928993E+04  0.25500000920E-02 0.  1.
</event>
<event>
 5   0  0.3643002E-03  0.1001019E+04  0.7818609E-02  0.9307427E-01
       -1   -1    0    0    0  501  0.00000000000E+00  0.00000000000E+00  0.34247254912E+03  0.34247254916E+03  0.50400001928E-02 0. -1.
        1   -1    0    0  501    0  0.00000000000E+00  0.00000000000E+00 -0.73147465338E+03  0.73147465340E+03  0.50400001928E-02 0.  1.
    10030    2    1    2    0    0  0.00000000000E+00  0.00000000000E+00 -0.38900210426E+03  0.10739472026E+04  0.10010194587E+04 0.  0.
        2    1    3    3  502    0 -0.36290359563E+03 -0.33653359682E+03 -0.11453130220E+03  0.50800718568E+03  0.25500000920E-02 0. -1.
       -2    1    3    3    0  502  0.36290359563E+03  0.33653359682E+03 -0.27447080206E+03  0.56594001688E+03  0.25500000920E-02 0.  1.
</event>
<event>
 5   0  0.6376961E-03  0.9962656E+03  0.7818609E-02  0.9312650E-01
        2   -1    0    0  501    0  0.00000000000E+00  0.00000000000E+00  0.10742263001E+04  0.10742263001E+04  0.25500000920E-02 0.  1.
       -2   -1    0    0    0  501  0.00000000000E+00  0.00000000000E+00 -0.23099070204E+03  0.23099070205E+03  0.25500000920E-02 0. -1.
    10030    2    1    2    0    0  0.00000000000E+00  0.00000000000E+00  0.84323559806E+03  0.13052170022E+04  0.99626560158E+03 0.  0.
        3    1    3    3  502    0  0.11730409945E+03  0.45480978291E+03  0.20426559672E+03  0.51218808516E+03  0.10100000352E+00 0. -1.
       -3    1    3    3    0  502 -0.11730409945E+03 -0.45480978291E+03  0.63897000134E+03  0.79302891699E+03  0.10100000352E+00 0.  1.
</event>
<event>
 5   0  0.6022787E-03  0.9947636E+03  0.7818609E-02  0.9314307E-01
       -2   -1    0    0    0  501  0.00000000000E+00  0.00000000000E+00  0.16867665841E+03  0.16867665843E+03  0.25500000920E-02 0.  1.
        2   -1    0    0  501    0  0.00000000000E+00  0.00000000000E+00 -0.14666444126E+04  0.14666444126E+04  0.25500000920E-02 0. -1.
    10030    2    1    2    0    0  0.00000000000E+00  0.00000000000E+00 -0.12979677542E+04  0.16353210710E+04  0.99476364751E+03 0.  0.
        5    1    3    3  502    0  0.24541473299E+03  0.36883897785E+03 -0.27738310898E+03  0.52271795635E+03  0.46999998093E+01 0.  1.
       -5    1    3    3    0  502 -0.24541473299E+03 -0.36883897785E+03 -0.10205846452E+04  0.11126031147E+04  0.46999998093E+01 0. -1.
</event>
<event>
 5   0  0.2417750E-03  0.1007264E+04  0.7818609E-02  0.9300614E-01
       -3   -1    0    0    0  501  0.00000000000E+00  0.00000000000E+00  0.49517379960E+03  0.49517380990E+03  0.10100000352E+00 0. -1.
        3   -1    0    0  501    0  0.00000000000E+00  0.00000000000E+00 -0.51223440033E+03  0.51223441029E+03  0.10100000352E+00 0.  1.
    10030    2    1    2    0    0  0.00000000000E+00  0.00000000000E+00 -0.17060600732E+02  0.10074082202E+04  0.10072637480E+04 0.  0.
        3    1    3    3  502    0  0.15417321655E+03 -0.31414357474E+02  0.46996157591E+03  0.49560078247E+03  0.10100000352E+00 0. -1.
       -3    1    3    3    0  502 -0.15417321655E+03  0.31414357474E+02 -0.48702217664E+03  0.51180743771E+03  0.10100000352E+00 0.  1.
</event>
<event>
 5   0  0.3466598E-03  0.1011039E+04  0.7818609E-02  0.9296520E-01
        1   -1    0    0  501    0  0.00000000000E+00  0.00000000000E+00  0.11589675127E+04  0.11589675127E+04  0.50400001928E-02 0. -1.
       -1   -1    0    0    0  501  0.00000000000E+00  0.00000000000E+00 -0.22049790244E+03  0.22049790250E+03  0.50400001928E-02 0.  1.
    10030    2    1    2    0    0  0.00000000000E+00  0.00000000000E+00  0.93846961026E+03  0.13794654152E+04  0.10110388827E+04 0.  0.
        3    1    3    3  502    0  0.35570255702E+03  0.79205526070E+02 -0.87976382333E+01  0.36452055233E+03  0.10100000352E+00 0.  1.
       -3    1    3    3    0  502 -0.35570255702E+03 -0.79205526070E+02  0.94726724850E+03  0.10149448629E+04  0.10100000352E+00 0. -1.
</event>
<event>
 5   0  0.3640180E-03  0.9957834E+03  0.7818609E-02  0.9313182E-01
       -1   -1    0    0    0  501  0.00000000000E+00  0.00000000000E+00  0.20261690987E+03  0.20261690993E+03  0.50400001928E-02 0.  1.
        1   -1    0    0  501    0  0.00000000000E+00  0.00000000000E+00 -0.12234721010E+04  0.12234721010E+04  0.50400001928E-02 0. -1.
    10030    2    1    2    0    0  0.00000000000E+00  0.00000000000E+00 -0.10208551911E+04  0.14260890109E+04  0.99578338299E+03 0.  0.
        5    1    3    3  502    0 -0.44354424607E+03  0.69990386883E+02 -0.81839798130E+03  0.93350281107E+03  0.46999998093E+01 0. -1.
       -5    1    3    3    0  502  0.44354424607E+03 -0.69990386883E+02 -0.20245720980E+03  0.49258619984E+03  0.46999998093E+01 0.  1.
</event>
<event>
 5   0  0.6606947E-03  0.1016935E+04  0.7818609E-02  0.9290163E-01
       -2   -1    0    0    0  501  0.00000000000E+00  0.00000000000E+00  0.15696614622E+03  0.15696614624E+03  0.25500000920E-02 0. -1.
        2   -1    0    0  501    0  0.00000000000E+00  0.00000000000E+00 -0.16471031447E+04  0.16471031447E+04  0.25500000920E-02 0.  1.
    10030    2    1    2    0    0  0.00000000000E+00  0.00000000000E+00 -0.14901369984E+04  0.18040692909E+04  0.10169354612E+04 0.  0.
        1    1    3    3  502    0  0.12074682974E+03 -0.33924584961E+03 -0.13819210910E+04  0.14280663308E+04  0.50400001928E-02 0.  1.
       -1    1    3    3    0  502 -0.12074682974E+03  0.33924584961E+03 -0.10821590746E+03  0.37600296013E+03  0.50400001928E-02 0. -1.
</event>
<event>
 5   0  0.6360455E-03  0.9956036E+03  0.7818609E-02  0.9313380E-01
        2   -1    0    0  501    0  0.00000000000E+00  0.00000000000E+00  0.47888405748E+03  0.47888405749E+03  0.25500000920E-02 0.  1.
       -2   -1    0    0    0  501  0.00000000000E+00  0.00000000000E+00 -0.51746686638E+03  0.51746686639E+03  0.25500000920E-02 0. -1.
    10030    2    1    2    0    0  0.00000000000E+00  0.00000000000E+00 -0.38582808902E+02  0.99635092388E+03  0.99560360102E+03 0.  0.
        4    1    3    3  502    0 -0.48672364617E+03  0.45246779893E+02 -0.11347815324E+03  0.50182276054E+03  0.12699999809E+01 0. -1.
       -4    1    3    3    0  502  0.48672364617E+03 -0.45246779893E+02  0.74895344333E+02  0.49452816334E+03  0.12699999809E+01 0.  1.
</event>
<event>
 5   0  0.2417750E-03  0.9512178E+03  0.7818609E-02  0.9363728E-01
       -4   -1    0    0    0  501  0.00000000000E+00  0.00000000000E+00  0.98005953254E+03  0.98006035539E+03  0.12699999809E+01 0.  1.
        4   -1    0    0  501    0  0.00000000000E+00  0.00000000000E+00 -0.23080352846E+03  0.23080702253E+03  0.12699999809E+01 0. -1.
    10030    2    1    2    0    0  0.00000000000E+00  0.00000000000E+00  0.74925600408E+03  0.12108673779E+04  0.95121777069E+03 0.  0.
        5    1    3    3  502    0 -0.45315841195E+02 -0.11349519064E+02 -0.22784839382E+03  0.23263558973E+03  0.46999998093E+01 0. -1.
       -5    1    3    3    0  502  0.45315841195E+02  0.11349519064E+02  0.97710439790E+03  0.97823178819E+03  0.46999998093E+01 0.  1.
</event>
<event>
 5   0  0.3569359E-03  0.9988937E+03  0.7818609E-02  0.9309759E-01
        1   -1    0    0  501    0  0.00000000000E+00  0.00000000000E+00  0.54194371639E+03  0.54194371642E+03  0.50400001928E-02 0.  1.
       -1   -1    0    0    0  501  0.00000000000E+00  0.00000000000E+00 -0.46028244639E+03  0.46028244641E+03  0.50400001928E-02 0. -1.
    10030    2    1    2    0    0  0.00000000000E+00  0.00000000000E+00  0.81661270007E+02  0.10022261628E+04  0.99889374732E+03 0.  0.
        4    1    3    3  502    0 -0.24592445272E+03  0.37843072348E+03 -0.17379165394E+03  0.48362568252E+03  0.12699999809E+01 0. -1.
       -4    1    3    3    0  502  0.24592445272E+03 -0.37843072348E+03  0.25545292394E+03  0.51860048030E+03  0.12699999809E+01 0.  1.
</event>
<event>
 5   0  0.6022787E-03  0.1116050E+04  0.7818609E-02  0.9189688E-01
       -2   -1    0    0    0  501  0.00000000000E+00  0.00000000000E+00  0.41345401642E+03  0.41345401643E+03  0.25500000920E-02 0. -1.
        2   -1    0    0  501    0  0.00000000000E+00  0.00000000000E+00 -0.75314753818E+03  0.75314753818E+03  0.25500000920E-02 0.  1.
    10030    2    1    2    0    0  0.00000000000E+00  0.00000000000E+00 -0.33969352176E+03  0.11666015546E+04  0.11160499534E+04 0.  0.
        5    1    3    3  502    0 -0.30295366739E+03 -0.45378175790E+03 -0.29206574832E+03  0.61888876200E+03  0.46999998093E+01 0.  1.
       -5    1    3    3    0  502  0.30295366739E+03  0.45378175790E+03 -0.47627773442E+02  0.54771279261E+03  0.46999998093E+01 0. -1.
</event>
<event>
 5   0  0.3608845E-03  0.1008324E+04  0.7818609E-02  0.9299463E-01
       -1   -1    0    0    0  501  0.00000000000E+00  0.00000000000E+00  0.21123586965E+03  0.21123586971E+03  0.50400001928E-02 0.  1.
        1   -1    0    0  501    0  0.00000000000E+00  0.00000000000E+00 -0.12032950852E+04  0.12032950852E+04  0.50400001928E-02 0. -1.
    10030    2    1    2    0    0  0.00000000000E+00  0.00000000000E+00 -0.99205921555E+03  0.14145309549E+04  0.10083235271E+04 0.  0.
        1    1    3    3  502    0  0.44428369552E+03  0.22841672129E+03 -0.40070895771E+03  0.64041382674E+03  0.50400001928E-02 0. -1.
       -1    1    3    3    0  502 -0.44428369552E+03 -0.22841672129E+03 -0.59135025785E+03  0.77411712819E+03  0.50400001928E-02 0.  1.
</event>
<event>
 5   0  0.6022787E-03  0.1002100E+04  0.7818609E-02  0.9306245E-01
       -2   -1    0    0    0  501  0.00000000000E+00  0.00000000000E+00  0.44120467375E+03  0.44120467376E+03  0.25500000920E-02 0. -1.
        2   -1    0    0  501    0  0.00000000000E+00  0.00000000000E+00 -0.56901283875E+03  0.56901283876E+03  0.25500000920E-02 0.  1.
    10030    2    1    2    0    0  0.00000000000E+00  0.00000000000E+00 -0.12780816500E+03  0.10102175125E+04  0.10021000427E+04 0.  0.
        5    1    3    3  502    0 -0.21780800254E+02 -0.24586905093E+03  0.37563585662E+03  0.44950014487E+03  0.46999998093E+01 0. -1.
       -5    1    3    3    0  502  0.21780800254E+02  0.24586905093E+03 -0.50344402162E+03  0.56071736764E+03  0.46999998093E+01 0.  1.
</event>
<event>
 5   0  0.3643002E-03  0.9940123E+03  0.7818609E-02  0.9315136E-01
        1   -1    0    0  501    0  0.00000000000E+00  0.00000000000E+00  0.36938861742E+03  0.36938861745E+03  0.50400001928E-02 0. -1.
       -1   -1    0    0    0  501  0.00000000000E+00  0.00000000000E+00 -0.66871342216E+03  0.66871342218E+03  0.50400001928E-02 0.  1.
    10030    2    1    2    0    0  0.00000000000E+00  0.00000000000E+00 -0.29932480475E+03  0.10381020396E+04  0.99401232686E+03 0.  0.
        2    1    3    3  502    0  0.47831648108E+03 -0.99122269092E+02 -0.24539763957E+03  0.54665517633E+03  0.25500000920E-02 0.  1.
       -2    1    3    3    0  502 -0.47831648108E+03  0.99122269092E+02 -0.53927165181E+02  0.49144686330E+03  0.25500000920E-02 0. -1.
</event>
<event>
 5   0  0.6606947E-03  0.9947487E+03  0.7818609E-02  0.9314323E-01
       -2   -1    0    0    0  501  0.00000000000E+00  0.00000000000E+00  0.44248612568E+03  0.44248612569E+03  0.25500000920E-02 0. -1.
        2   -1    0    0  501    0  0.00000000000E+00  0.00000000000E+00 -0.55907121671E+03  0.55907121671E+03  0.25500000920E-02 0.  1.
    10030    2    1    2    0    0  0.00000000000E+00  0.00000000000E+00 -0.11658509103E+03  0.10015573424E+04  0.99474872539E+03 0.  0.
        1    1    3    3  502    0  0.26950376434E+02 -0.66729349880E+02  0.43721629218E+03  0.44309955439E+03  0.50400001928E-02 0. -1.
       -1    1    3    3    0  502 -0.26950376434E+02  0.66729349880E+02 -0.55380138321E+03  0.55845778801E+03  0.50400001928E-02 0.  1.
</event>
<event>
 5   0  0.6199539E-03  0.1018497E+04  0.7818609E-02  0.9288487E-01
       -2   -1    0    0    0  501  0.00000000000E+00  0.00000000000E+00  0.94287122661E+03  0.94287122662E+03  0.25500000920E-02 0.  1.
        2   -1    0    0  501    0  0.00000000000E+00  0.00000000000E+00 -0.27504738478E+03  0.27504738479E+03  0.25500000920E-02 0. -1.
    10030    2    1    2    0    0  0.00000000000E+00  0.00000000000E+00  0.66782384183E+03  0.12179186114E+04  0.10184974523E+04 0.  0.
        2    1    3    3  502    0  0.29197384542E+03  0.41485266568E+03  0.28066453883E+03  0.57976205809E+03  0.25500000920E-02 0.  1.
       -2    1    3    3    0  502 -0.29197384542E+03 -0.41485266568E+03  0.38715930300E+03  0.63815655332E+03  0.25500000920E-02 0. -1.
</event>
<event>
 5   0  0.2417750E-03  0.9992715E+03  0.7818609E-02  0.9309344E-01
        3   -1    0    0  501    0  0.00000000000E+00  0.00000000000E+00  0.51396529431E+03  0.51396530424E+03  0.10100000352E+00 0.  1.
       -3   -1    0    0    0  501  0.00000000000E+00  0.00000000000E+00 -0.48570572166E+03  0.48570573216E+03  0.10100000352E+00 0. -1.
    10030    2    1    2    0    0  0.00000000000E+00  0.00000000000E+00  0.28259572651E+02  0.99967103640E+03  0.99927152344E+03 0.  0.
        2    1    3    3  502    0  0.30381131589E+03 -0.39457883827E+03 -0.26409483815E+02  0.49868951876E+03  0.25500000920E-02 0.  1.
       -2    1    3    3    0  502 -0.30381131589E+03  0.39457883827E+03  0.54669056466E+02  0.50098151764E+03  0.25500000920E-02 0. -1.
</event>
<event>
 5   0  0.3569359E-03  0.9838374E+03  0.7818609E-02  0.9326451E-01
       -1   -1    0    0    0  501  0.00000000000E+00  0.00000000000E+00  0.35567621915E+03  0.35567621919E+03  0.50400001928E-02 0. -1.
        1   -1    0    0  501    0  0.00000000000E+00  0.00000000000E+00 -0.68034915003E+03  0.68034915005E+03  0.50400001928E-02 0.  1.
    10030    2    1    2    0    0  0.00000000000E+00  0.00000000000E+00 -0.32467293088E+03  0.10360253692E+04  0.98383741220E+03 0.  0.
        4    1    3    3  502    0  0.36094181310E+03  0.29892832925E+02  0.18820241432E+03  0.40815969370E+03  0.12699999809E+01 0. -1.
       -4    1    3    3    0  502 -0.36094181310E+03 -0.29892832925E+02 -0.51287534520E+03  0.62786567554E+03  0.12699999809E+01 0.  1.
</event>
<event>
 5   0  0.2417750E-03  0.1000522E+04  0.7818609E-02  0.9307972E-01
       -3   -1    0    0    0  501  0.00000000000E+00  0.00000000000E+00  0.12644264758E+03  0.12644268792E+03  0.10100000352E+00 0.  1.
        3   -1    0    0  501    0  0.00000000000E+00  0.00000000000E+00 -0.19792467947E+04  0.19792467973E+04  0.10100000352E+00 0. -1.
    10030    2    1    2    0    0  0.00000000000E+00  0.00000000000E+00 -0.18528041471E+04  0.21056894852E+04  0.10005223638E+04 0.  0.
        4    1    3    3  502    0 -0.38139974367E+03  0.31062036122E+03 -0.11182417142E+04  0.12216451684E+04  0.12699999809E+01 0.  1.
       -4    1    3    3    0  502  0.38139974367E+03 -0.31062036122E+03 -0.73456243298E+03  0.88404431683E+03  0.12699999809E+01 0. -1.
</event>
<event>
 5   0  0.6360455E-03  0.1002512E+04  0.7818609E-02  0.9305794E-01
       -2   -1    0    0    0  501  0.00000000000E+00  0.00000000000E+00  0.11938083235E+04  0.11938083235E+04  0.25500000920E-02 0.  1.
        2   -1    0    0  501    0  0.00000000000E+00  0.00000000000E+00 -0.21046715705E+03  0.21046715707E+03  0.25500000920E-02 0. -1.
    10030    2    1    2    0    0  0.00000000000E+00  0.00000000000E+00  0.98334116645E+03  0.14042754806E+04  0.10025117334E+04 0.  0.
        4    1    3    3  502    0  0.46564540502E+03 -0.10994849082E+03  0.70104286184E+03  0.84875027004E+03  0.12699999809E+01 0.  1.
       -4    1    3    3    0  502 -0.46564540502E+03  0.10994849082E+03  0.28229830461E+03  0.55552521053E+03  0.12699999809E+01 0. -1.
</event>
<event>
 5   0  0.6022787E-03  0.1001365E+04  0.7818609E-02  0.9307049E-01
       -2   -1    0    0    0  501  0.00000000000E+00  0.00000000000E+00  0.20281893882E+03  0.20281893883E+03  0.25500000920E-02 0. -1.
        2   -1    0    0  501    0  0.00000000000E+00  0.00000000000E+00 -0.12359947490E+04  0.12359947490E+04  0.25500000920E-02 0.  1.
    10030    2    1    2    0    0  0.00000000000E+00  0.00000000000E+00 -0.10331758102E+04  0.14388136879E+04  0.10013653547E+04 0.  0.
        5    1    3    3  502    0  0.25677209757E+03  0.42892513730E+03 -0.47717597485E+03  0.69110613112E+03  0.46999998093E+01 0. -1.
       -5    1    3    3    0  502 -0.25677209757E+03 -0.42892513730E+03 -0.55599983538E+03  0.74770755676E+03  0.46999998093E+01 0.  1.
</event>
<event>
 5   0  0.3608845E-03  0.1026254E+04  0.7818609E-02  0.9280210E-01
       -1   -1    0    0    0  501  0.00000000000E+00  0.00000000000E+00  0.32812910116E+03  0.32812910120E+03  0.50400001928E-02 0. -1.
        1   -1    0    0  501    0  0.00000000000E+00  0.00000000000E+00 -0.80242593833E+03  0.80242593834E+03  0.50400001928E-02 0.  1.
    10030    2    1    2    0    0  0.00000000000E+00  0.00000000000E+00 -0.47429683717E+03  0.11305550395E+04  0.10262539684E+04 0.  0.
        1    1    3    3  502    0 -0.79449611926E+02  0.47088153741E+03 -0.30294633213E+02  0.47849705113E+03  0.50400001928E-02 0.  1.
       -1    1    3    3    0  502  0.79449611926E+02 -0.47088153741E+03 -0.44400220395E+03  0.65205798841E+03  0.50400001928E-02 0. -1.
</event>
<event>
 5   0  0.6360455E-03  0.9965218E+03  0.7818609E-02  0.9312368E-01
       -2   -1    0    0    0  501  0.00000000000E+00  0.00000000000E+00  0.69510097878E+03  0.69510097879E+03  0.25500000920E-02 0.  1.
        2   -1    0    0  501    0  0.00000000000E+00  0.00000000000E+00 -0.35716235840E+03  0.35716235841E+03  0.25500000920E-02 0. -1.
    10030    2    1    2    0    0  0.00000000000E+00  0.00000000000E+00  0.33793862038E+03  0.10522633372E+04  0.99652176076E+03 0.  0.
        4    1    3    3  502    0 -0.23540978955E+03 -0.12220140504E+03  0.61435829007E+03  0.66917013822E+03  0.12699999809E+01 0.  1.
       -4    1    3    3    0  502  0.23540978955E+03  0.12220140504E+03 -0.27641966969E+03  0.38309319898E+03  0.12699999809E+01 0. -1.
</event>
<event>
 5   0  0.2417750E-03  0.9956136E+03  0.7818609E-02  0.9313369E-01
       -3   -1    0    0    0  501  0.00000000000E+00  0.00000000000E+00  0.44822687123E+03  0.44822688260E+03  0.10100000352E+00 0. -1.
        3   -1    0    0  501    0  0.00000000000E+00  0.00000000000E+00 -0.55287089824E+03  0.55287090747E+03  0.10100000352E+00 0.  1.
    10030    2    1    2    0    0  0.00000000000E+00  0.00000000000E+00 -0.10464402702E+03  0.10010977901E+04  0.99561358614E+03 0.  0.
        4    1    3    3  502    0  0.10952172453E+03 -0.12038451920E+02 -0.54045470285E+03  0.55157305156E+03  0.12699999809E+01 0.  1.
       -4    1    3    3    0  502 -0.10952172453E+03  0.12038451920E+02  0.43581067583E+03  0.44952473852E+03  0.12699999809E+01 0. -1.
</event>
<event>
 5   0  0.3466598E-03  0.1013739E+04  0.7818609E-02  0.9293603E-01
       -1   -1    0    0    0  501  0.00000000000E+00  0.00000000000E+00  0.33898850593E+03  0.33898850597E+03  0.50400001928E-02 0.  1.
        1   -1    0    0  501    0  0.00000000000E+00  0.00000000000E+00 -0.75789267571E+03  0.75789267573E+03  0.50400001928E-02 0. -1.
    10030    2    1    2    0    0  0.00000000000E+00  0.00000000000E+00 -0.41890416978E+03  0.10968811817E+04  0.10137394257E+04 0.  0.
        3    1    3    3  502    0  0.12122245404E+03  0.17298883946E+03  0.28909369908E+03  0.35804357136E+03  0.10100000352E+00 0.  1.
       -3    1    3    3    0  502 -0.12122245404E+03 -0.17298883946E+03 -0.70799786886E+03  0.73883761034E+03  0.10100000352E+00 0. -1.
</event>
<event>
 5   0  0.3643002E-03  0.1004000E+04  0.7818609E-02  0.9304169E-01
        1   -1    0    0  501    0  0.00000000000E+00  0.00000000000E+00  0.16127075888E+04  0.16127075888E+04  0.50400001928E-02 0. -1.
       -1   -1    0    0    0  501  0.00000000000E+00  0.00000000000E+00 -0.15626137917E+03  0.15626137926E+03  0.50400001928E-02 0.  1.
    10030    2    1    2    0    0  0.00000000000E+00  0.00000000000E+00  0.14564462096E+04  0.17689689680E+04  0.10039998249E+04 0.  0.
        2    1    3    3  502    0  0.38941957832E+02 -0.40596160200E+03  0.12439656157E+04  0.13091110539E+04  0.25500000920E-02 0. -1.
       -2    1    3    3    0  502 -0.38941957832E+02  0.40596160200E+03  0.21248059384E+03  0.45985791408E+03  0.25500000920E-02 0.  1.
</event>
<event>
 5   0  0.3643002E-03  0.1033382E+04  0.7818609E-02  0.9272671E-01
       -1   -1    0    0    0  501  0.00000000000E+00  0.00000000000E+00  0.42251653821E+03  0.42251653824E+03  0.50400001928E-02 0.  1.
        1   -1    0    0  501    0  0.00000000000E+00  0.00000000000E+00 -0.63185595916E+03  0.63185595918E+03  0.50400001928E-02 0. -1.
    10030    2    1    2    0    0  0.00000000000E+00  0.00000000000E+00 -0.20933942095E+03  0.10543724974E+04  0.10333820059E+04 0.  0.
        2    1    3    3  502    0 -0.43250435108E+03 -0.67776865020E+02 -0.38468157811E+03  0.58278094828E+03  0.25500000920E-02 0. -1.
       -2    1    3    3    0  502  0.43250435108E+03  0.67776865020E+02  0.17534215716E+03  0.47159154914E+03  0.25500000920E-02 0.  1.
</event>
<event>
 5   0  0.3608845E-03  0.1001403E+04  0.7818609E-02  0.9307008E-01
       -1   -1    0    0    0  501  0.00000000000E+00  0.00000000000E+00  0.85000363776E+02  0.85000363925E+02  0.50400001928E-02 0.  1.
        1   -1    0    0  501    0  0.00000000000E+00  0.00000000000E+00 -0.29494210259E+04  0.29494210259E+04  0.50400001928E-02 0. -1.
    10030    2    1    2    0    0  0.00000000000E+00  0.00000000000E+00 -0.28644206622E+04  0.30344213899E+04  0.10014027369E+04 0.  0.
        1    1    3    3  502    0 -0.24273469734E+03 -0.31873559437E+03 -0.23422173468E+04  0.23762353866E+04  0.50400001928E-02 0. -1.
       -1    1    3    3    0  502  0.24273469734E+03  0.31873559437E+03 -0.52220331531E+03  0.65818600331E+03  0.50400001928E-02 0.  1.
</event>
<event>
 5   0  0.3640180E-03  0.9881118E+03  0.7818609E-02  0.9321681E-01
        1   -1    0    0  501    0  0.00000000000E+00  0.00000000000E+00  0.20604207166E+04  0.20604207166E+04  0.50400001928E-02 0. -1.
       -1   -1    0    0    0  501  0.00000000000E+00  0.00000000000E+00 -0.11846669026E+03  0.11846669037E+03  0.50400001928E-02 0.  1.
    10030    2    1    2    0    0  0.00000000000E+00  0.00000000000E+00  0.19419540263E+04  0.21788874070E+04  0.98811178104E+03 0.  0.
        5    1    3    3  502    0  0.25696337028E+02  0.25710514724E+03  0.42459389002E+02  0.26189358180E+03  0.46999998093E+01 0.  1.
       -5    1    3    3    0  502 -0.25696337028E+02 -0.25710514724E+03  0.18994946373E+04  0.19169938252E+04  0.46999998093E+01 0. -1.
</event>
<event>
 5   0  0.3643002E-03  0.1032478E+04  0.7818609E-02  0.9273623E-01
       -1   -1    0    0    0  501  0.00000000000E+00  0.00000000000E+00  0.19318118045E+03  0.19318118052E+03  0.50400001928E-02 0. -1.
        1   -1    0    0  501    0  0.00000000000E+00  0.00000000000E+00 -0.13795491026E+04  0.13795491026E+04  0.50400001928E-02 0.  1.
    10030    2    1    2    0    0  0.00000000000E+00  0.00000000000E+00 -0.11863679222E+04  0.15727302832E+04  0.10324784244E+04 0.  0.
        2    1    3    3  502    0 -0.21676150123E+03  0.91849052589E+02  0.10665475843E+03  0.25845122244E+03  0.25500000920E-02 0. -1.
       -2    1    3    3    0  502  0.21676150123E+03 -0.91849052589E+02 -0.12930226806E+04  0.13142790607E+04  0.25500000920E-02 0.  1.
</event>
<event>
 5   0  0.6360455E-03  0.1001877E+04  0.7818609E-02  0.9306489E-01
        2   -1    0    0  501    0  0.00000000000E+00  0.00000000000E+00  0.71044530224E+03  0.71044530225E+03  0.25500000920E-02 0.  1.
       -2   -1    0    0    0  501  0.00000000000E+00  0.00000000000E+00 -0.35321416199E+03  0.35321416200E+03  0.25500000920E-02 0. -1.
    10030    2    1    2    0    0  0.00000000000E+00  0.00000000000E+00  0.35723114025E+03  0.10636594642E+04  0.10018769227E+04 0.  0.
        4    1    3    3  502    0 -0.18379325163E+03 -0.15353909422E+03  0.64572907420E+03  0.68871028957E+03  0.12699999809E+01 0.  1.
       -4    1    3    3    0  502  0.18379325163E+03  0.15353909422E+03 -0.28849793395E+03  0.37494917468E+03  0.12699999809E+01 0. -1.
</event>
<event>
 5   0  0.6360455E-03  0.9864250E+03  0.7818609E-02  0.9323560E-01
        2   -1    0    0  501    0  0.00000000000E+00  0.00000000000E+00  0.19355902158E+03  0.19355902160E+03  0.25500000920E-02 0.  1.
       -2   -1    0    0    0  501  0.00000000000E+00  0.00000000000E+00 -0.12567668143E+04  0.12567668143E+04  0.25500000920E-02 0. -1.
    10030    2    1    2    0    0  0.00000000000E+00  0.00000000000E+00 -0.10632077927E+04  0.14503258359E+04  0.98642496916E+03 0.  0.
        4    1    3    3  502    0 -0.51296874041E+02 -0.29258403086E+02 -0.12515475575E+04  0.12529406710E+04  0.12699999809E+01 0. -1.
       -4    1    3    3    0  502  0.51296874041E+02  0.29258403086E+02  0.18833976477E+03  0.19738516492E+03  0.12699999809E+01 0.  1.
</event>
<event>
 5   0  0.6606947E-03  0.9679475E+03  0.7818609E-02  0.9344415E-01
       -2   -1    0    0    0  501  0.00000000000E+00  0.00000000000E+00  0.14505351587E+03  0.14505351589E+03  0.25500000920E-02 0. -1.
        2   -1    0    0  501    0  0.00000000000E+00  0.00000000000E+00 -0.16147874650E+04  0.16147874650E+04  0.25500000920E-02 0.  1.
    10030    2    1    2    0    0  0.00000000000E+00  0.00000000000E+00 -0.14697339492E+04  0.17598409809E+04  0.96794751759E+03 0.  0.
        1    1    3    3  502    0 -0.43964012064E+03  0.18103754984E+03 -0.89922878477E+03  0.10171875134E+04  0.50400001928E-02 0.  1.
       -1    1    3    3    0  502  0.43964012064E+03 -0.18103754984E+03 -0.57050516440E+03  0.74265346748E+03  0.50400001928E-02 0. -1.
</event>
<event>
 5   0  0.3569359E-03  0.9955926E+03  0.7818609E-02  0.9313392E-01
       -1   -1    0    0    0  501  0.00000000000E+00  0.00000000000E+00  0.41607387753E+03  0.41607387756E+03  0.50400001928E-02 0.  1.
        1   -1    0    0  501    0  0.00000000000E+00  0.00000000000E+00 -0.59557008572E+03  0.59557008574E+03  0.50400001928E-02 0. -1.
    10030    2    1    2    0    0  0.00000000000E+00  0.00000000000E+00 -0.17949620819E+03  0.10116439633E+04  0.99559259726E+03 0.  0.
        4    1    3    3  502    0  0.33522197695E+03 -0.24786441464E+02 -0.46283444199E+03  0.57201877163E+03  0.12699999809E+01 0. -1.
       -4    1    3    3    0  502 -0.33522197695E+03  0.24786441464E+02  0.28333823380E+03  0.43962519166E+03  0.12699999809E+01 0.  1.
</event>
<event>
 5   0  0.3569359E-03  0.1003459E+04  0.7818609E-02  0.9304760E-01
        1   -1    0    0  501    0  0.00000000000E+00  0.00000000000E+00  0.72278253003E+03  0.72278253004E+03  0.50400001928E-02 0. -1.
       -1   -1    0    0    0  501  0.00000000000E+00  0.00000000000E+00 -0.34828224553E+03  0.34828224557E+03  0.50400001928E-02 0.  1.
    10030    2    1    2    0    0  0.00000000000E+00  0.00000000000E+00  0.37450028450E+03  0.10710647756E+04  0.10034586641E+04 0.  0.
        4    1    3    3  502    0 -0.36596717761E+03 -0.15221724581E+03 -0.14109270489E+03  0.42072654929E+03  0.12699999809E+01 0.  1.
       -4    1    3    3    0  502  0.36596717761E+03  0.15221724581E+03  0.51559298938E+03  0.65033822632E+03  0.12699999809E+01 0. -1.
</event>
<event>
 5   0  0.6022787E-03  0.1002810E+04  0.7818609E-02  0.9305468E-01
        2   -1    0    0  501    0  0.00000000000E+00  0.00000000000E+00  0.28593972441E+03  0.28593972442E+03  0.25500000920E-02 0.  1.
       -2   -1    0    0    0  501  0.00000000000E+00  0.00000000000E+00 -0.87923064266E+03  0.87923064266E+03  0.25500000920E-02 0. -1.
    10030    2    1    2    0    0  0.00000000000E+00  0.00000000000E+00 -0.59329091825E+03  0.11651703671E+04  0.10028099873E+04 0.  0.
        5    1    3    3  502    0  0.10348155093E+03  0.37024898903E+03  0.77322304213E+02  0.39216523812E+03  0.46999998093E+01 0.  1.
       -5    1    3    3    0  502 -0.10348155093E+03 -0.37024898903E+03 -0.67061322247E+03  0.77300512896E+03  0.46999998093E+01 0. -1.
</event>
<event>
 5   0  0.3640180E-03  0.1021107E+04  0.7818609E-02  0.9285693E-01
        1   -1    0    0  501    0  0.00000000000E+00  0.00000000000E+00  0.70156502235E+03  0.70156502237E+03  0.50400001928E-02 0. -1.
       -1   -1    0    0    0  501  0.00000000000E+00  0.00000000000E+00 -0.37154759374E+03  0.37154759377E+03  0.50400001928E-02 0.  1.
    10030    2    1    2    0    0  0.00000000000E+00  0.00000000000E+00  0.33001742861E+03  0.10731126161E+04  0.10211068425E+04 0.  0.
        5    1    3    3  502    0  0.28195845968E+03  0.88498420574E+01 -0.28217908440E+03  0.39903135010E+03  0.46999998093E+01 0.  1.
       -5    1    3    3    0  502 -0.28195845968E+03 -0.88498420574E+01  0.61219651302E+03  0.67408126605E+03  0.46999998093E+01 0. -1.
</event>
<event>
 5   0  0.3640180E-03  0.9917251E+03  0.7818609E-02  0.9317667E-01
       -1   -1    0    0    0  501  0.00000000000E+00  0.00000000000E+00  0.34843679524E+03  0.34843679528E+03  0.50400001928E-02 0.  1.
        1   -1    0    0  501    0  0.00000000000E+00  0.00000000000E+00 -0.70566505629E+03  0.70566505631E+03  0.50400001928E-02 0. -1.
    10030    2    1    2    0    0  0.00000000000E+00  0.00000000000E+00 -0.35722826105E+03  0.10541018516E+04  0.99172510457E+03 0.  0.
        5    1    3    3  502    0  0.32829945705E+01  0.41306348546E+03 -0.47013752053E+03  0.62584630644E+03  0.46999998093E+01 0. -1.
       -5    1    3    3    0  502 -0.32829945705E+01 -0.41306348546E+03  0.11290925948E+03  0.42825554515E+03  0.46999998093E+01 0.  1.
</event>
<event>
 5   0  0.6199539E-03  0.9503196E+03  0.7818609E-02  0.9364777E-01
        2   -1    0    0  501    0  0.00000000000E+00  0.00000000000E+00  0.66881677863E+03  0.66881677863E+03  0.25500000920E-02 0.  1.
       -2   -1    0    0    0  501  0.00000000000E+00  0.00000000000E+00 -0.33757650347E+03  0.33757650348E+03  0.25500000920E-02 0. -1.
    10030    2    1    2    0    0  0.00000000000E+00  0.00000000000E+00  0.33124027516E+03  0.10063932821E+04  0.95031958750E+03 0.  0.
        2    1    3    3  502    0  0.69705499864E+02 -0.67033650771E+02  0.65828458399E+03  0.66535025405E+03  0.25500000920E-02 0.  1.
       -2    1    3    3    0  502 -0.69705499864E+02  0.67033650771E+02 -0.32704430882E+03  0.34104302806E+03  0.25500000920E-02 0. -1.
</event>
<event>
 5   0  0.3466598E-03  0.1015505E+04  0.7818609E-02  0.9291701E-01
       -1   -1    0    0    0  501  0.00000000000E+00  0.00000000000E+00  0.22035517824E+03  0.22035517829E+03  0.50400001928E-02 0. -1.
        1   -1    0    0  501    0  0.00000000000E+00  0.00000000000E+00 -0.11699867714E+04  0.11699867714E+04  0.50400001928E-02 0.  1.
    10030    2    1    2    0    0  0.00000000000E+00  0.00000000000E+00 -0.94963159315E+03  0.13903419497E+04  0.10155050834E+04 0.  0.
        3    1    3    3  502    0 -0.11903601601E+03  0.11043783282E+03  0.18384964270E+03  0.24528919534E+03  0.10100000352E+00 0. -1.
       -3    1    3    3    0  502  0.11903601601E+03 -0.11043783282E+03 -0.11334812358E+04  0.11450527543E+04  0.10100000352E+00 0.  1.
</event>
<event>
 5   0  0.6376961E-03  0.9904782E+03  0.7818609E-02  0.9319050E-01
       -2   -1    0    0    0  501  0.00000000000E+00  0.00000000000E+00  0.15673580229E+03  0.15673580231E+03  0.25500000920E-02 0. -1.
        2   -1    0    0  501    0  0.00000000000E+00  0.00000000000E+00 -0.15648099510E+04  0.15648099510E+04  0.25500000920E-02 0.  1.
    10030    2    1    2    0    0  0.00000000000E+00  0.00000000000E+00 -0.14080741487E+04  0.17215457533E+04  0.99047815348E+03 0.  0.
        3    1    3    3  502    0  0.17550533454E+03  0.44966854085E+03 -0.51160379579E+03  0.70337925272E+03  0.10100000352E+00 0.  1.
       -3    1    3    3    0  502 -0.17550533454E+03 -0.44966854085E+03 -0.89647035295E+03  0.10181665006E+04  0.10100000352E+00 0. -1.
</event>
<event>
 5   0  0.2417750E-03  0.1020625E+04  0.7818609E-02  0.9286209E-01
       -3   -1    0    0    0  501  0.00000000000E+00  0.00000000000E+00  0.36488806758E+03  0.36488808156E+03  0.10100000352E+00 0.  1.
        3   -1    0    0  501    0  0.00000000000E+00  0.00000000000E+00 -0.71369478945E+03  0.71369479660E+03  0.10100000352E+00 0. -1.
    10030    2    1    2    0    0  0.00000000000E+00  0.00000000000E+00 -0.34880672187E+03  0.10785828782E+04  0.10206247576E+04 0.  0.
        1    1    3    3  502    0  0.39776314151E+03  0.55175641777E+02  0.15837354247E+03  0.43167354236E+03  0.50400001928E-02 0.  1.
       -1    1    3    3    0  502 -0.39776314151E+03 -0.55175641777E+02 -0.50718026434E+03  0.64690933581E+03  0.50400001928E-02 0. -1.
</event>
<event>
 5   0  0.6360455E-03  0.1001218E+04  0.7818609E-02  0.9307209E-01
        2   -1    0    0  501    0  0.00000000000E+00  0.00000000000E+00  0.24970228113E+03  0.24970228114E+03  0.25500000920E-02 0.  1.
       -2   -1    0    0    0  501  0.00000000000E+00  0.00000000000E+00 -0.10036335677E+04  0.10036335677E+04  0.25500000920E-02 0. -1.
    10030    2    1    2    0    0  0.00000000000E+00  0.00000000000E+00 -0.75393128657E+03  0.12533358488E+04  0.10012184403E+04 0.  0.
        4    1    3    3  502    0  0.96100145920E+02 -0.98976683336E+02  0.22543542093E+03  0.26429976126E+03  0.12699999809E+01 0.  1.
       -4    1    3    3    0  502 -0.96100145920E+02  0.98976683336E+02 -0.97936670750E+03  0.98903608759E+03  0.12699999809E+01 0. -1.
</event>
<event>
 5   0  0.6360455E-03  0.1002580E+04  0.7818609E-02  0.9305720E-01
        2   -1    0    0  501    0  0.00000000000E+00  0.00000000000E+00  0.26830087927E+03  0.26830087928E+03  0.25500000920E-02 0.  1.
       -2   -1    0    0    0  501  0.00000000000E+00  0.00000000000E+00 -0.93660339638E+03  0.93660339638E+03  0.25500000920E-02 0. -1.
    10030    2    1    2    0    0  0.00000000000E+00  0.00000000000E+00 -0.66830251711E+03  0.12049042757E+04  0.10025797021E+04 0.  0.
        4    1    3    3  502    0 -0.29973788004E+03  0.67323470674E+02 -0.81021531352E+03  0.86650199861E+03  0.12699999809E+01 0. -1.
       -4    1    3    3    0  502  0.29973788004E+03 -0.67323470674E+02  0.14191279641E+03  0.33840227705E+03  0.12699999809E+01 0.  1.
</event>
<event>
 5   0  0.3643002E-03  0.1005843E+04  0.7818609E-02  0.9302159E-01
       -1   -1    0    0    0  501  0.00000000000E+00  0.00000000000E+00  0.89561367647E+03  0.89561367648E+03  0.50400001928E-02 0.  1.
        1   -1    0    0  501    0  0.00000000000E+00  0.00000000000E+00 -0.28240985408E+03  0.28240985413E+03  0.50400001928E-02 0. -1.
    10030    2    1    2    0    0  0.00000000000E+00  0.00000000000E+00  0.61320382238E+03  0.11780235306E+04  0.10058431840E+04 0.  0.
        2    1    3    3  502    0 -0.84548753567E+02  0.12360099332E+03 -0.25569192999E+03  0.29631749923E+03  0.25500000920E-02 0. -1.
       -2    1    3    3    0  502  0.84548753567E+02 -0.12360099332E+03  0.86889575237E+03  0.88170603138E+03  0.25500000920E-02 0.  1.
</event>
<event>
 5   0  0.6606947E-03  0.1007918E+04  0.7818609E-02  0.9299903E-01
       -2   -1    0    0    0  501  0.00000000000E+00  0.00000000000E+00  0.13948991880E+03  0.13948991882E+03  0.25500000920E-02 0. -1.
        2   -1    0    0  501    0  0.00000000000E+00  0.00000000000E+00 -0.18207394924E+04  0.18207394924E+04  0.25500000920E-02 0.  1.
    10030    2    1    2    0    0  0.00000000000E+00  0.00000000000E+00 -0.16812495736E+04  0.19602294112E+04  0.10079182585E+04 0.  0.
        1    1    3    3  502    0  0.43978481645E+03  0.98482758419E+02 -0.12792486404E+04  0.13563136151E+04  0.50400001928E-02 0. -1.
       -1    1    3    3    0  502 -0.43978481645E+03 -0.98482758419E+02 -0.40200093317E+03  0.60391579610E+03  0.50400001928E-02 0.  1.
</event>
<event>
 5   0  0.3608845E-03  0.1044313E+04  0.7818609E-02  0.9261235E-01
        1   -1    0    0  501    0  0.00000000000E+00  0.00000000000E+00  0.10465458883E+04  0.10465458883E+04  0.50400001928E-02 0.  1.
       -1   -1    0    0    0  501  0.00000000000E+00  0.00000000000E+00 -0.26052138876E+03  0.26052138881E+03  0.50400001928E-02 0. -1.
    10030    2    1    2    0    0  0.00000000000E+00  0.00000000000E+00  0.78602449950E+03  0.13070672771E+04  0.10443133404E+04 0.  0.
        1    1    3    3  502    0 -0.11626324292E+03 -0.10795732740E+03 -0.22962251177E+03  0.27910289165E+03  0.50400001928E-02 0. -1.
       -1    1    3    3    0  502  0.11626324292E+03  0.10795732740E+03  0.10156470113E+04  0.10279643854E+04  0.50400001928E-02 0.  1.
</event>
<event>
 5   0  0.3640180E-03  0.9971232E+03  0.7818609E-02  0.9311706E-01
        1   -1    0    0  501    0  0.00000000000E+00  0.00000000000E+00  0.11965290892E+04  0.11965290892E+04  0.50400001928E-02 0. -1.
       -1   -1    0    0    0  501  0.00000000000E+00  0.00000000000E+00 -0.20773724136E+03  0.20773724142E+03  0.50400001928E-02 0.  1.
    10030    2    1    2    0    0  0.00000000000E+00  0.00000000000E+00  0.98879184786E+03  0.14042663307E+04  0.99712316642E+03 0.  0.
        5    1    3    3  502    0  0.70582246116E+02 -0.49318810268E+03  0.46899913980E+03  0.68425042289E+03  0.46999998093E+01 0.  1.
       -5    1    3    3    0  502 -0.70582246116E+02  0.49318810268E+03  0.51979270806E+03  0.72001590776E+03  0.46999998093E+01 0. -1.
</event>
<event>
 5   0  0.6606947E-03  0.1000080E+04  0.7818609E-02  0.9308457E-01
        2   -1    0    0  501    0  0.00000000000E+00  0.00000000000E+00  0.28605164575E+03  0.28605164576E+03  0.25500000920E-02 0.  1.
       -2   -1    0    0    0  501  0.00000000000E+00  0.00000000000E+00 -0.87410847436E+03  0.87410847437E+03  0.25500000920E-02 0. -1.
    10030    2    1    2    0    0  0.00000000000E+00  0.00000000000E+00 -0.58805682862E+03  0.11601601201E+04  0.10000803321E+04 0.  0.
        1    1    3    3  502    0 -0.81432086489E+02  0.31851627741E+03 -0.73110795678E+03  0.80162500472E+03  0.50400001928E-02 0. -1.
       -1    1    3    3    0  502  0.81432086489E+02 -0.31851627741E+03  0.14305112816E+03  0.35853511541E+03  0.50400001928E-02 0.  1.
</event>
<event>
 5   0  0.3640180E-03  0.1002882E+04  0.7818609E-02  0.9305389E-01
       -1   -1    0    0    0  501  0.00000000000E+00  0.00000000000E+00  0.23841684144E+03  0.23841684149E+03  0.50400001928E-02 0.  1.
        1   -1    0    0  501    0  0.00000000000E+00  0.00000000000E+00 -0.10546374218E+04  0.10546374218E+04  0.50400001928E-02 0. -1.
    10030    2    1    2    0    0  0.00000000000E+00  0.00000000000E+00 -0.81622058033E+03  0.12930542633E+04  0.10028824916E+04 0.  0.
        5    1    3    3  502    0  0.28998370761E+03  0.23215262984E+03  0.26141726940E+02  0.37241223678E+03  0.46999998093E+01 0.  1.
       -5    1    3    3    0  502 -0.28998370761E+03 -0.23215262984E+03 -0.84236230727E+03  0.92064202649E+03  0.46999998093E+01 0. -1.
</event>
<event>
 5   0  0.3466598E-03  0.1003737E+04  0.7818609E-02  0.9304456E-01
       -1   -1    0    0    0  501  0.00000000000E+00  0.00000000000E+00  0.49498600322E+03  0.49498600325E+03  0.50400001928E-02 0.  1.
        1   -1    0    0  501    0  0.00000000000E+00  0.00000000000E+00 -0.50884629303E+03  0.50884629305E+03  0.50400001928E-02 0. -1.
    10030    2    1    2    0    0  0.00000000000E+00  0.00000000000E+00 -0.13860289804E+02  0.10038322963E+04  0.10037366046E+04 0.  0.
        3    1    3    3  502    0 -0.39706058287E+02 -0.43220623166E+03  0.24507202127E+03  0.49843665953E+03  0.10100000352E+00 0.  1.
       -3    1    3    3    0  502  0.39706058287E+02  0.43220623166E+03 -0.25893231107E+03  0.50539563677E+03  0.10100000352E+00 0. -1.
</event>
<event>
 5   0  0.3569359E-03  0.9793591E+03  0.7818609E-02  0.9331478E-01
        1   -1    0    0  501    0  0.00000000000E+00  0.00000000000E+00  0.70095109372E+03  0.70095109373E+03  0.50400001928E-02 0. -1.
       -1   -1    0    0    0  501  0.00000000000E+00  0.00000000000E+00 -0.34208672457E+03  0.34208672460E+03  0.50400001928E-02 0.  1.
    10030    2    1    2    0    0  0.00000000000E+00  0.00000000000E+00  0.35886436915E+03  0.10430378183E+04  0.97935910423E+03 0.  0.
        4    1    3    3  502    0  0.67746916357E+02  0.52009414407E+02 -0.33409101373E+03  0.34483770417E+03  0.12699999809E+01 0.  1.
       -4    1    3    3    0  502 -0.67746916357E+02 -0.52009414407E+02  0.69295538288E+03  0.69820011417E+03  0.12699999809E+01 0. -1.
</event>
<event>
 5   0  0.6022787E-03  0.1010461E+04  0.7818609E-02  0.9297145E-01
       -2   -1    0    0    0  501  0.00000000000E+00  0.00000000000E+00  0.22099627140E+03  0.22099627141E+03  0.25500000920E-02 0. -1.
        2   -1    0    0  501    0  0.00000000000E+00  0.00000000000E+00 -0.11550321911E+04  0.11550321911E+04  0.25500000920E-02 0.  1.
    10030    2    1    2    0    0  0.00000000000E+00  0.00000000000E+00 -0.93403591971E+03  0.13760284625E+04  0.10104609000E+04 0.  0.
        5    1    3    3  502    0  0.14627753859E+03  0.46895796165E+03 -0.62766812565E+03  0.79706213938E+03  0.46999998093E+01 0. -1.
       -5    1    3    3    0  502 -0.14627753859E+03 -0.46895796165E+03 -0.30636779406E+03  0.57896632314E+03  0.46999998093E+01 0.  1.
</event>
<event>
 5   0  0.6606947E-03  0.1004809E+04  0.7818609E-02  0.9303286E-01
       -2   -1    0    0    0  501  0.00000000000E+00  0.00000000000E+00  0.16180501653E+03  0.16180501655E+03  0.25500000920E-02 0. -1.
        2   -1    0    0  501    0  0.00000000000E+00  0.00000000000E+00 -0.15599654555E+04  0.15599654555E+04  0.25500000920E-02 0.  1.
    10030    2    1    2    0    0  0.00000000000E+00  0.00000000000E+00 -0.13981604390E+04  0.17217704720E+04  0.10048089099E+04 0.  0.
        1    1    3    3  502    0 -0.39840341426E+03  0.24183856968E+03 -0.10205627095E+04  0.11219444809E+04  0.50400001928E-02 0.  1.
       -1    1    3    3    0  502  0.39840341426E+03 -0.24183856968E+03 -0.37759772949E+03  0.59982599112E+03  0.50400001928E-02 0. -1.
</event>
<event>
 5   0  0.3643002E-03  0.1039328E+04  0.7818609E-02  0.9266432E-01
        1   -1    0    0  501    0  0.00000000000E+00  0.00000000000E+00  0.88197159862E+03  0.88197159863E+03  0.50400001928E-02 0.  1.
       -1   -1    0    0    0  501  0.00000000000E+00  0.00000000000E+00 -0.30619002980E+03  0.30619002984E+03  0.50400001928E-02 0. -1.
    10030    2    1    2    0    0  0.00000000000E+00  0.00000000000E+00  0.57578156881E+03  0.11881616285E+04  0.10393284565E+04 0.  0.
        2    1    3    3  502    0  0.16492849021E+03 -0.17166215137E+03 -0.24019101222E+03  0.33817306731E+03  0.25500000920E-02 0. -1.
       -2    1    3    3    0  502 -0.16492849021E+03  0.17166215137E+03  0.81597258104E+03  0.84998856116E+03  0.25500000920E-02 0.  1.
</event>
<event>
 5   0  0.3640180E-03  0.1015777E+04  0.7818609E-02  0.9291408E-01
       -1   -1    0    0    0  501  0.00000000000E+00  0.00000000000E+00  0.11121243339E+03  0.11121243351E+03  0.50400001928E-02 0. -1.
        1   -1    0    0  501    0  0.00000000000E+00  0.00000000000E+00 -0.23194421886E+04  0.23194421886E+04  0.50400001928E-02 0.  1.
    10030    2    1    2    0    0  0.00000000000E+00  0.00000000000E+00 -0.22082297552E+04  0.24306546221E+04  0.10157771607E+04 0.  0.
        5    1    3    3  502    0 -0.89172109462E+02 -0.49358549331E+03 -0.12948039862E+04  0.13885667996E+04  0.46999998093E+01 0. -1.
       -5    1    3    3    0  502  0.89172109462E+02  0.49358549331E+03 -0.91342576904E+03  0.10420878225E+04  0.46999998093E+01 0.  1.
</event>
<event>
 5   0  0.6376961E-03  0.9818587E+03  0.7818609E-02  0.9328669E-01
       -2   -1    0    0    0  501  0.00000000000E+00  0.00000000000E+00  0.13875381616E+03  0.13875381618E+03  0.25500000920E-02 0.  1.
        2   -1    0    0  501    0  0.00000000000E+00  0.00000000000E+00 -0.17369729807E+04  0.17369729807E+04  0.25500000920E-02 0. -1.
    10030    2    1    2    0    0  0.00000000000E+00  0.00000000000E+00 -0.15982191646E+04  0.18757267969E+04  0.98185870606E+03 0.  0.
        3    1    3    3  502    0 -0.37813171874E+03  0.10133262294E+03 -0.23317242678E+03  0.45565479038E+03  0.10100000352E+00 0.  1.
       -3    1    3    3    0  502  0.37813171874E+03 -0.10133262294E+03 -0.13650467378E+04  0.14200720065E+04  0.10100000352E+00 0. -1.
</event>
<event>
 5   0  0.6606947E-03  0.1009746E+04  0.7818609E-02  0.9297919E-01
        2   -1    0    0  501    0  0.00000000000E+00  0.00000000000E+00  0.72589328098E+03  0.72589328099E+03  0.25500000920E-02 0.  1.
       -2   -1    0    0    0  501  0.00000000000E+00  0.00000000000E+00 -0.35114919688E+03  0.35114919689E+03  0.25500000920E-02 0. -1.
    10030    2    1    2    0    0  0.00000000000E+00  0.00000000000E+00  0.37474408410E+03  0.10770424779E+04  0.10097461912E+04 0.  0.
        1    1    3    3  502    0  0.41766174549E+03 -0.28356879781E+03  0.18027696643E+03  0.53605259200E+03  0.50400001928E-02 0. -1.
       -1    1    3    3    0  502 -0.41766174549E+03  0.28356879781E+03  0.19446711767E+03  0.54098988588E+03  0.50400001928E-02 0.  1.
</event>
<event>
 5   0  0.2417750E-03  0.1006188E+04  0.7818609E-02  0.9301784E-01
        3   -1    0    0  501    0  0.00000000000E+00  0.00000000000E+00  0.10440340934E+04  0.10440340983E+04  0.10100000352E+00 0. -1.
       -3   -1    0    0    0  501  0.00000000000E+00  0.00000000000E+00 -0.24242820668E+03  0.24242822771E+03  0.10100000352E+00 0.  1.
    10030    2    1    2    0    0  0.00000000000E+00  0.00000000000E+00  0.80160588670E+03  0.12864623260E+04  0.10061875166E+04 0.  0.
        3    1    3    3  502    0  0.25978683001E+03  0.13693868092E+03 -0.12146908402E+03  0.31779891119E+03  0.10100000352E+00 0.  1.
       -3    1    3    3    0  502 -0.25978683001E+03 -0.13693868092E+03  0.92307497072E+03  0.96866341479E+03  0.10100000352E+00 0. -1.
</event>
<event>
 5   0  0.3640180E-03  0.9983958E+03  0.7818609E-02  0.9310306E-01
       -1   -1    0    0    0  501  0.00000000000E+00  0.00000000000E+00  0.11187734728E+03  0.11187734740E+03  0.50400001928E-02 0.  1.
        1   -1    0    0  501    0  0.00000000000E+00  0.00000000000E+00 -0.22274262897E+04  0.22274262897E+04  0.50400001928E-02 0. -1.
    10030    2    1    2    0    0  0.00000000000E+00  0.00000000000E+00 -0.21155489424E+04  0.23393036371E+04  0.99839580267E+03 0.  0.
        5    1    3    3  502    0 -0.48211349669E+03 -0.59514100992E+02 -0.13269830876E+04  0.14131105960E+04  0.46999998093E+01 0. -1.
       -5    1    3    3    0  502  0.48211349669E+03  0.59514100992E+02 -0.78856585485E+03  0.92619304108E+03  0.46999998093E+01 0.  1.
</event>
<event>
 5   0  0.3643002E-03  0.9932651E+03  0.7818609E-02  0.9315963E-01
       -1   -1    0    0    0  501  0.00000000000E+00  0.00000000000E+00  0.31131705122E+03  0.31131705126E+03  0.50400001928E-02 0.  1.
        1   -1    0    0  501    0  0.00000000000E+00  0.00000000000E+00 -0.79225948893E+03  0.79225948895E+03  0.50400001928E-02 0. -1.
    10030    2    1    2    0    0  0.00000000000E+00  0.00000000000E+00 -0.48094243772E+03  0.11035765402E+04  0.99326509638E+03 0.  0.
        2    1    3    3  502    0  0.18444817695E+03  0.14866676199E+03 -0.72543427563E+03  0.76313683201E+03  0.25500000920E-02 0. -1.
       -2    1    3    3    0  502 -0.18444817695E+03 -0.14866676199E+03  0.24449183791E+03  0.34043970820E+03  0.25500000920E-02 0.  1.
</event>
<event>
 5   0  0.3640180E-03  0.9897864E+03  0.7818609E-02  0.9319818E-01
       -1   -1    0    0    0  501  0.00000000000E+00  0.00000000000E+00  0.24369034036E+03  0.24369034041E+03  0.50400001928E-02 0. -1.
        1   -1    0    0  501    0  0.00000000000E+00  0.00000000000E+00 -0.10050431049E+04  0.10050431049E+04  0.50400001928E-02 0.  1.
    10030    2    1    2    0    0  0.00000000000E+00  0.00000000000E+00 -0.76135276450E+03  0.12487334453E+04  0.98978643422E+03 0.  0.
        5    1    3    3  502    0  0.19022672392E+02  0.31385226977E+03 -0.86279334004E+03  0.91831342521E+03  0.46999998093E+01 0.  1.
       -5    1    3    3    0  502 -0.19022672392E+02 -0.31385226977E+03  0.10144057555E+03  0.33042002008E+03  0.46999998093E+01 0. -1.
</event>
<event>
 5   0  0.3643002E-03  0.9108506E+03  0.7818609E-02  0.9412118E-01
        1   -1    0    0  501    0  0.00000000000E+00  0.00000000000E+00  0.78758446779E+03  0.78758446781E+03  0.50400001928E-02 0. -1.
       -1   -1    0    0    0  501  0.00000000000E+00  0.00000000000E+00 -0.26335232653E+03  0.26335232658E+03  0.50400001928E-02 0.  1.
    10030    2    1    2    0    0  0.00000000000E+00  0.00000000000E+00  0.52423214127E+03  0.10509367944E+04  0.91085059579E+03 0.  0.
        2    1    3    3  502    0 -0.22428247306E+03  0.18780093748E+02  0.71893359862E+03  0.75333978979E+03  0.25500000920E-02 0. -1.
       -2    1    3    3    0  502  0.22428247306E+03 -0.18780093748E+02 -0.19470145735E+03  0.29759700460E+03  0.25500000920E-02 0.  1.
</event>
<event>
 5   0  0.3640180E-03  0.8215765E+03  0.7818609E-02  0.9529301E-01
       -1   -1    0    0    0  501  0.00000000000E+00  0.00000000000E+00  0.11727628240E+03  0.11727628250E+03  0.50400001928E-02 0.  1.
        1   -1    0    0  501    0  0.00000000000E+00  0.00000000000E+00 -0.14388842962E+04  0.14388842962E+04  0.50400001928E-02 0. -1.
    10030    2    1    2    0    0  0.00000000000E+00  0.00000000000E+00 -0.13216080138E+04  0.15561605787E+04  0.82157653604E+03 0.  0.
        5    1    3    3  502    0 -0.20868154509E+03  0.21364560303E+03 -0.11949729631E+04  0.12317365398E+04  0.46999998093E+01 0. -1.
       -5    1    3    3    0  502  0.20868154509E+03 -0.21364560303E+03 -0.12663505070E+03  0.32442403890E+03  0.46999998093E+01 0.  1.
</event>
<event>
 5   0  0.3643002E-03  0.1012911E+04  0.7818609E-02  0.9294497E-01
        1   -1    0    0  501    0  0.00000000000E+00  0.00000000000E+00  0.38088890279E+03  0.38088890282E+03  0.50400001928E-02 0. -1.
       -1   -1    0    0    0  501  0.00000000000E+00  0.00000000000E+00 -0.67341675680E+03  0.67341675682E+03  0.50400001928E-02 0.  1.
    10030    2    1    2    0    0  0.00000000000E+00  0.00000000000E+00 -0.29252785401E+03  0.10543056596E+04  0.10129105975E+04 0.  0.
        2    1    3    3  502    0 -0.89272334732E+02  0.32935778057E+03 -0.53579161391E+03  0.63523125783E+03  0.25500000920E-02 0.  1.
       -2    1    3    3    0  502  0.89272334732E+02 -0.32935778057E+03  0.24326375990E+03  0.41907440182E+03  0.25500000920E-02 0. -1.
</event>
<event>
 5   0  0.6376961E-03  0.1049195E+04  0.7818609E-02  0.9256175E-01
       -2   -1    0    0    0  501  0.00000000000E+00  0.00000000000E+00  0.20466684451E+03  0.20466684452E+03  0.25500000920E-02 0.  1.
        2   -1    0    0  501    0  0.00000000000E+00  0.00000000000E+00 -0.13446367743E+04  0.13446367743E+04  0.25500000920E-02 0. -1.
    10030    2    1    2    0    0  0.00000000000E+00  0.00000000000E+00 -0.11399699298E+04  0.15493036188E+04  0.10491950545E+04 0.  0.
        3    1    3    3  502    0  0.52432827424E+03  0.47915664749E+01 -0.59377051000E+03  0.79215309570E+03  0.10100000352E+00 0. -1.
       -3    1    3    3    0  502 -0.52432827424E+03 -0.47915664749E+01 -0.54619941978E+03  0.75715052311E+03  0.10100000352E+00 0.  1.
</event>
<event>
 5   0  0.6199539E-03  0.9970760E+03  0.7818609E-02  0.9311758E-01
        2   -1    0    0  501    0  0.00000000000E+00  0.00000000000E+00  0.16846303139E+04  0.16846303139E+04  0.25500000920E-02 0.  1.
       -2   -1    0    0    0  501  0.00000000000E+00  0.00000000000E+00 -0.14753394530E+03  0.14753394532E+03  0.25500000920E-02 0. -1.
    10030    2    1    2    0    0  0.00000000000E+00  0.00000000000E+00  0.15370963686E+04  0.18321642593E+04  0.99707603843E+03 0.  0.
        2    1    3    3  502    0 -0.23058109773E+03  0.77130880694E+02 -0.31199283800E+02  0.24513304695E+03  0.25500000920E-02 0. -1.
       -2    1    3    3    0  502  0.23058109773E+03 -0.77130880694E+02  0.15682956524E+04  0.15870312123E+04  0.25500000920E-02 0.  1.
</event>
<event>
 5   0  0.6606947E-03  0.1004903E+04  0.7818609E-02  0.9303183E-01
        2   -1    0    0  501    0  0.00000000000E+00  0.00000000000E+00  0.17228422408E+04  0.17228422408E+04  0.25500000920E-02 0.  1.
       -2   -1    0    0    0  501  0.00000000000E+00  0.00000000000E+00 -0.14653555747E+03  0.14653555749E+03  0.25500000920E-02 0. -1.
    10030    2    1    2    0    0  0.00000000000E+00  0.00000000000E+00  0.15763066833E+04  0.18693777983E+04  0.10049032754E+04 0.  0.
        1    1    3    3  502    0 -0.62397514644E+02 -0.41104293195E+03  0.13130223381E+04  0.13772717241E+04  0.50400001928E-02 0.  1.
       -1    1    3    3    0  502  0.62397514644E+02  0.41104293195E+03  0.26328434521E+03  0.49210607413E+03  0.50400001928E-02 0. -1.
</event>
<event>
 5   0  0.3643002E-03  0.1001723E+04  0.7818609E-02  0.9306657E-01
       -1   -1    0    0    0  501  0.00000000000E+00  0.00000000000E+00  0.18531599021E+03  0.18531599028E+03  0.50400001928E-02 0.  1.
        1   -1    0    0  501    0  0.00000000000E+00  0.00000000000E+00 -0.13536989729E+04  0.13536989729E+04  0.50400001928E-02 0. -1.
    10030    2    1    2    0    0  0.00000000000E+00  0.00000000000E+00 -0.11683829827E+04  0.15390149632E+04  0.10017226476E+04 0.  0.
        2    1    3    3  502    0 -0.85450067584E+02  0.22035747995E+03  0.94255500188E+02  0.25444691459E+03  0.25500000920E-02 0.  1.
       -2    1    3    3    0  502  0.85450067584E+02 -0.22035747995E+03 -0.12626384828E+04  0.12845680486E+04  0.25500000920E-02 0. -1.
</event>
<event>
 5   0  0.6360455E-03  0.9961303E+03  0.7818609E-02  0.9312799E-01
        2   -1    0    0  501    0  0.00000000000E+00  0.00000000000E+00  0.29933100226E+03  0.29933100228E+03  0.25500000920E-02 0. -1.
       -2   -1    0    0    0  501  0.00000000000E+00  0.00000000000E+00 -0.82874440872E+03  0.82874440872E+03  0.25500000920E-02 0.  1.
    10030    2    1    2    0    0  0.00000000000E+00  0.00000000000E+00 -0.52941340645E+03  0.11280754110E+04  0.99613030170E+03 0.  0.
        4    1    3    3  502    0 -0.19940189224E+02 -0.45358522593E+03 -0.32815112706E+02  0.45520941648E+03  0.12699999809E+01 0. -1.
       -4    1    3    3    0  502  0.19940189224E+02  0.45358522593E+03 -0.49659829375E+03  0.67286599452E+03  0.12699999809E+01 0.  1.
</event>
<event>
 5   0  0.3608845E-03  0.9850345E+03  0.7818609E-02  0.9325113E-01
       -1   -1    0    0    0  501  0.00000000000E+00  0.00000000000E+00  0.59822929582E+03  0.59822929584E+03  0.50400001928E-02 0. -1.
        1   -1    0    0  501    0  0.00000000000E+00  0.00000000000E+00 -0.40548540084E+03  0.40548540087E+03  0.50400001928E-02 0.  1.
    10030    2    1    2    0    0  0.00000000000E+00  0.00000000000E+00  0.19274389498E+03  0.10037146967E+04  0.98503450870E+03 0.  0.
        1    1    3    3  502    0 -0.15416928458E+03  0.19672479560E+03  0.52880714768E+03  0.58489812188E+03  0.50400001928E-02 0. -1.
       -1    1    3    3    0  502  0.15416928458E+03 -0.19672479560E+03 -0.33606325270E+03  0.41881657483E+03  0.50400001928E-02 0.  1.
</event>
<event>
 5   0  0.3569359E-03  0.9411221E+03  0.7818609E-02  0.9375588E-01
        1   -1    0    0  501    0  0.00000000000E+00  0.00000000000E+00  0.12039348997E+04  0.12039348997E+04  0.50400001928E-02 0. -1.
       -1   -1    0    0    0  501  0.00000000000E+00  0.00000000000E+00 -0.18392000649E+03  0.18392000656E+03  0.50400001928E-02 0.  1.
    10030    2    1    2    0    0  0.00000000000E+00  0.00000000000E+00  0.10200148932E+04  0.13878549063E+04  0.94112212730E+03 0.  0.
        4    1    3    3  502    0  0.33157738632E+03  0.10236644677E+03  0.41338031396E+02  0.34947517549E+03  0.12699999809E+01 0.  1.
       -4    1    3    3    0  502 -0.33157738632E+03 -0.10236644677E+03  0.97867686182E+03  0.10383797308E+04  0.12699999809E+01 0. -1.
</event>
<event>
 5   0  0.6376961E-03  0.1012775E+04  0.7818609E-02  0.9294643E-01
        2   -1    0    0  501    0  0.00000000000E+00  0.00000000000E+00  0.91028853568E+03  0.91028853568E+03  0.25500000920E-02 0.  1.
       -2   -1    0    0    0  501  0.00000000000E+00  0.00000000000E+00 -0.28170023106E+03  0.28170023107E+03  0.25500000920E-02 0. -1.
    10030    2    1    2    0    0  0.00000000000E+00  0.00000000000E+00  0.62858830462E+03  0.11919887668E+04  0.10127753766E+04 0.  0.
        3    1    3    3  502    0 -0.25220706282E+03 -0.40459792623E+03  0.51513828997E+03  0.70190836470E+03  0.10100000352E+00 0.  1.
       -3    1    3    3    0  502  0.25220706282E+03  0.40459792623E+03  0.11345001465E+03  0.49008040205E+03  0.10100000352E+00 0. -1.
</event>
<event>
 5   0  0.3640180E-03  0.1000973E+04  0.7818609E-02  0.9307478E-01
        1   -1    0    0  501    0  0.00000000000E+00  0.00000000000E+00  0.62287658431E+03  0.62287658433E+03  0.50400001928E-02 0. -1.
       -1   -1    0    0    0  501  0.00000000000E+00  0.00000000000E+00 -0.40214527987E+03  0.40214527990E+03  0.50400001928E-02 0.  1.
    10030    2    1    2    0    0  0.00000000000E+00  0.00000000000E+00  0.22073130444E+03  0.10250218642E+04  0.10009732831E+04 0.  0.
        5    1    3    3  502    0 -0.49723278989E+03  0.32251261602E+02  0.15822387419E+03  0.52281686620E+03  0.46999998093E+01 0.  1.
       -5    1    3    3    0  502  0.49723278989E+03 -0.32251261602E+02  0.62507430244E+02  0.50220499803E+03  0.46999998093E+01 0. -1.
</event>
<event>
 5   0  0.6376961E-03  0.9870377E+03  0.7818609E-02  0.9322877E-01
       -2   -1    0    0    0  501  0.00000000000E+00  0.00000000000E+00  0.23035575943E+03  0.23035575945E+03  0.25500000920E-02 0.  1.
        2   -1    0    0  501    0  0.00000000000E+00  0.00000000000E+00 -0.10573248438E+04  0.10573248438E+04  0.25500000920E-02 0. -1.
    10030    2    1    2    0    0  0.00000000000E+00  0.00000000000E+00 -0.82696908438E+03  0.12876806033E+04  0.98703772446E+03 0.  0.
        3    1    3    3  502    0  0.19893238714E+03 -0.39797766972E+03 -0.13489848277E+03  0.46492787732E+03  0.10100000352E+00 0. -1.
       -3    1    3    3    0  502 -0.19893238714E+03  0.39797766972E+03 -0.69207060161E+03  0.82275272595E+03  0.10100000352E+00 0.  1.
</event>
<event>
 5   0  0.2417750E-03  0.1002500E+04  0.7818609E-02  0.9305808E-01
       -3   -1    0    0    0  501  0.00000000000E+00  0.00000000000E+00  0.73496320636E+03  0.73496321330E+03  0.10100000352E+00 0.  1.
        3   -1    0    0  501    0  0.00000000000E+00  0.00000000000E+00 -0.34185567527E+03  0.34185569019E+03  0.10100000352E+00 0. -1.
    10030    2    1    2    0    0  0.00000000000E+00  0.00000000000E+00  0.39310753109E+03  0.10768189035E+04  0.10024995860E+04 0.  0.
        5    1    3    3  502    0  0.10612900942E+03 -0.34764760042E+02 -0.32829817520E+03  0.34680504180E+03  0.46999998093E+01 0. -1.
       -5    1    3    3    0  502 -0.10612900942E+03  0.34764760042E+02  0.72140570629E+03  0.73001386168E+03  0.46999998093E+01 0.  1.
</event>
<event>
 5   0  0.3569359E-03  0.9830402E+03  0.7818609E-02  0.9327344E-01
       -1   -1    0    0    0  501  0.00000000000E+00  0.00000000000E+00  0.32283784082E+03  0.32283784086E+03  0.50400001928E-02 0. -1.
        1   -1    0    0  501    0  0.00000000000E+00  0.00000000000E+00 -0.74833864742E+03  0.74833864744E+03  0.50400001928E-02 0.  1.
    10030    2    1    2    0    0  0.00000000000E+00  0.00000000000E+00 -0.42550080661E+03  0.10711764883E+04  0.98304024976E+03 0.  0.
        4    1    3    3  502    0 -0.37901562552E+03  0.34253588481E+02  0.12620865027E+03  0.40094437147E+03  0.12699999809E+01 0. -1.
       -4    1    3    3    0  502  0.37901562552E+03 -0.34253588481E+02 -0.55170945688E+03  0.67023211682E+03  0.12699999809E+01 0.  1.
</event>
<event>
 5   0  0.3640180E-03  0.9475761E+03  0.7818609E-02  0.9367988E-01
       -1   -1    0    0    0  501  0.00000000000E+00  0.00000000000E+00  0.32548589044E+03  0.32548589048E+03  0.50400001928E-02 0.  1.
        1   -1    0    0  501    0  0.00000000000E+00  0.00000000000E+00 -0.68966163953E+03  0.68966163955E+03  0.50400001928E-02 0. -1.
    10030    2    1    2    0    0  0.00000000000E+00  0.00000000000E+00 -0.36417574909E+03  0.10151475300E+04  0.94757613494E+03 0.  0.
        5    1    3    3  502    0  0.18737115405E+03  0.25801945129E+03  0.19328513655E+03  0.37291181347E+03  0.46999998093E+01 0.  1.
       -5    1    3    3    0  502 -0.18737115405E+03 -0.25801945129E+03 -0.55746088564E+03  0.64223571656E+03  0.46999998093E+01 0. -1.
</event>
<event>
 5   0  0.6022787E-03  0.9950416E+03  0.7818609E-02  0.9314000E-01
        2   -1    0    0  501    0  0.00000000000E+00  0.00000000000E+00  0.13085645872E+04  0.13085645872E+04  0.25500000920E-02 0.  1.
       -2   -1    0    0    0  501  0.00000000000E+00  0.00000000000E+00 -0.18915912208E+03  0.18915912209E+03  0.25500000920E-02 0. -1.
    10030    2    1    2    0    0  0.00000000000E+00  0.00000000000E+00  0.11194054652E+04  0.14977237093E+04  0.99504156400E+03 0.  0.
        5    1    3    3  502    0 -0.33138720598E+03 -0.12648882332E+03  0.10847691532E+04  0.11412988690E+04  0.46999998093E+01 0.  1.
       -5    1    3    3    0  502  0.33138720598E+03  0.12648882332E+03  0.34636312000E+02  0.35642484035E+03  0.46999998093E+01 0. -1.
</event>
<event>
 5   0  0.3608845E-03  0.9806112E+03  0.7818609E-02  0.9330069E-01
       -1   -1    0    0    0  501  0.00000000000E+00  0.00000000000E+00  0.74370532802E+03  0.74370532804E+03  0.50400001928E-02 0.  1.
        1   -1    0    0  501    0  0.00000000000E+00  0.00000000000E+00 -0.32324572658E+03  0.32324572662E+03  0.50400001928E-02 0. -1.
    10030    2    1    2    0    0  0.00000000000E+00  0.00000000000E+00  0.42045960144E+03  0.10669510547E+04  0.98061117503E+03 0.  0.
        1    1    3    3  502    0 -0.25759353439E+03 -0.41591359632E+03  0.24567109375E+03  0.54744208360E+03  0.50400001928E-02 0. -1.
       -1    1    3    3    0  502  0.25759353439E+03  0.41591359632E+03  0.17478850769E+03  0.51950897106E+03  0.50400001928E-02 0.  1.
</event>
<event>
 5   0  0.6022787E-03  0.1004532E+04  0.7818609E-02  0.9303588E-01
        2   -1    0    0  501    0  0.00000000000E+00  0.00000000000E+00  0.14142755828E+04  0.14142755828E+04  0.25500000920E-02 0.  1.
       -2   -1    0    0    0  501  0.00000000000E+00  0.00000000000E+00 -0.17837471643E+03  0.17837471645E+03  0.25500000920E-02 0. -1.
    10030    2    1    2    0    0  0.00000000000E+00  0.00000000000E+00  0.12359008663E+04  0.15926502992E+04  0.10045317437E+04 0.  0.
        5    1    3    3  502    0  0.20354899505E+03  0.28585695024E+03  0.48279404748E+02  0.35425891705E+03  0.46999998093E+01 0. -1.
       -5    1    3    3    0  502 -0.20354899505E+03 -0.28585695024E+03  0.11876214616E+04  0.12383913822E+04  0.46999998093E+01 0.  1.
</event>
<event>
 5   0  0.3643002E-03  0.8614898E+03  0.7818609E-02  0.9475044E-01
       -1   -1    0    0    0  501  0.00000000000E+00  0.00000000000E+00  0.10904078695E+03  0.10904078707E+03  0.50400001928E-02 0. -1.
        1   -1    0    0  501    0  0.00000000000E+00  0.00000000000E+00 -0.17015756695E+04  0.17015756695E+04  0.50400001928E-02 0.  1.
    10030    2    1    2    0    0  0.00000000000E+00  0.00000000000E+00 -0.15925348825E+04  0.18106164565E+04  0.86148975658E+03 0.  0.
        2    1    3    3  502    0 -0.15494364519E+03  0.18702191628E+03 -0.48582841192E+02  0.24767927410E+03  0.25500000920E-02 0. -1.
       -2    1    3    3    0  502  0.15494364519E+03 -0.18702191628E+03 -0.15439520413E+04  0.15629371824E+04  0.25500000920E-02 0.  1.
</event>
<event>
 5   0  0.3466598E-03  0.9987620E+03  0.7818609E-02  0.9309904E-01
        1   -1    0    0  501    0  0.00000000000E+00  0.00000000000E+00  0.12718481887E+04  0.12718481887E+04  0.50400001928E-02 0. -1.
       -1   -1    0    0    0  501  0.00000000000E+00  0.00000000000E+00 -0.19607793881E+03  0.19607793888E+03  0.50400001928E-02 0.  1.
    10030    2    1    2    0    0  0.00000000000E+00  0.00000000000E+00  0.10757702499E+04  0.14679261276E+04  0.99876197639E+03 0.  0.
        3    1    3    3  502    0  0.15485452086E+03 -0.47121689628E+03  0.62302990777E+03  0.79636145195E+03  0.10100000352E+00 0. -1.
       -3    1    3    3    0  502 -0.15485452086E+03  0.47121689628E+03  0.45274034209E+03  0.67156467561E+03  0.10100000352E+00 0.  1.
</event>
<event>
 5   0  0.2417750E-03  0.9154811E+03  0.7818609E-02  0.9406434E-01
        3   -1    0    0  501    0  0.00000000000E+00  0.00000000000E+00  0.49181492498E+03  0.49181493535E+03  0.10100000352E+00 0. -1.
       -3   -1    0    0    0  501  0.00000000000E+00  0.00000000000E+00 -0.42602692518E+03  0.42602693715E+03  0.10100000352E+00 0.  1.
    10030    2    1    2    0    0  0.00000000000E+00  0.00000000000E+00  0.65787999798E+02  0.91784187250E+03  0.91548109866E+03 0.  0.
        5    1    3    3  502    0  0.26276078621E+03  0.80495597221E+02  0.39987280393E+03  0.48522481517E+03  0.46999998093E+01 0. -1.
       -5    1    3    3    0  502 -0.26276078621E+03 -0.80495597221E+02 -0.33408480413E+03  0.43261705733E+03  0.46999998093E+01 0.  1.
</event>
<event>
 5   0  0.3640180E-03  0.9946555E+03  0.7818609E-02  0.9314426E-01
       -1   -1    0    0    0  501  0.00000000000E+00  0.00000000000E+00  0.54847501598E+03  0.54847501600E+03  0.50400001928E-02 0. -1.
        1   -1    0    0  501    0  0.00000000000E+00  0.00000000000E+00 -0.45095015061E+03  0.45095015064E+03  0.50400001928E-02 0.  1.
    10030    2    1    2    0    0  0.00000000000E+00  0.00000000000E+00  0.97524865368E+02  0.99942516663E+03  0.99465550033E+03 0.  0.
        5    1    3    3  502    0 -0.14168940869E+03 -0.20620169144E+03 -0.38308658597E+03  0.45757234230E+03  0.46999998093E+01 0.  1.
       -5    1    3    3    0  502  0.14168940869E+03  0.20620169144E+03  0.48061145134E+03  0.54185282434E+03  0.46999998093E+01 0. -1.
</event>
<event>
 5   0  0.6199539E-03  0.9875161E+03  0.7818609E-02  0.9322344E-01
       -2   -1    0    0    0  501  0.00000000000E+00  0.00000000000E+00  0.28880151591E+03  0.28880151592E+03  0.25500000920E-02 0. -1.
        2   -1    0    0  501    0  0.00000000000E+00  0.00000000000E+00 -0.84416803992E+03  0.84416803993E+03  0.25500000920E-02 0.  1.
    10030    2    1    2    0    0  0.00000000000E+00  0.00000000000E+00 -0.55536652401E+03  0.11329695558E+04  0.98751609531E+03 0.  0.
        2    1    3    3  502    0  0.29065607681E+02 -0.73347463027E+02 -0.83688949541E+03  0.84060019475E+03  0.25500000920E-02 0.  1.
       -2    1    3    3    0  502 -0.29065607681E+02  0.73347463027E+02  0.28152297139E+03  0.29236936110E+03  0.25500000920E-02 0. -1.
</event>
<event>
 5   0  0.6606947E-03  0.1015678E+04  0.7818609E-02  0.9291515E-01
       -2   -1    0    0    0  501  0.00000000000E+00  0.00000000000E+00  0.53457897798E+03  0.53457897798E+03  0.25500000920E-02 0.  1.
        2   -1    0    0  501    0  0.00000000000E+00  0.00000000000E+00 -0.48243627446E+03  0.48243627446E+03  0.25500000920E-02 0. -1.
    10030    2    1    2    0    0  0.00000000000E+00  0.00000000000E+00  0.52142703520E+02  0.10170152524E+04  0.10156776862E+04 0.  0.
        1    1    3    3  502    0  0.15181221131E+03  0.20704814163E+03 -0.41266592640E+03  0.48601342295E+03  0.50400001928E-02 0. -1.
       -1    1    3    3    0  502 -0.15181221131E+03 -0.20704814163E+03  0.46480862992E+03  0.53100182949E+03  0.50400001928E-02 0.  1.
</event>
<event>
 5   0  0.3608845E-03  0.1002184E+04  0.7818609E-02  0.9306152E-01
        1   -1    0    0  501    0  0.00000000000E+00  0.00000000000E+00  0.72232591433E+03  0.72232591435E+03  0.50400001928E-02 0. -1.
       -1   -1    0    0    0  501  0.00000000000E+00  0.00000000000E+00 -0.34761775070E+03  0.34761775074E+03  0.50400001928E-02 0.  1.
    10030    2    1    2    0    0  0.00000000000E+00  0.00000000000E+00  0.37470816363E+03  0.10699436651E+04  0.10021842338E+04 0.  0.
        1    1    3    3  502    0  0.92662225536E+02  0.41736669961E+03 -0.91683073188E+02  0.43724939785E+03  0.50400001928E-02 0.  1.
       -1    1    3    3    0  502 -0.92662225536E+02 -0.41736669961E+03  0.46639123682E+03  0.63269426724E+03  0.50400001928E-02 0. -1.
</event>
<event>
 5   0  0.3466598E-03  0.1004122E+04  0.7818609E-02  0.9304036E-01
        1   -1    0    0  501    0  0.00000000000E+00  0.00000000000E+00  0.82807751034E+03  0.82807751035E+03  0.50400001928E-02 0. -1.
       -1   -1    0    0    0  501  0.00000000000E+00  0.00000000000E+00 -0.30439806687E+03  0.30439806692E+03  0.50400001928E-02 0.  1.
    10030    2    1    2    0    0  0.00000000000E+00  0.00000000000E+00  0.52367944347E+03  0.11324755773E+04  0.10041218918E+04 0.  0.
        3    1    3    3  502    0  0.34143029989E+03 -0.36702934256E+03  0.23034132997E+03  0.55167229990E+03  0.10100000352E+00 0. -1.
       -3    1    3    3    0  502 -0.34143029989E+03  0.36702934256E+03  0.29333811350E+03  0.58080327737E+03  0.10100000352E+00 0.  1.
</event>
<event>
 5   0  0.3466598E-03  0.1003944E+04  0.7818609E-02  0.9304230E-01
       -1   -1    0    0    0  501  0.00000000000E+00  0.00000000000E+00  0.10144670174E+03  0.10144670187E+03  0.50400001928E-02 0. -1.
        1   -1    0    0  501    0  0.00000000000E+00  0.00000000000E+00 -0.24838241348E+04  0.24838241348E+04  0.50400001928E-02 0.  1.
    10030    2    1    2    0    0  0.00000000000E+00  0.00000000000E+00 -0.23823774331E+04  0.25852708367E+04  0.10039437561E+04 0.  0.
        3    1    3    3  502    0 -0.13388287226E+03 -0.33198870395E+03 -0.20973755025E+04  0.21277041927E+04  0.10100000352E+00 0.  1.
       -3    1    3    3    0  502  0.13388287226E+03  0.33198870395E+03 -0.28500193056E+03  0.45756664395E+03  0.10100000352E+00 0. -1.
</event>
<event>
 5   0  0.3643002E-03  0.9936334E+03  0.7818609E-02  0.9315555E-01
       -1   -1    0    0    0  501  0.00000000000E+00  0.00000000000E+00  0.27120573078E+03  0.27120573083E+03  0.50400001928E-02 0. -1.
        1   -1    0    0  501    0  0.00000000000E+00  0.00000000000E+00 -0.91010916969E+03  0.91010916970E+03  0.50400001928E-02 0.  1.
    10030    2    1    2    0    0  0.00000000000E+00  0.00000000000E+00 -0.63890343891E+03  0.11813149005E+04  0.99363337804E+03 0.  0.
        2    1    3    3  502    0 -0.12384794257E+03 -0.40411815418E+03 -0.90253970859E+01  0.42276619214E+03  0.25500000920E-02 0. -1.
       -2    1    3    3    0  502  0.12384794257E+03  0.40411815418E+03 -0.62987804182E+03  0.75854870839E+03  0.25500000920E-02 0.  1.
</event>
<event>
 5   0  0.6606947E-03  0.1010824E+04  0.7818609E-02  0.9296752E-01
       -2   -1    0    0    0  501  0.00000000000E+00  0.00000000000E+00  0.31074045095E+03  0.31074045096E+03  0.25500000920E-02 0.  1.
        2   -1    0    0  501    0  0.00000000000E+00  0.00000000000E+00 -0.82204102992E+03  0.82204102992E+03  0.25500000920E-02 0. -1.
    10030    2    1    2    0    0  0.00000000000E+00  0.00000000000E+00 -0.51130057897E+03  0.11327814809E+04  0.10108242188E+04 0.  0.
        1    1    3    3  502    0 -0.40476487013E+03 -0.57800578226E+02 -0.58859104614E+03  0.71666932860E+03  0.50400001928E-02 0. -1.
       -1    1    3    3    0  502  0.40476487013E+03  0.57800578226E+02  0.77290467176E+02  0.41611215228E+03  0.50400001928E-02 0.  1.
</event>
<event>
 5   0  0.6376961E-03  0.9992836E+03  0.7818609E-02  0.9309331E-01
        2   -1    0    0  501    0  0.00000000000E+00  0.00000000000E+00  0.39488279060E+03  0.39488279061E+03  0.25500000920E-02 0. -1.
       -2   -1    0    0    0  501  0.00000000000E+00  0.00000000000E+00 -0.63219244101E+03  0.63219244102E+03  0.25500000920E-02 0.  1.
    10030    2    1    2    0    0  0.00000000000E+00  0.00000000000E+00 -0.23730965041E+03  0.10270752316E+04  0.99928357398E+03 0.  0.
        3    1    3    3  502    0  0.15865841659E+03 -0.16034119218E+03  0.33956948502E+03  0.40766314087E+03  0.10100000352E+00 0. -1.
       -3    1    3    3    0  502 -0.15865841659E+03  0.16034119218E+03 -0.57687913544E+03  0.61941209075E+03  0.10100000352E+00 0.  1.
</event>
<event>
 5   0  0.3466598E-03  0.9986263E+03  0.7818609E-02  0.9310053E-01
       -1   -1    0    0    0  501  0.00000000000E+00  0.00000000000E+00  0.36329547269E+03  0.36329547272E+03  0.50400001928E-02 0.  1.
        1   -1    0    0  501    0  0.00000000000E+00  0.00000000000E+00 -0.68625572384E+03  0.68625572386E+03  0.50400001928E-02 0. -1.
    10030    2    1    2    0    0  0.00000000000E+00  0.00000000000E+00 -0.32296025115E+03  0.10495511966E+04  0.99862625161E+03 0.  0.
        3    1    3    3  502    0 -0.41466890525E+03  0.10483581169E+03  0.10928674130E+03  0.44145718979E+03  0.10100000352E+00 0.  1.
       -3    1    3    3    0  502  0.41466890525E+03 -0.10483581169E+03 -0.43224699246E+03  0.60809400678E+03  0.10100000352E+00 0. -1.
</event>
<event>
 5   0  0.6360455E-03  0.9931916E+03  0.7818609E-02  0.9316044E-01
        2   -1    0    0  501    0  0.00000000000E+00  0.00000000000E+00  0.13221938198E+04  0.13221938198E+04  0.25500000920E-02 0.  1.
       -2   -1    0    0    0  501  0.00000000000E+00  0.00000000000E+00 -0.18651380250E+03  0.18651380252E+03  0.25500000920E-02 0. -1.
    10030    2    1    2    0    0  0.00000000000E+00  0.00000000000E+00  0.11356800173E+04  0.15087076224E+04  0.99319161696E+03 0.  0.
        4    1    3    3  502    0 -0.36031348397E+02 -0.48695238640E+03  0.43041090544E+03  0.65090402143E+03  0.12699999809E+01 0.  1.
       -4    1    3    3    0  502  0.36031348397E+02  0.48695238640E+03  0.70526911189E+03  0.85780360094E+03  0.12699999809E+01 0. -1.
</event>
<event>
 5   0  0.3466598E-03  0.9964248E+03  0.7818609E-02  0.9312475E-01
        1   -1    0    0  501    0  0.00000000000E+00  0.00000000000E+00  0.11376513166E+04  0.11376513166E+04  0.50400001928E-02 0. -1.
       -1   -1    0    0    0  501  0.00000000000E+00  0.00000000000E+00 -0.21818247061E+03  0.21818247066E+03  0.50400001928E-02 0.  1.
    10030    2    1    2    0    0  0.00000000000E+00  0.00000000000E+00  0.91946884600E+03  0.13558337873E+04  0.99642475881E+03 0.  0.
        3    1    3    3  502    0  0.13495642100E+03 -0.45894531299E+03  0.64911868749E+03  0.80634925220E+03  0.10100000352E+00 0. -1.
       -3    1    3    3    0  502 -0.13495642100E+03  0.45894531299E+03  0.27035015851E+03  0.54948453507E+03  0.10100000352E+00 0.  1.
</event>
<event>
 5   0  0.3466598E-03  0.9908054E+03  0.7818609E-02  0.9318687E-01
        1   -1    0    0  501    0  0.00000000000E+00  0.00000000000E+00  0.15719304630E+04  0.15719304630E+04  0.50400001928E-02 0.  1.
       -1   -1    0    0    0  501  0.00000000000E+00  0.00000000000E+00 -0.15612894932E+03  0.15612894940E+03  0.50400001928E-02 0. -1.
    10030    2    1    2    0    0  0.00000000000E+00  0.00000000000E+00  0.14158015137E+04  0.17280594124E+04  0.99080543331E+03 0.  0.
        3    1    3    3  502    0  0.25375427526E+03 -0.29349561008E+03  0.12451641278E+04  0.13042103437E+04  0.10100000352E+00 0.  1.
       -3    1    3    3    0  502 -0.25375427526E+03  0.29349561008E+03  0.17063738587E+03  0.42384906866E+03  0.10100000352E+00 0. -1.
</event>
<event>
 5   0  0.6022787E-03  0.8669811E+03  0.7818609E-02  0.9467825E-01
        2   -1    0    0  501    0  0.00000000000E+00  0.00000000000E+00  0.15930679413E+04  0.15930679413E+04  0.25500000920E-02 0. -1.
       -2   -1    0    0    0  501  0.00000000000E+00  0.00000000000E+00 -0.11795733343E+03  0.11795733346E+03  0.25500000920E-02 0.  1.
    10030    2    1    2    0    0  0.00000000000E+00  0.00000000000E+00  0.14751106079E+04  0.17110252748E+04  0.86698107558E+03 0.  0.
        5    1    3    3  502    0  0.21298034760E+03 -0.50127352698E+02  0.14760368308E+04  0.14921729779E+04  0.46999998093E+01 0. -1.
       -5    1    3    3    0  502 -0.21298034760E+03  0.50127352698E+02 -0.92622297872E+00  0.21885229686E+03  0.46999998093E+01 0.  1.
</event>
<event>
 5   0  0.3569359E-03  0.1014551E+04  0.7818609E-02  0.9292728E-01
       -1   -1    0    0    0  501  0.00000000000E+00  0.00000000000E+00  0.59754514664E+03  0.59754514666E+03  0.50400001928E-02 0.  1.
        1   -1    0    0  501    0  0.00000000000E+00  0.00000000000E+00 -0.43064252652E+03  0.43064252655E+03  0.50400001928E-02 0. -1.
    10030    2    1    2    0    0  0.00000000000E+00  0.00000000000E+00  0.16690262012E+03  0.10281876732E+04  0.10145508399E+04 0.  0.
        4    1    3    3  502    0 -0.13191875498E+03 -0.24311027090E+02 -0.41234125634E+03  0.43361331683E+03  0.12699999809E+01 0. -1.
       -4    1    3    3    0  502  0.13191875498E+03  0.24311027090E+02  0.57924387646E+03  0.59457435638E+03  0.12699999809E+01 0.  1.
</event>
<event>
 5   0  0.3466598E-03  0.9901231E+03  0.7818609E-02  0.9319444E-01
       -1   -1    0    0    0  501  0.00000000000E+00  0.00000000000E+00  0.82278430024E+03  0.82278430026E+03  0.50400001928E-02 0. -1.
        1   -1    0    0  501    0  0.00000000000E+00  0.00000000000E+00 -0.29787386572E+03  0.29787386576E+03  0.50400001928E-02 0.  1.
    10030    2    1    2    0    0  0.00000000000E+00  0.00000000000E+00  0.52491043453E+03  0.11206581660E+04  0.99012310386E+03 0.  0.
        3    1    3    3  502    0 -0.39308896852E+02  0.47288140858E+03  0.10269402416E+03  0.48549777420E+03  0.10100000352E+00 0.  1.
       -3    1    3    3    0  502  0.39308896852E+02 -0.47288140858E+03  0.42221641036E+03  0.63516039182E+03  0.10100000352E+00 0. -1.
</event>
<event>
 5   0  0.6199539E-03  0.1013229E+04  0.7818609E-02  0.9294154E-01
        2   -1    0    0  501    0  0.00000000000E+00  0.00000000000E+00  0.32864332411E+03  0.32864332412E+03  0.25500000920E-02 0.  1.
       -2   -1    0    0    0  501  0.00000000000E+00  0.00000000000E+00 -0.78096247175E+03  0.78096247175E+03  0.25500000920E-02 0. -1.
    10030    2    1    2    0    0  0.00000000000E+00  0.00000000000E+00 -0.45231914764E+03  0.11096057959E+04  0.10132287061E+04 0.  0.
        2    1    3    3  502    0  0.12987075055E+03  0.26665945015E+03  0.22361896391E+03  0.37145540140E+03  0.25500000920E-02 0.  1.
       -2    1    3    3    0  502 -0.12987075055E+03 -0.26665945015E+03 -0.67593811155E+03  0.73815039447E+03  0.25500000920E-02 0. -1.
</event>
<event>
 5   0  0.3569359E-03  0.1016921E+04  0.7818609E-02  0.9290179E-01
       -1   -1    0    0    0  501  0.00000000000E+00  0.00000000000E+00  0.33145009481E+03  0.33145009485E+03  0.50400001928E-02 0. -1.
        1   -1    0    0  501    0  0.00000000000E+00  0.00000000000E+00 -0.78000270233E+03  0.78000270235E+03  0.50400001928E-02 0.  1.
    10030    2    1    2    0    0  0.00000000000E+00  0.00000000000E+00 -0.44855260752E+03  0.11114527972E+04  0.10169207829E+04 0.  0.
        4    1    3    3  502    0  0.10119147647E+03  0.33355076182E+03 -0.62886981105E+03  0.71900951160E+03  0.12699999809E+01 0.  1.
       -4    1    3    3    0  502 -0.10119147647E+03 -0.33355076182E+03  0.18031720352E+03  0.39244328560E+03  0.12699999809E+01 0. -1.
</event>
<event>
 5   0  0.6606947E-03  0.9985048E+03  0.7818609E-02  0.9310186E-01
       -2   -1    0    0    0  501  0.00000000000E+00  0.00000000000E+00  0.18559998164E+04  0.18559998164E+04  0.25500000920E-02 0. -1.
        2   -1    0    0  501    0  0.00000000000E+00  0.00000000000E+00 -0.13429577632E+03  0.13429577635E+03  0.25500000920E-02 0.  1.
    10030    2    1    2    0    0  0.00000000000E+00  0.00000000000E+00  0.17217040401E+04  0.19902955927E+04  0.99850475457E+03 0.  0.
        1    1    3    3  502    0  0.38390103892E+03 -0.33093797383E+02  0.22807641458E+03  0.44776562845E+03  0.50400001928E-02 0.  1.
       -1    1    3    3    0  502 -0.38390103892E+03  0.33093797383E+02  0.14936276255E+04  0.15425299643E+04  0.50400001928E-02 0. -1.
</event>
<event>
 5   0  0.3643002E-03  0.1008549E+04  0.7818609E-02  0.9299218E-01
       -1   -1    0    0    0  501  0.00000000000E+00  0.00000000000E+00  0.60082267426E+03  0.60082267428E+03  0.50400001928E-02 0.  1.
        1   -1    0    0  501    0  0.00000000000E+00  0.00000000000E+00 -0.42324090013E+03  0.42324090016E+03  0.50400001928E-02 0. -1.
    10030    2    1    2    0    0  0.00000000000E+00  0.00000000000E+00  0.17758177413E+03  0.10240635744E+04  0.10085489170E+04 0.  0.
        2    1    3    3  502    0 -0.37923253833E+03  0.21075906979E+03  0.34975823504E+03  0.55728585718E+03  0.25500000920E-02 0.  1.
       -2    1    3    3    0  502  0.37923253833E+03 -0.21075906979E+03 -0.17217646091E+03  0.46677771726E+03  0.25500000920E-02 0. -1.
</event>
<event>
 5   0  0.3569359E-03  0.1057693E+04  0.7818609E-02  0.9247438E-01
       -1   -1    0    0    0  501  0.00000000000E+00  0.00000000000E+00  0.24962212355E+03  0.24962212360E+03  0.50400001928E-02 0.  1.
        1   -1    0    0  501    0  0.00000000000E+00  0.00000000000E+00 -0.11204069872E+04  0.11204069872E+04  0.50400001928E-02 0. -1.
    10030    2    1    2    0    0  0.00000000000E+00  0.00000000000E+00 -0.87078486365E+03  0.13700291108E+04  0.10576925289E+04 0.  0.
        4    1    3    3  502    0  0.46445669297E+03 -0.25288410627E+03 -0.43212384054E+03  0.68293705223E+03  0.12699999809E+01 0. -1.
       -4    1    3    3    0  502 -0.46445669297E+03  0.25288410627E+03 -0.43866102311E+03  0.68709205857E+03  0.12699999809E+01 0.  1.
</event>
<event>
 5   0  0.6376961E-03  0.9909973E+03  0.7818609E-02  0.9318474E-01
       -2   -1    0    0    0  501  0.00000000000E+00  0.00000000000E+00  0.41011447984E+03  0.41011447985E+03  0.25500000920E-02 0.  1.
        2   -1    0    0  501    0  0.00000000000E+00  0.00000000000E+00 -0.59865950190E+03  0.59865950190E+03  0.25500000920E-02 0. -1.
    10030    2    1    2    0    0  0.00000000000E+00  0.00000000000E+00 -0.18854502206E+03  0.10087739818E+04  0.99099733648E+03 0.  0.
        3    1    3    3  502    0 -0.34363575839E+03 -0.10773672706E+02 -0.45748863395E+03  0.57227394390E+03  0.10100000352E+00 0. -1.
       -3    1    3    3    0  502  0.34363575839E+03  0.10773672706E+02  0.26894361189E+03  0.43650003785E+03  0.10100000352E+00 0.  1.
</event>
<event>
 5   0  0.3466598E-03  0.9991580E+03  0.7818609E-02  0.9309469E-01
       -1   -1    0    0    0  501  0.00000000000E+00  0.00000000000E+00  0.18571544075E+03  0.18571544082E+03  0.50400001928E-02 0.  1.
        1   -1    0    0  501    0  0.00000000000E+00  0.00000000000E+00 -0.13438793978E+04  0.13438793978E+04  0.50400001928E-02 0. -1.
    10030    2    1    2    0    0  0.00000000000E+00  0.00000000000E+00 -0.11581639570E+04  0.15295948386E+04  0.99915795494E+03 0.  0.
        3    1    3    3  502    0  0.22756775146E+02 -0.47926975859E+03 -0.79209924745E+03  0.92608779299E+03  0.10100000352E+00 0. -1.
       -3    1    3    3    0  502 -0.22756775146E+02  0.47926975859E+03 -0.36606470959E+03  0.60350704562E+03  0.10100000352E+00 0.  1.
</event>
<event>
 5   0  0.6199539E-03  0.1036270E+04  0.7818609E-02  0.9269635E-01
       -2   -1    0    0    0  501  0.00000000000E+00  0.00000000000E+00  0.33702861836E+03  0.33702861837E+03  0.25500000920E-02 0.  1.
        2   -1    0    0  501    0  0.00000000000E+00  0.00000000000E+00 -0.79656117282E+03  0.79656117282E+03  0.25500000920E-02 0. -1.
    10030    2    1    2    0    0  0.00000000000E+00  0.00000000000E+00 -0.45953255446E+03  0.11335897912E+04  0.10362700643E+04 0.  0.
        2    1    3    3  502    0 -0.52247696151E+02 -0.50482727759E+03 -0.34388777300E+03  0.61305725865E+03  0.25500000920E-02 0. -1.
       -2    1    3    3    0  502  0.52247696151E+02  0.50482727759E+03 -0.11564478146E+03  0.52053253255E+03  0.25500000920E-02 0.  1.
</event>
<event>
 5   0  0.6376961E-03  0.9953508E+03  0.7818609E-02  0.9313659E-01
       -2   -1    0    0    0  501  0.00000000000E+00  0.00000000000E+00  0.29610722454E+03  0.29610722455E+03  0.25500000920E-02 0.  1.
        2   -1    0    0  501    0  0.00000000000E+00  0.00000000000E+00 -0.83645649972E+03  0.83645649972E+03  0.25500000920E-02 0. -1.
    10030    2    1    2    0    0  0.00000000000E+00  0.00000000000E+00 -0.54034927518E+03  0.11325637243E+04  0.99535081773E+03 0.  0.
        3    1    3    3  502    0  0.36734282482E+03  0.32893766627E+03 -0.34684321703E+03  0.60286065276E+03  0.10100000352E+00 0.  1.
       -3    1    3    3    0  502 -0.36734282482E+03 -0.32893766627E+03 -0.19350605815E+03  0.52970307152E+03  0.10100000352E+00 0. -1.
</event>
<event>
 5   0  0.6199539E-03  0.1022492E+04  0.7818609E-02  0.9284215E-01
        2   -1    0    0  501    0  0.00000000000E+00  0.00000000000E+00  0.24355755700E+04  0.24355755700E+04  0.25500000920E-02 0. -1.
       -2   -1    0    0    0  501  0.00000000000E+00  0.00000000000E+00 -0.10731439730E+03  0.10731439733E+03  0.25500000920E-02 0.  1.
    10030    2    1    2    0    0  0.00000000000E+00  0.00000000000E+00  0.23282611727E+04  0.25428899673E+04  0.10224917103E+04 0.  0.
        2    1    3    3  502    0  0.88406180214E+02 -0.41726691506E+03  0.46315799174E+03  0.62963692428E+03  0.25500000920E-02 0.  1.
       -2    1    3    3    0  502 -0.88406180214E+02  0.41726691506E+03  0.18651031810E+04  0.19132530430E+04  0.25500000920E-02 0. -1.
</event>
<event>
 5   0  0.6199539E-03  0.1005077E+04  0.7818609E-02  0.9302993E-01
        2   -1    0    0  501    0  0.00000000000E+00  0.00000000000E+00  0.68062592983E+03  0.68062592983E+03  0.25500000920E-02 0.  1.
       -2   -1    0    0    0  501  0.00000000000E+00  0.00000000000E+00 -0.37104841691E+03  0.37104841692E+03  0.25500000920E-02 0. -1.
    10030    2    1    2    0    0  0.00000000000E+00  0.00000000000E+00  0.30957751292E+03  0.10516743467E+04  0.10050774573E+04 0.  0.
        2    1    3    3  502    0 -0.23163171325E+03 -0.21446617655E+03  0.56393641374E+03  0.64627646577E+03  0.25500000920E-02 0.  1.
       -2    1    3    3    0  502  0.23163171325E+03  0.21446617655E+03 -0.25435890082E+03  0.40539788097E+03  0.25500000920E-02 0. -1.
</event>
<event>
 5   0  0.3640180E-03  0.1002682E+04  0.7818609E-02  0.9305608E-01
       -1   -1    0    0    0  501  0.00000000000E+00  0.00000000000E+00  0.76704587195E+03  0.76704587196E+03  0.50400001928E-02 0.  1.
        1   -1    0    0  501    0  0.00000000000E+00  0.00000000000E+00 -0.32767635403E+03  0.32767635407E+03  0.50400001928E-02 0. -1.
    10030    2    1    2    0    0  0.00000000000E+00  0.00000000000E+00  0.43936951791E+03  0.10947222260E+04  0.10026819929E+04 0.  0.
        5    1    3    3  502    0  0.44025564025E+03  0.17926725586E+03  0.45822164433E+02  0.47758092356E+03  0.46999998093E+01 0. -1.
       -5    1    3    3    0  502 -0.44025564025E+03 -0.17926725586E+03  0.39354735348E+03  0.61714130248E+03  0.46999998093E+01 0.  1.
</event>
<event>
 5   0  0.3569359E-03  0.1008845E+04  0.7818609E-02  0.9298897E-01
       -1   -1    0    0    0  501  0.00000000000E+00  0.00000000000E+00  0.42051040728E+03  0.42051040731E+03  0.50400001928E-02 0. -1.
        1   -1    0    0  501    0  0.00000000000E+00  0.00000000000E+00 -0.60507901909E+03  0.60507901912E+03  0.50400001928E-02 0.  1.
    10030    2    1    2    0    0  0.00000000000E+00  0.00000000000E+00 -0.18456861181E+03  0.10255894264E+04  0.10088449331E+04 0.  0.
        4    1    3    3  502    0  0.86758248778E+02  0.31310692994E+03 -0.48453489587E+03  0.58338548278E+03  0.12699999809E+01 0.  1.
       -4    1    3    3    0  502 -0.86758248778E+02 -0.31310692994E+03  0.29996628405E+03  0.44220394364E+03  0.12699999809E+01 0. -1.
</event>
<event>
 5   0  0.6199539E-03  0.1014453E+04  0.7818609E-02  0.9292834E-01
        2   -1    0    0  501    0  0.00000000000E+00  0.00000000000E+00  0.24515417402E+04  0.24515417402E+04  0.25500000920E-02 0.  1.
       -2   -1    0    0    0  501  0.00000000000E+00  0.00000000000E+00 -0.10494564751E+03  0.10494564754E+03  0.25500000920E-02 0. -1.
    10030    2    1    2    0    0  0.00000000000E+00  0.00000000000E+00  0.23465960927E+04  0.25564873878E+04  0.10144528286E+04 0.  0.
        2    1    3    3  502    0  0.37247427069E+03  0.19957188857E+03  0.18803217361E+04  0.19272197208E+04  0.25500000920E-02 0.  1.
       -2    1    3    3    0  502 -0.37247427069E+03 -0.19957188857E+03  0.46627435664E+03  0.62926766698E+03  0.25500000920E-02 0. -1.
</event>
<event>
 5   0  0.6199539E-03  0.1003045E+04  0.7818609E-02  0.9305211E-01
        2   -1    0    0  501    0  0.00000000000E+00  0.00000000000E+00  0.54461698844E+03  0.54461698845E+03  0.25500000920E-02 0.  1.
       -2   -1    0    0    0  501  0.00000000000E+00  0.00000000000E+00 -0.46183821514E+03  0.46183821514E+03  0.25500000920E-02 0. -1.
    10030    2    1    2    0    0  0.00000000000E+00  0.00000000000E+00  0.82778773306E+02  0.10064552036E+04  0.10030452390E+04 0.  0.
        2    1    3    3  502    0 -0.22461655147E+03  0.34374269623E+03  0.33031499270E+03  0.52699111075E+03  0.25500000920E-02 0.  1.
       -2    1    3    3    0  502  0.22461655147E+03 -0.34374269623E+03 -0.24753621939E+03  0.47946409284E+03  0.25500000920E-02 0. -1.
</event>
<event>
 5   0  0.2417750E-03  0.9985621E+03  0.7818609E-02  0.9310123E-01
        3   -1    0    0  501    0  0.00000000000E+00  0.00000000000E+00  0.81097722432E+03  0.81097723061E+03  0.10100000352E+00 0. -1.
       -3   -1    0    0    0  501  0.00000000000E+00  0.00000000000E+00 -0.30738417418E+03  0.30738419077E+03  0.10100000352E+00 0.  1.
    10030    2    1    2    0    0  0.00000000000E+00  0.00000000000E+00  0.50359305014E+03  0.11183614214E+04  0.99856212059E+03 0.  0.
        4    1    3    3  502    0  0.27144620901E+03  0.20213053971E+03 -0.15931118990E+03  0.37406078062E+03  0.12699999809E+01 0.  1.
       -4    1    3    3    0  502 -0.27144620901E+03 -0.20213053971E+03  0.66290424004E+03  0.74430064076E+03  0.12699999809E+01 0. -1.
</event>
<event>
 5   0  0.6376961E-03  0.9754194E+03  0.7818609E-02  0.9335923E-01
       -2   -1    0    0    0  501  0.00000000000E+00  0.00000000000E+00  0.18984239598E+03  0.18984239600E+03  0.25500000920E-02 0.  1.
        2   -1    0    0  501    0  0.00000000000E+00  0.00000000000E+00 -0.12529380636E+04  0.12529380636E+04  0.25500000920E-02 0. -1.
    10030    2    1    2    0    0  0.00000000000E+00  0.00000000000E+00 -0.10630956676E+04  0.14427804596E+04  0.97541942574E+03 0.  0.
        3    1    3    3  502    0 -0.57859066786E+02 -0.71172974497E+02  0.17696954433E+03  0.19932760404E+03  0.10100000352E+00 0.  1.
       -3    1    3    3    0  502  0.57859066786E+02  0.71172974497E+02 -0.12400652120E+04  0.12434528556E+04  0.10100000352E+00 0. -1.
</event>
<event>
 5   0  0.2417750E-03  0.1007355E+04  0.7818609E-02  0.9300514E-01
        4   -1    0    0  501    0  0.00000000000E+00  0.00000000000E+00  0.29427823941E+03  0.29428097983E+03  0.12699999809E+01 0. -1.
       -4   -1    0    0    0  501  0.00000000000E+00  0.00000000000E+00 -0.86207168477E+03  0.86207262025E+03  0.12699999809E+01 0.  1.
    10030    2    1    2    0    0  0.00000000000E+00  0.00000000000E+00 -0.56779344536E+03  0.11563536001E+04  0.10073550773E+04 0.  0.
        5    1    3    3  502    0  0.25216290216E+03  0.37162741619E+03 -0.54559997298E+03  0.70667848857E+03  0.46999998093E+01 0. -1.
       -5    1    3    3    0  502 -0.25216290216E+03 -0.37162741619E+03 -0.22193472381E+02  0.44967511151E+03  0.46999998093E+01 0.  1.
</event>
<event>
 5   0  0.3608845E-03  0.1004323E+04  0.7818609E-02  0.9303816E-01
       -1   -1    0    0    0  501  0.00000000000E+00  0.00000000000E+00  0.85904274679E+03  0.85904274680E+03  0.50400001928E-02 0.  1.
        1   -1    0    0  501    0  0.00000000000E+00  0.00000000000E+00 -0.29354317948E+03  0.29354317952E+03  0.50400001928E-02 0. -1.
    10030    2    1    2    0    0  0.00000000000E+00  0.00000000000E+00  0.56549956731E+03  0.11525859263E+04  0.10043229346E+04 0.  0.
        1    1    3    3  502    0  0.58048142829E+02 -0.40174737620E+03 -0.56519632394E+02  0.40983534504E+03  0.50400001928E-02 0. -1.
       -1    1    3    3    0  502 -0.58048142829E+02  0.40174737620E+03  0.62201919970E+03  0.74275058128E+03  0.50400001928E-02 0.  1.
</event>
<event>
 5   0  0.6199539E-03  0.1003021E+04  0.7818609E-02  0.9305238E-01
       -2   -1    0    0    0  501  0.00000000000E+00  0.00000000000E+00  0.12078521600E+03  0.12078521602E+03  0.25500000920E-02 0.  1.
        2   -1    0    0  501    0  0.00000000000E+00  0.00000000000E+00 -0.20823143543E+04  0.20823143543E+04  0.25500000920E-02 0. -1.
    10030    2    1    2    0    0  0.00000000000E+00  0.00000000000E+00 -0.19615291383E+04  0.22030995704E+04  0.10030210149E+04 0.  0.
        2    1    3    3  502    0 -0.46085563926E+03 -0.66964377330E+02 -0.57195876477E+03  0.73756964191E+03  0.25500000920E-02 0.  1.
       -2    1    3    3    0  502  0.46085563926E+03  0.66964377330E+02 -0.13895703736E+04  0.14655299284E+04  0.25500000920E-02 0. -1.
</event>
<event>
 5   0  0.6022787E-03  0.9887446E+03  0.7818609E-02  0.9320976E-01
        2   -1    0    0  501    0  0.00000000000E+00  0.00000000000E+00  0.15025225988E+04  0.15025225988E+04  0.25500000920E-02 0.  1.
       -2   -1    0    0    0  501  0.00000000000E+00  0.00000000000E+00 -0.16266242309E+03  0.16266242311E+03  0.25500000920E-02 0. -1.
    10030    2    1    2    0    0  0.00000000000E+00  0.00000000000E+00  0.13398601757E+04  0.16651850219E+04  0.98874459126E+03 0.  0.
        5    1    3    3  502    0  0.28237027922E+03 -0.13171375083E+03  0.23561379732E+02  0.31250394455E+03  0.46999998093E+01 0. -1.
       -5    1    3    3    0  502 -0.28237027922E+03  0.13171375083E+03  0.13162987960E+04  0.13526810774E+04  0.46999998093E+01 0.  1.
</event>
<event>
 5   0  0.2417750E-03  0.1075387E+04  0.7818609E-02  0.9229519E-01
       -4   -1    0    0    0  501  0.00000000000E+00  0.00000000000E+00  0.71119233852E+03  0.71119347246E+03  0.12699999809E+01 0. -1.
        4   -1    0    0  501    0  0.00000000000E+00  0.00000000000E+00 -0.40651788047E+03  0.40651986426E+03  0.12699999809E+01 0.  1.
    10030    2    1    2    0    0  0.00000000000E+00  0.00000000000E+00  0.30467445806E+03  0.11177133367E+04  0.10753867108E+04 0.  0.
        3    1    3    3  502    0 -0.45273043727E+03  0.28216857496E+03  0.82381460742E+02  0.53978761453E+03  0.10100000352E+00 0.  1.
       -3    1    3    3    0  502  0.45273043727E+03 -0.28216857496E+03  0.22229299731E+03  0.57792572220E+03  0.10100000352E+00 0. -1.
</event>
<event>
 5   0  0.3640180E-03  0.9990395E+03  0.7818609E-02  0.9309599E-01
        1   -1    0    0  501    0  0.00000000000E+00  0.00000000000E+00  0.10189550304E+04  0.10189550304E+04  0.50400001928E-02 0.  1.
       -1   -1    0    0    0  501  0.00000000000E+00  0.00000000000E+00 -0.24487830663E+03  0.24487830668E+03  0.50400001928E-02 0. -1.
    10030    2    1    2    0    0  0.00000000000E+00  0.00000000000E+00  0.77407672380E+03  0.12638333371E+04  0.99903950356E+03 0.  0.
        5    1    3    3  502    0 -0.78326851893E+02  0.41916013778E+03  0.71611530476E+03  0.83347077726E+03  0.46999998093E+01 0.  1.
       -5    1    3    3    0  502  0.78326851893E+02 -0.41916013778E+03  0.57961419041E+02  0.43036255986E+03  0.46999998093E+01 0. -1.
</event>
<event>
 5   0  0.6360455E-03  0.9954128E+03  0.7818609E-02  0.9313590E-01
        2   -1    0    0  501    0  0.00000000000E+00  0.00000000000E+00  0.12141153068E+04  0.12141153068E+04  0.25500000920E-02 0. -1.
       -2   -1    0    0    0  501  0.00000000000E+00  0.00000000000E+00 -0.20402648829E+03  0.20402648831E+03  0.25500000920E-02 0.  1.
    10030    2    1    2    0    0  0.00000000000E+00  0.00000000000E+00  0.10100888185E+04  0.14181417951E+04  0.99541284388E+03 0.  0.
        4    1    3    3  502    0 -0.45548164881E+03  0.34625381870E+02  0.22352152650E+03  0.50855278505E+03  0.12699999809E+01 0.  1.
       -4    1    3    3    0  502  0.45548164881E+03 -0.34625381870E+02  0.78656729200E+03  0.90958901006E+03  0.12699999809E+01 0. -1.
</event>
<event>
 5   0  0.3466598E-03  0.9882912E+03  0.7818609E-02  0.9321481E-01
        1   -1    0    0  501    0  0.00000000000E+00  0.00000000000E+00  0.15627821089E+04  0.15627821089E+04  0.50400001928E-02 0. -1.
       -1   -1    0    0    0  501  0.00000000000E+00  0.00000000000E+00 -0.15624691017E+03  0.15624691025E+03  0.50400001928E-02 0.  1.
    10030    2    1    2    0    0  0.00000000000E+00  0.00000000000E+00  0.14065351987E+04  0.17190290191E+04  0.98829120375E+03 0.  0.
        3    1    3    3  502    0 -0.13523249650E+03  0.25815625963E+03  0.91478034561E+01  0.29157533333E+03  0.10100000352E+00 0.  1.
       -3    1    3    3    0  502  0.13523249650E+03 -0.25815625963E+03  0.13973873952E+04  0.14274536858E+04  0.10100000352E+00 0. -1.
</event>
<event>
 5   0  0.3643002E-03  0.9901896E+03  0.7818609E-02  0.9319371E-01
        1   -1    0    0  501    0  0.00000000000E+00  0.00000000000E+00  0.14480306102E+04  0.14480306102E+04  0.50400001928E-02 0. -1.
       -1   -1    0    0    0  501  0.00000000000E+00  0.00000000000E+00 -0.16927738853E+03  0.16927738861E+03  0.50400001928E-02 0.  1.
    10030    2    1    2    0    0  0.00000000000E+00  0.00000000000E+00  0.12787532217E+04  0.16173079988E+04  0.99018955816E+03 0.  0.
        2    1    3    3  502    0 -0.40175144207E+03  0.27184131681E+02  0.16888736288E+03  0.43665334027E+03  0.25500000920E-02 0. -1.
       -2    1    3    3    0  502  0.40175144207E+03 -0.27184131681E+02  0.11098658588E+04  0.11806546585E+04  0.25500000920E-02 0.  1.
</event>
<event>
 5   0  0.6199539E-03  0.9908377E+03  0.7818609E-02  0.9318651E-01
        2   -1    0    0  501    0  0.00000000000E+00  0.00000000000E+00  0.83589905366E+03  0.83589905366E+03  0.25500000920E-02 0. -1.
       -2   -1    0    0    0  501  0.00000000000E+00  0.00000000000E+00 -0.29362379391E+03  0.29362379392E+03  0.25500000920E-02 0.  1.
    10030    2    1    2    0    0  0.00000000000E+00  0.00000000000E+00  0.54227525975E+03  0.11295228476E+04  0.99083772934E+03 0.  0.
        2    1    3    3  502    0 -0.49462490639E+03 -0.19633127832E+02  0.29395389546E+03  0.57571533798E+03  0.25500000920E-02 0. -1.
       -2    1    3    3    0  502  0.49462490639E+03  0.19633127832E+02  0.24832136428E+03  0.55380750960E+03  0.25500000920E-02 0.  1.
</event>
<event>
 5   0  0.6022787E-03  0.9976580E+03  0.7818609E-02  0.9311117E-01
       -2   -1    0    0    0  501  0.00000000000E+00  0.00000000000E+00  0.46418107616E+03  0.46418107617E+03  0.25500000920E-02 0.  1.
        2   -1    0    0  501    0  0.00000000000E+00  0.00000000000E+00 -0.53606311876E+03  0.53606311877E+03  0.25500000920E-02 0. -1.
    10030    2    1    2    0    0  0.00000000000E+00  0.00000000000E+00 -0.71882042603E+02  0.10002441949E+04  0.99765796817E+03 0.  0.
        5    1    3    3  502    0 -0.40085722763E+03  0.47567789626E+02  0.25783572266E+03  0.47900998051E+03  0.46999998093E+01 0.  1.
       -5    1    3    3    0  502  0.40085722763E+03 -0.47567789626E+02 -0.32971776527E+03  0.52123421442E+03  0.46999998093E+01 0. -1.
</event>
<event>
 5   0  0.3569359E-03  0.1005898E+04  0.7818609E-02  0.9302100E-01
        1   -1    0    0  501    0  0.00000000000E+00  0.00000000000E+00  0.65122100641E+03  0.65122100643E+03  0.50400001928E-02 0. -1.
       -1   -1    0    0    0  501  0.00000000000E+00  0.00000000000E+00 -0.38843579819E+03  0.38843579823E+03  0.50400001928E-02 0.  1.
    10030    2    1    2    0    0  0.00000000000E+00  0.00000000000E+00  0.26278520822E+03  0.10396568047E+04  0.10058977114E+04 0.  0.
        4    1    3    3  502    0  0.87728308719E+02  0.16950553157E+03  0.61233467436E+03  0.64139203901E+03  0.12699999809E+01 0. -1.
       -4    1    3    3    0  502 -0.87728308719E+02 -0.16950553157E+03 -0.34954946614E+03  0.39826476565E+03  0.12699999809E+01 0.  1.
</event>
<event>
 5   0  0.6022787E-03  0.9815501E+03  0.7818609E-02  0.9329015E-01
        2   -1    0    0  501    0  0.00000000000E+00  0.00000000000E+00  0.11816150952E+04  0.11816150952E+04  0.25500000920E-02 0.  1.
       -2   -1    0    0    0  501  0.00000000000E+00  0.00000000000E+00 -0.20383978438E+03  0.20383978439E+03  0.25500000920E-02 0. -1.
    10030    2    1    2    0    0  0.00000000000E+00  0.00000000000E+00  0.97777531079E+03  0.13854548796E+04  0.98155013367E+03 0.  0.
        5    1    3    3  502    0 -0.19615650357E+03  0.24343059697E+03  0.10228407726E+04  0.10695612024E+04  0.46999998093E+01 0.  1.
       -5    1    3    3    0  502  0.19615650357E+03 -0.24343059697E+03 -0.45065461859E+02  0.31589367719E+03  0.46999998093E+01 0. -1.
</event>
<event>
 5   0  0.3466598E-03  0.1003964E+04  0.7818609E-02  0.9304208E-01
       -1   -1    0    0    0  501  0.00000000000E+00  0.00000000000E+00  0.24945465451E+03  0.24945465456E+03  0.50400001928E-02 0.  1.
        1   -1    0    0  501    0  0.00000000000E+00  0.00000000000E+00 -0.10101468081E+04  0.10101468081E+04  0.50400001928E-02 0. -1.
    10030    2    1    2    0    0  0.00000000000E+00  0.00000000000E+00 -0.76069215361E+03  0.12596014627E+04  0.10039637903E+04 0.  0.
        3    1    3    3  502    0 -0.24482008275E+03  0.38964482051E+03 -0.63197916186E+03  0.78176571317E+03  0.10100000352E+00 0.  1.
       -3    1    3    3    0  502  0.24482008275E+03 -0.38964482051E+03 -0.12871299175E+03  0.47783574951E+03  0.10100000352E+00 0. -1.
</event>
<event>
 5   0  0.6199539E-03  0.9770880E+03  0.7818609E-02  0.9334037E-01
       -2   -1    0    0    0  501  0.00000000000E+00  0.00000000000E+00  0.31965640018E+03  0.31965640019E+03  0.25500000920E-02 0.  1.
        2   -1    0    0  501    0  0.00000000000E+00  0.00000000000E+00 -0.74666182056E+03  0.74666182056E+03  0.25500000920E-02 0. -1.
    10030    2    1    2    0    0  0.00000000000E+00  0.00000000000E+00 -0.42700542038E+03  0.10663182208E+04  0.97708797909E+03 0.  0.
        2    1    3    3  502    0 -0.13952970362E+01  0.29174705528E+03 -0.64115212551E+03  0.70441063249E+03  0.25500000920E-02 0. -1.
       -2    1    3    3    0  502  0.13952970362E+01 -0.29174705528E+03  0.21414670513E+03  0.36190758826E+03  0.25500000920E-02 0.  1.
</event>
<event>
 5   0  0.6376961E-03  0.9916292E+03  0.7818609E-02  0.9317774E-01
       -2   -1    0    0    0  501  0.00000000000E+00  0.00000000000E+00  0.31559911898E+03  0.31559911899E+03  0.25500000920E-02 0.  1.
        2   -1    0    0  501    0  0.00000000000E+00  0.00000000000E+00 -0.77893793368E+03  0.77893793369E+03  0.25500000920E-02 0. -1.
    10030    2    1    2    0    0  0.00000000000E+00  0.00000000000E+00 -0.46333881471E+03  0.10945370527E+04  0.99162921622E+03 0.  0.
        3    1    3    3  502    0  0.96575845220E+02 -0.29708812414E+03 -0.65665041638E+03  0.72717125007E+03  0.10100000352E+00 0. -1.
       -3    1    3    3    0  502 -0.96575845220E+02  0.29708812414E+03  0.19331160168E+03  0.36736580261E+03  0.10100000352E+00 0.  1.
</event>
<event>
 5   0  0.6606947E-03  0.9941816E+03  0.7818609E-02  0.9314949E-01
       -2   -1    0    0    0  501  0.00000000000E+00  0.00000000000E+00  0.53600738916E+03  0.53600738917E+03  0.25500000920E-02 0.  1.
        2   -1    0    0  501    0  0.00000000000E+00  0.00000000000E+00 -0.46099970536E+03  0.46099970537E+03  0.25500000920E-02 0. -1.
    10030    2    1    2    0    0  0.00000000000E+00  0.00000000000E+00  0.75007683796E+02  0.99700709454E+03  0.99418156990E+03 0.  0.
        1    1    3    3  502    0 -0.19212454431E+03  0.12754006152E+03  0.47911993906E+03  0.53172758425E+03  0.50400001928E-02 0.  1.
       -1    1    3    3    0  502  0.19212454431E+03 -0.12754006152E+03 -0.40411225526E+03  0.46527951029E+03  0.50400001928E-02 0. -1.
</event>
<event>
 5   0  0.3608845E-03  0.1050164E+04  0.7818609E-02  0.9255175E-01
        1   -1    0    0  501    0  0.00000000000E+00  0.00000000000E+00  0.82780417340E+03  0.82780417342E+03  0.50400001928E-02 0.  1.
       -1   -1    0    0    0  501  0.00000000000E+00  0.00000000000E+00 -0.33306311502E+03  0.33306311506E+03  0.50400001928E-02 0. -1.
    10030    2    1    2    0    0  0.00000000000E+00  0.00000000000E+00  0.49474105838E+03  0.11608672885E+04  0.10501638665E+04 0.  0.
        1    1    3    3  502    0 -0.18219555139E+03 -0.36393358515E+03 -0.11936785065E+03  0.42413624832E+03  0.50400001928E-02 0. -1.
       -1    1    3    3    0  502  0.18219555139E+03  0.36393358515E+03  0.61410890903E+03  0.73673104015E+03  0.50400001928E-02 0.  1.
</event>
<event>
 5   0  0.6376961E-03  0.1005435E+04  0.7818609E-02  0.9302603E-01
       -2   -1    0    0    0  501  0.00000000000E+00  0.00000000000E+00  0.40634402820E+03  0.40634402820E+03  0.25500000920E-02 0. -1.
        2   -1    0    0  501    0  0.00000000000E+00  0.00000000000E+00 -0.62194842869E+03  0.62194842869E+03  0.25500000920E-02 0.  1.
    10030    2    1    2    0    0  0.00000000000E+00  0.00000000000E+00 -0.21560440049E+03  0.10282924569E+04  0.10054352885E+04 0.  0.
        3    1    3    3  502    0 -0.67587225874E+02 -0.28193457956E+03 -0.52783315094E+03  0.60221506597E+03  0.10100000352E+00 0.  1.
       -3    1    3    3    0  502  0.67587225874E+02  0.28193457956E+03  0.31222875045E+03  0.42607739093E+03  0.10100000352E+00 0. -1.
</event>
<event>
 5   0  0.3569359E-03  0.1010167E+04  0.7818609E-02  0.9297464E-01
        1   -1    0    0  501    0  0.00000000000E+00  0.00000000000E+00  0.76172754719E+03  0.76172754721E+03  0.50400001928E-02 0.  1.
       -1   -1    0    0    0  501  0.00000000000E+00  0.00000000000E+00 -0.33490875979E+03  0.33490875982E+03  0.50400001928E-02 0. -1.
    10030    2    1    2    0    0  0.00000000000E+00  0.00000000000E+00  0.42681878741E+03  0.10966363070E+04  0.10101667747E+04 0.  0.
        4    1    3    3  502    0 -0.15608144983E+03  0.24227535139E+03  0.66370263425E+03  0.72357554165E+03  0.12699999809E+01 0.  1.
       -4    1    3    3    0  502  0.15608144983E+03 -0.24227535139E+03 -0.23688384684E+03  0.37306076538E+03  0.12699999809E+01 0. -1.
</event>
<event>
 5   0  0.6022787E-03  0.9959967E+03  0.7818609E-02  0.9312946E-01
        2   -1    0    0  501    0  0.00000000000E+00  0.00000000000E+00  0.11181403759E+04  0.11181403759E+04  0.25500000920E-02 0. -1.
       -2   -1    0    0    0  501  0.00000000000E+00  0.00000000000E+00 -0.22179893701E+03  0.22179893702E+03  0.25500000920E-02 0.  1.
    10030    2    1    2    0    0  0.00000000000E+00  0.00000000000E+00  0.89634143889E+03  0.13399393129E+04  0.99599668034E+03 0.  0.
        5    1    3    3  502    0 -0.26437402177E+03  0.38461360475E+02  0.10135392538E+04  0.10481683112E+04  0.46999998093E+01 0. -1.
       -5    1    3    3    0  502  0.26437402177E+03 -0.38461360475E+02 -0.11719781490E+03  0.29177100173E+03  0.46999998093E+01 0.  1.
</event>
<event>
 5   0  0.3569359E-03  0.1014159E+04  0.7818609E-02  0.9293150E-01
       -1   -1    0    0    0  501  0.00000000000E+00  0.00000000000E+00  0.19434955536E+03  0.19434955543E+03  0.50400001928E-02 0. -1.
        1   -1    0    0  501    0  0.00000000000E+00  0.00000000000E+00 -0.13230273415E+04  0.13230273415E+04  0.50400001928E-02 0.  1.
    10030    2    1    2    0    0  0.00000000000E+00  0.00000000000E+00 -0.11286777861E+04  0.15173768969E+04  0.10141593082E+04 0.  0.
        4    1    3    3  502    0 -0.36560990833E+03 -0.14589644219E+03 -0.86091316070E+02  0.40295124335E+03  0.12699999809E+01 0. -1.
       -4    1    3    3    0  502  0.36560990833E+03  0.14589644219E+03 -0.10425864701E+04  0.11144256536E+04  0.12699999809E+01 0.  1.
</event>
<event>
 5   0  0.3466598E-03  0.9956909E+03  0.7818609E-02  0.9313284E-01
        1   -1    0    0  501    0  0.00000000000E+00  0.00000000000E+00  0.15045924880E+04  0.15045924880E+04  0.50400001928E-02 0.  1.
       -1   -1    0    0    0  501  0.00000000000E+00  0.00000000000E+00 -0.16472906028E+03  0.16472906036E+03  0.50400001928E-02 0. -1.
    10030    2    1    2    0    0  0.00000000000E+00  0.00000000000E+00  0.13398634277E+04  0.16693215484E+04  0.99569092941E+03 0.  0.
        3    1    3    3  502    0  0.46206646817E+03  0.17454033457E+03  0.56549559162E+03  0.75083621632E+03  0.10100000352E+00 0. -1.
       -3    1    3    3    0  502 -0.46206646817E+03 -0.17454033457E+03  0.77436783608E+03  0.91848533203E+03  0.10100000352E+00 0.  1.
</event>
<event>
 5   0  0.6606947E-03  0.9897353E+03  0.7818609E-02  0.9319875E-01
        2   -1    0    0  501    0  0.00000000000E+00  0.00000000000E+00  0.59332355627E+03  0.59332355628E+03  0.25500000920E-02 0. -1.
       -2   -1    0    0    0  501  0.00000000000E+00  0.00000000000E+00 -0.41274947314E+03  0.41274947315E+03  0.25500000920E-02 0.  1.
    10030    2    1    2    0    0  0.00000000000E+00  0.00000000000E+00  0.18057408313E+03  0.10060730294E+04  0.98973528836E+03 0.  0.
        1    1    3    3  502    0 -0.30548708959E+02  0.34713948100E+02 -0.41054853687E+03  0.41314450615E+03  0.50400001928E-02 0.  1.
       -1    1    3    3    0  502  0.30548708959E+02 -0.34713948100E+02  0.59112262000E+03  0.59292852328E+03  0.50400001928E-02 0. -1.
</event>
<event>
 5   0  0.6360455E-03  0.9999737E+03  0.7818609E-02  0.9308574E-01
       -2   -1    0    0    0  501  0.00000000000E+00  0.00000000000E+00  0.26607562604E+03  0.26607562605E+03  0.25500000920E-02 0.  1.
        2   -1    0    0  501    0  0.00000000000E+00  0.00000000000E+00 -0.93953309072E+03  0.93953309072E+03  0.25500000920E-02 0. -1.
    10030    2    1    2    0    0  0.00000000000E+00  0.00000000000E+00 -0.67345746468E+03  0.12056087168E+04  0.99997371026E+03 0.  0.
        4    1    3    3  502    0 -0.39036165209E+02  0.19280997649E+03  0.21745386451E+03  0.29323592092E+03  0.12699999809E+01 0.  1.
       -4    1    3    3    0  502  0.39036165209E+02 -0.19280997649E+03 -0.89091132919E+03  0.91237279585E+03  0.12699999809E+01 0. -1.
</event>
<event>
 5   0  0.6376961E-03  0.9854663E+03  0.7818609E-02  0.9324630E-01
       -2   -1    0    0    0  501  0.00000000000E+00  0.00000000000E+00  0.65766874844E+03  0.65766874844E+03  0.25500000920E-02 0.  1.
        2   -1    0    0  501    0  0.00000000000E+00  0.00000000000E+00 -0.36916146344E+03  0.36916146345E+03  0.25500000920E-02 0. -1.
    10030    2    1    2    0    0  0.00000000000E+00  0.00000000000E+00  0.28850728500E+03  0.10268302119E+04  0.98546630108E+03 0.  0.
        3    1    3    3  502    0 -0.38464885834E+03 -0.25245324700E+03 -0.39496214328E+02  0.46178712335E+03  0.10100000352E+00 0. -1.
       -3    1    3    3    0  502  0.38464885834E+03  0.25245324700E+03  0.32800349932E+03  0.56504308855E+03  0.10100000352E+00 0.  1.
</event>
<event>
 5   0  0.3643002E-03  0.9976595E+03  0.7818609E-02  0.9311116E-01
        1   -1    0    0  501    0  0.00000000000E+00  0.00000000000E+00  0.11702537224E+04  0.11702537224E+04  0.50400001928E-02 0. -1.
       -1   -1    0    0    0  501  0.00000000000E+00  0.00000000000E+00 -0.21263005834E+03  0.21263005840E+03  0.50400001928E-02 0.  1.
    10030    2    1    2    0    0  0.00000000000E+00  0.00000000000E+00  0.95762366408E+03  0.13828837808E+04  0.99765949565E+03 0.  0.
        2    1    3    3  502    0 -0.23822903663E+03  0.43754252645E+03  0.51372963119E+03  0.71562187663E+03  0.25500000920E-02 0.  1.
       -2    1    3    3    0  502  0.23822903663E+03 -0.43754252645E+03  0.44389403289E+03  0.66726190419E+03  0.25500000920E-02 0. -1.
</event>
<event>
 5   0  0.3643002E-03  0.1010819E+04  0.7818609E-02  0.9296758E-01
        1   -1    0    0  501    0  0.00000000000E+00  0.00000000000E+00  0.12781112162E+04  0.12781112163E+04  0.50400001928E-02 0.  1.
       -1   -1    0    0    0  501  0.00000000000E+00  0.00000000000E+00 -0.19985626653E+03  0.19985626660E+03  0.50400001928E-02 0. -1.
    10030    2    1    2    0    0  0.00000000000E+00  0.00000000000E+00  0.10782549497E+04  0.14779674828E+04  0.10108185514E+04 0.  0.
        2    1    3    3  502    0 -0.32930620912E+03  0.33370677976E+03  0.81514367743E+03  0.94035206656E+03  0.25500000920E-02 0. -1.
       -2    1    3    3    0  502  0.32930620912E+03 -0.33370677976E+03  0.26311127228E+03  0.53761541629E+03  0.25500000920E-02 0.  1.
</event>
<event>
 5   0  0.6022787E-03  0.9998758E+03  0.7818609E-02  0.9308681E-01
       -2   -1    0    0    0  501  0.00000000000E+00  0.00000000000E+00  0.41037113455E+03  0.41037113456E+03  0.25500000920E-02 0. -1.
        2   -1    0    0  501    0  0.00000000000E+00  0.00000000000E+00 -0.60905327607E+03  0.60905327607E+03  0.25500000920E-02 0.  1.
    10030    2    1    2    0    0  0.00000000000E+00  0.00000000000E+00 -0.19868214152E+03  0.10194244106E+04  0.99987576010E+03 0.  0.
        5    1    3    3  502    0  0.26289209011E+02 -0.41260777050E+03 -0.38586848230E+03  0.56555536458E+03  0.46999998093E+01 0.  1.
       -5    1    3    3    0  502 -0.26289209011E+02  0.41260777050E+03  0.18718634078E+03  0.45386904604E+03  0.46999998093E+01 0. -1.
</event>
<event>
 5   0  0.3608845E-03  0.9961745E+03  0.7818609E-02  0.9312750E-01
        1   -1    0    0  501    0  0.00000000000E+00  0.00000000000E+00  0.13326895704E+04  0.13326895704E+04  0.50400001928E-02 0. -1.
       -1   -1    0    0    0  501  0.00000000000E+00  0.00000000000E+00 -0.18615807569E+03  0.18615807576E+03  0.50400001928E-02 0.  1.
    10030    2    1    2    0    0  0.00000000000E+00  0.00000000000E+00  0.11465314947E+04  0.15188476462E+04  0.99617453487E+03 0.  0.
        1    1    3    3  502    0  0.36737070252E+03 -0.29077795149E+03  0.83101282454E+03  0.95398918480E+03  0.50400001928E-02 0. -1.
       -1    1    3    3    0  502 -0.36737070252E+03  0.29077795149E+03  0.31551867019E+03  0.56485846139E+03  0.50400001928E-02 0.  1.
</event>
<event>
 5   0  0.6376961E-03  0.1001224E+04  0.7818609E-02  0.9307203E-01
        2   -1    0    0  501    0  0.00000000000E+00  0.00000000000E+00  0.71740929264E+03  0.71740929264E+03  0.25500000920E-02 0.  1.
       -2   -1    0    0    0  501  0.00000000000E+00  0.00000000000E+00 -0.34933004518E+03  0.34933004519E+03  0.25500000920E-02 0. -1.
    10030    2    1    2    0    0  0.00000000000E+00  0.00000000000E+00  0.36807924746E+03  0.10667393378E+04  0.10012244915E+04 0.  0.
        3    1    3    3  502    0  0.23016232528E+03  0.36568438272E+03  0.45339207164E+03  0.62630994290E+03  0.10100000352E+00 0.  1.
       -3    1    3    3    0  502 -0.23016232528E+03 -0.36568438272E+03 -0.85312824184E+02  0.44042939493E+03  0.10100000352E+00 0. -1.
</event>
<event>
 5   0  0.3643002E-03  0.9917928E+03  0.7818609E-02  0.9317592E-01
       -1   -1    0    0    0  501  0.00000000000E+00  0.00000000000E+00  0.39258493431E+03  0.39258493435E+03  0.50400001928E-02 0.  1.
        1   -1    0    0  501    0  0.00000000000E+00  0.00000000000E+00 -0.62639501596E+03  0.62639501598E+03  0.50400001928E-02 0. -1.
    10030    2    1    2    0    0  0.00000000000E+00  0.00000000000E+00 -0.23381008164E+03  0.10189799503E+04  0.99179281348E+03 0.  0.
        2    1    3    3  502    0 -0.35267268430E+03  0.29342976647E+03 -0.31030482005E+03  0.55386652855E+03  0.25500000920E-02 0. -1.
       -2    1    3    3    0  502  0.35267268430E+03 -0.29342976647E+03  0.76494738410E+02  0.46511342177E+03  0.25500000920E-02 0.  1.
</event>
<event>
 5   0  0.3569359E-03  0.1002043E+04  0.7818609E-02  0.9306307E-01
        1   -1    0    0  501    0  0.00000000000E+00  0.00000000000E+00  0.10745066854E+04  0.10745066854E+04  0.50400001928E-02 0. -1.
       -1   -1    0    0    0  501  0.00000000000E+00  0.00000000000E+00 -0.23361657207E+03  0.23361657213E+03  0.50400001928E-02 0.  1.
    10030    2    1    2    0    0  0.00000000000E+00  0.00000000000E+00  0.84089011328E+03  0.13081232575E+04  0.10020430501E+04 0.  0.
        4    1    3    3  502    0  0.29361956401E+03 -0.41274271067E+02  0.94766987613E+03  0.99297322262E+03  0.12699999809E+01 0. -1.
       -4    1    3    3    0  502 -0.29361956401E+03  0.41274271067E+02 -0.10677976285E+03  0.31515003486E+03  0.12699999809E+01 0.  1.
</event>
<event>
 5   0  0.3640180E-03  0.1001699E+04  0.7818609E-02  0.9306684E-01
        1   -1    0    0  501    0  0.00000000000E+00  0.00000000000E+00  0.24412375637E+03  0.24412375642E+03  0.50400001928E-02 0. -1.
       -1   -1    0    0    0  501  0.00000000000E+00  0.00000000000E+00 -0.10275529354E+04  0.10275529355E+04  0.50400001928E-02 0.  1.
    10030    2    1    2    0    0  0.00000000000E+00  0.00000000000E+00 -0.78342917907E+03  0.12716766919E+04  0.10016987222E+04 0.  0.
        5    1    3    3  502    0 -0.44006296600E+03  0.22444328891E+03 -0.49638487694E+03  0.70032152618E+03  0.46999998093E+01 0.  1.
       -5    1    3    3    0  502  0.44006296600E+03 -0.22444328891E+03 -0.28704430213E+03  0.57135516569E+03  0.46999998093E+01 0. -1.
</event>
<event>
 5   0  0.6360455E-03  0.9980204E+03  0.7818609E-02  0.9310719E-01
       -2   -1    0    0    0  501  0.00000000000E+00  0.00000000000E+00  0.50912052087E+03  0.50912052087E+03  0.25500000920E-02 0.  1.
        2   -1    0    0  501    0  0.00000000000E+00  0.00000000000E+00 -0.48910063833E+03  0.48910063834E+03  0.25500000920E-02 0. -1.
    10030    2    1    2    0    0  0.00000000000E+00  0.00000000000E+00  0.20019882535E+02  0.99822115921E+03  0.99802038406E+03 0.  0.
        4    1    3    3  502    0 -0.42860722172E+03  0.22366829945E+01 -0.24558090684E+03  0.49398456248E+03  0.12699999809E+01 0. -1.
       -4    1    3    3    0  502  0.42860722172E+03 -0.22366829945E+01  0.26560078938E+03  0.50423659673E+03  0.12699999809E+01 0.  1.
</event>
<event>
 5   0  0.3640180E-03  0.9743522E+03  0.7818609E-02  0.9337131E-01
        1   -1    0    0  501    0  0.00000000000E+00  0.00000000000E+00  0.10223325920E+04  0.10223325920E+04  0.50400001928E-02 0. -1.
       -1   -1    0    0    0  501  0.00000000000E+00  0.00000000000E+00 -0.23215591581E+03  0.23215591587E+03  0.50400001928E-02 0.  1.
    10030    2    1    2    0    0  0.00000000000E+00  0.00000000000E+00  0.79017667616E+03  0.12544885079E+04  0.97435221393E+03 0.  0.
        5    1    3    3  502    0 -0.31450820136E+03 -0.34566593849E+03  0.21800011000E+03  0.51569999778E+03  0.46999998093E+01 0.  1.
       -5    1    3    3    0  502  0.31450820136E+03  0.34566593849E+03  0.57217656615E+03  0.73878851007E+03  0.46999998093E+01 0. -1.
</event>
<event>
 5   0  0.6199539E-03  0.1003277E+04  0.7818609E-02  0.9304958E-01
       -2   -1    0    0    0  501  0.00000000000E+00  0.00000000000E+00  0.42154767893E+03  0.42154767894E+03  0.25500000920E-02 0. -1.
        2   -1    0    0  501    0  0.00000000000E+00  0.00000000000E+00 -0.59694623754E+03  0.59694623755E+03  0.25500000920E-02 0.  1.
    10030    2    1    2    0    0  0.00000000000E+00  0.00000000000E+00 -0.17539855861E+03  0.10184939165E+04  0.10032772317E+04 0.  0.
        2    1    3    3  502    0 -0.34263931090E+03  0.28414396426E+03 -0.32251205620E+03  0.54968492448E+03  0.25500000920E-02 0.  1.
       -2    1    3    3    0  502  0.34263931090E+03 -0.28414396426E+03  0.14711349759E+03  0.46880899200E+03  0.25500000920E-02 0. -1.
</event>
<event>
 5   0  0.3643002E-03  0.1004674E+04  0.7818609E-02  0.9303433E-01
        1   -1    0    0  501    0  0.00000000000E+00  0.00000000000E+00  0.18085524999E+03  0.18085525006E+03  0.50400001928E-02 0. -1.
       -1   -1    0    0    0  501  0.00000000000E+00  0.00000000000E+00 -0.13952727697E+04  0.13952727697E+04  0.50400001928E-02 0.  1.
    10030    2    1    2    0    0  0.00000000000E+00  0.00000000000E+00 -0.12144175197E+04  0.15761280197E+04  0.10046738886E+04 0.  0.
        2    1    3    3  502    0 -0.41900810497E+03 -0.18466035144E+03 -0.93129007707E+03  0.10377709020E+04  0.25500000920E-02 0.  1.
       -2    1    3    3    0  502  0.41900810497E+03  0.18466035144E+03 -0.28312744259E+03  0.53835711770E+03  0.25500000920E-02 0. -1.
</event>
<event>
 5   0  0.3608845E-03  0.1004472E+04  0.7818609E-02  0.9303654E-01
       -1   -1    0    0    0  501  0.00000000000E+00  0.00000000000E+00  0.11510051560E+03  0.11510051571E+03  0.50400001928E-02 0.  1.
        1   -1    0    0  501    0  0.00000000000E+00  0.00000000000E+00 -0.21914835001E+04  0.21914835001E+04  0.50400001928E-02 0. -1.
    10030    2    1    2    0    0  0.00000000000E+00  0.00000000000E+00 -0.20763829845E+04  0.23065840158E+04  0.10044717635E+04 0.  0.
        1    1    3    3  502    0  0.28099783189E+03 -0.68776352335E+01 -0.82433676618E+02  0.29292045757E+03  0.50400001928E-02 0.  1.
       -1    1    3    3    0  502 -0.28099783189E+03  0.68776352335E+01 -0.19939493079E+04  0.20136635582E+04  0.50400001928E-02 0. -1.
</event>
<event>
 5   0  0.6199539E-03  0.9962687E+03  0.7818609E-02  0.9312647E-01
       -2   -1    0    0    0  501  0.00000000000E+00  0.00000000000E+00  0.20700682060E+03  0.20700682061E+03  0.25500000920E-02 0.  1.
        2   -1    0    0  501    0  0.00000000000E+00  0.00000000000E+00 -0.11986939356E+04  0.11986939356E+04  0.25500000920E-02 0. -1.
    10030    2    1    2    0    0  0.00000000000E+00  0.00000000000E+00 -0.99168711504E+03  0.14057007562E+04  0.99626867962E+03 0.  0.
        2    1    3    3  502    0  0.25912873079E+03  0.14507774305E+03  0.68441351688E+02  0.30476133166E+03  0.25500000920E-02 0.  1.
       -2    1    3    3    0  502 -0.25912873079E+03 -0.14507774305E+03 -0.10601284667E+04  0.11009394246E+04  0.25500000920E-02 0. -1.
</event>
<event>
 5   0  0.6606947E-03  0.9853626E+03  0.7818609E-02  0.9324746E-01
        2   -1    0    0  501    0  0.00000000000E+00  0.00000000000E+00  0.20119024657E+04  0.20119024657E+04  0.25500000920E-02 0. -1.
       -2   -1    0    0    0  501  0.00000000000E+00  0.00000000000E+00 -0.12064941154E+03  0.12064941157E+03  0.25500000920E-02 0.  1.
    10030    2    1    2    0    0  0.00000000000E+00  0.00000000000E+00  0.18912530541E+04  0.21325518772E+04  0.98536257001E+03 0.  0.
        1    1    3    3  502    0 -0.32393250078E+03 -0.31656252993E+03  0.52601826742E+03  0.69414646732E+03  0.50400001928E-02 0. -1.
       -1    1    3    3    0  502  0.32393250078E+03  0.31656252993E+03  0.13652347867E+04  0.14384054099E+04  0.50400001928E-02 0.  1.
</event>
<event>
 5   0  0.3643002E-03  0.1001962E+04  0.7818609E-02  0.9306396E-01
       -1   -1    0    0    0  501  0.00000000000E+00  0.00000000000E+00  0.17452376291E+03  0.17452376298E+03  0.50400001928E-02 0. -1.
        1   -1    0    0  501    0  0.00000000000E+00  0.00000000000E+00 -0.14380958056E+04  0.14380958056E+04  0.50400001928E-02 0.  1.
    10030    2    1    2    0    0  0.00000000000E+00  0.00000000000E+00 -0.12635720427E+04  0.16126195686E+04  0.10019618585E+04 0.  0.
        2    1    3    3  502    0  0.20243537446E+03  0.43966047160E+03 -0.83977734434E+03  0.96928189872E+03  0.25500000920E-02 0.  1.
       -2    1    3    3    0  502 -0.20243537446E+03 -0.43966047160E+03 -0.42379469836E+03  0.64333766988E+03  0.25500000920E-02 0. -1.
</event>
<event>
 5   0  0.3608845E-03  0.9696486E+03  0.7818609E-02  0.9342475E-01
        1   -1    0    0  501    0  0.00000000000E+00  0.00000000000E+00  0.41719458961E+03  0.41719458964E+03  0.50400001928E-02 0. -1.
       -1   -1    0    0    0  501  0.00000000000E+00  0.00000000000E+00 -0.56341724034E+03  0.56341724037E+03  0.50400001928E-02 0.  1.
    10030    2    1    2    0    0  0.00000000000E+00  0.00000000000E+00 -0.14622265074E+03  0.98061183000E+03  0.96964864645E+03 0.  0.
        1    1    3    3  502    0  0.24235956650E+02 -0.48402602584E+03 -0.59317126043E+02  0.48824901101E+03  0.50400001928E-02 0.  1.
       -1    1    3    3    0  502 -0.24235956650E+02  0.48402602584E+03 -0.86905524694E+02  0.49236281900E+03  0.50400001928E-02 0. -1.
</event>
<event>
 5   0  0.3569359E-03  0.9935776E+03  0.7818609E-02  0.9315617E-01
       -1   -1    0    0    0  501  0.00000000000E+00  0.00000000000E+00  0.28111770046E+03  0.28111770051E+03  0.50400001928E-02 0. -1.
        1   -1    0    0  501    0  0.00000000000E+00  0.00000000000E+00 -0.87792098690E+03  0.87792098692E+03  0.50400001928E-02 0.  1.
    10030    2    1    2    0    0  0.00000000000E+00  0.00000000000E+00 -0.59680328644E+03  0.11590386874E+04  0.99357763473E+03 0.  0.
        4    1    3    3  502    0  0.11692873430E+03 -0.10996301339E+03 -0.84683643994E+03  0.86191517107E+03  0.12699999809E+01 0.  1.
       -4    1    3    3    0  502 -0.11692873430E+03  0.10996301339E+03  0.25003315350E+03  0.29712351635E+03  0.12699999809E+01 0. -1.
</event>
<event>
 5   0  0.6360455E-03  0.1001728E+04  0.7818609E-02  0.9306652E-01
        2   -1    0    0  501    0  0.00000000000E+00  0.00000000000E+00  0.12923070715E+04  0.12923070715E+04  0.25500000920E-02 0.  1.
       -2   -1    0    0    0  501  0.00000000000E+00  0.00000000000E+00 -0.19412148773E+03  0.19412148774E+03  0.25500000920E-02 0. -1.
    10030    2    1    2    0    0  0.00000000000E+00  0.00000000000E+00  0.10981855838E+04  0.14864285592E+04  0.10017276503E+04 0.  0.
        4    1    3    3  502    0  0.67894889714E+01  0.13371103967E+03 -0.16707494917E+03  0.21410369177E+03  0.12699999809E+01 0. -1.
       -4    1    3    3    0  502 -0.67894889714E+01 -0.13371103967E+03  0.12652605329E+04  0.12723248675E+04  0.12699999809E+01 0.  1.
</event>
<event>
 5   0  0.3466598E-03  0.1008805E+04  0.7818609E-02  0.9298940E-01
       -1   -1    0    0    0  501  0.00000000000E+00  0.00000000000E+00  0.19667494570E+03  0.19667494576E+03  0.50400001928E-02 0. -1.
        1   -1    0    0  501    0  0.00000000000E+00  0.00000000000E+00 -0.12936157531E+04  0.12936157531E+04  0.50400001928E-02 0.  1.
    10030    2    1    2    0    0  0.00000000000E+00  0.00000000000E+00 -0.10969408074E+04  0.14902906988E+04  0.10088048534E+04 0.  0.
        3    1    3    3  502    0 -0.42754218351E+03 -0.20617770157E+03 -0.80056367976E+03  0.93070069241E+03  0.10100000352E+00 0. -1.
       -3    1    3    3    0  502  0.42754218351E+03  0.20617770157E+03 -0.29637712760E+03  0.55959000641E+03  0.10100000352E+00 0.  1.
</event>
<event>
 5   0  0.3608845E-03  0.1013393E+04  0.7818609E-02  0.9293976E-01
       -1   -1    0    0    0  501  0.00000000000E+00  0.00000000000E+00  0.14012958277E+03  0.14012958286E+03  0.50400001928E-02 0.  1.
        1   -1    0    0  501    0  0.00000000000E+00  0.00000000000E+00 -0.18321720846E+04  0.18321720846E+04  0.50400001928E-02 0. -1.
    10030    2    1    2    0    0  0.00000000000E+00  0.00000000000E+00 -0.16920425018E+04  0.19723016675E+04  0.10133933291E+04 0.  0.
        1    1    3    3  502    0 -0.55445774755E+02  0.45666203357E+03 -0.43257997196E+03  0.63145853309E+03  0.50400001928E-02 0.  1.
       -1    1    3    3    0  502  0.55445774755E+02 -0.45666203357E+03 -0.12594625299E+04  0.13408431344E+04  0.50400001928E-02 0. -1.
</event>
<event>
 5   0  0.3608845E-03  0.1005987E+04  0.7818609E-02  0.9302003E-01
        1   -1    0    0  501    0  0.00000000000E+00  0.00000000000E+00  0.12573851602E+04  0.12573851602E+04  0.50400001928E-02 0.  1.
       -1   -1    0    0    0  501  0.00000000000E+00  0.00000000000E+00 -0.20121309643E+03  0.20121309649E+03  0.50400001928E-02 0. -1.
    10030    2    1    2    0    0  0.00000000000E+00  0.00000000000E+00  0.10561720638E+04  0.14585982567E+04  0.10059868022E+04 0.  0.
        1    1    3    3  502    0  0.64260265753E+02  0.33183853078E+03  0.10681802869E+04  0.11203817732E+04  0.50400001928E-02 0.  1.
       -1    1    3    3    0  502 -0.64260265753E+02 -0.33183853078E+03 -0.12008223165E+02  0.33821648351E+03  0.50400001928E-02 0. -1.
</event>
<event>
 5   0  0.6360455E-03  0.1000816E+04  0.7818609E-02  0.9307651E-01
        2   -1    0    0  501    0  0.00000000000E+00  0.00000000000E+00  0.10912655047E+04  0.10912655047E+04  0.25500000920E-02 0.  1.
       -2   -1    0    0    0  501  0.00000000000E+00  0.00000000000E+00 -0.22946575623E+03  0.22946575625E+03  0.25500000920E-02 0. -1.
    10030    2    1    2    0    0  0.00000000000E+00  0.00000000000E+00  0.86179974842E+03  0.13207312609E+04  0.10008157958E+04 0.  0.
        4    1    3    3  502    0  0.46963335394E+03 -0.11573643529E+03  0.26161311258E+03  0.54990312161E+03  0.12699999809E+01 0.  1.
       -4    1    3    3    0  502 -0.46963335394E+03  0.11573643529E+03  0.60018663584E+03  0.77082813929E+03  0.12699999809E+01 0. -1.
</event>
<event>
 5   0  0.6376961E-03  0.9926226E+03  0.7818609E-02  0.9316673E-01
       -2   -1    0    0    0  501  0.00000000000E+00  0.00000000000E+00  0.23887623131E+03  0.23887623133E+03  0.25500000920E-02 0. -1.
        2   -1    0    0  501    0  0.00000000000E+00  0.00000000000E+00 -0.10311822069E+04  0.10311822069E+04  0.25500000920E-02 0.  1.
    10030    2    1    2    0    0  0.00000000000E+00  0.00000000000E+00 -0.79230597563E+03  0.12700584383E+04  0.99262262598E+03 0.  0.
        3    1    3    3  502    0 -0.26161874989E+03 -0.29610242895E+03 -0.11869106534E+02  0.39529976552E+03  0.10100000352E+00 0. -1.
       -3    1    3    3    0  502  0.26161874989E+03  0.29610242895E+03 -0.78043686909E+03  0.87475867276E+03  0.10100000352E+00 0.  1.
</event>
<event>
 5   0  0.6022787E-03  0.1002302E+04  0.7818609E-02  0.9306024E-01
        2   -1    0    0  501    0  0.00000000000E+00  0.00000000000E+00  0.39683965982E+03  0.39683965983E+03  0.25500000920E-02 0. -1.
       -2   -1    0    0    0  501  0.00000000000E+00  0.00000000000E+00 -0.63288084357E+03  0.63288084358E+03  0.25500000920E-02 0.  1.
    10030    2    1    2    0    0  0.00000000000E+00  0.00000000000E+00 -0.23604118375E+03  0.10297205034E+04  0.10023017882E+04 0.  0.
        5    1    3    3  502    0  0.33857591371E+03  0.82645069398E+02  0.25192202749E+03  0.43005889686E+03  0.46999998093E+01 0. -1.
       -5    1    3    3    0  502 -0.33857591371E+03 -0.82645069398E+02 -0.48796321124E+03  0.59966160654E+03  0.46999998093E+01 0.  1.
</event>
<event>
 5   0  0.6376961E-03  0.9937644E+03  0.7818609E-02  0.9315410E-01
        2   -1    0    0  501    0  0.00000000000E+00  0.00000000000E+00  0.12367749368E+04  0.12367749368E+04  0.25500000920E-02 0.  1.
       -2   -1    0    0    0  501  0.00000000000E+00  0.00000000000E+00 -0.19962556648E+03  0.19962556650E+03  0.25500000920E-02 0. -1.
    10030    2    1    2    0    0  0.00000000000E+00  0.00000000000E+00  0.10371493704E+04  0.14364005033E+04  0.99376435314E+03 0.  0.
        3    1    3    3  502    0 -0.19497814545E+03  0.22844476459E+03 -0.53576176819E+02  0.30508016094E+03  0.10100000352E+00 0. -1.
       -3    1    3    3    0  502  0.19497814545E+03 -0.22844476459E+03  0.10907255472E+04  0.11313203424E+04  0.10100000352E+00 0.  1.
</event>
<event>
 5   0  0.3640180E-03  0.9966876E+03  0.7818609E-02  0.9312185E-01
       -1   -1    0    0    0  501  0.00000000000E+00  0.00000000000E+00  0.23915461342E+03  0.23915461348E+03  0.50400001928E-02 0.  1.
        1   -1    0    0  501    0  0.00000000000E+00  0.00000000000E+00 -0.10384351935E+04  0.10384351936E+04  0.50400001928E-02 0. -1.
    10030    2    1    2    0    0  0.00000000000E+00  0.00000000000E+00 -0.79928058012E+03  0.12775898070E+04  0.99668764880E+03 0.  0.
        5    1    3    3  502    0  0.27652599342E+03  0.38911901918E+03 -0.21635911530E+03  0.52413127448E+03  0.46999998093E+01 0.  1.
       -5    1    3    3    0  502 -0.27652599342E+03 -0.38911901918E+03 -0.58292146482E+03  0.75345853255E+03  0.46999998093E+01 0. -1.
</event>
<event>
 5   0  0.6022787E-03  0.1006957E+04  0.7818609E-02  0.9300947E-01
       -2   -1    0    0    0  501  0.00000000000E+00  0.00000000000E+00  0.14264194642E+03  0.14264194644E+03  0.25500000920E-02 0.  1.
        2   -1    0    0  501    0  0.00000000000E+00  0.00000000000E+00 -0.17771111305E+04  0.17771111305E+04  0.25500000920E-02 0. -1.
    10030    2    1    2    0    0  0.00000000000E+00  0.00000000000E+00 -0.16344691841E+04  0.19197530769E+04  0.10069569816E+04 0.  0.
        5    1    3    3  502    0  0.11129029489E+03  0.26526093613E+03 -0.29506822549E+02  0.28920863844E+03  0.46999998093E+01 0.  1.
       -5    1    3    3    0  502 -0.11129029489E+03 -0.26526093613E+03 -0.16049623615E+04  0.16305444385E+04  0.46999998093E+01 0. -1.
</event>
<event>
 5   0  0.6199539E-03  0.9586838E+03  0.7818609E-02  0.9355058E-01
       -2   -1    0    0    0  501  0.00000000000E+00  0.00000000000E+00  0.14950411247E+03  0.14950411249E+03  0.25500000920E-02 0.  1.
        2   -1    0    0  501    0  0.00000000000E+00  0.00000000000E+00 -0.15368719361E+04  0.15368719361E+04  0.25500000920E-02 0. -1.
    10030    2    1    2    0    0  0.00000000000E+00  0.00000000000E+00 -0.13873678237E+04  0.16863760486E+04  0.95868383696E+03 0.  0.
        2    1    3    3  502    0  0.33224700768E+03 -0.17039597903E+03 -0.16495503490E+03  0.40820708878E+03  0.25500000920E-02 0.  1.
       -2    1    3    3    0  502 -0.33224700768E+03  0.17039597903E+03 -0.12224127888E+04  0.12781689599E+04  0.25500000920E-02 0. -1.
</event>
<event>
 5   0  0.6022787E-03  0.9933090E+03  0.7818609E-02  0.9315914E-01
        2   -1    0    0  501    0  0.00000000000E+00  0.00000000000E+00  0.12129815198E+04  0.12129815198E+04  0.25500000920E-02 0.  1.
       -2   -1    0    0    0  501  0.00000000000E+00  0.00000000000E+00 -0.20335485117E+03  0.20335485118E+03  0.25500000920E-02 0. -1.
    10030    2    1    2    0    0  0.00000000000E+00  0.00000000000E+00  0.10096266686E+04  0.14163363710E+04  0.99330896792E+03 0.  0.
        5    1    3    3  502    0 -0.34758728436E+03  0.11147037420E+03  0.98497837293E+03  0.10504508792E+04  0.46999998093E+01 0.  1.
       -5    1    3    3    0  502  0.34758728436E+03 -0.11147037420E+03  0.24648295675E+02  0.36588549172E+03  0.46999998093E+01 0. -1.
</event>
<event>
 5   0  0.3608845E-03  0.9956199E+03  0.7818609E-02  0.9313362E-01
       -1   -1    0    0    0  501  0.00000000000E+00  0.00000000000E+00  0.31018277278E+03  0.31018277282E+03  0.50400001928E-02 0. -1.
        1   -1    0    0  501    0  0.00000000000E+00  0.00000000000E+00 -0.79893143609E+03  0.79893143611E+03  0.50400001928E-02 0.  1.
    10030    2    1    2    0    0  0.00000000000E+00  0.00000000000E+00 -0.48874866332E+03  0.11091142089E+04  0.99561994383E+03 0.  0.
        1    1    3    3  502    0 -0.37242360184E+03 -0.32568188166E+03 -0.30586375782E+03  0.58165338959E+03  0.50400001928E-02 0. -1.
       -1    1    3    3    0  502  0.37242360184E+03  0.32568188166E+03 -0.18288490549E+03  0.52746081933E+03  0.50400001928E-02 0.  1.
</event>
<event>
 5   0  0.6199539E-03  0.1001519E+04  0.7818609E-02  0.9306881E-01
       -2   -1    0    0    0  501  0.00000000000E+00  0.00000000000E+00  0.25389608682E+03  0.25389608683E+03  0.25500000920E-02 0. -1.
        2   -1    0    0  501    0  0.00000000000E+00  0.00000000000E+00 -0.98764779473E+03  0.98764779473E+03  0.25500000920E-02 0.  1.
    10030    2    1    2    0    0  0.00000000000E+00  0.00000000000E+00 -0.73375170791E+03  0.12415438816E+04  0.10015186673E+04 0.  0.
        2    1    3    3  502    0 -0.24691087948E+03 -0.18508452103E+03  0.12202656402E+03  0.33183089769E+03  0.25500000920E-02 0. -1.
       -2    1    3    3    0  502  0.24691087948E+03  0.18508452103E+03 -0.85577827192E+03  0.90971298388E+03  0.25500000920E-02 0.  1.
</event>
<event>
 5   0  0.3640180E-03  0.9974801E+03  0.7818609E-02  0.9311313E-01
        1   -1    0    0  501    0  0.00000000000E+00  0.00000000000E+00  0.57532534496E+03  0.57532534498E+03  0.50400001928E-02 0.  1.
       -1   -1    0    0    0  501  0.00000000000E+00  0.00000000000E+00 -0.43234955053E+03  0.43234955056E+03  0.50400001928E-02 0. -1.
    10030    2    1    2    0    0  0.00000000000E+00  0.00000000000E+00  0.14297579443E+03  0.10076748955E+04  0.99748013379E+03 0.  0.
        5    1    3    3  502    0  0.13915259484E+03  0.44145589259E+03 -0.11607829237E+03  0.47722427611E+03  0.46999998093E+01 0. -1.
       -5    1    3    3    0  502 -0.13915259484E+03 -0.44145589259E+03  0.25905408680E+03  0.53045061942E+03  0.46999998093E+01 0.  1.
</event>
<event>
 5   0  0.3466598E-03  0.1002371E+04  0.7818609E-02  0.9305948E-01
       -1   -1    0    0    0  501  0.00000000000E+00  0.00000000000E+00  0.34734928970E+03  0.34734928973E+03  0.50400001928E-02 0. -1.
        1   -1    0    0  501    0  0.00000000000E+00  0.00000000000E+00 -0.72315349510E+03  0.72315349511E+03  0.50400001928E-02 0.  1.
    10030    2    1    2    0    0  0.00000000000E+00  0.00000000000E+00 -0.37580420540E+03  0.10705027848E+04  0.10023708952E+04 0.  0.
        3    1    3    3  502    0  0.51659791328E+02 -0.40982090761E+03 -0.49103451581E+03  0.64166721614E+03  0.10100000352E+00 0.  1.
       -3    1    3    3    0  502 -0.51659791328E+02  0.40982090761E+03  0.11523031041E+03  0.42883556871E+03  0.10100000352E+00 0. -1.
</event>
<event>
 5   0  0.6360455E-03  0.1023202E+04  0.7818609E-02  0.9283457E-01
        2   -1    0    0  501    0  0.00000000000E+00  0.00000000000E+00  0.15004684012E+04  0.15004684012E+04  0.25500000920E-02 0.  1.
       -2   -1    0    0    0  501  0.00000000000E+00  0.00000000000E+00 -0.17443582475E+03  0.17443582477E+03  0.25500000920E-02 0. -1.
    10030    2    1    2    0    0  0.00000000000E+00  0.00000000000E+00  0.13260325764E+04  0.16749042259E+04  0.10232017261E+04 0.  0.
        4    1    3    3  502    0  0.49300081550E+03 -0.26150388489E+02  0.88263390679E+03  0.10113248109E+04  0.12699999809E+01 0.  1.
       -4    1    3    3    0  502 -0.49300081550E+03  0.26150388489E+02  0.44339866962E+03  0.66357941501E+03  0.12699999809E+01 0. -1.
</event>
<event>
 5   0  0.3466598E-03  0.9899801E+03  0.7818609E-02  0.9319603E-01
        1   -1    0    0  501    0  0.00000000000E+00  0.00000000000E+00  0.19677563582E+03  0.19677563589E+03  0.50400001928E-02 0. -1.
       -1   -1    0    0    0  501  0.00000000000E+00  0.00000000000E+00 -0.12451497926E+04  0.12451497927E+04  0.50400001928E-02 0.  1.
    10030    2    1    2    0    0  0.00000000000E+00  0.00000000000E+00 -0.10483741568E+04  0.14419254285E+04  0.98998008505E+03 0.  0.
        3    1    3    3  502    0  0.16970950080E+03  0.45528902729E+03 -0.38658089591E+03  0.62091401363E+03  0.10100000352E+00 0. -1.
       -3    1    3    3    0  502 -0.16970950080E+03 -0.45528902729E+03 -0.66179326091E+03  0.82101141492E+03  0.10100000352E+00 0.  1.
</event>
<event>
 5   0  0.3569359E-03  0.1011431E+04  0.7818609E-02  0.9296096E-01
       -1   -1    0    0    0  501  0.00000000000E+00  0.00000000000E+00  0.25984299750E+03  0.25984299755E+03  0.50400001928E-02 0. -1.
        1   -1    0    0  501    0  0.00000000000E+00  0.00000000000E+00 -0.98424066547E+03  0.98424066548E+03  0.50400001928E-02 0.  1.
    10030    2    1    2    0    0  0.00000000000E+00  0.00000000000E+00 -0.72439766797E+03  0.12440836630E+04  0.10114307585E+04 0.  0.
        4    1    3    3  502    0  0.19738141535E+03  0.42092504313E+03 -0.60699860651E+03  0.76458239338E+03  0.12699999809E+01 0.  1.
       -4    1    3    3    0  502 -0.19738141535E+03 -0.42092504313E+03 -0.11739906146E+03  0.47950126964E+03  0.12699999809E+01 0. -1.
</event>
<event>
 5   0  0.3466598E-03  0.1000312E+04  0.7818609E-02  0.9308202E-01
       -1   -1    0    0    0  501  0.00000000000E+00  0.00000000000E+00  0.60278687624E+03  0.60278687626E+03  0.50400001928E-02 0.  1.
        1   -1    0    0  501    0  0.00000000000E+00  0.00000000000E+00 -0.41499950551E+03  0.41499950554E+03  0.50400001928E-02 0. -1.
    10030    2    1    2    0    0  0.00000000000E+00  0.00000000000E+00  0.18778737073E+03  0.10177863818E+04  0.10003124624E+04 0.  0.
        3    1    3    3  502    0  0.35859571295E+03 -0.22726153678E+03  0.36293196003E+03  0.55853228131E+03  0.10100000352E+00 0.  1.
       -3    1    3    3    0  502 -0.35859571295E+03  0.22726153678E+03 -0.17514458931E+03  0.45925410049E+03  0.10100000352E+00 0. -1.
</event>
<event>
 5   0  0.6022787E-03  0.1006443E+04  0.7818609E-02  0.9301507E-01
       -2   -1    0    0    0  501  0.00000000000E+00  0.00000000000E+00  0.46341215319E+03  0.46341215319E+03  0.25500000920E-02 0. -1.
        2   -1    0    0  501    0  0.00000000000E+00  0.00000000000E+00 -0.54645015271E+03  0.54645015272E+03  0.25500000920E-02 0.  1.
    10030    2    1    2    0    0  0.00000000000E+00  0.00000000000E+00 -0.83037999525E+02  0.10098623059E+04  0.10064425307E+04 0.  0.
        5    1    3    3  502    0  0.18994589294E+03 -0.36752613590E+03  0.24590615718E+03  0.48129702986E+03  0.46999998093E+01 0. -1.
       -5    1    3    3    0  502 -0.18994589294E+03  0.36752613590E+03 -0.32894415671E+03  0.52856527605E+03  0.46999998093E+01 0.  1.
</event>
<event>
 5   0  0.3569359E-03  0.1004813E+04  0.7818609E-02  0.9303282E-01
        1   -1    0    0  501    0  0.00000000000E+00  0.00000000000E+00  0.69315690158E+03  0.69315690160E+03  0.50400001928E-02 0.  1.
       -1   -1    0    0    0  501  0.00000000000E+00  0.00000000000E+00 -0.36414888568E+03  0.36414888571E+03  0.50400001928E-02 0. -1.
    10030    2    1    2    0    0  0.00000000000E+00  0.00000000000E+00  0.32900801590E+03  0.10573057873E+04  0.10048130440E+04 0.  0.
        4    1    3    3  502    0 -0.65939718174E+02 -0.27981791170E+03 -0.26904570199E+03  0.39374269873E+03  0.12699999809E+01 0. -1.
       -4    1    3    3    0  502  0.65939718174E+02  0.27981791170E+03  0.59805371790E+03  0.66356308858E+03  0.12699999809E+01 0.  1.
</event>
<event>
 5   0  0.3640180E-03  0.1001781E+04  0.7818609E-02  0.9306593E-01
       -1   -1    0    0    0  501  0.00000000000E+00  0.00000000000E+00  0.46138165918E+03  0.46138165921E+03  0.50400001928E-02 0. -1.
        1   -1    0    0  501    0  0.00000000000E+00  0.00000000000E+00 -0.54378299809E+03  0.54378299811E+03  0.50400001928E-02 0.  1.
    10030    2    1    2    0    0  0.00000000000E+00  0.00000000000E+00 -0.82401338908E+02  0.10051646573E+04  0.10017814171E+04 0.  0.
        5    1    3    3  502    0  0.50046974982E+03  0.71900624191E+01 -0.22489784155E+02  0.50104844862E+03  0.46999998093E+01 0. -1.
       -5    1    3    3    0  502 -0.50046974982E+03 -0.71900624191E+01 -0.59911554753E+02  0.50411620870E+03  0.46999998093E+01 0.  1.
</event>
<event>
 5   0  0.6022787E-03  0.9244972E+03  0.7818609E-02  0.9395466E-01
        2   -1    0    0  501    0  0.00000000000E+00  0.00000000000E+00  0.18946049690E+03  0.18946049691E+03  0.25500000920E-02 0.  1.
       -2   -1    0    0    0  501  0.00000000000E+00  0.00000000000E+00 -0.11278011241E+04  0.11278011241E+04  0.25500000920E-02 0. -1.
    10030    2    1    2    0    0  0.00000000000E+00  0.00000000000E+00 -0.93834062722E+03  0.13172616210E+04  0.92449718526E+03 0.  0.
        5    1    3    3  502    0 -0.31421775498E+03  0.27042725150E+02  0.12307024822E+02  0.31565433529E+03  0.46999998093E+01 0.  1.
       -5    1    3    3    0  502  0.31421775498E+03 -0.27042725150E+02 -0.95064765204E+03  0.10016072857E+04  0.46999998093E+01 0. -1.
</event>
<event>
 5   0  0.3640180E-03  0.9958011E+03  0.7818609E-02  0.9313162E-01
       -1   -1    0    0    0  501  0.00000000000E+00  0.00000000000E+00  0.16185337279E+03  0.16185337286E+03  0.50400001928E-02 0. -1.
        1   -1    0    0  501    0  0.00000000000E+00  0.00000000000E+00 -0.15316637594E+04  0.15316637594E+04  0.50400001928E-02 0.  1.
    10030    2    1    2    0    0  0.00000000000E+00  0.00000000000E+00 -0.13698103866E+04  0.16935171322E+04  0.99580107551E+03 0.  0.
        5    1    3    3  502    0 -0.64555900526E+02 -0.47673147170E+03 -0.90297767402E+03  0.10231476581E+04  0.46999998093E+01 0. -1.
       -5    1    3    3    0  502  0.64555900526E+02  0.47673147170E+03 -0.46683271255E+03  0.67036947417E+03  0.46999998093E+01 0.  1.
</event>
<event>
 5   0  0.6360455E-03  0.1006763E+04  0.7818609E-02  0.9301158E-01
       -2   -1    0    0    0  501  0.00000000000E+00  0.00000000000E+00  0.13324009672E+03  0.13324009674E+03  0.25500000920E-02 0. -1.
        2   -1    0    0  501    0  0.00000000000E+00  0.00000000000E+00 -0.19017773999E+04  0.19017773999E+04  0.25500000920E-02 0.  1.
    10030    2    1    2    0    0  0.00000000000E+00  0.00000000000E+00 -0.17685373032E+04  0.20350174966E+04  0.10067631394E+04 0.  0.
        4    1    3    3  502    0  0.32364370972E+03 -0.95484034484E+02 -0.12922338575E+03  0.36133467590E+03  0.12699999809E+01 0. -1.
       -4    1    3    3    0  502 -0.32364370972E+03  0.95484034484E+02 -0.16393139174E+04  0.16736828207E+04  0.12699999809E+01 0.  1.
</event>
<event>
 5   0  0.3569359E-03  0.9721987E+03  0.7818609E-02  0.9339574E-01
       -1   -1    0    0    0  501  0.00000000000E+00  0.00000000000E+00  0.89286830251E+03  0.89286830252E+03  0.50400001928E-02 0. -1.
        1   -1    0    0  501    0  0.00000000000E+00  0.00000000000E+00 -0.26464439814E+03  0.26464439819E+03  0.50400001928E-02 0.  1.
    10030    2    1    2    0    0  0.00000000000E+00  0.00000000000E+00  0.62822390437E+03  0.11575127007E+04  0.97219873395E+03 0.  0.
        4    1    3    3  502    0 -0.24197949552E+03 -0.26430650784E+03 -0.76944197731E+02  0.36651606895E+03  0.12699999809E+01 0.  1.
       -4    1    3    3    0  502  0.24197949552E+03  0.26430650784E+03  0.70516810210E+03  0.79099663176E+03  0.12699999809E+01 0. -1.
</event>
<event>
 5   0  0.3643002E-03  0.9894017E+03  0.7818609E-02  0.9320246E-01
        1   -1    0    0  501    0  0.00000000000E+00  0.00000000000E+00  0.58355775708E+03  0.58355775710E+03  0.50400001928E-02 0.  1.
       -1   -1    0    0    0  501  0.00000000000E+00  0.00000000000E+00 -0.41937396117E+03  0.41937396120E+03  0.50400001928E-02 0. -1.
    10030    2    1    2    0    0  0.00000000000E+00  0.00000000000E+00  0.16418379591E+03  0.10029317183E+04  0.98940169433E+03 0.  0.
        2    1    3    3  502    0  0.34298027166E+03  0.22293745944E+03  0.36409100647E+03  0.54763020238E+03  0.25500000920E-02 0.  1.
       -2    1    3    3    0  502 -0.34298027166E+03 -0.22293745944E+03 -0.19990721056E+03  0.45530151593E+03  0.25500000920E-02 0. -1.
</event>
<event>
 5   0  0.3466598E-03  0.1075611E+04  0.7818609E-02  0.9229294E-01
        1   -1    0    0  501    0  0.00000000000E+00  0.00000000000E+00  0.69638676710E+03  0.69638676712E+03  0.50400001928E-02 0. -1.
       -1   -1    0    0    0  501  0.00000000000E+00  0.00000000000E+00 -0.41533652245E+03  0.41533652248E+03  0.50400001928E-02 0.  1.
    10030    2    1    2    0    0  0.00000000000E+00  0.00000000000E+00  0.28105024466E+03  0.11117232896E+04  0.10756111903E+04 0.  0.
        3    1    3    3  502    0 -0.29693964024E+03 -0.79204165878E+02 -0.31564090156E+03  0.44054016704E+03  0.10100000352E+00 0.  1.
       -3    1    3    3    0  502  0.29693964024E+03  0.79204165878E+02  0.59669114622E+03  0.67118312256E+03  0.10100000352E+00 0. -1.
</event>
<event>
 5   0  0.6376961E-03  0.1036605E+04  0.7818609E-02  0.9269284E-01
        2   -1    0    0  501    0  0.00000000000E+00  0.00000000000E+00  0.69462212465E+03  0.69462212466E+03  0.25500000920E-02 0.  1.
       -2   -1    0    0    0  501  0.00000000000E+00  0.00000000000E+00 -0.38673876761E+03  0.38673876762E+03  0.25500000920E-02 0. -1.
    10030    2    1    2    0    0  0.00000000000E+00  0.00000000000E+00  0.30788335704E+03  0.10813608923E+04  0.10366046584E+04 0.  0.
        3    1    3    3  502    0  0.39984777286E+03  0.31563414165E+03  0.25364080847E+03  0.56906662419E+03  0.10100000352E+00 0.  1.
       -3    1    3    3    0  502 -0.39984777286E+03 -0.31563414165E+03  0.54242548572E+02  0.51229426809E+03  0.10100000352E+00 0. -1.
</event>
<event>
 5   0  0.3643002E-03  0.9979605E+03  0.7818609E-02  0.9310784E-01
       -1   -1    0    0    0  501  0.00000000000E+00  0.00000000000E+00  0.10412253855E+04  0.10412253855E+04  0.50400001928E-02 0. -1.
        1   -1    0    0  501    0  0.00000000000E+00  0.00000000000E+00 -0.23912335719E+03  0.23912335725E+03  0.50400001928E-02 0.  1.
    10030    2    1    2    0    0  0.00000000000E+00  0.00000000000E+00  0.80210202830E+03  0.12803487427E+04  0.99796053993E+03 0.  0.
        2    1    3    3  502    0  0.27186943822E+03 -0.33564085593E+03  0.80531631360E+02  0.43937810512E+03  0.25500000920E-02 0.  1.
       -2    1    3    3    0  502 -0.27186943822E+03  0.33564085593E+03  0.72157039694E+03  0.84097063763E+03  0.25500000920E-02 0. -1.
</event>
<event>
 5   0  0.2417750E-03  0.9956974E+03  0.7818609E-02  0.9313276E-01
        3   -1    0    0  501    0  0.00000000000E+00  0.00000000000E+00  0.17175073670E+04  0.17175073700E+04  0.10100000352E+00 0. -1.
       -3   -1    0    0    0  501  0.00000000000E+00  0.00000000000E+00 -0.14430989767E+03  0.14430993302E+03  0.10100000352E+00 0.  1.
    10030    2    1    2    0    0  0.00000000000E+00  0.00000000000E+00  0.15731974693E+04  0.18618173030E+04  0.99569744010E+03 0.  0.
        3    1    3    3  502    0 -0.47199758983E+03  0.67826510324E+02  0.51906344030E+03  0.70484681000E+03  0.10100000352E+00 0.  1.
       -3    1    3    3    0  502  0.47199758983E+03 -0.67826510324E+02  0.10541340290E+04  0.11569704930E+04  0.10100000352E+00 0. -1.
</event>
<event>
 5   0  0.3643002E-03  0.1008900E+04  0.7818609E-02  0.9298837E-01
        1   -1    0    0  501    0  0.00000000000E+00  0.00000000000E+00  0.41428172401E+03  0.41428172404E+03  0.50400001928E-02 0.  1.
       -1   -1    0    0    0  501  0.00000000000E+00  0.00000000000E+00 -0.61424297080E+03  0.61424297082E+03  0.50400001928E-02 0. -1.
    10030    2    1    2    0    0  0.00000000000E+00  0.00000000000E+00 -0.19996124679E+03  0.10285246949E+04  0.10088996718E+04 0.  0.
        2    1    3    3  502    0  0.22608918288E+03 -0.38385377638E+03 -0.34124764638E+03  0.56116842073E+03  0.25500000920E-02 0.  1.
       -2    1    3    3    0  502 -0.22608918288E+03  0.38385377638E+03  0.14128639960E+03  0.46735627413E+03  0.25500000920E-02 0. -1.
</event>
<event>
 5   0  0.6022787E-03  0.9869461E+03  0.7818609E-02  0.9322979E-01
       -2   -1    0    0    0  501  0.00000000000E+00  0.00000000000E+00  0.37894658182E+03  0.37894658183E+03  0.25500000920E-02 0.  1.
        2   -1    0    0  501    0  0.00000000000E+00  0.00000000000E+00 -0.64261212310E+03  0.64261212311E+03  0.25500000920E-02 0. -1.
    10030    2    1    2    0    0  0.00000000000E+00  0.00000000000E+00 -0.26366554128E+03  0.10215587049E+04  0.98694613327E+03 0.  0.
        5    1    3    3  502    0 -0.32363183810E+03  0.33981284181E+03 -0.28977258318E+03  0.55154380973E+03  0.46999998093E+01 0. -1.
       -5    1    3    3    0  502  0.32363183810E+03 -0.33981284181E+03  0.26107041905E+02  0.47001489521E+03  0.46999998093E+01 0.  1.
</event>
<event>
 5   0  0.6360455E-03  0.1001726E+04  0.7818609E-02  0.9306654E-01
        2   -1    0    0  501    0  0.00000000000E+00  0.00000000000E+00  0.92775680144E+03  0.92775680145E+03  0.25500000920E-02 0.  1.
       -2   -1    0    0    0  501  0.00000000000E+00  0.00000000000E+00 -0.27039798394E+03  0.27039798395E+03  0.25500000920E-02 0. -1.
    10030    2    1    2    0    0  0.00000000000E+00  0.00000000000E+00  0.65735881751E+03  0.11981547854E+04  0.10017256485E+04 0.  0.
        4    1    3    3  502    0  0.33411367865E+02  0.39655607268E+03 -0.35075599255E+02  0.39950588087E+03  0.12699999809E+01 0. -1.
       -4    1    3    3    0  502 -0.33411367865E+02 -0.39655607268E+03  0.69243441676E+03  0.79864890453E+03  0.12699999809E+01 0.  1.
</event>
<event>
 5   0  0.3643002E-03  0.9540023E+03  0.7818609E-02  0.9360485E-01
       -1   -1    0    0    0  501  0.00000000000E+00  0.00000000000E+00  0.35494560937E+03  0.35494560940E+03  0.50400001928E-02 0.  1.
        1   -1    0    0  501    0  0.00000000000E+00  0.00000000000E+00 -0.64102807183E+03  0.64102807185E+03  0.50400001928E-02 0. -1.
    10030    2    1    2    0    0  0.00000000000E+00  0.00000000000E+00 -0.28608246246E+03  0.99597368125E+03  0.95400230524E+03 0.  0.
        2    1    3    3  502    0  0.22206408700E+03  0.40608212326E+03 -0.22574199767E+02  0.46338401361E+03  0.25500000920E-02 0. -1.
       -2    1    3    3    0  502 -0.22206408700E+03 -0.40608212326E+03 -0.26350826270E+03  0.53258966764E+03  0.25500000920E-02 0.  1.
</event>
<event>
 5   0  0.3608845E-03  0.9941021E+03  0.7818609E-02  0.9315037E-01
        1   -1    0    0  501    0  0.00000000000E+00  0.00000000000E+00  0.40927518972E+03  0.40927518975E+03  0.50400001928E-02 0. -1.
       -1   -1    0    0    0  501  0.00000000000E+00  0.00000000000E+00 -0.60365194735E+03  0.60365194737E+03  0.50400001928E-02 0.  1.
    10030    2    1    2    0    0  0.00000000000E+00  0.00000000000E+00 -0.19437675763E+03  0.10129271371E+04  0.99410213822E+03 0.  0.
        1    1    3    3  502    0  0.20482755108E+03  0.44128654446E+03 -0.20095808980E+03  0.52637657042E+03  0.50400001928E-02 0. -1.
       -1    1    3    3    0  502 -0.20482755108E+03 -0.44128654446E+03  0.65813321690E+01  0.48655056670E+03  0.50400001928E-02 0.  1.
</event>
<event>
 5   0  0.3466598E-03  0.1009991E+04  0.7818609E-02  0.9297654E-01
        1   -1    0    0  501    0  0.00000000000E+00  0.00000000000E+00  0.53377204061E+03  0.53377204063E+03  0.50400001928E-02 0.  1.
       -1   -1    0    0    0  501  0.00000000000E+00  0.00000000000E+00 -0.47777056478E+03  0.47777056480E+03  0.50400001928E-02 0. -1.
    10030    2    1    2    0    0  0.00000000000E+00  0.00000000000E+00  0.56001475829E+02  0.10115426054E+04  0.10099912264E+04 0.  0.
        3    1    3    3  502    0 -0.22093608867E+03 -0.50159041657E+02  0.48001634555E+03  0.53079599371E+03  0.10100000352E+00 0.  1.
       -3    1    3    3    0  502  0.22093608867E+03  0.50159041657E+02 -0.42401486973E+03  0.48074661173E+03  0.10100000352E+00 0. -1.
</event>
<event>
 5   0  0.6199539E-03  0.9805146E+03  0.7818609E-02  0.9330178E-01
        2   -1    0    0  501    0  0.00000000000E+00  0.00000000000E+00  0.78253661910E+03  0.78253661910E+03  0.25500000920E-02 0.  1.
       -2   -1    0    0    0  501  0.00000000000E+00  0.00000000000E+00 -0.30714502748E+03  0.30714502749E+03  0.25500000920E-02 0. -1.
    10030    2    1    2    0    0  0.00000000000E+00  0.00000000000E+00  0.47539159162E+03  0.10896816466E+04  0.98051462281E+03 0.  0.
        2    1    3    3  502    0 -0.38187914431E+03 -0.25553508243E+03  0.47717802918E+02  0.46195979039E+03  0.25500000920E-02 0. -1.
       -2    1    3    3    0  502  0.38187914431E+03  0.25553508243E+03  0.42767378870E+03  0.62772185621E+03  0.25500000920E-02 0.  1.
</event>
<event>
 5   0  0.3608845E-03  0.9944420E+03  0.7818609E-02  0.9314662E-01
       -1   -1    0    0    0  501  0.00000000000E+00  0.00000000000E+00  0.19288866094E+03  0.19288866100E+03  0.50400001928E-02 0.  1.
        1   -1    0    0  501    0  0.00000000000E+00  0.00000000000E+00 -0.12817171570E+04  0.12817171570E+04  0.50400001928E-02 0. -1.
    10030    2    1    2    0    0  0.00000000000E+00  0.00000000000E+00 -0.10888284961E+04  0.14746058180E+04  0.99444196647E+03 0.  0.
        1    1    3    3  502    0 -0.18704630404E+03 -0.45236218442E+03 -0.41505043536E+03  0.64178246288E+03  0.50400001928E-02 0. -1.
       -1    1    3    3    0  502  0.18704630404E+03  0.45236218442E+03 -0.67377806071E+03  0.83282335513E+03  0.50400001928E-02 0.  1.
</event>
<event>
 5   0  0.6022787E-03  0.1005915E+04  0.7818609E-02  0.9302081E-01
       -2   -1    0    0    0  501  0.00000000000E+00  0.00000000000E+00  0.31349729632E+03  0.31349729633E+03  0.25500000920E-02 0. -1.
        2   -1    0    0  501    0  0.00000000000E+00  0.00000000000E+00 -0.80691629064E+03  0.80691629065E+03  0.25500000920E-02 0.  1.
    10030    2    1    2    0    0  0.00000000000E+00  0.00000000000E+00 -0.49341899432E+03  0.11204135870E+04  0.10059146594E+04 0.  0.
        5    1    3    3  502    0  0.34565914318E+01  0.20084926380E+03 -0.76026843351E+03  0.78637303856E+03  0.46999998093E+01 0.  1.
       -5    1    3    3    0  502 -0.34565914318E+01 -0.20084926380E+03  0.26684943919E+03  0.33404054842E+03  0.46999998093E+01 0. -1.
</event>
<event>
 5   0  0.3466598E-03  0.1010503E+04  0.7818609E-02  0.9297100E-01
        1   -1    0    0  501    0  0.00000000000E+00  0.00000000000E+00  0.69033188584E+03  0.69033188586E+03  0.50400001928E-02 0. -1.
       -1   -1    0    0    0  501  0.00000000000E+00  0.00000000000E+00 -0.36979170017E+03  0.36979170021E+03  0.50400001928E-02 0.  1.
    10030    2    1    2    0    0  0.00000000000E+00  0.00000000000E+00  0.32054018567E+03  0.10601235861E+04  0.10105028486E+04 0.  0.
        3    1    3    3  502    0 -0.25649553018E+03  0.30351418684E+03  0.48763148976E+03  0.62904316118E+03  0.10100000352E+00 0. -1.
       -3    1    3    3    0  502  0.25649553018E+03 -0.30351418684E+03 -0.16709130409E+03  0.43108042489E+03  0.10100000352E+00 0.  1.
</event>
<event>
 5   0  0.6199539E-03  0.1004676E+04  0.7818609E-02  0.9303431E-01
       -2   -1    0    0    0  501  0.00000000000E+00  0.00000000000E+00  0.16771653324E+03  0.16771653326E+03  0.25500000920E-02 0. -1.
        2   -1    0    0  501    0  0.00000000000E+00  0.00000000000E+00 -0.15045840293E+04  0.15045840293E+04  0.25500000920E-02 0.  1.
    10030    2    1    2    0    0  0.00000000000E+00  0.00000000000E+00 -0.13368674960E+04  0.16723005625E+04  0.10046763009E+04 0.  0.
        2    1    3    3  502    0 -0.36139735460E+03 -0.22456323178E+02 -0.12479899113E+04  0.12994580228E+04  0.25500000920E-02 0.  1.
       -2    1    3    3    0  502  0.36139735460E+03  0.22456323178E+02 -0.88877584754E+02  0.37284253974E+03  0.25500000920E-02 0. -1.
</event>
<event>
 5   0  0.2417750E-03  0.1000786E+04  0.7818609E-02  0.9307683E-01
       -3   -1    0    0    0  501  0.00000000000E+00  0.00000000000E+00  0.88965509606E+03  0.88965510179E+03  0.10100000352E+00 0. -1.
        3   -1    0    0  501    0  0.00000000000E+00  0.00000000000E+00 -0.28144965744E+03  0.28144967556E+03  0.10100000352E+00 0.  1.
    10030    2    1    2    0    0  0.00000000000E+00  0.00000000000E+00  0.60820543862E+03  0.11711047774E+04  0.10007859631E+04 0.  0.
        2    1    3    3  502    0  0.26434128145E+02  0.17334117066E+03 -0.24432247048E+03  0.30073143196E+03  0.25500000920E-02 0.  1.
       -2    1    3    3    0  502 -0.26434128145E+02 -0.17334117066E+03  0.85252790910E+03  0.87037334539E+03  0.25500000920E-02 0. -1.
</event>
<event>
 5   0  0.6022787E-03  0.1003535E+04  0.7818609E-02  0.9304677E-01
        2   -1    0    0  501    0  0.00000000000E+00  0.00000000000E+00  0.17836404111E+04  0.17836404111E+04  0.25500000920E-02 0. -1.
       -2   -1    0    0    0  501  0.00000000000E+00  0.00000000000E+00 -0.14115537269E+03  0.14115537271E+03  0.25500000920E-02 0.  1.
    10030    2    1    2    0    0  0.00000000000E+00  0.00000000000E+00  0.16424850384E+04  0.19247957838E+04  0.10035346073E+04 0.  0.
        5    1    3    3  502    0 -0.27613657690E+03  0.23322139735E+03  0.14887141590E+04  0.15319711377E+04  0.46999998093E+01 0. -1.
       -5    1    3    3    0  502  0.27613657690E+03 -0.23322139735E+03  0.15377087937E+03  0.39282464615E+03  0.46999998093E+01 0.  1.
</event>
<event>
 5   0  0.3608845E-03  0.1018461E+04  0.7818609E-02  0.9288525E-01
       -1   -1    0    0    0  501  0.00000000000E+00  0.00000000000E+00  0.32439358024E+03  0.32439358028E+03  0.50400001928E-02 0. -1.
        1   -1    0    0  501    0  0.00000000000E+00  0.00000000000E+00 -0.79938671564E+03  0.79938671565E+03  0.50400001928E-02 0.  1.
    10030    2    1    2    0    0  0.00000000000E+00  0.00000000000E+00 -0.47499313540E+03  0.11237802959E+04  0.10184614253E+04 0.  0.
        1    1    3    3  502    0 -0.71373842380E+02  0.47822116303E+03 -0.41378751806E+03  0.63640381541E+03  0.50400001928E-02 0.  1.
       -1    1    3    3    0  502  0.71373842380E+02 -0.47822116303E+03 -0.61205617343E+02  0.48737648052E+03  0.50400001928E-02 0. -1.
</event>
<event>
 5   0  0.3643002E-03  0.9934629E+03  0.7818609E-02  0.9315744E-01
        1   -1    0    0  501    0  0.00000000000E+00  0.00000000000E+00  0.98461920232E+03  0.98461920233E+03  0.50400001928E-02 0.  1.
       -1   -1    0    0    0  501  0.00000000000E+00  0.00000000000E+00 -0.25059649871E+03  0.25059649876E+03  0.50400001928E-02 0. -1.
    10030    2    1    2    0    0  0.00000000000E+00  0.00000000000E+00  0.73402270361E+03  0.12352157011E+04  0.99346288245E+03 0.  0.
        2    1    3    3  502    0  0.29984420212E+03 -0.29534101627E+03  0.38972958333E+02  0.42267215773E+03  0.25500000920E-02 0. -1.
       -2    1    3    3    0  502 -0.29984420212E+03  0.29534101627E+03  0.69504974527E+03  0.81254354335E+03  0.25500000920E-02 0.  1.
</event>
<event>
 5   0  0.6376961E-03  0.9865252E+03  0.7818609E-02  0.9323448E-01
       -2   -1    0    0    0  501  0.00000000000E+00  0.00000000000E+00  0.21735146424E+03  0.21735146426E+03  0.25500000920E-02 0. -1.
        2   -1    0    0  501    0  0.00000000000E+00  0.00000000000E+00 -0.11194219435E+04  0.11194219435E+04  0.25500000920E-02 0.  1.
    10030    2    1    2    0    0  0.00000000000E+00  0.00000000000E+00 -0.90207047928E+03  0.13367734078E+04  0.98652521213E+03 0.  0.
        3    1    3    3  502    0 -0.13168987726E+01  0.30337478924E+03  0.75983429437E+02  0.31274828332E+03  0.10100000352E+00 0. -1.
       -3    1    3    3    0  502  0.13168987726E+01 -0.30337478924E+03 -0.97805390872E+03  0.10240251245E+04  0.10100000352E+00 0.  1.
</event>
<event>
 5   0  0.3466598E-03  0.9982014E+03  0.7818609E-02  0.9310520E-01
        1   -1    0    0  501    0  0.00000000000E+00  0.00000000000E+00  0.13184506131E+04  0.13184506131E+04  0.50400001928E-02 0. -1.
       -1   -1    0    0    0  501  0.00000000000E+00  0.00000000000E+00 -0.18893501374E+03  0.18893501381E+03  0.50400001928E-02 0.  1.
    10030    2    1    2    0    0  0.00000000000E+00  0.00000000000E+00  0.11295155993E+04  0.15073856269E+04  0.99820135196E+03 0.  0.
        3    1    3    3  502    0  0.37923356950E+03  0.28065094473E+03  0.81066998612E+03  0.93795996162E+03  0.10100000352E+00 0. -1.
       -3    1    3    3    0  502 -0.37923356950E+03 -0.28065094473E+03  0.31884561323E+03  0.56942566529E+03  0.10100000352E+00 0.  1.
</event>
<event>
 5   0  0.6606947E-03  0.9879122E+03  0.7818609E-02  0.9321903E-01
       -2   -1    0    0    0  501  0.00000000000E+00  0.00000000000E+00  0.33454191561E+03  0.33454191562E+03  0.25500000920E-02 0. -1.
        2   -1    0    0  501    0  0.00000000000E+00  0.00000000000E+00 -0.72933351269E+03  0.72933351269E+03  0.25500000920E-02 0.  1.
    10030    2    1    2    0    0  0.00000000000E+00  0.00000000000E+00 -0.39479159708E+03  0.10638754283E+04  0.98791220352E+03 0.  0.
        1    1    3    3  502    0  0.35812308015E+03 -0.25410094680E+03  0.46213415446E+02  0.44153721417E+03  0.50400001928E-02 0. -1.
       -1    1    3    3    0  502 -0.35812308015E+03  0.25410094680E+03 -0.44100501252E+03  0.62233821415E+03  0.50400001928E-02 0.  1.
</event>
<event>
 5   0  0.3608845E-03  0.9661278E+03  0.7818609E-02  0.9346496E-01
       -1   -1    0    0    0  501  0.00000000000E+00  0.00000000000E+00  0.80108017007E+03  0.80108017009E+03  0.50400001928E-02 0. -1.
        1   -1    0    0  501    0  0.00000000000E+00  0.00000000000E+00 -0.29129512296E+03  0.29129512301E+03  0.50400001928E-02 0.  1.
    10030    2    1    2    0    0  0.00000000000E+00  0.00000000000E+00  0.50978504711E+03  0.10923752931E+04  0.96612783146E+03 0.  0.
        1    1    3    3  502    0  0.23332840700E+03  0.39887603488E+03  0.41401856311E+03  0.62044790864E+03  0.50400001928E-02 0. -1.
       -1    1    3    3    0  502 -0.23332840700E+03 -0.39887603488E+03  0.95766484001E+02  0.47192738446E+03  0.50400001928E-02 0.  1.
</event>
<event>
 5   0  0.6199539E-03  0.1021491E+04  0.7818609E-02  0.9285283E-01
       -2   -1    0    0    0  501  0.00000000000E+00  0.00000000000E+00  0.61593615476E+03  0.61593615477E+03  0.25500000920E-02 0.  1.
        2   -1    0    0  501    0  0.00000000000E+00  0.00000000000E+00 -0.42351966984E+03  0.42351966985E+03  0.25500000920E-02 0. -1.
    10030    2    1    2    0    0  0.00000000000E+00  0.00000000000E+00  0.19241648492E+03  0.10394558246E+04  0.10214912176E+04 0.  0.
        2    1    3    3  502    0 -0.46836821967E+03 -0.16528387138E+03 -0.24938127992E+02  0.49730217933E+03  0.25500000920E-02 0.  1.
       -2    1    3    3    0  502  0.46836821967E+03  0.16528387138E+03  0.21735461291E+03  0.54215364528E+03  0.25500000920E-02 0. -1.
</event>
<event>
 5   0  0.3466598E-03  0.1009166E+04  0.7818609E-02  0.9298549E-01
       -1   -1    0    0    0  501  0.00000000000E+00  0.00000000000E+00  0.97347843364E+03  0.97347843365E+03  0.50400001928E-02 0. -1.
        1   -1    0    0  501    0  0.00000000000E+00  0.00000000000E+00 -0.26154021349E+03  0.26154021354E+03  0.50400001928E-02 0.  1.
    10030    2    1    2    0    0  0.00000000000E+00  0.00000000000E+00  0.71193822015E+03  0.12350186472E+04  0.10091655115E+04 0.  0.
        3    1    3    3  502    0 -0.38688128046E+03  0.16818152850E+03  0.69476909594E+03  0.81281379084E+03  0.10100000352E+00 0. -1.
       -3    1    3    3    0  502  0.38688128046E+03 -0.16818152850E+03  0.17169124208E+02  0.42220485636E+03  0.10100000352E+00 0.  1.
</event>
<event>
 5   0  0.6360455E-03  0.9926761E+03  0.7818609E-02  0.9316614E-01
        2   -1    0    0  501    0  0.00000000000E+00  0.00000000000E+00  0.13004683528E+04  0.13004683528E+04  0.25500000920E-02 0. -1.
       -2   -1    0    0    0  501  0.00000000000E+00  0.00000000000E+00 -0.18943288814E+03  0.18943288815E+03  0.25500000920E-02 0.  1.
    10030    2    1    2    0    0  0.00000000000E+00  0.00000000000E+00  0.11110354646E+04  0.14899012409E+04  0.99267613250E+03 0.  0.
        4    1    3    3  502    0 -0.20033144268E+03 -0.19486059833E+03  0.11711522347E+04  0.12040359253E+04  0.12699999809E+01 0. -1.
       -4    1    3    3    0  502  0.20033144268E+03  0.19486059833E+03 -0.60116770093E+02  0.28586531558E+03  0.12699999809E+01 0.  1.
</event>
<event>
 5   0  0.6606947E-03  0.9962657E+03  0.7818609E-02  0.9312650E-01
       -2   -1    0    0    0  501  0.00000000000E+00  0.00000000000E+00  0.29207292905E+03  0.29207292906E+03  0.25500000920E-02 0. -1.
        2   -1    0    0  501    0  0.00000000000E+00  0.00000000000E+00 -0.84956975143E+03  0.84956975143E+03  0.25500000920E-02 0.  1.
    10030    2    1    2    0    0  0.00000000000E+00  0.00000000000E+00 -0.55749682237E+03  0.11416426805E+04  0.99626567890E+03 0.  0.
        1    1    3    3  502    0  0.25797353355E+03 -0.30972727406E+03 -0.61412394773E+03  0.73459482132E+03  0.50400001928E-02 0.  1.
       -1    1    3    3    0  502 -0.25797353355E+03  0.30972727406E+03  0.56627125353E+02  0.40704785917E+03  0.50400001928E-02 0. -1.
</event>
<event>
 5   0  0.3466598E-03  0.9902044E+03  0.7818609E-02  0.9319354E-01
        1   -1    0    0  501    0  0.00000000000E+00  0.00000000000E+00  0.20088494813E+04  0.20088494813E+04  0.50400001928E-02 0. -1.
       -1   -1    0    0    0  501  0.00000000000E+00  0.00000000000E+00 -0.12202316995E+03  0.12202317005E+03  0.50400001928E-02 0.  1.
    10030    2    1    2    0    0  0.00000000000E+00  0.00000000000E+00  0.18868263114E+04  0.21308726514E+04  0.99020438652E+03 0.  0.
        3    1    3    3  502    0 -0.21976306642E+03  0.31953157187E+03  0.16057459859E+04  0.16519129554E+04  0.10100000352E+00 0. -1.
       -3    1    3    3    0  502  0.21976306642E+03 -0.31953157187E+03  0.28108032543E+03  0.47895969594E+03  0.10100000352E+00 0.  1.
</event>
<event>
 5   0  0.3640180E-03  0.1002163E+04  0.7818609E-02  0.9306175E-01
       -1   -1    0    0    0  501  0.00000000000E+00  0.00000000000E+00  0.31326658590E+03  0.31326658594E+03  0.50400001928E-02 0.  1.
        1   -1    0    0  501    0  0.00000000000E+00  0.00000000000E+00 -0.80149905347E+03  0.80149905349E+03  0.50400001928E-02 0. -1.
    10030    2    1    2    0    0  0.00000000000E+00  0.00000000000E+00 -0.48823246757E+03  0.11147656394E+04  0.10021634041E+04 0.  0.
        5    1    3    3  502    0  0.21011183985E+03 -0.19857188055E+03 -0.69934574329E+03  0.75675910014E+03  0.46999998093E+01 0. -1.
       -5    1    3    3    0  502 -0.21011183985E+03  0.19857188055E+03  0.21111327572E+03  0.35800653929E+03  0.46999998093E+01 0.  1.
</event>
<event>
 5   0  0.3466598E-03  0.1009351E+04  0.7818609E-02  0.9298348E-01
        1   -1    0    0  501    0  0.00000000000E+00  0.00000000000E+00  0.52734120968E+03  0.52734120971E+03  0.50400001928E-02 0.  1.
       -1   -1    0    0    0  501  0.00000000000E+00  0.00000000000E+00 -0.48298368745E+03  0.48298368748E+03  0.50400001928E-02 0. -1.
    10030    2    1    2    0    0  0.00000000000E+00  0.00000000000E+00  0.44357522235E+02  0.10103248972E+04  0.10093506864E+04 0.  0.
        3    1    3    3  502    0  0.27301191888E+02  0.50049516384E+03 -0.36669374999E+02  0.50257876733E+03  0.10100000352E+00 0.  1.
       -3    1    3    3    0  502 -0.27301191888E+02 -0.50049516384E+03  0.81026897234E+02  0.50774612985E+03  0.10100000352E+00 0. -1.
</event>
<event>
 5   0  0.3640180E-03  0.1013992E+04  0.7818609E-02  0.9293330E-01
        1   -1    0    0  501    0  0.00000000000E+00  0.00000000000E+00  0.11497453694E+04  0.11497453695E+04  0.50400001928E-02 0. -1.
       -1   -1    0    0    0  501  0.00000000000E+00  0.00000000000E+00 -0.22356685851E+03  0.22356685856E+03  0.50400001928E-02 0.  1.
    10030    2    1    2    0    0  0.00000000000E+00  0.00000000000E+00  0.92617851094E+03  0.13733122280E+04  0.10139920323E+04 0.  0.
        5    1    3    3  502    0 -0.10089147439E+03 -0.46255701475E+03  0.70869146729E+03  0.85229324021E+03  0.46999998093E+01 0. -1.
       -5    1    3    3    0  502  0.10089147439E+03  0.46255701475E+03  0.21748704365E+03  0.52101898781E+03  0.46999998093E+01 0.  1.
</event>
<event>
 5   0  0.6199539E-03  0.9936394E+03  0.7818609E-02  0.9315549E-01
       -2   -1    0    0    0  501  0.00000000000E+00  0.00000000000E+00  0.40222857158E+03  0.40222857159E+03  0.25500000920E-02 0.  1.
        2   -1    0    0  501    0  0.00000000000E+00  0.00000000000E+00 -0.61365553630E+03  0.61365553630E+03  0.25500000920E-02 0. -1.
    10030    2    1    2    0    0  0.00000000000E+00  0.00000000000E+00 -0.21142696472E+03  0.10158841079E+04  0.99363935070E+03 0.  0.
        2    1    3    3  502    0 -0.53453322239E+02 -0.10332673727E+02  0.39916958411E+03  0.40286521157E+03  0.25500000920E-02 0.  1.
       -2    1    3    3    0  502  0.53453322239E+02  0.10332673727E+02 -0.61059654883E+03  0.61301889633E+03  0.25500000920E-02 0. -1.
</event>
<event>
 5   0  0.3466598E-03  0.1024509E+04  0.7818609E-02  0.9282065E-01
       -1   -1    0    0    0  501  0.00000000000E+00  0.00000000000E+00  0.28159482396E+03  0.28159482401E+03  0.50400001928E-02 0.  1.
        1   -1    0    0  501    0  0.00000000000E+00  0.00000000000E+00 -0.93185187087E+03  0.93185187089E+03  0.50400001928E-02 0. -1.
    10030    2    1    2    0    0  0.00000000000E+00  0.00000000000E+00 -0.65025704691E+03  0.12134466949E+04  0.10245089821E+04 0.  0.
        3    1    3    3  502    0 -0.41500065231E+03  0.10122783078E+03  0.97330985504E+01  0.42727901721E+03  0.10100000352E+00 0.  1.
       -3    1    3    3    0  502  0.41500065231E+03 -0.10122783078E+03 -0.65999014546E+03  0.78616767769E+03  0.10100000352E+00 0. -1.
</event>
<event>
 5   0  0.6606947E-03  0.1002873E+04  0.7818609E-02  0.9305399E-01
       -2   -1    0    0    0  501  0.00000000000E+00  0.00000000000E+00  0.22125623836E+03  0.22125623837E+03  0.25500000920E-02 0. -1.
        2   -1    0    0  501    0  0.00000000000E+00  0.00000000000E+00 -0.11364141662E+04  0.11364141662E+04  0.25500000920E-02 0.  1.
    10030    2    1    2    0    0  0.00000000000E+00  0.00000000000E+00 -0.91515792784E+03  0.13576704046E+04  0.10028733193E+04 0.  0.
        1    1    3    3  502    0  0.41993927149E+03 -0.27076603058E+03 -0.40053532619E+03  0.64038408991E+03  0.50400001928E-02 0. -1.
       -1    1    3    3    0  502 -0.41993927149E+03  0.27076603058E+03 -0.51462260165E+03  0.71728631467E+03  0.50400001928E-02 0.  1.
</event>
<event>
 5   0  0.6360455E-03  0.1041530E+04  0.7818609E-02  0.9264133E-01
       -2   -1    0    0    0  501  0.00000000000E+00  0.00000000000E+00  0.37420213381E+03  0.37420213382E+03  0.25500000920E-02 0.  1.
        2   -1    0    0  501    0  0.00000000000E+00  0.00000000000E+00 -0.72473175607E+03  0.72473175608E+03  0.25500000920E-02 0. -1.
    10030    2    1    2    0    0  0.00000000000E+00  0.00000000000E+00 -0.35052962226E+03  0.10989338899E+04  0.10415299699E+04 0.  0.
        4    1    3    3  502    0  0.41278225035E+03  0.15201584789E+03 -0.46936863415E+03  0.64327795845E+03  0.12699999809E+01 0. -1.
       -4    1    3    3    0  502 -0.41278225035E+03 -0.15201584789E+03  0.11883901188E+03  0.45565593144E+03  0.12699999809E+01 0.  1.
</event>
<event>
 5   0  0.3466598E-03  0.1026383E+04  0.7818609E-02  0.9280073E-01
       -1   -1    0    0    0  501  0.00000000000E+00  0.00000000000E+00  0.46189493747E+03  0.46189493750E+03  0.50400001928E-02 0.  1.
        1   -1    0    0  501    0  0.00000000000E+00  0.00000000000E+00 -0.57018441036E+03  0.57018441039E+03  0.50400001928E-02 0. -1.
    10030    2    1    2    0    0  0.00000000000E+00  0.00000000000E+00 -0.10828947290E+03  0.10320793479E+04  0.10263825653E+04 0.  0.
        3    1    3    3  502    0  0.50802642762E+03 -0.44395089539E+02 -0.11193989430E+03  0.52210374953E+03  0.10100000352E+00 0. -1.
       -3    1    3    3    0  502 -0.50802642762E+03  0.44395089539E+02  0.36504214004E+01  0.50997559835E+03  0.10100000352E+00 0.  1.
</event>
<event>
 5   0  0.6376961E-03  0.1010704E+04  0.7818609E-02  0.9296882E-01
       -2   -1    0    0    0  501  0.00000000000E+00  0.00000000000E+00  0.35429691467E+03  0.35429691468E+03  0.25500000920E-02 0. -1.
        2   -1    0    0  501    0  0.00000000000E+00  0.00000000000E+00 -0.72081036600E+03  0.72081036601E+03  0.25500000920E-02 0.  1.
    10030    2    1    2    0    0  0.00000000000E+00  0.00000000000E+00 -0.36651345134E+03  0.10751072807E+04  0.10107044845E+04 0.  0.
        3    1    3    3  502    0  0.96912261732E+02  0.33242370605E+03  0.20827829048E+03  0.40407593754E+03  0.10100000352E+00 0. -1.
       -3    1    3    3    0  502 -0.96912261732E+02 -0.33242370605E+03 -0.57479174181E+03  0.67103134314E+03  0.10100000352E+00 0.  1.
</event>
<event>
 5   0  0.6376961E-03  0.9904759E+03  0.7818609E-02  0.9319053E-01
       -2   -1    0    0    0  501  0.00000000000E+00  0.00000000000E+00  0.15366176930E+03  0.15366176932E+03  0.25500000920E-02 0.  1.
        2   -1    0    0  501    0  0.00000000000E+00  0.00000000000E+00 -0.15961068492E+04  0.15961068492E+04  0.25500000920E-02 0. -1.
    10030    2    1    2    0    0  0.00000000000E+00  0.00000000000E+00 -0.14424450799E+04  0.17497686185E+04  0.99047585019E+03 0.  0.
        3    1    3    3  502    0  0.15309734318E+03  0.13828436400E+03  0.74135695438E+02  0.21922014815E+03  0.10100000352E+00 0.  1.
       -3    1    3    3    0  502 -0.15309734318E+03 -0.13828436400E+03 -0.15165807753E+04  0.15305484703E+04  0.10100000352E+00 0. -1.
</event>
<event>
 5   0  0.3643002E-03  0.1008186E+04  0.7818609E-02  0.9299611E-01
       -1   -1    0    0    0  501  0.00000000000E+00  0.00000000000E+00  0.34390414186E+03  0.34390414190E+03  0.50400001928E-02 0.  1.
        1   -1    0    0  501    0  0.00000000000E+00  0.00000000000E+00 -0.73889761272E+03  0.73889761274E+03  0.50400001928E-02 0. -1.
    10030    2    1    2    0    0  0.00000000000E+00  0.00000000000E+00 -0.39499347086E+03  0.10828017546E+04  0.10081863904E+04 0.  0.
        2    1    3    3  502    0  0.27295807185E+02  0.27187232431E+03 -0.65246410298E+03  0.70736767490E+03  0.25500000920E-02 0. -1.
       -2    1    3    3    0  502 -0.27295807185E+02 -0.27187232431E+03  0.25747063212E+03  0.37543407973E+03  0.25500000920E-02 0.  1.
</event>
<event>
 5   0  0.3640180E-03  0.9858072E+03  0.7818609E-02  0.9324250E-01
        1   -1    0    0  501    0  0.00000000000E+00  0.00000000000E+00  0.30249599065E+03  0.30249599069E+03  0.50400001928E-02 0. -1.
       -1   -1    0    0    0  501  0.00000000000E+00  0.00000000000E+00 -0.80316417416E+03  0.80316417418E+03  0.50400001928E-02 0.  1.
    10030    2    1    2    0    0  0.00000000000E+00  0.00000000000E+00 -0.50066818351E+03  0.11056601649E+04  0.98580716685E+03 0.  0.
        5    1    3    3  502    0  0.29365907413E+03  0.25121807194E+03 -0.59344489649E+03  0.70819849382E+03  0.46999998093E+01 0.  1.
       -5    1    3    3    0  502 -0.29365907413E+03 -0.25121807194E+03  0.92776712976E+02  0.39746167105E+03  0.46999998093E+01 0. -1.
</event>
<event>
 5   0  0.3608845E-03  0.9915954E+03  0.7818609E-02  0.9317811E-01
        1   -1    0    0  501    0  0.00000000000E+00  0.00000000000E+00  0.39780515491E+03  0.39780515494E+03  0.50400001928E-02 0. -1.
       -1   -1    0    0    0  501  0.00000000000E+00  0.00000000000E+00 -0.61792900036E+03  0.61792900038E+03  0.50400001928E-02 0.  1.
    10030    2    1    2    0    0  0.00000000000E+00  0.00000000000E+00 -0.22012384545E+03  0.10157341553E+04  0.99159536453E+03 0.  0.
        1    1    3    3  502    0 -0.75433286134E+02  0.43303254292E+03 -0.34500971733E+03  0.55878356182E+03  0.50400001928E-02 0.  1.
       -1    1    3    3    0  502  0.75433286134E+02 -0.43303254292E+03  0.12488587188E+03  0.45695059350E+03  0.50400001928E-02 0. -1.
</event>
<event>
 5   0  0.6022787E-03  0.9774710E+03  0.7818609E-02  0.9333605E-01
        2   -1    0    0  501    0  0.00000000000E+00  0.00000000000E+00  0.14661772818E+04  0.14661772818E+04  0.25500000920E-02 0. -1.
       -2   -1    0    0    0  501  0.00000000000E+00  0.00000000000E+00 -0.16291508622E+03  0.16291508624E+03  0.25500000920E-02 0.  1.
    10030    2    1    2    0    0  0.00000000000E+00  0.00000000000E+00  0.13032621956E+04  0.16290923681E+04  0.97747101913E+03 0.  0.
        5    1    3    3  502    0 -0.13347675891E+03 -0.44092017254E+03  0.92352167634E+03  0.10320566944E+04  0.46999998093E+01 0. -1.
       -5    1    3    3    0  502  0.13347675891E+03  0.44092017254E+03  0.37974051928E+03  0.59703567373E+03  0.46999998093E+01 0.  1.
</event>
<event>
 5   0  0.6376961E-03  0.1013530E+04  0.7818609E-02  0.9293828E-01
       -2   -1    0    0    0  501  0.00000000000E+00  0.00000000000E+00  0.15436555294E+03  0.15436555296E+03  0.25500000920E-02 0. -1.
        2   -1    0    0  501    0  0.00000000000E+00  0.00000000000E+00 -0.16636548785E+04  0.16636548785E+04  0.25500000920E-02 0.  1.
    10030    2    1    2    0    0  0.00000000000E+00  0.00000000000E+00 -0.15092893256E+04  0.18180204315E+04  0.10135304736E+04 0.  0.
        3    1    3    3  502    0  0.23245527309E+03 -0.44737773708E+03 -0.84661178107E+03  0.98535973719E+03  0.10100000352E+00 0. -1.
       -3    1    3    3    0  502 -0.23245527309E+03  0.44737773708E+03 -0.66267754450E+03  0.83266069428E+03  0.10100000352E+00 0.  1.
</event>
<event>
 5   0  0.6360455E-03  0.1002446E+04  0.7818609E-02  0.9305866E-01
       -2   -1    0    0    0  501  0.00000000000E+00  0.00000000000E+00  0.22738044349E+03  0.22738044350E+03  0.25500000920E-02 0. -1.
        2   -1    0    0  501    0  0.00000000000E+00  0.00000000000E+00 -0.11048650508E+04  0.11048650508E+04  0.25500000920E-02 0.  1.
    10030    2    1    2    0    0  0.00000000000E+00  0.00000000000E+00 -0.87748460727E+03  0.13322454943E+04  0.10024464180E+04 0.  0.
        4    1    3    3  502    0  0.79903540473E+02  0.85009599188E+02  0.20908190207E+03  0.23943279309E+03  0.12699999809E+01 0. -1.
       -4    1    3    3    0  502 -0.79903540473E+02 -0.85009599188E+02 -0.10865665093E+04  0.10928127012E+04  0.12699999809E+01 0.  1.
</event>
<event>
 5   0  0.6376961E-03  0.1011829E+04  0.7818609E-02  0.9295665E-01
       -2   -1    0    0    0  501  0.00000000000E+00  0.00000000000E+00  0.23624205897E+03  0.23624205899E+03  0.25500000920E-02 0. -1.
        2   -1    0    0  501    0  0.00000000000E+00  0.00000000000E+00 -0.10834210006E+04  0.10834210006E+04  0.25500000920E-02 0.  1.
    10030    2    1    2    0    0  0.00000000000E+00  0.00000000000E+00 -0.84717894164E+03  0.13196630596E+04  0.10118292503E+04 0.  0.
        3    1    3    3  502    0 -0.13059542078E+03 -0.46241162359E+03 -0.21708362982E+03  0.52726178137E+03  0.10100000352E+00 0. -1.
       -3    1    3    3    0  502  0.13059542078E+03  0.46241162359E+03 -0.63009531181E+03  0.79240127822E+03  0.10100000352E+00 0.  1.
</event>
<event>
 5   0  0.3640180E-03  0.1000089E+04  0.7818609E-02  0.9308447E-01
        1   -1    0    0  501    0  0.00000000000E+00  0.00000000000E+00  0.10156622025E+04  0.10156622026E+04  0.50400001928E-02 0.  1.
       -1   -1    0    0    0  501  0.00000000000E+00  0.00000000000E+00 -0.24618866319E+03  0.24618866325E+03  0.50400001928E-02 0. -1.
    10030    2    1    2    0    0  0.00000000000E+00  0.00000000000E+00  0.76947353935E+03  0.12618508658E+04  0.10000890359E+04 0.  0.
        5    1    3    3  502    0  0.10645678565E+03 -0.11692084465E+03  0.98325703732E+03  0.99590161289E+03  0.46999998093E+01 0.  1.
       -5    1    3    3    0  502 -0.10645678565E+03  0.11692084465E+03 -0.21378349797E+03  0.26594925291E+03  0.46999998093E+01 0. -1.
</event>
<event>
 5   0  0.3569359E-03  0.1003524E+04  0.7818609E-02  0.9304688E-01
        1   -1    0    0  501    0  0.00000000000E+00  0.00000000000E+00  0.16466802653E+04  0.16466802653E+04  0.50400001928E-02 0. -1.
       -1   -1    0    0    0  501  0.00000000000E+00  0.00000000000E+00 -0.15289246733E+03  0.15289246741E+03  0.50400001928E-02 0.  1.
    10030    2    1    2    0    0  0.00000000000E+00  0.00000000000E+00  0.14937877980E+04  0.17995727327E+04  0.10035238089E+04 0.  0.
        4    1    3    3  502    0  0.24449636122E+03  0.36685250981E+03  0.31724528887E+03  0.54314401480E+03  0.12699999809E+01 0.  1.
       -4    1    3    3    0  502 -0.24449636122E+03 -0.36685250981E+03  0.11765425091E+04  0.12564287179E+04  0.12699999809E+01 0. -1.
</event>
<event>
 5   0  0.3640180E-03  0.1040962E+04  0.7818609E-02  0.9264725E-01
        1   -1    0    0  501    0  0.00000000000E+00  0.00000000000E+00  0.20061294980E+03  0.20061294986E+03  0.50400001928E-02 0.  1.
       -1   -1    0    0    0  501  0.00000000000E+00  0.00000000000E+00 -0.13503644471E+04  0.13503644471E+04  0.50400001928E-02 0. -1.
    10030    2    1    2    0    0  0.00000000000E+00  0.00000000000E+00 -0.11497514973E+04  0.15509773970E+04  0.10409622377E+04 0.  0.
        5    1    3    3  502    0  0.49503009812E+03  0.15446165083E+03 -0.64092768060E+03  0.82445350469E+03  0.46999998093E+01 0.  1.
       -5    1    3    3    0  502 -0.49503009812E+03 -0.15446165083E+03 -0.50882381669E+03  0.72652389228E+03  0.46999998093E+01 0. -1.
</event>
<event>
 5   0  0.3569359E-03  0.9914631E+03  0.7818609E-02  0.9317958E-01
       -1   -1    0    0    0  501  0.00000000000E+00  0.00000000000E+00  0.61396776853E+03  0.61396776855E+03  0.50400001928E-02 0.  1.
        1   -1    0    0  501    0  0.00000000000E+00  0.00000000000E+00 -0.40026497179E+03  0.40026497182E+03  0.50400001928E-02 0. -1.
    10030    2    1    2    0    0  0.00000000000E+00  0.00000000000E+00  0.21370279674E+03  0.10142327404E+04  0.99146314420E+03 0.  0.
        4    1    3    3  502    0  0.45250135626E+03 -0.10084650212E+03  0.28644141446E+03  0.54495668748E+03  0.12699999809E+01 0.  1.
       -4    1    3    3    0  502 -0.45250135626E+03  0.10084650212E+03 -0.72738617724E+02  0.46927605289E+03  0.12699999809E+01 0. -1.
</event>
<event>
 5   0  0.6376961E-03  0.9907814E+03  0.7818609E-02  0.9318714E-01
        2   -1    0    0  501    0  0.00000000000E+00  0.00000000000E+00  0.66234359356E+03  0.66234359357E+03  0.25500000920E-02 0. -1.
       -2   -1    0    0    0  501  0.00000000000E+00  0.00000000000E+00 -0.37052057077E+03  0.37052057078E+03  0.25500000920E-02 0.  1.
    10030    2    1    2    0    0  0.00000000000E+00  0.00000000000E+00  0.29182302279E+03  0.10328641643E+04  0.99078136103E+03 0.  0.
        3    1    3    3  502    0 -0.17210116108E+03  0.45694320998E+03  0.23310630868E+03  0.54106789605E+03  0.10100000352E+00 0.  1.
       -3    1    3    3    0  502  0.17210116108E+03 -0.45694320998E+03  0.58716714107E+02  0.49179626830E+03  0.10100000352E+00 0. -1.
</event>
<event>
 5   0  0.3466598E-03  0.9402101E+03  0.7818609E-02  0.9376667E-01
       -1   -1    0    0    0  501  0.00000000000E+00  0.00000000000E+00  0.56870944042E+03  0.56870944044E+03  0.50400001928E-02 0.  1.
        1   -1    0    0  501    0  0.00000000000E+00  0.00000000000E+00 -0.38859696490E+03  0.38859696493E+03  0.50400001928E-02 0. -1.
    10030    2    1    2    0    0  0.00000000000E+00  0.00000000000E+00  0.18011247552E+03  0.95730640537E+03  0.94021010946E+03 0.  0.
        3    1    3    3  502    0 -0.69276822518E+02  0.29217687386E+03  0.45834060537E+03  0.54794408883E+03  0.10100000352E+00 0.  1.
       -3    1    3    3    0  502  0.69276822518E+02 -0.29217687386E+03 -0.27822812985E+03  0.40936231653E+03  0.10100000352E+00 0. -1.
</event>
<event>
 5   0  0.2417750E-03  0.9952411E+03  0.7818609E-02  0.9313780E-01
       -4   -1    0    0    0  501  0.00000000000E+00  0.00000000000E+00  0.53150071955E+03  0.53150223685E+03  0.12699999809E+01 0. -1.
        4   -1    0    0  501    0  0.00000000000E+00  0.00000000000E+00 -0.46589697137E+03  0.46589870233E+03  0.12699999809E+01 0.  1.
    10030    2    1    2    0    0  0.00000000000E+00  0.00000000000E+00  0.65603748175E+02  0.99740093919E+03  0.99524106714E+03 0.  0.
        4    1    3    3  502    0 -0.91864491824E+02  0.48388993153E+03  0.10392088659E+03  0.50337830135E+03  0.12699999809E+01 0.  1.
       -4    1    3    3    0  502  0.91864491824E+02 -0.48388993153E+03 -0.38317138418E+02  0.49402263784E+03  0.12699999809E+01 0. -1.
</event>
<event>
 5   0  0.6376961E-03  0.9987135E+03  0.7818609E-02  0.9309957E-01
        2   -1    0    0  501    0  0.00000000000E+00  0.00000000000E+00  0.10332769414E+04  0.10332769414E+04  0.25500000920E-02 0. -1.
       -2   -1    0    0    0  501  0.00000000000E+00  0.00000000000E+00 -0.24132653645E+03  0.24132653647E+03  0.25500000920E-02 0.  1.
    10030    2    1    2    0    0  0.00000000000E+00  0.00000000000E+00  0.79195040494E+03  0.12746034779E+04  0.99871346336E+03 0.  0.
        3    1    3    3  502    0  0.14750391375E+03  0.37562141683E+03  0.20602196577E+02  0.40407092701E+03  0.10100000352E+00 0.  1.
       -3    1    3    3    0  502 -0.14750391375E+03 -0.37562141683E+03  0.77134820836E+03  0.87053255086E+03  0.10100000352E+00 0. -1.
</event>
<event>
 5   0  0.3466598E-03  0.9925768E+03  0.7818609E-02  0.9316724E-01
       -1   -1    0    0    0  501  0.00000000000E+00  0.00000000000E+00  0.18810936986E+03  0.18810936992E+03  0.50400001928E-02 0.  1.
        1   -1    0    0  501    0  0.00000000000E+00  0.00000000000E+00 -0.13093561921E+04  0.13093561921E+04  0.50400001928E-02 0. -1.
    10030    2    1    2    0    0  0.00000000000E+00  0.00000000000E+00 -0.11212468222E+04  0.14974655620E+04  0.99257678447E+03 0.  0.
        3    1    3    3  502    0 -0.86509053870E+02 -0.12858110843E+03 -0.12719156065E+04  0.12813220665E+04  0.10100000352E+00 0. -1.
       -3    1    3    3    0  502  0.86509053870E+02  0.12858110843E+03  0.15066878434E+03  0.21614349545E+03  0.10100000352E+00 0.  1.
</event>
<event>
 5   0  0.6360455E-03  0.9445325E+03  0.7818609E-02  0.9371564E-01
        2   -1    0    0  501    0  0.00000000000E+00  0.00000000000E+00  0.22844430889E+03  0.22844430890E+03  0.25500000920E-02 0.  1.
       -2   -1    0    0    0  501  0.00000000000E+00  0.00000000000E+00 -0.97632299088E+03  0.97632299088E+03  0.25500000920E-02 0. -1.
    10030    2    1    2    0    0  0.00000000000E+00  0.00000000000E+00 -0.74787868199E+03  0.12047672998E+04  0.94453254240E+03 0.  0.
        4    1    3    3  502    0 -0.78323307745E+02 -0.35904553493E+03  0.44091443530E+01  0.36751774126E+03  0.12699999809E+01 0.  1.
       -4    1    3    3    0  502  0.78323307745E+02  0.35904553493E+03 -0.75228782634E+03  0.83724955852E+03  0.12699999809E+01 0. -1.
</event>
<event>
 5   0  0.2417750E-03  0.9930011E+03  0.7818609E-02  0.9316255E-01
        4   -1    0    0  501    0  0.00000000000E+00  0.00000000000E+00  0.59588729441E+03  0.59588864776E+03  0.12699999809E+01 0. -1.
       -4   -1    0    0    0  501  0.00000000000E+00  0.00000000000E+00 -0.41368748413E+03  0.41368943354E+03  0.12699999809E+01 0.  1.
    10030    2    1    2    0    0  0.00000000000E+00  0.00000000000E+00  0.18219981028E+03  0.10095780813E+04  0.99300107320E+03 0.  0.
        4    1    3    3  502    0 -0.24107220223E+03  0.41347124301E+03  0.22535314181E+03  0.52901788902E+03  0.12699999809E+01 0. -1.
       -4    1    3    3    0  502  0.24107220223E+03 -0.41347124301E+03 -0.43153331533E+02  0.48056019228E+03  0.12699999809E+01 0.  1.
</event>
<event>
 5   0  0.3643002E-03  0.9716185E+03  0.7818609E-02  0.9340233E-01
        1   -1    0    0  501    0  0.00000000000E+00  0.00000000000E+00  0.99736487662E+03  0.99736487663E+03  0.50400001928E-02 0. -1.
       -1   -1    0    0    0  501  0.00000000000E+00  0.00000000000E+00 -0.23663416757E+03  0.23663416762E+03  0.50400001928E-02 0.  1.
    10030    2    1    2    0    0  0.00000000000E+00  0.00000000000E+00  0.76073070905E+03  0.12339990443E+04  0.97161845882E+03 0.  0.
        2    1    3    3  502    0  0.21883184590E+03  0.32487260783E+03  0.74533705066E+03  0.84199578811E+03  0.25500000920E-02 0. -1.
       -2    1    3    3    0  502 -0.21883184590E+03 -0.32487260783E+03  0.15393658382E+02  0.39200325614E+03  0.25500000920E-02 0.  1.
</event>
<event>
 5   0  0.3569359E-03  0.1009956E+04  0.7818609E-02  0.9297692E-01
        1   -1    0    0  501    0  0.00000000000E+00  0.00000000000E+00  0.57524800799E+03  0.57524800801E+03  0.50400001928E-02 0. -1.
       -1   -1    0    0    0  501  0.00000000000E+00  0.00000000000E+00 -0.44329193053E+03  0.44329193056E+03  0.50400001928E-02 0.  1.
    10030    2    1    2    0    0  0.00000000000E+00  0.00000000000E+00  0.13195607745E+03  0.10185399386E+04  0.10099560387E+04 0.  0.
        4    1    3    3  502    0 -0.18126800538E+03  0.47094630265E+03  0.84917359098E+02  0.51172363686E+03  0.12699999809E+01 0.  1.
       -4    1    3    3    0  502  0.18126800538E+03 -0.47094630265E+03  0.47038718355E+02  0.50681630170E+03  0.12699999809E+01 0. -1.
</event>
<event>
 5   0  0.3466598E-03  0.9971204E+03  0.7818609E-02  0.9311709E-01
       -1   -1    0    0    0  501  0.00000000000E+00  0.00000000000E+00  0.23619049939E+03  0.23619049944E+03  0.50400001928E-02 0. -1.
        1   -1    0    0  501    0  0.00000000000E+00  0.00000000000E+00 -0.10523804728E+04  0.10523804728E+04  0.50400001928E-02 0.  1.
    10030    2    1    2    0    0  0.00000000000E+00  0.00000000000E+00 -0.81618997339E+03  0.12885709722E+04  0.99712039284E+03 0.  0.
        3    1    3    3  502    0 -0.43909776127E+02  0.39950949045E+03 -0.78932417939E+03  0.88575875484E+03  0.10100000352E+00 0.  1.
       -3    1    3    3    0  502  0.43909776127E+02 -0.39950949045E+03 -0.26865794006E+02  0.40281221740E+03  0.10100000352E+00 0. -1.
</event>
<event>
 5   0  0.3640180E-03  0.1004802E+04  0.7818609E-02  0.9303293E-01
        1   -1    0    0  501    0  0.00000000000E+00  0.00000000000E+00  0.39861164523E+03  0.39861164526E+03  0.50400001928E-02 0. -1.
       -1   -1    0    0    0  501  0.00000000000E+00  0.00000000000E+00 -0.63321534351E+03  0.63321534353E+03  0.50400001928E-02 0.  1.
    10030    2    1    2    0    0  0.00000000000E+00  0.00000000000E+00 -0.23460369828E+03  0.10318269888E+04  0.10048024878E+04 0.  0.
        5    1    3    3  502    0  0.23646349250E+03 -0.10637632643E+03 -0.55917004850E+03  0.61637986603E+03  0.46999998093E+01 0.  1.
       -5    1    3    3    0  502 -0.23646349250E+03  0.10637632643E+03  0.32456635022E+03  0.41544712276E+03  0.46999998093E+01 0. -1.
</event>
<event>
 5   0  0.6376961E-03  0.9970529E+03  0.7818609E-02  0.9311783E-01
       -2   -1    0    0    0  501  0.00000000000E+00  0.00000000000E+00  0.25390253912E+03  0.25390253913E+03  0.25500000920E-02 0.  1.
        2   -1    0    0  501    0  0.00000000000E+00  0.00000000000E+00 -0.97883464661E+03  0.97883464661E+03  0.25500000920E-02 0. -1.
    10030    2    1    2    0    0  0.00000000000E+00  0.00000000000E+00 -0.72493210749E+03  0.12327371857E+04  0.99705286151E+03 0.  0.
        3    1    3    3  502    0 -0.16845880640E+03 -0.38049535023E+03 -0.70190501151E+03  0.81598145590E+03  0.10100000352E+00 0. -1.
       -3    1    3    3    0  502  0.16845880640E+03  0.38049535023E+03 -0.23027095982E+02  0.41675572984E+03  0.10100000352E+00 0.  1.
</event>
<event>
 5   0  0.3608845E-03  0.9915035E+03  0.7818609E-02  0.9317913E-01
        1   -1    0    0  501    0  0.00000000000E+00  0.00000000000E+00  0.10689575416E+04  0.10689575416E+04  0.50400001928E-02 0. -1.
       -1   -1    0    0    0  501  0.00000000000E+00  0.00000000000E+00 -0.22991539860E+03  0.22991539865E+03  0.50400001928E-02 0.  1.
    10030    2    1    2    0    0  0.00000000000E+00  0.00000000000E+00  0.83904214300E+03  0.12988729403E+04  0.99150350339E+03 0.  0.
        1    1    3    3  502    0  0.39075829545E+03 -0.10786107749E+03  0.45667722704E+02  0.40793577733E+03  0.50400001928E-02 0.  1.
       -1    1    3    3    0  502 -0.39075829545E+03  0.10786107749E+03  0.79337442030E+03  0.89093716294E+03  0.50400001928E-02 0. -1.
</event>
<event>
 5   0  0.6606947E-03  0.1006381E+04  0.7818609E-02  0.9301574E-01
       -2   -1    0    0    0  501  0.00000000000E+00  0.00000000000E+00  0.25640544682E+03  0.25640544683E+03  0.25500000920E-02 0.  1.
        2   -1    0    0  501    0  0.00000000000E+00  0.00000000000E+00 -0.98750110546E+03  0.98750110546E+03  0.25500000920E-02 0. -1.
    10030    2    1    2    0    0  0.00000000000E+00  0.00000000000E+00 -0.73109565864E+03  0.12439065523E+04  0.10063809660E+04 0.  0.
        1    1    3    3  502    0  0.44207802431E+03 -0.18957096323E+03 -0.18292397442E+03  0.51461763487E+03  0.50400001928E-02 0.  1.
       -1    1    3    3    0  502 -0.44207802431E+03  0.18957096323E+03 -0.54817168422E+03  0.72928891743E+03  0.50400001928E-02 0. -1.
</event>
<event>
 5   0  0.3466598E-03  0.9982749E+03  0.7818609E-02  0.9310439E-01
       -1   -1    0    0    0  501  0.00000000000E+00  0.00000000000E+00  0.35939665073E+03  0.35939665077E+03  0.50400001928E-02 0.  1.
        1   -1    0    0  501    0  0.00000000000E+00  0.00000000000E+00 -0.69321235530E+03  0.69321235532E+03  0.50400001928E-02 0. -1.
    10030    2    1    2    0    0  0.00000000000E+00  0.00000000000E+00 -0.33381570457E+03  0.10526090061E+04  0.99827490957E+03 0.  0.
        3    1    3    3  502    0 -0.39533602420E+03  0.22506906090E+03  0.49677751156E+02  0.45761833810E+03  0.10100000352E+00 0. -1.
       -3    1    3    3    0  502  0.39533602420E+03 -0.22506906090E+03 -0.38349345572E+03  0.59499066798E+03  0.10100000352E+00 0.  1.
</event>
<event>
 5   0  0.3643002E-03  0.1004942E+04  0.7818609E-02  0.9303141E-01
       -1   -1    0    0    0  501  0.00000000000E+00  0.00000000000E+00  0.14716705245E+03  0.14716705253E+03  0.50400001928E-02 0.  1.
        1   -1    0    0  501    0  0.00000000000E+00  0.00000000000E+00 -0.17155815630E+04  0.17155815630E+04  0.50400001928E-02 0. -1.
    10030    2    1    2    0    0  0.00000000000E+00  0.00000000000E+00 -0.15684145106E+04  0.18627486155E+04  0.10049419525E+04 0.  0.
        2    1    3    3  502    0  0.18944359213E+03 -0.20493312714E+03 -0.97031446271E+01  0.27925008903E+03  0.25500000920E-02 0.  1.
       -2    1    3    3    0  502 -0.18944359213E+03  0.20493312714E+03 -0.15587113659E+04  0.15834985265E+04  0.25500000920E-02 0. -1.
</event>
<event>
 5   0  0.3640180E-03  0.1007329E+04  0.7818609E-02  0.9300542E-01
        1   -1    0    0  501    0  0.00000000000E+00  0.00000000000E+00  0.54600248680E+03  0.54600248682E+03  0.50400001928E-02 0. -1.
       -1   -1    0    0    0  501  0.00000000000E+00  0.00000000000E+00 -0.46460982798E+03  0.46460982801E+03  0.50400001928E-02 0.  1.
    10030    2    1    2    0    0  0.00000000000E+00  0.00000000000E+00  0.81392658813E+02  0.10106123148E+04  0.10073293831E+04 0.  0.
        5    1    3    3  502    0 -0.89350908273E+02 -0.38997654403E+02  0.53642369919E+03  0.54523103076E+03  0.46999998093E+01 0. -1.
       -5    1    3    3    0  502  0.89350908273E+02  0.38997654403E+02 -0.45503104038E+03  0.46538128407E+03  0.46999998093E+01 0.  1.
</event>
<event>
 5   0  0.6022787E-03  0.9996179E+03  0.7818609E-02  0.9308964E-01
       -2   -1    0    0    0  501  0.00000000000E+00  0.00000000000E+00  0.26897791387E+03  0.26897791389E+03  0.25500000920E-02 0. -1.
        2   -1    0    0  501    0  0.00000000000E+00  0.00000000000E+00 -0.92873424520E+03  0.92873424521E+03  0.25500000920E-02 0.  1.
    10030    2    1    2    0    0  0.00000000000E+00  0.00000000000E+00 -0.65975633133E+03  0.11977121591E+04  0.99961792666E+03 0.  0.
        5    1    3    3  502    0  0.39829335511E+03  0.13747082693E+02 -0.69124179398E+03  0.79791220491E+03  0.46999998093E+01 0.  1.
       -5    1    3    3    0  502 -0.39829335511E+03 -0.13747082693E+02  0.31485462655E+02  0.39979995418E+03  0.46999998093E+01 0. -1.
</event>
<event>
 5   0  0.6022787E-03  0.1017571E+04  0.7818609E-02  0.9289481E-01
       -2   -1    0    0    0  501  0.00000000000E+00  0.00000000000E+00  0.36621673452E+03  0.36621673453E+03  0.25500000920E-02 0. -1.
        2   -1    0    0  501    0  0.00000000000E+00  0.00000000000E+00 -0.70685624154E+03  0.70685624155E+03  0.25500000920E-02 0.  1.
    10030    2    1    2    0    0  0.00000000000E+00  0.00000000000E+00 -0.34063950702E+03  0.10730729761E+04  0.10175708026E+04 0.  0.
        5    1    3    3  502    0 -0.16785952967E+03 -0.38934634900E+03 -0.46685681880E+03  0.63067010428E+03  0.46999998093E+01 0.  1.
       -5    1    3    3    0  502  0.16785952967E+03  0.38934634900E+03  0.12621731177E+03  0.44240287179E+03  0.46999998093E+01 0. -1.
</event>
<event>
 5   0  0.6022787E-03  0.9965114E+03  0.7818609E-02  0.9312379E-01
        2   -1    0    0  501    0  0.00000000000E+00  0.00000000000E+00  0.91157656812E+03  0.91157656812E+03  0.25500000920E-02 0.  1.
       -2   -1    0    0    0  501  0.00000000000E+00  0.00000000000E+00 -0.27233997360E+03  0.27233997361E+03  0.25500000920E-02 0. -1.
    10030    2    1    2    0    0  0.00000000000E+00  0.00000000000E+00  0.63923659452E+03  0.11839165417E+04  0.99651139181E+03 0.  0.
        5    1    3    3  502    0  0.16033518123E+03  0.33647836463E+03 -0.73182104326E+02  0.37987204503E+03  0.46999998093E+01 0. -1.
       -5    1    3    3    0  502 -0.16033518123E+03 -0.33647836463E+03  0.71241869885E+03  0.80404449670E+03  0.46999998093E+01 0.  1.
</event>
<event>
 5   0  0.3569359E-03  0.9951250E+03  0.7818609E-02  0.9313908E-01
        1   -1    0    0  501    0  0.00000000000E+00  0.00000000000E+00  0.45252797566E+03  0.45252797569E+03  0.50400001928E-02 0. -1.
       -1   -1    0    0    0  501  0.00000000000E+00  0.00000000000E+00 -0.54707879189E+03  0.54707879191E+03  0.50400001928E-02 0.  1.
    10030    2    1    2    0    0  0.00000000000E+00  0.00000000000E+00 -0.94550816234E+02  0.99960676760E+03  0.99512503384E+03 0.  0.
        4    1    3    3  502    0 -0.39259744560E+03  0.25704713967E+03  0.11888073414E+03  0.48408700474E+03  0.12699999809E+01 0. -1.
       -4    1    3    3    0  502  0.39259744560E+03 -0.25704713967E+03 -0.21343155037E+03  0.51551976286E+03  0.12699999809E+01 0.  1.
</event>
<event>
 5   0  0.6199539E-03  0.9957336E+03  0.7818609E-02  0.9313236E-01
       -2   -1    0    0    0  501  0.00000000000E+00  0.00000000000E+00  0.39463017648E+03  0.39463017648E+03  0.25500000920E-02 0. -1.
        2   -1    0    0  501    0  0.00000000000E+00  0.00000000000E+00 -0.62811054280E+03  0.62811054281E+03  0.25500000920E-02 0.  1.
    10030    2    1    2    0    0  0.00000000000E+00  0.00000000000E+00 -0.23348036633E+03  0.10227407193E+04  0.99573364784E+03 0.  0.
        2    1    3    3  502    0  0.56415275566E+02 -0.46223783377E+03 -0.29765635596E+03  0.55267151594E+03  0.25500000920E-02 0.  1.
       -2    1    3    3    0  502 -0.56415275566E+02  0.46223783377E+03  0.64175989632E+02  0.47006920335E+03  0.25500000920E-02 0. -1.
</event>
<event>
 5   0  0.6376961E-03  0.1022809E+04  0.7818609E-02  0.9283876E-01
        2   -1    0    0  501    0  0.00000000000E+00  0.00000000000E+00  0.12248936772E+04  0.12248936772E+04  0.25500000920E-02 0. -1.
       -2   -1    0    0    0  501  0.00000000000E+00  0.00000000000E+00 -0.21351607135E+03  0.21351607137E+03  0.25500000920E-02 0.  1.
    10030    2    1    2    0    0  0.00000000000E+00  0.00000000000E+00  0.10113776058E+04  0.14384097485E+04  0.10228088498E+04 0.  0.
        3    1    3    3  502    0 -0.22996699501E+01  0.19657338958E+03 -0.15825538213E+03  0.25237108026E+03  0.10100000352E+00 0.  1.
       -3    1    3    3    0  502  0.22996699501E+01 -0.19657338958E+03  0.11696329879E+04  0.11860386683E+04  0.10100000352E+00 0. -1.
</event>
<event>
 5   0  0.3608845E-03  0.1003901E+04  0.7818609E-02  0.9304277E-01
        1   -1    0    0  501    0  0.00000000000E+00  0.00000000000E+00  0.46568029997E+03  0.46568030000E+03  0.50400001928E-02 0. -1.
       -1   -1    0    0    0  501  0.00000000000E+00  0.00000000000E+00 -0.54104552207E+03  0.54104552210E+03  0.50400001928E-02 0.  1.
    10030    2    1    2    0    0  0.00000000000E+00  0.00000000000E+00 -0.75365222105E+02  0.10067258221E+04  0.10039008737E+04 0.  0.
        1    1    3    3  502    0  0.27948684866E+03 -0.39982667515E+03 -0.15625225922E+03  0.51223923832E+03  0.50400001928E-02 0.  1.
       -1    1    3    3    0  502 -0.27948684866E+03  0.39982667515E+03  0.80887037111E+02  0.49448658378E+03  0.50400001928E-02 0. -1.
</event>
<event>
 5   0  0.6376961E-03  0.9932398E+03  0.7818609E-02  0.9315990E-01
       -2   -1    0    0    0  501  0.00000000000E+00  0.00000000000E+00  0.40386938997E+03  0.40386938998E+03  0.25500000920E-02 0.  1.
        2   -1    0    0  501    0  0.00000000000E+00  0.00000000000E+00 -0.61067104359E+03  0.61067104360E+03  0.25500000920E-02 0. -1.
    10030    2    1    2    0    0  0.00000000000E+00  0.00000000000E+00 -0.20680165362E+03  0.10145404336E+04  0.99323983379E+03 0.  0.
        3    1    3    3  502    0  0.26560169740E+03 -0.55663998123E+02 -0.52823941809E+03  0.59386836536E+03  0.10100000352E+00 0. -1.
       -3    1    3    3    0  502 -0.26560169740E+03  0.55663998123E+02  0.32143776447E+03  0.42067206822E+03  0.10100000352E+00 0.  1.
</event>
<event>
 5   0  0.3569359E-03  0.1010936E+04  0.7818609E-02  0.9296631E-01
        1   -1    0    0  501    0  0.00000000000E+00  0.00000000000E+00  0.11803653544E+04  0.11803653544E+04  0.50400001928E-02 0.  1.
       -1   -1    0    0    0  501  0.00000000000E+00  0.00000000000E+00 -0.21645663634E+03  0.21645663640E+03  0.50400001928E-02 0. -1.
    10030    2    1    2    0    0  0.00000000000E+00  0.00000000000E+00  0.96390871802E+03  0.13968219908E+04  0.10109360302E+04 0.  0.
        4    1    3    3  502    0 -0.47741037122E+03  0.15396246121E+03  0.39598569864E+03  0.63908637009E+03  0.12699999809E+01 0. -1.
       -4    1    3    3    0  502  0.47741037122E+03 -0.15396246121E+03  0.56792301938E+03  0.75773562068E+03  0.12699999809E+01 0.  1.
</event>
<event>
 5   0  0.6022787E-03  0.9919087E+03  0.7818609E-02  0.9317464E-01
       -2   -1    0    0    0  501  0.00000000000E+00  0.00000000000E+00  0.15731209799E+03  0.15731209801E+03  0.25500000920E-02 0.  1.
        2   -1    0    0  501    0  0.00000000000E+00  0.00000000000E+00 -0.15635841894E+04  0.15635841894E+04  0.25500000920E-02 0. -1.
    10030    2    1    2    0    0  0.00000000000E+00  0.00000000000E+00 -0.14062720914E+04  0.17208962874E+04  0.99190868376E+03 0.  0.
        5    1    3    3  502    0 -0.11385157234E+03 -0.10526936874E+03  0.11413545033E+03  0.19259494163E+03  0.46999998093E+01 0.  1.
       -5    1    3    3    0  502  0.11385157234E+03  0.10526936874E+03 -0.15204075417E+04  0.15283013458E+04  0.46999998093E+01 0. -1.
</event>
<event>
 5   0  0.3466598E-03  0.1007902E+04  0.7818609E-02  0.9299920E-01
        1   -1    0    0  501    0  0.00000000000E+00  0.00000000000E+00  0.72139512298E+03  0.72139512300E+03  0.50400001928E-02 0.  1.
       -1   -1    0    0    0  501  0.00000000000E+00  0.00000000000E+00 -0.35204926418E+03  0.35204926422E+03  0.50400001928E-02 0. -1.
    10030    2    1    2    0    0  0.00000000000E+00  0.00000000000E+00  0.36934585880E+03  0.10734443872E+04  0.10079020235E+04 0.  0.
        3    1    3    3  502    0  0.33813819227E+03 -0.15817423712E+03 -0.17588300749E+03  0.41266374797E+03  0.10100000352E+00 0. -1.
       -3    1    3    3    0  502 -0.33813819227E+03  0.15817423712E+03  0.54522886629E+03  0.66078063924E+03  0.10100000352E+00 0.  1.
</event>
<event>
 5   0  0.6199539E-03  0.9912071E+03  0.7818609E-02  0.9318242E-01
       -2   -1    0    0    0  501  0.00000000000E+00  0.00000000000E+00  0.21636738981E+03  0.21636738983E+03  0.25500000920E-02 0.  1.
        2   -1    0    0  501    0  0.00000000000E+00  0.00000000000E+00 -0.11352121261E+04  0.11352121261E+04  0.25500000920E-02 0. -1.
    10030    2    1    2    0    0  0.00000000000E+00  0.00000000000E+00 -0.91884473633E+03  0.13515795160E+04  0.99120711181E+03 0.  0.
        2    1    3    3  502    0 -0.48200048662E+03  0.11394085613E+03 -0.43518698887E+03  0.65931381230E+03  0.25500000920E-02 0.  1.
       -2    1    3    3    0  502  0.48200048662E+03 -0.11394085613E+03 -0.48365774746E+03  0.69226570367E+03  0.25500000920E-02 0. -1.
</event>
<event>
 5   0  0.3640180E-03  0.1007796E+04  0.7818609E-02  0.9300036E-01
        1   -1    0    0  501    0  0.00000000000E+00  0.00000000000E+00  0.11042304733E+04  0.11042304733E+04  0.50400001928E-02 0. -1.
       -1   -1    0    0    0  501  0.00000000000E+00  0.00000000000E+00 -0.22994571488E+03  0.22994571494E+03  0.50400001928E-02 0.  1.
    10030    2    1    2    0    0  0.00000000000E+00  0.00000000000E+00  0.87428475843E+03  0.13341761883E+04  0.10077957444E+04 0.  0.
        5    1    3    3  502    0  0.19355744157E+03  0.46517935475E+03  0.44493632131E+03  0.67219545914E+03  0.46999998093E+01 0. -1.
       -5    1    3    3    0  502 -0.19355744157E+03 -0.46517935475E+03  0.42934843712E+03  0.66198072912E+03  0.46999998093E+01 0.  1.
</event>
<event>
 5   0  0.3643002E-03  0.1031859E+04  0.7818609E-02  0.9274277E-01
       -1   -1    0    0    0  501  0.00000000000E+00  0.00000000000E+00  0.12034656245E+04  0.12034656245E+04  0.50400001928E-02 0.  1.
        1   -1    0    0  501    0  0.00000000000E+00  0.00000000000E+00 -0.22118041967E+03  0.22118041973E+03  0.50400001928E-02 0. -1.
    10030    2    1    2    0    0  0.00000000000E+00  0.00000000000E+00  0.98228520479E+03  0.14246460442E+04  0.10318585793E+04 0.  0.
        2    1    3    3  502    0  0.15822724606E+03 -0.35870794941E+03  0.95418024585E+03  0.10315847982E+04  0.25500000920E-02 0.  1.
       -2    1    3    3    0  502 -0.15822724606E+03  0.35870794941E+03  0.28104958940E+02  0.39306124597E+03  0.25500000920E-02 0. -1.
</event>
<event>
 5   0  0.3640180E-03  0.1013720E+04  0.7818609E-02  0.9293624E-01
       -1   -1    0    0    0  501  0.00000000000E+00  0.00000000000E+00  0.42841458621E+03  0.42841458624E+03  0.50400001928E-02 0.  1.
        1   -1    0    0  501    0  0.00000000000E+00  0.00000000000E+00 -0.59966880929E+03  0.59966880931E+03  0.50400001928E-02 0. -1.
    10030    2    1    2    0    0  0.00000000000E+00  0.00000000000E+00 -0.17125422308E+03  0.10280833956E+04  0.10137196157E+04 0.  0.
        5    1    3    3  502    0 -0.46380723326E+02 -0.22453538709E+03 -0.54404677569E+03  0.59040350244E+03  0.46999998093E+01 0. -1.
       -5    1    3    3    0  502  0.46380723326E+02  0.22453538709E+03  0.37279255262E+03  0.43767989311E+03  0.46999998093E+01 0.  1.
</event>
<event>
 5   0  0.6022787E-03  0.1001641E+04  0.7818609E-02  0.9306747E-01
       -2   -1    0    0    0  501  0.00000000000E+00  0.00000000000E+00  0.24453286002E+03  0.24453286003E+03  0.25500000920E-02 0.  1.
        2   -1    0    0  501    0  0.00000000000E+00  0.00000000000E+00 -0.10257154385E+04  0.10257154385E+04  0.25500000920E-02 0. -1.
    10030    2    1    2    0    0  0.00000000000E+00  0.00000000000E+00 -0.78118257850E+03  0.12702482985E+04  0.10016409132E+04 0.  0.
        5    1    3    3  502    0 -0.59234729364E+01  0.33542276416E+03  0.80947917672E+02  0.34513500782E+03  0.46999998093E+01 0.  1.
       -5    1    3    3    0  502  0.59234729364E+01 -0.33542276416E+03 -0.86213049617E+03  0.92511329073E+03  0.46999998093E+01 0. -1.
</event>
<event>
 5   0  0.3640180E-03  0.1001744E+04  0.7818609E-02  0.9306634E-01
       -1   -1    0    0    0  501  0.00000000000E+00  0.00000000000E+00  0.42634971884E+03  0.42634971887E+03  0.50400001928E-02 0.  1.
        1   -1    0    0  501    0  0.00000000000E+00  0.00000000000E+00 -0.58842014147E+03  0.58842014149E+03  0.50400001928E-02 0. -1.
    10030    2    1    2    0    0  0.00000000000E+00  0.00000000000E+00 -0.16207042263E+03  0.10147698604E+04  0.10017440030E+04 0.  0.
        5    1    3    3  502    0  0.24452915396E+03 -0.43693347243E+03 -0.93246225707E+02  0.50933516968E+03  0.46999998093E+01 0. -1.
       -5    1    3    3    0  502 -0.24452915396E+03  0.43693347243E+03 -0.68824196919E+02  0.50543469068E+03  0.46999998093E+01 0.  1.
</event>
<event>
 5   0  0.6606947E-03  0.1007353E+04  0.7818609E-02  0.9300517E-01
        2   -1    0    0  501    0  0.00000000000E+00  0.00000000000E+00  0.12159847797E+04  0.12159847797E+04  0.25500000920E-02 0. -1.
       -2   -1    0    0    0  501  0.00000000000E+00  0.00000000000E+00 -0.20862928031E+03  0.20862928033E+03  0.25500000920E-02 0.  1.
    10030    2    1    2    0    0  0.00000000000E+00  0.00000000000E+00  0.10073554994E+04  0.14246140600E+04  0.10073530255E+04 0.  0.
        1    1    3    3  502    0  0.43181319056E+03 -0.18784381947E+03  0.25092421027E+03  0.53358306886E+03  0.50400001928E-02 0.  1.
       -1    1    3    3    0  502 -0.43181319056E+03  0.18784381947E+03  0.75643128910E+03  0.89103099116E+03  0.50400001928E-02 0. -1.
</event>
<event>
 5   0  0.6022787E-03  0.9922001E+03  0.7818609E-02  0.9317141E-01
        2   -1    0    0  501    0  0.00000000000E+00  0.00000000000E+00  0.97697837423E+03  0.97697837423E+03  0.25500000920E-02 0.  1.
       -2   -1    0    0    0  501  0.00000000000E+00  0.00000000000E+00 -0.25191472977E+03  0.25191472978E+03  0.25500000920E-02 0. -1.
    10030    2    1    2    0    0  0.00000000000E+00  0.00000000000E+00  0.72506364446E+03  0.12288931040E+04  0.99220006680E+03 0.  0.
        5    1    3    3  502    0  0.42208056751E+02 -0.47134361150E+03  0.54685106200E+03  0.72319741024E+03  0.46999998093E+01 0.  1.
       -5    1    3    3    0  502 -0.42208056751E+02  0.47134361150E+03  0.17821258246E+03  0.50569569378E+03  0.46999998093E+01 0. -1.
</event>
<event>
 5   0  0.6022787E-03  0.1007230E+04  0.7818609E-02  0.9300650E-01
       -2   -1    0    0    0  501  0.00000000000E+00  0.00000000000E+00  0.64363883539E+03  0.64363883539E+03  0.25500000920E-02 0.  1.
        2   -1    0    0  501    0  0.00000000000E+00  0.00000000000E+00 -0.39405346474E+03  0.39405346475E+03  0.25500000920E-02 0. -1.
    10030    2    1    2    0    0  0.00000000000E+00  0.00000000000E+00  0.24958537065E+03  0.10376923001E+04  0.10072300892E+04 0.  0.
        5    1    3    3  502    0  0.17265175602E+03  0.82291189166E+02 -0.35515659011E+03  0.40340892674E+03  0.46999998093E+01 0. -1.
       -5    1    3    3    0  502 -0.17265175602E+03 -0.82291189166E+02  0.60474196076E+03  0.63428337340E+03  0.46999998093E+01 0.  1.
</event>
<event>
 5   0  0.3466598E-03  0.9970136E+03  0.7818609E-02  0.9311826E-01
       -1   -1    0    0    0  501  0.00000000000E+00  0.00000000000E+00  0.31579797710E+03  0.31579797714E+03  0.50400001928E-02 0. -1.
        1   -1    0    0  501    0  0.00000000000E+00  0.00000000000E+00 -0.78692405034E+03  0.78692405035E+03  0.50400001928E-02 0.  1.
    10030    2    1    2    0    0  0.00000000000E+00  0.00000000000E+00 -0.47112607324E+03  0.11027220275E+04  0.99701358718E+03 0.  0.
        3    1    3    3  502    0 -0.11332016847E+03  0.39654941036E+03  0.74155815752E+02  0.41903698005E+03  0.10100000352E+00 0. -1.
       -3    1    3    3    0  502  0.11332016847E+03 -0.39654941036E+03 -0.54528188899E+03  0.68368504744E+03  0.10100000352E+00 0.  1.
</event>
<event>
 5   0  0.3640180E-03  0.9928985E+03  0.7818609E-02  0.9316368E-01
       -1   -1    0    0    0  501  0.00000000000E+00  0.00000000000E+00  0.16997513372E+03  0.16997513380E+03  0.50400001928E-02 0. -1.
        1   -1    0    0  501    0  0.00000000000E+00  0.00000000000E+00 -0.14499877496E+04  0.14499877496E+04  0.50400001928E-02 0.  1.
    10030    2    1    2    0    0  0.00000000000E+00  0.00000000000E+00 -0.12800126159E+04  0.16199628834E+04  0.99289850781E+03 0.  0.
        5    1    3    3  502    0 -0.34842080988E+03  0.35310977328E+03 -0.67079892006E+03  0.83431220409E+03  0.46999998093E+01 0.  1.
       -5    1    3    3    0  502  0.34842080988E+03 -0.35310977328E+03 -0.60921369585E+03  0.78565067935E+03  0.46999998093E+01 0. -1.
</event>
<event>
 5   0  0.6022787E-03  0.9895253E+03  0.7818609E-02  0.9320108E-01
        2   -1    0    0  501    0  0.00000000000E+00  0.00000000000E+00  0.65425408540E+03  0.65425408540E+03  0.25500000920E-02 0.  1.
       -2   -1    0    0    0  501  0.00000000000E+00  0.00000000000E+00 -0.37415136237E+03  0.37415136237E+03  0.25500000920E-02 0. -1.
    10030    2    1    2    0    0  0.00000000000E+00  0.00000000000E+00  0.28010272303E+03  0.10284054478E+04  0.98952525464E+03 0.  0.
        5    1    3    3  502    0 -0.95092190467E+02  0.48521444388E+03  0.12228019693E+03  0.50936246210E+03  0.46999998093E+01 0.  1.
       -5    1    3    3    0  502  0.95092190467E+02 -0.48521444388E+03  0.15782252610E+03  0.51904298568E+03  0.46999998093E+01 0. -1.
</event>
<event>
 5   0  0.3569359E-03  0.9982180E+03  0.7818609E-02  0.9310501E-01
       -1   -1    0    0    0  501  0.00000000000E+00  0.00000000000E+00  0.19290775232E+03  0.19290775238E+03  0.50400001928E-02 0. -1.
        1   -1    0    0  501    0  0.00000000000E+00  0.00000000000E+00 -0.12913415663E+04  0.12913415663E+04  0.50400001928E-02 0.  1.
    10030    2    1    2    0    0  0.00000000000E+00  0.00000000000E+00 -0.10984338140E+04  0.14842493187E+04  0.99821801042E+03 0.  0.
        4    1    3    3  502    0  0.18497202436E+03 -0.44853063142E+03 -0.72334165706E+03  0.87098745276E+03  0.12699999809E+01 0.  1.
       -4    1    3    3    0  502 -0.18497202436E+03  0.44853063142E+03 -0.37509215689E+03  0.61326186591E+03  0.12699999809E+01 0. -1.
</event>
<event>
 5   0  0.6606947E-03  0.9981170E+03  0.7818609E-02  0.9310612E-01
        2   -1    0    0  501    0  0.00000000000E+00  0.00000000000E+00  0.12419925578E+04  0.12419925578E+04  0.25500000920E-02 0. -1.
       -2   -1    0    0    0  501  0.00000000000E+00  0.00000000000E+00 -0.20053209616E+03  0.20053209618E+03  0.25500000920E-02 0.  1.
    10030    2    1    2    0    0  0.00000000000E+00  0.00000000000E+00  0.10414604616E+04  0.14425246540E+04  0.99811696920E+03 0.  0.
        1    1    3    3  502    0  0.26707479426E+03 -0.38926385718E+02  0.11274154883E+04  0.11592712765E+04  0.50400001928E-02 0. -1.
       -1    1    3    3    0  502 -0.26707479426E+03  0.38926385718E+02 -0.85955026650E+02  0.28325337750E+03  0.50400001928E-02 0.  1.
</event>
<event>
 5   0  0.3640180E-03  0.1024588E+04  0.7818609E-02  0.9281981E-01
       -1   -1    0    0    0  501  0.00000000000E+00  0.00000000000E+00  0.34423332658E+03  0.34423332661E+03  0.50400001928E-02 0.  1.
        1   -1    0    0  501    0  0.00000000000E+00  0.00000000000E+00 -0.76240431212E+03  0.76240431214E+03  0.50400001928E-02 0. -1.
    10030    2    1    2    0    0  0.00000000000E+00  0.00000000000E+00 -0.41817098554E+03  0.11066376387E+04  0.10245876685E+04 0.  0.
        5    1    3    3  502    0  0.33814464653E+03 -0.14807492346E+03 -0.59271179043E+03  0.69828170637E+03  0.46999998093E+01 0. -1.
       -5    1    3    3    0  502 -0.33814464653E+03  0.14807492346E+03  0.17454080489E+03  0.40835593238E+03  0.46999998093E+01 0.  1.
</event>
<event>
 5   0  0.3608845E-03  0.1012332E+04  0.7818609E-02  0.9295122E-01
        1   -1    0    0  501    0  0.00000000000E+00  0.00000000000E+00  0.96612737660E+03  0.96612737661E+03  0.50400001928E-02 0. -1.
       -1   -1    0    0    0  501  0.00000000000E+00  0.00000000000E+00 -0.26518643120E+03  0.26518643125E+03  0.50400001928E-02 0.  1.
    10030    2    1    2    0    0  0.00000000000E+00  0.00000000000E+00  0.70094094540E+03  0.12313138079E+04  0.10123317068E+04 0.  0.
        1    1    3    3  502    0 -0.26366132521E+03  0.36204652003E+01 -0.17504705926E+03  0.31649940783E+03  0.50400001928E-02 0.  1.
       -1    1    3    3    0  502  0.26366132521E+03 -0.36204652003E+01  0.87598800466E+03  0.91481440003E+03  0.50400001928E-02 0. -1.
</event>
<event>
 5   0  0.3608845E-03  0.9854831E+03  0.7818609E-02  0.9324612E-01
       -1   -1    0    0    0  501  0.00000000000E+00  0.00000000000E+00  0.23319435325E+03  0.23319435330E+03  0.50400001928E-02 0. -1.
        1   -1    0    0  501    0  0.00000000000E+00  0.00000000000E+00 -0.10411668198E+04  0.10411668198E+04  0.50400001928E-02 0.  1.
    10030    2    1    2    0    0  0.00000000000E+00  0.00000000000E+00 -0.80797246656E+03  0.12743611731E+04  0.98548307588E+03 0.  0.
        1    1    3    3  502    0  0.37435272592E+03  0.13084098695E+03 -0.78218057444E+03  0.87696395498E+03  0.50400001928E-02 0.  1.
       -1    1    3    3    0  502 -0.37435272592E+03 -0.13084098695E+03 -0.25791892119E+02  0.39739721815E+03  0.50400001928E-02 0. -1.
</event>
<event>
 5   0  0.3569359E-03  0.1036954E+04  0.7818609E-02  0.9268918E-01
       -1   -1    0    0    0  501  0.00000000000E+00  0.00000000000E+00  0.62994764138E+03  0.62994764140E+03  0.50400001928E-02 0. -1.
        1   -1    0    0  501    0  0.00000000000E+00  0.00000000000E+00 -0.42673147368E+03  0.42673147371E+03  0.50400001928E-02 0.  1.
    10030    2    1    2    0    0  0.00000000000E+00  0.00000000000E+00  0.20321616770E+03  0.10566791151E+04  0.10369541656E+04 0.  0.
        4    1    3    3  502    0  0.29154522109E+03 -0.93332146838E+01  0.53840036712E+03  0.61234164733E+03  0.12699999809E+01 0. -1.
       -4    1    3    3    0  502 -0.29154522109E+03  0.93332146838E+01 -0.33518419942E+03  0.44433746779E+03  0.12699999809E+01 0.  1.
</event>
<event>
 5   0  0.6360455E-03  0.9901718E+03  0.7818609E-02  0.9319390E-01
       -2   -1    0    0    0  501  0.00000000000E+00  0.00000000000E+00  0.63069358975E+03  0.63069358976E+03  0.25500000920E-02 0. -1.
        2   -1    0    0  501    0  0.00000000000E+00  0.00000000000E+00 -0.38863570014E+03  0.38863570015E+03  0.25500000920E-02 0.  1.
    10030    2    1    2    0    0  0.00000000000E+00  0.00000000000E+00  0.24205788962E+03  0.10193292899E+04  0.99017179284E+03 0.  0.
        4    1    3    3  502    0 -0.26316323623E+03  0.33853957025E+03 -0.13373473222E+03  0.44916647363E+03  0.12699999809E+01 0.  1.
       -4    1    3    3    0  502  0.26316323623E+03 -0.33853957025E+03  0.37579262184E+03  0.57016281627E+03  0.12699999809E+01 0. -1.
</event>
<event>
 5   0  0.6376961E-03  0.8673770E+03  0.7818609E-02  0.9467306E-01
        2   -1    0    0  501    0  0.00000000000E+00  0.00000000000E+00  0.12577319976E+04  0.12577319976E+04  0.25500000920E-02 0.  1.
       -2   -1    0    0    0  501  0.00000000000E+00  0.00000000000E+00 -0.14954355611E+03  0.14954355613E+03  0.25500000920E-02 0. -1.
    10030    2    1    2    0    0  0.00000000000E+00  0.00000000000E+00  0.11081884415E+04  0.14072755537E+04  0.86737700123E+03 0.  0.
        3    1    3    3  502    0 -0.59133569640E+02  0.34483128720E+02  0.12489116712E+04  0.12507862479E+04  0.10100000352E+00 0.  1.
       -3    1    3    3    0  502  0.59133569640E+02 -0.34483128720E+02 -0.14072322978E+03  0.15648930578E+03  0.10100000352E+00 0. -1.
</event>
<event>
 5   0  0.3569359E-03  0.1003586E+04  0.7818609E-02  0.9304620E-01
        1   -1    0    0  501    0  0.00000000000E+00  0.00000000000E+00  0.88586993474E+03  0.88586993475E+03  0.50400001928E-02 0. -1.
       -1   -1    0    0    0  501  0.00000000000E+00  0.00000000000E+00 -0.28423632606E+03  0.28423632611E+03  0.50400001928E-02 0.  1.
    10030    2    1    2    0    0  0.00000000000E+00  0.00000000000E+00  0.60163360868E+03  0.11701062609E+04  0.10035864002E+04 0.  0.
        4    1    3    3  502    0  0.36306004300E+03  0.11994671611E+03 -0.78054923877E+02  0.39024863045E+03  0.12699999809E+01 0.  1.
       -4    1    3    3    0  502 -0.36306004300E+03 -0.11994671611E+03  0.67968853255E+03  0.77985763041E+03  0.12699999809E+01 0. -1.
</event>
<event>
 5   0  0.6022787E-03  0.1014657E+04  0.7818609E-02  0.9292614E-01
        2   -1    0    0  501    0  0.00000000000E+00  0.00000000000E+00  0.49163535190E+03  0.49163535191E+03  0.25500000920E-02 0. -1.
       -2   -1    0    0    0  501  0.00000000000E+00  0.00000000000E+00 -0.52352260792E+03  0.52352260793E+03  0.25500000920E-02 0.  1.
    10030    2    1    2    0    0  0.00000000000E+00  0.00000000000E+00 -0.31887256024E+02  0.10151579598E+04  0.10146570289E+04 0.  0.
        5    1    3    3  502    0  0.23425373416E+03 -0.44919854985E+03  0.10639819467E+02  0.50674396386E+03  0.46999998093E+01 0. -1.
       -5    1    3    3    0  502 -0.23425373416E+03  0.44919854985E+03 -0.42527075491E+02  0.50841399598E+03  0.46999998093E+01 0.  1.
</event>
<event>
 5   0  0.6376961E-03  0.1005893E+04  0.7818609E-02  0.9302104E-01
        2   -1    0    0  501    0  0.00000000000E+00  0.00000000000E+00  0.19987234287E+03  0.19987234289E+03  0.25500000920E-02 0. -1.
       -2   -1    0    0    0  501  0.00000000000E+00  0.00000000000E+00 -0.12655848920E+04  0.12655848920E+04  0.25500000920E-02 0.  1.
    10030    2    1    2    0    0  0.00000000000E+00  0.00000000000E+00 -0.10657125491E+04  0.14654572349E+04  0.10058934685E+04 0.  0.
        3    1    3    3  502    0  0.49867553908E+03 -0.10965247215E+02 -0.43891488086E+03  0.66441238155E+03  0.10100000352E+00 0. -1.
       -3    1    3    3    0  502 -0.49867553908E+03  0.10965247215E+02 -0.62679766829E+03  0.80104485336E+03  0.10100000352E+00 0.  1.
</event>
<event>
 5   0  0.6360455E-03  0.1001159E+04  0.7818609E-02  0.9307275E-01
        2   -1    0    0  501    0  0.00000000000E+00  0.00000000000E+00  0.96912615019E+03  0.96912615020E+03  0.25500000920E-02 0.  1.
       -2   -1    0    0    0  501  0.00000000000E+00  0.00000000000E+00 -0.25856255383E+03  0.25856255384E+03  0.25500000920E-02 0. -1.
    10030    2    1    2    0    0  0.00000000000E+00  0.00000000000E+00  0.71056359636E+03  0.12276887040E+04  0.10011587934E+04 0.  0.
        4    1    3    3  502    0  0.32595445801E+03 -0.16610226287E+03 -0.63703300643E+02  0.37134349845E+03  0.12699999809E+01 0. -1.
       -4    1    3    3    0  502 -0.32595445801E+03  0.16610226287E+03  0.77426689701E+03  0.85634520559E+03  0.12699999809E+01 0.  1.
</event>
<event>
 5   0  0.6199539E-03  0.1003804E+04  0.7818609E-02  0.9304382E-01
       -2   -1    0    0    0  501  0.00000000000E+00  0.00000000000E+00  0.50500254980E+03  0.50500254980E+03  0.25500000920E-02 0.  1.
        2   -1    0    0  501    0  0.00000000000E+00  0.00000000000E+00 -0.49882067377E+03  0.49882067377E+03  0.25500000920E-02 0. -1.
    10030    2    1    2    0    0  0.00000000000E+00  0.00000000000E+00  0.61818760287E+01  0.10038232236E+04  0.10038041884E+04 0.  0.
        2    1    3    3  502    0 -0.30011344543E+03 -0.16788748652E+03 -0.36249967020E+03  0.49966018368E+03  0.25500000920E-02 0. -1.
       -2    1    3    3    0  502  0.30011344543E+03  0.16788748652E+03  0.36868154623E+03  0.50416303989E+03  0.25500000920E-02 0.  1.
</event>
<event>
 5   0  0.6199539E-03  0.1008441E+04  0.7818609E-02  0.9299335E-01
        2   -1    0    0  501    0  0.00000000000E+00  0.00000000000E+00  0.10914927376E+04  0.10914927376E+04  0.25500000920E-02 0. -1.
       -2   -1    0    0    0  501  0.00000000000E+00  0.00000000000E+00 -0.23292723678E+03  0.23292723679E+03  0.25500000920E-02 0.  1.
    10030    2    1    2    0    0  0.00000000000E+00  0.00000000000E+00  0.85856550087E+03  0.13244199744E+04  0.10084411482E+04 0.  0.
        2    1    3    3  502    0 -0.21577421451E+03 -0.50970109351E+02 -0.16547328110E+03  0.27665478572E+03  0.25500000920E-02 0.  1.
       -2    1    3    3    0  502  0.21577421451E+03  0.50970109351E+02  0.10240387820E+04  0.10477651887E+04  0.25500000920E-02 0. -1.
</event>
<event>
 5   0  0.6199539E-03  0.1025389E+04  0.7818609E-02  0.9281129E-01
       -2   -1    0    0    0  501  0.00000000000E+00  0.00000000000E+00  0.59321510504E+03  0.59321510504E+03  0.25500000920E-02 0. -1.
        2   -1    0    0  501    0  0.00000000000E+00  0.00000000000E+00 -0.44310308372E+03  0.44310308373E+03  0.25500000920E-02 0.  1.
    10030    2    1    2    0    0  0.00000000000E+00  0.00000000000E+00  0.15011202132E+03  0.10363181888E+04  0.10253885944E+04 0.  0.
        2    1    3    3  502    0  0.58934402721E+02  0.24238780786E+03 -0.37763610548E+03  0.45258605966E+03  0.25500000920E-02 0.  1.
       -2    1    3    3    0  502 -0.58934402721E+02 -0.24238780786E+03  0.52774812680E+03  0.58373212912E+03  0.25500000920E-02 0. -1.
</event>
<event>
 5   0  0.6376961E-03  0.1003463E+04  0.7818609E-02  0.9304755E-01
        2   -1    0    0  501    0  0.00000000000E+00  0.00000000000E+00  0.17152138910E+04  0.17152138910E+04  0.25500000920E-02 0.  1.
       -2   -1    0    0    0  501  0.00000000000E+00  0.00000000000E+00 -0.14676564722E+03  0.14676564724E+03  0.25500000920E-02 0. -1.
    10030    2    1    2    0    0  0.00000000000E+00  0.00000000000E+00  0.15684482438E+04  0.18619795382E+04  0.10034629577E+04 0.  0.
        3    1    3    3  502    0  0.33911482351E+03  0.14011646934E+03  0.14192004408E+04  0.14658654064E+04  0.10100000352E+00 0.  1.
       -3    1    3    3    0  502 -0.33911482351E+03 -0.14011646934E+03  0.14924780299E+03  0.39611413179E+03  0.10100000352E+00 0. -1.
</event>
<event>
 5   0  0.6360455E-03  0.9931272E+03  0.7818609E-02  0.9316115E-01
        2   -1    0    0  501    0  0.00000000000E+00  0.00000000000E+00  0.21394714340E+04  0.21394714340E+04  0.25500000920E-02 0.  1.
       -2   -1    0    0    0  501  0.00000000000E+00  0.00000000000E+00 -0.11525061923E+03  0.11525061926E+03  0.25500000920E-02 0. -1.
    10030    2    1    2    0    0  0.00000000000E+00  0.00000000000E+00  0.20242208147E+04  0.22547220532E+04  0.99312719755E+03 0.  0.
        4    1    3    3  502    0  0.18446115211E+03 -0.24514968114E+03  0.12566671054E+03  0.33153886324E+03  0.12699999809E+01 0. -1.
       -4    1    3    3    0  502 -0.18446115211E+03  0.24514968114E+03  0.18985541042E+04  0.19231831900E+04  0.12699999809E+01 0.  1.
</event>
<event>
 5   0  0.6606947E-03  0.9240047E+03  0.7818609E-02  0.9396062E-01
        2   -1    0    0  501    0  0.00000000000E+00  0.00000000000E+00  0.50777371802E+03  0.50777371803E+03  0.25500000920E-02 0. -1.
       -2   -1    0    0    0  501  0.00000000000E+00  0.00000000000E+00 -0.42035686286E+03  0.42035686287E+03  0.25500000920E-02 0.  1.
    10030    2    1    2    0    0  0.00000000000E+00  0.00000000000E+00  0.87416855162E+02  0.92813058090E+03  0.92400469081E+03 0.  0.
        1    1    3    3  502    0  0.35957838362E+03  0.20849300761E+02  0.33433557798E+03  0.49143828304E+03  0.50400001928E-02 0. -1.
       -1    1    3    3    0  502 -0.35957838362E+03 -0.20849300761E+02 -0.24691872281E+03  0.43669229786E+03  0.50400001928E-02 0.  1.
</event>
<event>
 5   0  0.3608845E-03  0.9437802E+03  0.7818609E-02  0.9372450E-01
       -1   -1    0    0    0  501  0.00000000000E+00  0.00000000000E+00  0.10740212459E+04  0.10740212459E+04  0.50400001928E-02 0.  1.
        1   -1    0    0  501    0  0.00000000000E+00  0.00000000000E+00 -0.20733318852E+03  0.20733318858E+03  0.50400001928E-02 0. -1.
    10030    2    1    2    0    0  0.00000000000E+00  0.00000000000E+00  0.86668805741E+03  0.12813544345E+04  0.94378016401E+03 0.  0.
        1    1    3    3  502    0  0.10285631669E+03 -0.30817306522E+03  0.89800142427E+03  0.95496419725E+03  0.50400001928E-02 0.  1.
       -1    1    3    3    0  502 -0.10285631669E+03  0.30817306522E+03 -0.31313366864E+02  0.32639023726E+03  0.50400001928E-02 0. -1.
</event>
<event>
 5   0  0.3466598E-03  0.1053262E+04  0.7818609E-02  0.9251982E-01
        1   -1    0    0  501    0  0.00000000000E+00  0.00000000000E+00  0.14093967234E+04  0.14093967234E+04  0.50400001928E-02 0. -1.
       -1   -1    0    0    0  501  0.00000000000E+00  0.00000000000E+00 -0.19677956301E+03  0.19677956308E+03  0.50400001928E-02 0.  1.
    10030    2    1    2    0    0  0.00000000000E+00  0.00000000000E+00  0.12126171604E+04  0.16061762865E+04  0.10532624961E+04 0.  0.
        3    1    3    3  502    0  0.21535932247E+03  0.24584677809E+03  0.12360242307E+04  0.12785054498E+04  0.10100000352E+00 0. -1.
       -3    1    3    3    0  502 -0.21535932247E+03 -0.24584677809E+03 -0.23407070317E+02  0.32767083669E+03  0.10100000352E+00 0.  1.
</event>
<event>
 5   0  0.3608845E-03  0.9970060E+03  0.7818609E-02  0.9311835E-01
       -1   -1    0    0    0  501  0.00000000000E+00  0.00000000000E+00  0.15405518991E+03  0.15405519000E+03  0.50400001928E-02 0. -1.
        1   -1    0    0  501    0  0.00000000000E+00  0.00000000000E+00 -0.16130922290E+04  0.16130922291E+04  0.50400001928E-02 0.  1.
    10030    2    1    2    0    0  0.00000000000E+00  0.00000000000E+00 -0.14590370391E+04  0.17671474191E+04  0.99700597747E+03 0.  0.
        1    1    3    3  502    0  0.46025622272E+03 -0.42273465078E+01 -0.10688477737E+04  0.11637393284E+04  0.50400001928E-02 0.  1.
       -1    1    3    3    0  502 -0.46025622272E+03  0.42273465078E+01 -0.39018926540E+03  0.60340809066E+03  0.50400001928E-02 0. -1.
</event>
<event>
 5   0  0.6360455E-03  0.9981151E+03  0.7818609E-02  0.9310615E-01
       -2   -1    0    0    0  501  0.00000000000E+00  0.00000000000E+00  0.18946497153E+03  0.18946497155E+03  0.25500000920E-02 0. -1.
        2   -1    0    0  501    0  0.00000000000E+00  0.00000000000E+00 -0.13145355670E+04  0.13145355670E+04  0.25500000920E-02 0.  1.
    10030    2    1    2    0    0  0.00000000000E+00  0.00000000000E+00 -0.11250705954E+04  0.15040005385E+04  0.99811511117E+03 0.  0.
        4    1    3    3  502    0  0.18398727903E+03  0.45984126463E+03 -0.65482881352E+03  0.82104061740E+03  0.12699999809E+01 0.  1.
       -4    1    3    3    0  502 -0.18398727903E+03 -0.45984126463E+03 -0.47024178192E+03  0.68295992113E+03  0.12699999809E+01 0. -1.
</event>
<event>
 5   0  0.6199539E-03  0.9995352E+03  0.7818609E-02  0.9309055E-01
       -2   -1    0    0    0  501  0.00000000000E+00  0.00000000000E+00  0.21324265473E+03  0.21324265474E+03  0.25500000920E-02 0.  1.
        2   -1    0    0  501    0  0.00000000000E+00  0.00000000000E+00 -0.11712837026E+04  0.11712837026E+04  0.25500000920E-02 0. -1.
    10030    2    1    2    0    0  0.00000000000E+00  0.00000000000E+00 -0.95804104788E+03  0.13845263573E+04  0.99953518436E+03 0.  0.
        2    1    3    3  502    0 -0.73549598355E+02 -0.32803521625E+03  0.33213469890E+02  0.33781619426E+03  0.25500000920E-02 0.  1.
       -2    1    3    3    0  502  0.73549598355E+02  0.32803521625E+03 -0.99125451777E+03  0.10467101631E+04  0.25500000920E-02 0. -1.
</event>
<event>
 5   0  0.6199539E-03  0.1013398E+04  0.7818609E-02  0.9293971E-01
       -2   -1    0    0    0  501  0.00000000000E+00  0.00000000000E+00  0.11084226457E+03  0.11084226460E+03  0.25500000920E-02 0.  1.
        2   -1    0    0  501    0  0.00000000000E+00  0.00000000000E+00 -0.23162991874E+04  0.23162991874E+04  0.25500000920E-02 0. -1.
    10030    2    1    2    0    0  0.00000000000E+00  0.00000000000E+00 -0.22054569229E+04  0.24271414520E+04  0.10133979424E+04 0.  0.
        2    1    3    3  502    0 -0.30454215820E+03  0.37288911802E+03 -0.14810529934E+04  0.15573407430E+04  0.25500000920E-02 0. -1.
       -2    1    3    3    0  502  0.30454215820E+03 -0.37288911802E+03 -0.72440392946E+03  0.86980070906E+03  0.25500000920E-02 0.  1.
</event>
<event>
 5   0  0.6606947E-03  0.1002798E+04  0.7818609E-02  0.9305482E-01
        2   -1    0    0  501    0  0.00000000000E+00  0.00000000000E+00  0.40007160582E+03  0.40007160583E+03  0.25500000920E-02 0.  1.
       -2   -1    0    0    0  501  0.00000000000E+00  0.00000000000E+00 -0.62838938228E+03  0.62838938229E+03  0.25500000920E-02 0. -1.
    10030    2    1    2    0    0  0.00000000000E+00  0.00000000000E+00 -0.22831777647E+03  0.10284609881E+04  0.10027975853E+04 0.  0.
        1    1    3    3  502    0 -0.27128978855E+03 -0.28707354295E+03  0.20260021931E+03  0.44391014555E+03  0.50400001928E-02 0.  1.
       -1    1    3    3    0  502  0.27128978855E+03  0.28707354295E+03 -0.43091799577E+03  0.58455084256E+03  0.50400001928E-02 0. -1.
</event>
<event>
 5   0  0.6022787E-03  0.1015712E+04  0.7818609E-02  0.9291479E-01
        2   -1    0    0  501    0  0.00000000000E+00  0.00000000000E+00  0.17019527240E+04  0.17019527240E+04  0.25500000920E-02 0. -1.
       -2   -1    0    0    0  501  0.00000000000E+00  0.00000000000E+00 -0.15154210602E+03  0.15154210604E+03  0.25500000920E-02 0.  1.
    10030    2    1    2    0    0  0.00000000000E+00  0.00000000000E+00  0.15504106180E+04  0.18534948300E+04  0.10157115735E+04 0.  0.
        5    1    3    3  502    0 -0.10787020169E+03  0.38375093472E+02  0.16780539723E+04  0.16819619057E+04  0.46999998093E+01 0. -1.
       -5    1    3    3    0  502  0.10787020169E+03 -0.38375093472E+02 -0.12764335437E+03  0.17153292431E+03  0.46999998093E+01 0.  1.
</event>
<event>
 5   0  0.3643002E-03  0.1012898E+04  0.7818609E-02  0.9294511E-01
        1   -1    0    0  501    0  0.00000000000E+00  0.00000000000E+00  0.66737037838E+03  0.66737037840E+03  0.50400001928E-02 0.  1.
       -1   -1    0    0    0  501  0.00000000000E+00  0.00000000000E+00 -0.38433001577E+03  0.38433001581E+03  0.50400001928E-02 0. -1.
    10030    2    1    2    0    0  0.00000000000E+00  0.00000000000E+00  0.28304036261E+03  0.10517003942E+04  0.10128977600E+04 0.  0.
        2    1    3    3  502    0  0.11388173195E+03  0.10403499474E+03  0.64238771442E+03  0.66064688347E+03  0.25500000920E-02 0.  1.
       -2    1    3    3    0  502 -0.11388173195E+03 -0.10403499474E+03 -0.35934735181E+03  0.39105351074E+03  0.25500000920E-02 0. -1.
</event>
<event>
 5   0  0.3466598E-03  0.1008463E+04  0.7818609E-02  0.9299311E-01
       -1   -1    0    0    0  501  0.00000000000E+00  0.00000000000E+00  0.21220580226E+04  0.21220580226E+04  0.50400001928E-02 0.  1.
        1   -1    0    0  501    0  0.00000000000E+00  0.00000000000E+00 -0.11981270960E+03  0.11981270971E+03  0.50400001928E-02 0. -1.
    10030    2    1    2    0    0  0.00000000000E+00  0.00000000000E+00  0.20022453130E+04  0.22418707323E+04  0.10084632304E+04 0.  0.
        3    1    3    3  502    0  0.50042147717E+03 -0.30588823304E+02  0.88156890591E+03  0.10141602817E+04  0.10100000352E+00 0. -1.
       -3    1    3    3    0  502 -0.50042147717E+03  0.30588823304E+02  0.11206764071E+04  0.12277104506E+04  0.10100000352E+00 0.  1.
</event>
<event>
 5   0  0.3608845E-03  0.1009270E+04  0.7818609E-02  0.9298436E-01
        1   -1    0    0  501    0  0.00000000000E+00  0.00000000000E+00  0.23488801518E+03  0.23488801523E+03  0.50400001928E-02 0.  1.
       -1   -1    0    0    0  501  0.00000000000E+00  0.00000000000E+00 -0.10841605908E+04  0.10841605908E+04  0.50400001928E-02 0. -1.
    10030    2    1    2    0    0  0.00000000000E+00  0.00000000000E+00 -0.84927257560E+03  0.13190486060E+04  0.10092696951E+04 0.  0.
        1    1    3    3  502    0 -0.35879199173E+03  0.23929231242E+03 -0.76710236820E+03  0.88002190168E+03  0.50400001928E-02 0. -1.
       -1    1    3    3    0  502  0.35879199173E+03 -0.23929231242E+03 -0.82170207401E+02  0.43902670434E+03  0.50400001928E-02 0.  1.
</event>
<event>
 5   0  0.3643002E-03  0.1005318E+04  0.7818609E-02  0.9302732E-01
       -1   -1    0    0    0  501  0.00000000000E+00  0.00000000000E+00  0.40685251713E+03  0.40685251716E+03  0.50400001928E-02 0. -1.
        1   -1    0    0  501    0  0.00000000000E+00  0.00000000000E+00 -0.62102570304E+03  0.62102570306E+03  0.50400001928E-02 0.  1.
    10030    2    1    2    0    0  0.00000000000E+00  0.00000000000E+00 -0.21417318591E+03  0.10278782202E+04  0.10053176026E+04 0.  0.
        2    1    3    3  502    0 -0.28805429339E+03  0.16487689438E+03 -0.49305811566E+03  0.59436181881E+03  0.25500000920E-02 0.  1.
       -2    1    3    3    0  502  0.28805429339E+03 -0.16487689438E+03  0.27888492975E+03  0.43351640140E+03  0.25500000920E-02 0. -1.
</event>
<event>
 5   0  0.6376961E-03  0.1014798E+04  0.7818609E-02  0.9292461E-01
        2   -1    0    0  501    0  0.00000000000E+00  0.00000000000E+00  0.35268345653E+03  0.35268345654E+03  0.25500000920E-02 0. -1.
       -2   -1    0    0    0  501  0.00000000000E+00  0.00000000000E+00 -0.72998585584E+03  0.72998585585E+03  0.25500000920E-02 0.  1.
    10030    2    1    2    0    0  0.00000000000E+00  0.00000000000E+00 -0.37730239931E+03  0.10826693124E+04  0.10147983738E+04 0.  0.
        3    1    3    3  502    0 -0.22730564507E+03  0.16203114687E+03 -0.64070171616E+03  0.69887098103E+03  0.10100000352E+00 0.  1.
       -3    1    3    3    0  502  0.22730564507E+03 -0.16203114687E+03  0.26339931685E+03  0.38379833136E+03  0.10100000352E+00 0. -1.
</event>
<event>
 5   0  0.3643002E-03  0.9604733E+03  0.7818609E-02  0.9352992E-01
        1   -1    0    0  501    0  0.00000000000E+00  0.00000000000E+00  0.10989116012E+04  0.10989116012E+04  0.50400001928E-02 0.  1.
       -1   -1    0    0    0  501  0.00000000000E+00  0.00000000000E+00 -0.20986879988E+03  0.20986879994E+03  0.50400001928E-02 0. -1.
    10030    2    1    2    0    0  0.00000000000E+00  0.00000000000E+00  0.88904280128E+03  0.13087804011E+04  0.96047333946E+03 0.  0.
        2    1    3    3  502    0  0.34160818214E+03  0.28408613240E+03  0.19613851768E+03  0.48566593339E+03  0.25500000920E-02 0.  1.
       -2    1    3    3    0  502 -0.34160818214E+03 -0.28408613240E+03  0.69290428360E+03  0.82311446771E+03  0.25500000920E-02 0. -1.
</event>
<event>
 5   0  0.6022787E-03  0.1010556E+04  0.7818609E-02  0.9297042E-01
       -2   -1    0    0    0  501  0.00000000000E+00  0.00000000000E+00  0.41251394166E+03  0.41251394167E+03  0.25500000920E-02 0. -1.
        2   -1    0    0  501    0  0.00000000000E+00  0.00000000000E+00 -0.61890258642E+03  0.61890258643E+03  0.25500000920E-02 0.  1.
    10030    2    1    2    0    0  0.00000000000E+00  0.00000000000E+00 -0.20638864476E+03  0.10314165281E+04  0.10105561745E+04 0.  0.
        5    1    3    3  502    0 -0.44073225545E+03 -0.20909346275E+03  0.31123380462E+02  0.48883100554E+03  0.46999998093E+01 0. -1.
       -5    1    3    3    0  502  0.44073225545E+03  0.20909346275E+03 -0.23751202523E+03  0.54258552256E+03  0.46999998093E+01 0.  1.
</event>
<event>
 5   0  0.6606947E-03  0.9809275E+03  0.7818609E-02  0.9329714E-01
        2   -1    0    0  501    0  0.00000000000E+00  0.00000000000E+00  0.12769651683E+04  0.12769651683E+04  0.25500000920E-02 0. -1.
       -2   -1    0    0    0  501  0.00000000000E+00  0.00000000000E+00 -0.18837998747E+03  0.18837998749E+03  0.25500000920E-02 0.  1.
    10030    2    1    2    0    0  0.00000000000E+00  0.00000000000E+00  0.10885851808E+04  0.14653451558E+04  0.98092748442E+03 0.  0.
        1    1    3    3  502    0  0.32934771372E+03  0.36242943287E+03  0.58464475958E+03  0.76264966090E+03  0.50400001928E-02 0.  1.
       -1    1    3    3    0  502 -0.32934771372E+03 -0.36242943287E+03  0.50394042123E+03  0.70269549487E+03  0.50400001928E-02 0. -1.
</event>
<event>
 5   0  0.3640180E-03  0.9731319E+03  0.7818609E-02  0.9338514E-01
        1   -1    0    0  501    0  0.00000000000E+00  0.00000000000E+00  0.24505545387E+03  0.24505545393E+03  0.50400001928E-02 0.  1.
       -1   -1    0    0    0  501  0.00000000000E+00  0.00000000000E+00 -0.96609319077E+03  0.96609319078E+03  0.50400001928E-02 0. -1.
    10030    2    1    2    0    0  0.00000000000E+00  0.00000000000E+00 -0.72103773689E+03  0.12111486447E+04  0.97313186237E+03 0.  0.
        5    1    3    3  502    0 -0.68564262451E+01  0.42726333491E+03 -0.70972528431E+02  0.43319759664E+03  0.46999998093E+01 0.  1.
       -5    1    3    3    0  502  0.68564262451E+01 -0.42726333491E+03 -0.65006520846E+03  0.77795104807E+03  0.46999998093E+01 0. -1.
</event>
<event>
 5   0  0.3466598E-03  0.1004782E+04  0.7818609E-02  0.9303316E-01
        1   -1    0    0  501    0  0.00000000000E+00  0.00000000000E+00  0.10790132514E+04  0.10790132514E+04  0.50400001928E-02 0. -1.
       -1   -1    0    0    0  501  0.00000000000E+00  0.00000000000E+00 -0.23391421201E+03  0.23391421206E+03  0.50400001928E-02 0.  1.
    10030    2    1    2    0    0  0.00000000000E+00  0.00000000000E+00  0.84509903942E+03  0.13129274635E+04  0.10047816370E+04 0.  0.
        3    1    3    3  502    0  0.36492419803E+03  0.21436285112E+03  0.68838811572E+02  0.42878886929E+03  0.10100000352E+00 0.  1.
       -3    1    3    3    0  502 -0.36492419803E+03 -0.21436285112E+03  0.77626022784E+03  0.88413859421E+03  0.10100000352E+00 0. -1.
</event>
<event>
 5   0  0.3569359E-03  0.9978031E+03  0.7818609E-02  0.9310958E-01
       -1   -1    0    0    0  501  0.00000000000E+00  0.00000000000E+00  0.32396449156E+03  0.32396449160E+03  0.50400001928E-02 0.  1.
        1   -1    0    0  501    0  0.00000000000E+00  0.00000000000E+00 -0.76830263132E+03  0.76830263134E+03  0.50400001928E-02 0. -1.
    10030    2    1    2    0    0  0.00000000000E+00  0.00000000000E+00 -0.44433813976E+03  0.10922671229E+04  0.99780312958E+03 0.  0.
        4    1    3    3  502    0  0.46051732739E+03  0.16599249808E+03 -0.11676494647E+03  0.50325479021E+03  0.12699999809E+01 0.  1.
       -4    1    3    3    0  502 -0.46051732739E+03 -0.16599249808E+03 -0.32757319329E+03  0.58901233273E+03  0.12699999809E+01 0. -1.
</event>
<event>
 5   0  0.3640180E-03  0.9967318E+03  0.7818609E-02  0.9312137E-01
       -1   -1    0    0    0  501  0.00000000000E+00  0.00000000000E+00  0.60917841109E+03  0.60917841111E+03  0.50400001928E-02 0.  1.
        1   -1    0    0  501    0  0.00000000000E+00  0.00000000000E+00 -0.40771075284E+03  0.40771075287E+03  0.50400001928E-02 0. -1.
    10030    2    1    2    0    0  0.00000000000E+00  0.00000000000E+00  0.20146765826E+03  0.10168891640E+04  0.99673183681E+03 0.  0.
        5    1    3    3  502    0 -0.41037887954E+03  0.24362291999E+03  0.24710494839E+03  0.53744385515E+03  0.46999998093E+01 0.  1.
       -5    1    3    3    0  502  0.41037887954E+03 -0.24362291999E+03 -0.45637290139E+02  0.47944530884E+03  0.46999998093E+01 0. -1.
</event>
<event>
 5   0  0.6199539E-03  0.9943667E+03  0.7818609E-02  0.9314745E-01
        2   -1    0    0  501    0  0.00000000000E+00  0.00000000000E+00  0.39976637990E+03  0.39976637991E+03  0.25500000920E-02 0.  1.
       -2   -1    0    0    0  501  0.00000000000E+00  0.00000000000E+00 -0.61833940525E+03  0.61833940525E+03  0.25500000920E-02 0. -1.
    10030    2    1    2    0    0  0.00000000000E+00  0.00000000000E+00 -0.21857302534E+03  0.10181057852E+04  0.99436674440E+03 0.  0.
        2    1    3    3  502    0 -0.34419500597E+03  0.35741633047E+03 -0.77321480249E+02  0.50219044867E+03  0.25500000920E-02 0. -1.
       -2    1    3    3    0  502  0.34419500597E+03 -0.35741633047E+03 -0.14125154510E+03  0.51591533649E+03  0.25500000920E-02 0.  1.
</event>
<event>
 5   0  0.3643002E-03  0.1018660E+04  0.7818609E-02  0.9288313E-01
        1   -1    0    0  501    0  0.00000000000E+00  0.00000000000E+00  0.71625220210E+03  0.71625220212E+03  0.50400001928E-02 0.  1.
       -1   -1    0    0    0  501  0.00000000000E+00  0.00000000000E+00 -0.36218663670E+03  0.36218663673E+03  0.50400001928E-02 0. -1.
    10030    2    1    2    0    0  0.00000000000E+00  0.00000000000E+00  0.35406556540E+03  0.10784388389E+04  0.10186598571E+04 0.  0.
        2    1    3    3  502    0  0.11440693330E+03  0.43568065940E+03 -0.74636662081E+02  0.45659305152E+03  0.25500000920E-02 0. -1.
       -2    1    3    3    0  502 -0.11440693330E+03 -0.43568065940E+03  0.42870222748E+03  0.62184578733E+03  0.25500000920E-02 0.  1.
</event>
<event>
 5   0  0.6022787E-03  0.1006355E+04  0.7818609E-02  0.9301602E-01
       -2   -1    0    0    0  501  0.00000000000E+00  0.00000000000E+00  0.73043347137E+03  0.73043347138E+03  0.25500000920E-02 0. -1.
        2   -1    0    0  501    0  0.00000000000E+00  0.00000000000E+00 -0.34662661528E+03  0.34662661529E+03  0.25500000920E-02 0.  1.
    10030    2    1    2    0    0  0.00000000000E+00  0.00000000000E+00  0.38380685609E+03  0.10770600867E+04  0.10063551697E+04 0.  0.
        5    1    3    3  502    0  0.18017644451E+03 -0.41939326714E+03  0.41846307465E+03  0.61926383596E+03  0.46999998093E+01 0. -1.
       -5    1    3    3    0  502 -0.18017644451E+03  0.41939326714E+03 -0.34656218556E+02  0.45779625071E+03  0.46999998093E+01 0.  1.
</event>
<event>
 5   0  0.3608845E-03  0.1001657E+04  0.7818609E-02  0.9306729E-01
       -1   -1    0    0    0  501  0.00000000000E+00  0.00000000000E+00  0.19738111458E+03  0.19738111464E+03  0.50400001928E-02 0.  1.
        1   -1    0    0  501    0  0.00000000000E+00  0.00000000000E+00 -0.12707857955E+04  0.12707857955E+04  0.50400001928E-02 0. -1.
    10030    2    1    2    0    0  0.00000000000E+00  0.00000000000E+00 -0.10734046809E+04  0.14681669101E+04  0.10016568609E+04 0.  0.
        1    1    3    3  502    0 -0.27973391791E+03 -0.19816406124E+03 -0.15390821453E+01  0.34281544422E+03  0.50400001928E-02 0.  1.
       -1    1    3    3    0  502  0.27973391791E+03  0.19816406124E+03 -0.10718655987E+04  0.11253514659E+04  0.50400001928E-02 0. -1.
</event>
<event>
 5   0  0.6022787E-03  0.1001285E+04  0.7818609E-02  0.9307136E-01
        2   -1    0    0  501    0  0.00000000000E+00  0.00000000000E+00  0.11349875312E+04  0.11349875312E+04  0.25500000920E-02 0. -1.
       -2   -1    0    0    0  501  0.00000000000E+00  0.00000000000E+00 -0.22083328290E+03  0.22083328291E+03  0.25500000920E-02 0.  1.
    10030    2    1    2    0    0  0.00000000000E+00  0.00000000000E+00  0.91415424830E+03  0.13558208141E+04  0.10012852192E+04 0.  0.
        5    1    3    3  502    0  0.45915434899E+03 -0.11352165040E+03  0.23494579087E+03  0.52813965573E+03  0.46999998093E+01 0.  1.
       -5    1    3    3    0  502 -0.45915434899E+03  0.11352165040E+03  0.67920845742E+03  0.82768115838E+03  0.46999998093E+01 0. -1.
</event>
<event>
 5   0  0.6022787E-03  0.9919188E+03  0.7818609E-02  0.9317453E-01
        2   -1    0    0  501    0  0.00000000000E+00  0.00000000000E+00  0.12136450536E+04  0.12136450536E+04  0.25500000920E-02 0.  1.
       -2   -1    0    0    0  501  0.00000000000E+00  0.00000000000E+00 -0.20267517178E+03  0.20267517180E+03  0.25500000920E-02 0. -1.
    10030    2    1    2    0    0  0.00000000000E+00  0.00000000000E+00  0.10109698818E+04  0.14163202254E+04  0.99191878646E+03 0.  0.
        5    1    3    3  502    0 -0.21087152682E+03  0.17546914795E+03  0.10954126605E+04  0.11292507293E+04  0.46999998093E+01 0.  1.
       -5    1    3    3    0  502  0.21087152682E+03 -0.17546914795E+03 -0.84442778755E+02  0.28706949609E+03  0.46999998093E+01 0. -1.
</event>
<event>
 5   0  0.6022787E-03  0.9988252E+03  0.7818609E-02  0.9309834E-01
        2   -1    0    0  501    0  0.00000000000E+00  0.00000000000E+00  0.95282080854E+03  0.95282080855E+03  0.25500000920E-02 0.  1.
       -2   -1    0    0    0  501  0.00000000000E+00  0.00000000000E+00 -0.26176269098E+03  0.26176269099E+03  0.25500000920E-02 0. -1.
    10030    2    1    2    0    0  0.00000000000E+00  0.00000000000E+00  0.69105811756E+03  0.12145834995E+04  0.99882518766E+03 0.  0.
        5    1    3    3  502    0 -0.79187197717E+01  0.18476473520E+03 -0.21856181132E+03  0.28634257256E+03  0.46999998093E+01 0. -1.
       -5    1    3    3    0  502  0.79187197717E+01 -0.18476473520E+03  0.90961992888E+03  0.92824092698E+03  0.46999998093E+01 0.  1.
</event>
<event>
 5   0  0.6376961E-03  0.9975082E+03  0.7818609E-02  0.9311282E-01
        2   -1    0    0  501    0  0.00000000000E+00  0.00000000000E+00  0.67280869079E+03  0.67280869080E+03  0.25500000920E-02 0.  1.
       -2   -1    0    0    0  501  0.00000000000E+00  0.00000000000E+00 -0.36972715733E+03  0.36972715734E+03  0.25500000920E-02 0. -1.
    10030    2    1    2    0    0  0.00000000000E+00  0.00000000000E+00  0.30308153346E+03  0.10425358481E+04  0.99750818480E+03 0.  0.
        3    1    3    3  502    0 -0.28465803727E+03  0.40939706801E+03  0.16296472730E+03  0.52458904870E+03  0.10100000352E+00 0. -1.
       -3    1    3    3    0  502  0.28465803727E+03 -0.40939706801E+03  0.14011680616E+03  0.51794679944E+03  0.10100000352E+00 0.  1.
</event>
<event>
 5   0  0.3608845E-03  0.1009010E+04  0.7818609E-02  0.9298718E-01
       -1   -1    0    0    0  501  0.00000000000E+00  0.00000000000E+00  0.19485549488E+03  0.19485549495E+03  0.50400001928E-02 0.  1.
        1   -1    0    0  501    0  0.00000000000E+00  0.00000000000E+00 -0.13062249079E+04  0.13062249079E+04  0.50400001928E-02 0. -1.
    10030    2    1    2    0    0  0.00000000000E+00  0.00000000000E+00 -0.11113694130E+04  0.15010804028E+04  0.10090096152E+04 0.  0.
        1    1    3    3  502    0  0.21658223997E+03 -0.53717072905E+02  0.11744879785E+03  0.25216583974E+03  0.50400001928E-02 0.  1.
       -1    1    3    3    0  502 -0.21658223997E+03  0.53717072905E+02 -0.12288182109E+04  0.12489145631E+04  0.50400001928E-02 0. -1.
</event>
<event>
 5   0  0.3643002E-03  0.9816018E+03  0.7818609E-02  0.9328957E-01
        1   -1    0    0  501    0  0.00000000000E+00  0.00000000000E+00  0.33608819594E+03  0.33608819598E+03  0.50400001928E-02 0. -1.
       -1   -1    0    0    0  501  0.00000000000E+00  0.00000000000E+00 -0.71673305861E+03  0.71673305863E+03  0.50400001928E-02 0.  1.
    10030    2    1    2    0    0  0.00000000000E+00  0.00000000000E+00 -0.38064486268E+03  0.10528212546E+04  0.98160179435E+03 0.  0.
        2    1    3    3  502    0  0.31180777456E+03 -0.37901047607E+03 -0.19411318090E+03  0.52778116322E+03  0.25500000920E-02 0.  1.
       -2    1    3    3    0  502 -0.31180777456E+03  0.37901047607E+03 -0.18653168178E+03  0.52504009138E+03  0.25500000920E-02 0. -1.
</event>
<event>
 5   0  0.3640180E-03  0.9967665E+03  0.7818609E-02  0.9312098E-01
        1   -1    0    0  501    0  0.00000000000E+00  0.00000000000E+00  0.65249422743E+03  0.65249422745E+03  0.50400001928E-02 0.  1.
       -1   -1    0    0    0  501  0.00000000000E+00  0.00000000000E+00 -0.38067132540E+03  0.38067132544E+03  0.50400001928E-02 0. -1.
    10030    2    1    2    0    0  0.00000000000E+00  0.00000000000E+00  0.27182290203E+03  0.10331655529E+04  0.99676645690E+03 0.  0.
        5    1    3    3  502    0  0.96263271411E+02  0.29541495989E+03 -0.26796748512E+03  0.41032338347E+03  0.46999998093E+01 0. -1.
       -5    1    3    3    0  502 -0.96263271411E+02 -0.29541495989E+03  0.53979038715E+03  0.62284216942E+03  0.46999998093E+01 0.  1.
</event>
<event>
 5   0  0.6199539E-03  0.9772847E+03  0.7818609E-02  0.9333816E-01
        2   -1    0    0  501    0  0.00000000000E+00  0.00000000000E+00  0.10179825904E+04  0.10179825904E+04  0.25500000920E-02 0.  1.
       -2   -1    0    0    0  501  0.00000000000E+00  0.00000000000E+00 -0.23455344476E+03  0.23455344477E+03  0.25500000920E-02 0. -1.
    10030    2    1    2    0    0  0.00000000000E+00  0.00000000000E+00  0.78342914560E+03  0.12525360351E+04  0.97728465307E+03 0.  0.
        2    1    3    3  502    0 -0.43397865370E+03 -0.62444921421E+02  0.66819003831E+03  0.79919632593E+03  0.25500000920E-02 0.  1.
       -2    1    3    3    0  502  0.43397865370E+03  0.62444921421E+02  0.11523910729E+03  0.45333970920E+03  0.25500000920E-02 0. -1.
</event>
<event>
 5   0  0.3466598E-03  0.1012959E+04  0.7818609E-02  0.9294444E-01
        1   -1    0    0  501    0  0.00000000000E+00  0.00000000000E+00  0.20415221536E+04  0.20415221536E+04  0.50400001928E-02 0. -1.
       -1   -1    0    0    0  501  0.00000000000E+00  0.00000000000E+00 -0.12565215040E+03  0.12565215050E+03  0.50400001928E-02 0.  1.
    10030    2    1    2    0    0  0.00000000000E+00  0.00000000000E+00  0.19158700032E+04  0.21671743041E+04  0.10129593256E+04 0.  0.
        3    1    3    3  502    0  0.69252443047E+02  0.48784128024E+03  0.12086855121E+04  0.13052607758E+04  0.10100000352E+00 0.  1.
       -3    1    3    3    0  502 -0.69252443047E+02 -0.48784128024E+03  0.70718449110E+03  0.86191352828E+03  0.10100000352E+00 0. -1.
</event>
<event>
 5   0  0.3569359E-03  0.9097515E+03  0.7818609E-02  0.9413473E-01
        1   -1    0    0  501    0  0.00000000000E+00  0.00000000000E+00  0.91335377090E+03  0.91335377092E+03  0.50400001928E-02 0. -1.
       -1   -1    0    0    0  501  0.00000000000E+00  0.00000000000E+00 -0.22654085569E+03  0.22654085574E+03  0.50400001928E-02 0.  1.
    10030    2    1    2    0    0  0.00000000000E+00  0.00000000000E+00  0.68681291522E+03  0.11398946267E+04  0.90975149320E+03 0.  0.
        4    1    3    3  502    0  0.84655984610E+02  0.20987788161E+03  0.83780732255E+03  0.86783528595E+03  0.12699999809E+01 0. -1.
       -4    1    3    3    0  502 -0.84655984610E+02 -0.20987788161E+03 -0.15099440734E+03  0.27205934071E+03  0.12699999809E+01 0.  1.
</event>
<event>
 5   0  0.6360455E-03  0.1018949E+04  0.7818609E-02  0.9288003E-01
        2   -1    0    0  501    0  0.00000000000E+00  0.00000000000E+00  0.49212369469E+03  0.49212369469E+03  0.25500000920E-02 0.  1.
       -2   -1    0    0    0  501  0.00000000000E+00  0.00000000000E+00 -0.52743703186E+03  0.52743703187E+03  0.25500000920E-02 0. -1.
    10030    2    1    2    0    0  0.00000000000E+00  0.00000000000E+00 -0.35313337176E+02  0.10195607266E+04  0.10189489896E+04 0.  0.
        4    1    3    3  502    0  0.11218282842E+03 -0.10217317042E+03 -0.50430069257E+03  0.52663568544E+03  0.12699999809E+01 0. -1.
       -4    1    3    3    0  502 -0.11218282842E+03  0.10217317042E+03  0.46898735539E+03  0.49292504112E+03  0.12699999809E+01 0.  1.
</event>
<event>
 5   0  0.2417750E-03  0.1030385E+04  0.7818609E-02  0.9275833E-01
       -3   -1    0    0    0  501  0.00000000000E+00  0.00000000000E+00  0.30617299735E+03  0.30617301401E+03  0.10100000352E+00 0.  1.
        3   -1    0    0  501    0  0.00000000000E+00  0.00000000000E+00 -0.86690589044E+03  0.86690589633E+03  0.10100000352E+00 0. -1.
    10030    2    1    2    0    0  0.00000000000E+00  0.00000000000E+00 -0.56073289309E+03  0.11730789103E+04  0.10303847594E+04 0.  0.
        3    1    3    3  502    0 -0.14698952995E+03  0.23058991709E+03 -0.77746343562E+03  0.82415231341E+03  0.10100000352E+00 0. -1.
       -3    1    3    3    0  502  0.14698952995E+03 -0.23058991709E+03  0.21673054252E+03  0.34892659692E+03  0.10100000352E+00 0.  1.
</event>
<event>
 5   0  0.3569359E-03  0.9914574E+03  0.7818609E-02  0.9317964E-01
       -1   -1    0    0    0  501  0.00000000000E+00  0.00000000000E+00  0.39428281813E+03  0.39428281817E+03  0.50400001928E-02 0. -1.
        1   -1    0    0  501    0  0.00000000000E+00  0.00000000000E+00 -0.62327586283E+03  0.62327586285E+03  0.50400001928E-02 0.  1.
    10030    2    1    2    0    0  0.00000000000E+00  0.00000000000E+00 -0.22899304469E+03  0.10175586810E+04  0.99145743973E+03 0.  0.
        4    1    3    3  502    0 -0.93222100836E+01 -0.37248928541E+02  0.39275260824E+03  0.39462717907E+03  0.12699999809E+01 0. -1.
       -4    1    3    3    0  502  0.93222100836E+01  0.37248928541E+02 -0.62174565293E+03  0.62293150195E+03  0.12699999809E+01 0.  1.
</event>
<event>
 5   0  0.3569359E-03  0.1000395E+04  0.7818609E-02  0.9308112E-01
       -1   -1    0    0    0  501  0.00000000000E+00  0.00000000000E+00  0.36302525462E+03  0.36302525466E+03  0.50400001928E-02 0. -1.
        1   -1    0    0  501    0  0.00000000000E+00  0.00000000000E+00 -0.68920161388E+03  0.68920161390E+03  0.50400001928E-02 0.  1.
    10030    2    1    2    0    0  0.00000000000E+00  0.00000000000E+00 -0.32617635926E+03  0.10522268686E+04  0.10003951047E+04 0.  0.
        4    1    3    3  502    0 -0.30033243178E+03 -0.38338376575E+03 -0.28307443549E+03  0.56330758059E+03  0.12699999809E+01 0.  1.
       -4    1    3    3    0  502  0.30033243178E+03  0.38338376575E+03 -0.43101923768E+02  0.48891928797E+03  0.12699999809E+01 0. -1.
</event>
<event>
 5   0  0.3608845E-03  0.9906923E+03  0.7818609E-02  0.9318813E-01
       -1   -1    0    0    0  501  0.00000000000E+00  0.00000000000E+00  0.35634631576E+03  0.35634631580E+03  0.50400001928E-02 0.  1.
        1   -1    0    0  501    0  0.00000000000E+00  0.00000000000E+00 -0.68856555371E+03  0.68856555373E+03  0.50400001928E-02 0. -1.
    10030    2    1    2    0    0  0.00000000000E+00  0.00000000000E+00 -0.33221923795E+03  0.10449118695E+04  0.99069227968E+03 0.  0.
        1    1    3    3  502    0 -0.21929826064E+03  0.40853902057E+03 -0.34992301080E+03  0.58089755720E+03  0.50400001928E-02 0. -1.
       -1    1    3    3    0  502  0.21929826064E+03 -0.40853902057E+03  0.17703772847E+02  0.46401431233E+03  0.50400001928E-02 0.  1.
</event>
<event>
 5   0  0.6606947E-03  0.1009530E+04  0.7818609E-02  0.9298154E-01
        2   -1    0    0  501    0  0.00000000000E+00  0.00000000000E+00  0.73659874696E+03  0.73659874697E+03  0.25500000920E-02 0. -1.
       -2   -1    0    0    0  501  0.00000000000E+00  0.00000000000E+00 -0.34589745114E+03  0.34589745115E+03  0.25500000920E-02 0.  1.
    10030    2    1    2    0    0  0.00000000000E+00  0.00000000000E+00  0.39070129582E+03  0.10824961981E+04  0.10095298492E+04 0.  0.
        1    1    3    3  502    0  0.47253479625E+03  0.12554292411E+03  0.32986687183E+03  0.58979853562E+03  0.50400001928E-02 0. -1.
       -1    1    3    3    0  502 -0.47253479625E+03 -0.12554292411E+03  0.60834423984E+02  0.49269766250E+03  0.50400001928E-02 0.  1.
</event>
<event>
 5   0  0.3466598E-03  0.1012491E+04  0.7818609E-02  0.9294950E-01
        1   -1    0    0  501    0  0.00000000000E+00  0.00000000000E+00  0.16444338660E+04  0.16444338660E+04  0.50400001928E-02 0.  1.
       -1   -1    0    0    0  501  0.00000000000E+00  0.00000000000E+00 -0.15584978035E+03  0.15584978043E+03  0.50400001928E-02 0. -1.
    10030    2    1    2    0    0  0.00000000000E+00  0.00000000000E+00  0.14885840856E+04  0.18002836464E+04  0.10124912975E+04 0.  0.
        3    1    3    3  502    0  0.27030729289E+03 -0.83632892811E+02  0.14907104720E+04  0.15173260081E+04  0.10100000352E+00 0.  1.
       -3    1    3    3    0  502 -0.27030729289E+03  0.83632892811E+02 -0.21263863952E+01  0.28295763829E+03  0.10100000352E+00 0. -1.
</event>
<event>
 5   0  0.6199539E-03  0.9995937E+03  0.7818609E-02  0.9308991E-01
        2   -1    0    0  501    0  0.00000000000E+00  0.00000000000E+00  0.59873341915E+03  0.59873341916E+03  0.25500000920E-02 0.  1.
       -2   -1    0    0    0  501  0.00000000000E+00  0.00000000000E+00 -0.41720885234E+03  0.41720885235E+03  0.25500000920E-02 0. -1.
    10030    2    1    2    0    0  0.00000000000E+00  0.00000000000E+00  0.18152456681E+03  0.10159422715E+04  0.99959368279E+03 0.  0.
        2    1    3    3  502    0  0.32969640500E+03 -0.31751273159E+03 -0.11322613307E+03  0.47152328829E+03  0.25500000920E-02 0. -1.
       -2    1    3    3    0  502 -0.32969640500E+03  0.31751273159E+03  0.29475069988E+03  0.54441898321E+03  0.25500000920E-02 0.  1.
</event>
<event>
 5   0  0.6376961E-03  0.1150431E+04  0.7818609E-02  0.9157386E-01
        2   -1    0    0  501    0  0.00000000000E+00  0.00000000000E+00  0.12721113584E+04  0.12721113584E+04  0.25500000920E-02 0. -1.
       -2   -1    0    0    0  501  0.00000000000E+00  0.00000000000E+00 -0.26009746517E+03  0.26009746518E+03  0.25500000920E-02 0.  1.
    10030    2    1    2    0    0  0.00000000000E+00  0.00000000000E+00  0.10120138933E+04  0.15322088236E+04  0.11504311188E+04 0.  0.
        3    1    3    3  502    0 -0.38251285512E+03 -0.90208486990E+02  0.10654171117E+04  0.11355911621E+04  0.10100000352E+00 0. -1.
       -3    1    3    3    0  502  0.38251285512E+03  0.90208486990E+02 -0.53403218416E+02  0.39661766148E+03  0.10100000352E+00 0.  1.
</event>
<event>
 5   0  0.2417750E-03  0.9993218E+03  0.7818609E-02  0.9309289E-01
       -3   -1    0    0    0  501  0.00000000000E+00  0.00000000000E+00  0.93328665463E+03  0.93328666010E+03  0.10100000352E+00 0.  1.
        3   -1    0    0  501    0  0.00000000000E+00  0.00000000000E+00 -0.26750731181E+03  0.26750733088E+03  0.10100000352E+00 0. -1.
    10030    2    1    2    0    0  0.00000000000E+00  0.00000000000E+00  0.66577934282E+03  0.12007939910E+04  0.99932180774E+03 0.  0.
        4    1    3    3  502    0 -0.10003561705E+03 -0.33405236889E+03  0.76289326746E+03  0.83881217223E+03  0.12699999809E+01 0.  1.
       -4    1    3    3    0  502  0.10003561705E+03  0.33405236889E+03 -0.97113924640E+02  0.36198181874E+03  0.12699999809E+01 0. -1.
</event>
<event>
 5   0  0.3640180E-03  0.1013627E+04  0.7818609E-02  0.9293724E-01
        1   -1    0    0  501    0  0.00000000000E+00  0.00000000000E+00  0.47622631626E+03  0.47622631629E+03  0.50400001928E-02 0.  1.
       -1   -1    0    0    0  501  0.00000000000E+00  0.00000000000E+00 -0.53936561650E+03  0.53936561652E+03  0.50400001928E-02 0. -1.
    10030    2    1    2    0    0  0.00000000000E+00  0.00000000000E+00 -0.63139300238E+02  0.10155919328E+04  0.10136273491E+04 0.  0.
        5    1    3    3  502    0  0.10048425736E+02 -0.47421584579E+03  0.14725981425E+03  0.49667814745E+03  0.46999998093E+01 0.  1.
       -5    1    3    3    0  502 -0.10048425736E+02  0.47421584579E+03 -0.21039911449E+03  0.51891378536E+03  0.46999998093E+01 0. -1.
</event>
<event>
 5   0  0.6360455E-03  0.9994950E+03  0.7818609E-02  0.9309099E-01
        2   -1    0    0  501    0  0.00000000000E+00  0.00000000000E+00  0.32112577866E+03  0.32112577867E+03  0.25500000920E-02 0.  1.
       -2   -1    0    0    0  501  0.00000000000E+00  0.00000000000E+00 -0.77772502531E+03  0.77772502531E+03  0.25500000920E-02 0. -1.
    10030    2    1    2    0    0  0.00000000000E+00  0.00000000000E+00 -0.45659924665E+03  0.10988508040E+04  0.99949498116E+03 0.  0.
        4    1    3    3  502    0 -0.47500439815E+03 -0.15181343800E+02 -0.58384332660E+02  0.47882146428E+03  0.12699999809E+01 0.  1.
       -4    1    3    3    0  502  0.47500439815E+03  0.15181343800E+02 -0.39821491399E+03  0.62002933970E+03  0.12699999809E+01 0. -1.
</event>
<event>
 5   0  0.6360455E-03  0.1003374E+04  0.7818609E-02  0.9304852E-01
        2   -1    0    0  501    0  0.00000000000E+00  0.00000000000E+00  0.33820777302E+03  0.33820777302E+03  0.25500000920E-02 0. -1.
       -2   -1    0    0    0  501  0.00000000000E+00  0.00000000000E+00 -0.74418736775E+03  0.74418736775E+03  0.25500000920E-02 0.  1.
    10030    2    1    2    0    0  0.00000000000E+00  0.00000000000E+00 -0.40597959473E+03  0.10823951408E+04  0.10033742121E+04 0.  0.
        4    1    3    3  502    0  0.45553622942E+03 -0.17926026554E+03 -0.84617167063E+02  0.49679893013E+03  0.12699999809E+01 0. -1.
       -4    1    3    3    0  502 -0.45553622942E+03  0.17926026554E+03 -0.32136242767E+03  0.58559621065E+03  0.12699999809E+01 0.  1.
</event>
<event>
 5   0  0.6199539E-03  0.9857481E+03  0.7818609E-02  0.9324316E-01
        2   -1    0    0  501    0  0.00000000000E+00  0.00000000000E+00  0.25723911391E+04  0.25723911391E+04  0.25500000920E-02 0.  1.
       -2   -1    0    0    0  501  0.00000000000E+00  0.00000000000E+00 -0.94435416204E+02  0.94435416238E+02  0.25500000920E-02 0. -1.
    10030    2    1    2    0    0  0.00000000000E+00  0.00000000000E+00  0.24779557229E+04  0.26668265553E+04  0.98574809745E+03 0.  0.
        2    1    3    3  502    0 -0.40146444922E+03  0.23090429806E+02  0.20099787013E+04  0.20498100526E+04  0.25500000920E-02 0. -1.
       -2    1    3    3    0  502  0.40146444922E+03 -0.23090429806E+02  0.46797702158E+03  0.61701650275E+03  0.25500000920E-02 0.  1.
</event>
<event>
 5   0  0.3640180E-03  0.1002730E+04  0.7818609E-02  0.9305555E-01
       -1   -1    0    0    0  501  0.00000000000E+00  0.00000000000E+00  0.62990056688E+03  0.62990056690E+03  0.50400001928E-02 0. -1.
        1   -1    0    0  501    0  0.00000000000E+00  0.00000000000E+00 -0.39905823881E+03  0.39905823884E+03  0.50400001928E-02 0.  1.
    10030    2    1    2    0    0  0.00000000000E+00  0.00000000000E+00  0.23084232807E+03  0.10289588057E+04  0.10027302945E+04 0.  0.
        5    1    3    3  502    0  0.15166509668E+03  0.40993824972E+03 -0.13654846813E+03  0.45795113744E+03  0.46999998093E+01 0. -1.
       -5    1    3    3    0  502 -0.15166509668E+03 -0.40993824972E+03  0.36739079620E+03  0.57100766831E+03  0.46999998093E+01 0.  1.
</event>
<event>
 5   0  0.6376961E-03  0.9916794E+03  0.7818609E-02  0.9317718E-01
       -2   -1    0    0    0  501  0.00000000000E+00  0.00000000000E+00  0.74502064173E+03  0.74502064174E+03  0.25500000920E-02 0. -1.
        2   -1    0    0  501    0  0.00000000000E+00  0.00000000000E+00 -0.33000025867E+03  0.33000025868E+03  0.25500000920E-02 0.  1.
    10030    2    1    2    0    0  0.00000000000E+00  0.00000000000E+00  0.41502038306E+03  0.10750209004E+04  0.99167939274E+03 0.  0.
        3    1    3    3  502    0 -0.11096405376E+03  0.15028637916E+03 -0.29039149297E+03  0.34529153824E+03  0.10100000352E+00 0.  1.
       -3    1    3    3    0  502  0.11096405376E+03 -0.15028637916E+03  0.70541187603E+03  0.72972936218E+03  0.10100000352E+00 0. -1.
</event>
<event>
 5   0  0.3640180E-03  0.1025465E+04  0.7818609E-02  0.9281047E-01
        1   -1    0    0  501    0  0.00000000000E+00  0.00000000000E+00  0.74630520061E+03  0.74630520063E+03  0.50400001928E-02 0.  1.
       -1   -1    0    0    0  501  0.00000000000E+00  0.00000000000E+00 -0.35226182355E+03  0.35226182359E+03  0.50400001928E-02 0. -1.
    10030    2    1    2    0    0  0.00000000000E+00  0.00000000000E+00  0.39404337706E+03  0.10985670242E+04  0.10254654181E+04 0.  0.
        5    1    3    3  502    0 -0.24487997434E+03 -0.43488686476E+03  0.71265483634E+02  0.50417620543E+03  0.46999998093E+01 0. -1.
       -5    1    3    3    0  502  0.24487997434E+03  0.43488686476E+03  0.32277789342E+03  0.59439081878E+03  0.46999998093E+01 0.  1.
</event>
<event>
 5   0  0.3466598E-03  0.1002472E+04  0.7818609E-02  0.9305837E-01
        1   -1    0    0  501    0  0.00000000000E+00  0.00000000000E+00  0.54666138596E+03  0.54666138598E+03  0.50400001928E-02 0. -1.
       -1   -1    0    0    0  501  0.00000000000E+00  0.00000000000E+00 -0.45958560240E+03  0.45958560243E+03  0.50400001928E-02 0.  1.
    10030    2    1    2    0    0  0.00000000000E+00  0.00000000000E+00  0.87075783554E+02  0.10062469884E+04  0.10024723485E+04 0.  0.
        3    1    3    3  502    0 -0.20837435222E+03 -0.37539495152E+02 -0.41249492235E+03  0.46366060381E+03  0.10100000352E+00 0.  1.
       -3    1    3    3    0  502  0.20837435222E+03  0.37539495152E+02  0.49957070590E+03  0.54258638460E+03  0.10100000352E+00 0. -1.
</event>
<event>
 5   0  0.2417750E-03  0.9803644E+03  0.7818609E-02  0.9330347E-01
       -3   -1    0    0    0  501  0.00000000000E+00  0.00000000000E+00  0.11876120721E+04  0.11876120764E+04  0.10100000352E+00 0.  1.
        3   -1    0    0  501    0  0.00000000000E+00  0.00000000000E+00 -0.20232077322E+03  0.20232079843E+03  0.10100000352E+00 0. -1.
    10030    2    1    2    0    0  0.00000000000E+00  0.00000000000E+00  0.98529129893E+03  0.13899328749E+04  0.98036444902E+03 0.  0.
        2    1    3    3  502    0 -0.21042278992E+02  0.12610001651E+03 -0.17826841256E+03  0.21937096114E+03  0.25500000920E-02 0. -1.
       -2    1    3    3    0  502  0.21042278992E+02 -0.12610001651E+03  0.11635597115E+04  0.11705619137E+04  0.25500000920E-02 0.  1.
</event>
<event>
 5   0  0.6360455E-03  0.1026966E+04  0.7818609E-02  0.9279453E-01
       -2   -1    0    0    0  501  0.00000000000E+00  0.00000000000E+00  0.18367706663E+03  0.18367706664E+03  0.25500000920E-02 0. -1.
        2   -1    0    0  501    0  0.00000000000E+00  0.00000000000E+00 -0.14354814766E+04  0.14354814766E+04  0.25500000920E-02 0.  1.
    10030    2    1    2    0    0  0.00000000000E+00  0.00000000000E+00 -0.12518044100E+04  0.16191585433E+04  0.10269664587E+04 0.  0.
        4    1    3    3  502    0 -0.10825467154E+03  0.14363666967E+03  0.13238371720E+03  0.22333299860E+03  0.12699999809E+01 0. -1.
       -4    1    3    3    0  502  0.10825467154E+03 -0.14363666967E+03 -0.13841881272E+04  0.13958255447E+04  0.12699999809E+01 0.  1.
</event>
<event>
 5   0  0.3569359E-03  0.9973781E+03  0.7818609E-02  0.9311425E-01
       -1   -1    0    0    0  501  0.00000000000E+00  0.00000000000E+00  0.36251442905E+03  0.36251442909E+03  0.50400001928E-02 0.  1.
        1   -1    0    0  501    0  0.00000000000E+00  0.00000000000E+00 -0.68601617328E+03  0.68601617329E+03  0.50400001928E-02 0. -1.
    10030    2    1    2    0    0  0.00000000000E+00  0.00000000000E+00 -0.32350174422E+03  0.10485306024E+04  0.99737808559E+03 0.  0.
        4    1    3    3  502    0 -0.17708959497E+03  0.28739655895E+03  0.22413252181E+03  0.40520921383E+03  0.12699999809E+01 0.  1.
       -4    1    3    3    0  502  0.17708959497E+03 -0.28739655895E+03 -0.54763426603E+03  0.64332138855E+03  0.12699999809E+01 0. -1.
</event>
<event>
 5   0  0.3466598E-03  0.1048878E+04  0.7818609E-02  0.9256503E-01
        1   -1    0    0  501    0  0.00000000000E+00  0.00000000000E+00  0.10032237236E+04  0.10032237236E+04  0.50400001928E-02 0.  1.
       -1   -1    0    0    0  501  0.00000000000E+00  0.00000000000E+00 -0.27415242880E+03  0.27415242885E+03  0.50400001928E-02 0. -1.
    10030    2    1    2    0    0  0.00000000000E+00  0.00000000000E+00  0.72907129479E+03  0.12773761524E+04  0.10488779157E+04 0.  0.
        3    1    3    3  502    0 -0.38381121521E+03  0.14008772619E+03  0.76494839514E+03  0.86722642798E+03  0.10100000352E+00 0.  1.
       -3    1    3    3    0  502  0.38381121521E+03 -0.14008772619E+03 -0.35877100354E+02  0.41014972447E+03  0.10100000352E+00 0. -1.
</event>
<event>
 5   0  0.6199539E-03  0.8127609E+03  0.7818609E-02  0.9541728E-01
       -2   -1    0    0    0  501  0.00000000000E+00  0.00000000000E+00  0.25966937454E+03  0.25966937455E+03  0.25500000920E-02 0. -1.
        2   -1    0    0  501    0  0.00000000000E+00  0.00000000000E+00 -0.63598201183E+03  0.63598201184E+03  0.25500000920E-02 0.  1.
    10030    2    1    2    0    0  0.00000000000E+00  0.00000000000E+00 -0.37631263729E+03  0.89565138639E+03  0.81276085349E+03 0.  0.
        2    1    3    3  502    0 -0.60132659891E+02  0.38190775973E+03 -0.32612737825E+03  0.50579495903E+03  0.25500000920E-02 0.  1.
       -2    1    3    3    0  502  0.60132659891E+02 -0.38190775973E+03 -0.50185259038E+02  0.38985642736E+03  0.25500000920E-02 0. -1.
</event>
<event>
 5   0  0.3466598E-03  0.1001205E+04  0.7818609E-02  0.9307224E-01
        1   -1    0    0  501    0  0.00000000000E+00  0.00000000000E+00  0.58041056547E+03  0.58041056550E+03  0.50400001928E-02 0. -1.
       -1   -1    0    0    0  501  0.00000000000E+00  0.00000000000E+00 -0.43176865072E+03  0.43176865075E+03  0.50400001928E-02 0.  1.
    10030    2    1    2    0    0  0.00000000000E+00  0.00000000000E+00  0.14864191475E+03  0.10121792162E+04  0.10012054469E+04 0.  0.
        3    1    3    3  502    0  0.29819528274E+03 -0.23470521234E+03  0.40439007821E+03  0.55456136622E+03  0.10100000352E+00 0. -1.
       -3    1    3    3    0  502 -0.29819528274E+03  0.23470521234E+03 -0.25574816345E+03  0.45761785003E+03  0.10100000352E+00 0.  1.
</event>
<event>
 5   0  0.6360455E-03  0.9171522E+03  0.7818609E-02  0.9404391E-01
       -2   -1    0    0    0  501  0.00000000000E+00  0.00000000000E+00  0.97920841716E+03  0.97920841716E+03  0.25500000920E-02 0.  1.
        2   -1    0    0  501    0  0.00000000000E+00  0.00000000000E+00 -0.21475720390E+03  0.21475720392E+03  0.25500000920E-02 0. -1.
    10030    2    1    2    0    0  0.00000000000E+00  0.00000000000E+00  0.76445121326E+03  0.11939656211E+04  0.91715224847E+03 0.  0.
        4    1    3    3  502    0 -0.26266906134E+03  0.29617312414E+03  0.80897840861E+02  0.40405399244E+03  0.12699999809E+01 0. -1.
       -4    1    3    3    0  502  0.26266906134E+03 -0.29617312414E+03  0.68355337240E+03  0.78991162864E+03  0.12699999809E+01 0.  1.
</event>
<event>
 5   0  0.6606947E-03  0.9939249E+03  0.7818609E-02  0.9315233E-01
        2   -1    0    0  501    0  0.00000000000E+00  0.00000000000E+00  0.82390145589E+03  0.82390145590E+03  0.25500000920E-02 0.  1.
       -2   -1    0    0    0  501  0.00000000000E+00  0.00000000000E+00 -0.29975878266E+03  0.29975878267E+03  0.25500000920E-02 0. -1.
    10030    2    1    2    0    0  0.00000000000E+00  0.00000000000E+00  0.52414267323E+03  0.11236602386E+04  0.99392494176E+03 0.  0.
        1    1    3    3  502    0  0.28778046220E+03  0.17272951285E+03  0.67640434407E+03  0.75509993758E+03  0.50400001928E-02 0.  1.
       -1    1    3    3    0  502 -0.28778046220E+03 -0.17272951285E+03 -0.15226167084E+03  0.36856030099E+03  0.50400001928E-02 0. -1.
</event>
<event>
 5   0  0.6376961E-03  0.1003382E+04  0.7818609E-02  0.9304843E-01
       -2   -1    0    0    0  501  0.00000000000E+00  0.00000000000E+00  0.30804326460E+03  0.30804326461E+03  0.25500000920E-02 0.  1.
        2   -1    0    0  501    0  0.00000000000E+00  0.00000000000E+00 -0.81707337038E+03  0.81707337038E+03  0.25500000920E-02 0. -1.
    10030    2    1    2    0    0  0.00000000000E+00  0.00000000000E+00 -0.50903010578E+03  0.11251166350E+04  0.10033821773E+04 0.  0.
        3    1    3    3  502    0 -0.10897476435E+03  0.18712760767E+03 -0.76197052398E+03  0.79214350368E+03  0.10100000352E+00 0. -1.
       -3    1    3    3    0  502  0.10897476435E+03 -0.18712760767E+03  0.25294041820E+03  0.33297313131E+03  0.10100000352E+00 0.  1.
</event>
<event>
 5   0  0.6376961E-03  0.9866183E+03  0.7818609E-02  0.9323345E-01
        2   -1    0    0  501    0  0.00000000000E+00  0.00000000000E+00  0.10048572465E+04  0.10048572465E+04  0.25500000920E-02 0.  1.
       -2   -1    0    0    0  501  0.00000000000E+00  0.00000000000E+00 -0.24217761689E+03  0.24217761690E+03  0.25500000920E-02 0. -1.
    10030    2    1    2    0    0  0.00000000000E+00  0.00000000000E+00  0.76267962963E+03  0.12470348634E+04  0.98661833206E+03 0.  0.
        3    1    3    3  502    0  0.14415312281E+03 -0.36045799637E+03 -0.33739030403E+01  0.38822864833E+03  0.10100000352E+00 0. -1.
       -3    1    3    3    0  502 -0.14415312281E+03  0.36045799637E+03  0.76605353267E+03  0.85880621509E+03  0.10100000352E+00 0.  1.
</event>
<event>
 5   0  0.6022787E-03  0.9110576E+03  0.7818609E-02  0.9411863E-01
        2   -1    0    0  501    0  0.00000000000E+00  0.00000000000E+00  0.69229812945E+03  0.69229812945E+03  0.25500000920E-02 0. -1.
       -2   -1    0    0    0  501  0.00000000000E+00  0.00000000000E+00 -0.29973573878E+03  0.29973573879E+03  0.25500000920E-02 0.  1.
    10030    2    1    2    0    0  0.00000000000E+00  0.00000000000E+00  0.39256239067E+03  0.99203386824E+03  0.91105760804E+03 0.  0.
        5    1    3    3  502    0  0.91287401459E+02 -0.18821754403E+03  0.63687499602E+03  0.67036638049E+03  0.46999998093E+01 0. -1.
       -5    1    3    3    0  502 -0.91287401459E+02  0.18821754403E+03 -0.24431260534E+03  0.32166748775E+03  0.46999998093E+01 0.  1.
</event>
<event>
 5   0  0.3466598E-03  0.1008326E+04  0.7818609E-02  0.9299460E-01
       -1   -1    0    0    0  501  0.00000000000E+00  0.00000000000E+00  0.84881437291E+03  0.84881437292E+03  0.50400001928E-02 0. -1.
        1   -1    0    0  501    0  0.00000000000E+00  0.00000000000E+00 -0.29945337740E+03  0.29945337744E+03  0.50400001928E-02 0.  1.
    10030    2    1    2    0    0  0.00000000000E+00  0.00000000000E+00  0.54936099551E+03  0.11482677504E+04  0.10083260004E+04 0.  0.
        3    1    3    3  502    0  0.14957770133E+03 -0.30878082122E+03  0.69535564214E+03  0.77539574641E+03  0.10100000352E+00 0. -1.
       -3    1    3    3    0  502 -0.14957770133E+03  0.30878082122E+03 -0.14599464663E+03  0.37287200395E+03  0.10100000352E+00 0.  1.
</event>
<event>
 5   0  0.3569359E-03  0.1003603E+04  0.7818609E-02  0.9304602E-01
        1   -1    0    0  501    0  0.00000000000E+00  0.00000000000E+00  0.58812982810E+03  0.58812982812E+03  0.50400001928E-02 0.  1.
       -1   -1    0    0    0  501  0.00000000000E+00  0.00000000000E+00 -0.42814512418E+03  0.42814512421E+03  0.50400001928E-02 0. -1.
    10030    2    1    2    0    0  0.00000000000E+00  0.00000000000E+00  0.15998470392E+03  0.10162749523E+04  0.10036033446E+04 0.  0.
        4    1    3    3  502    0  0.16824627443E+03 -0.89722322298E+02 -0.39003025196E+03  0.43414526869E+03  0.12699999809E+01 0. -1.
       -4    1    3    3    0  502 -0.16824627443E+03  0.89722322298E+02  0.55001495588E+03  0.58212968364E+03  0.12699999809E+01 0.  1.
</event>
<event>
 5   0  0.6360455E-03  0.1000516E+04  0.7818609E-02  0.9307979E-01
        2   -1    0    0  501    0  0.00000000000E+00  0.00000000000E+00  0.17834411335E+04  0.17834411335E+04  0.25500000920E-02 0. -1.
       -2   -1    0    0    0  501  0.00000000000E+00  0.00000000000E+00 -0.14032318463E+03  0.14032318466E+03  0.25500000920E-02 0.  1.
    10030    2    1    2    0    0  0.00000000000E+00  0.00000000000E+00  0.16431179488E+04  0.19237643181E+04  0.10005161458E+04 0.  0.
        4    1    3    3  502    0  0.88859233133E+02  0.23379594624E+03  0.16545875931E+04  0.16733852586E+04  0.12699999809E+01 0. -1.
       -4    1    3    3    0  502 -0.88859233133E+02 -0.23379594624E+03 -0.11469644241E+02  0.25037905948E+03  0.12699999809E+01 0.  1.
</event>
<event>
 5   0  0.3466598E-03  0.9993341E+03  0.7818609E-02  0.9309275E-01
        1   -1    0    0  501    0  0.00000000000E+00  0.00000000000E+00  0.11406140553E+04  0.11406140553E+04  0.50400001928E-02 0.  1.
       -1   -1    0    0    0  501  0.00000000000E+00  0.00000000000E+00 -0.21888839701E+03  0.21888839707E+03  0.50400001928E-02 0. -1.
    10030    2    1    2    0    0  0.00000000000E+00  0.00000000000E+00  0.92172565827E+03  0.13595024524E+04  0.99933414274E+03 0.  0.
        3    1    3    3  502    0 -0.33910481313E+02  0.38110159111E+03  0.23668096027E+02  0.38333866549E+03  0.10100000352E+00 0. -1.
       -3    1    3    3    0  502  0.33910481313E+02 -0.38110159111E+03  0.89805756224E+03  0.97616378687E+03  0.10100000352E+00 0.  1.
</event>
<event>
 5   0  0.3643002E-03  0.1075859E+04  0.7818609E-02  0.9229046E-01
       -1   -1    0    0    0  501  0.00000000000E+00  0.00000000000E+00  0.41201106241E+03  0.41201106244E+03  0.50400001928E-02 0. -1.
        1   -1    0    0  501    0  0.00000000000E+00  0.00000000000E+00 -0.70233148276E+03  0.70233148278E+03  0.50400001928E-02 0.  1.
    10030    2    1    2    0    0  0.00000000000E+00  0.00000000000E+00 -0.29032042036E+03  0.11143425452E+04  0.10758593596E+04 0.  0.
        2    1    3    3  502    0 -0.11107539295E+03  0.30775964623E+03 -0.58741641147E+03  0.67239258119E+03  0.25500000920E-02 0.  1.
       -2    1    3    3    0  502  0.11107539295E+03 -0.30775964623E+03  0.29709599112E+03  0.44194996403E+03  0.25500000920E-02 0. -1.
</event>
<event>
 5   0  0.3466598E-03  0.1004964E+04  0.7818609E-02  0.9303117E-01
       -1   -1    0    0    0  501  0.00000000000E+00  0.00000000000E+00  0.23868478449E+03  0.23868478455E+03  0.50400001928E-02 0.  1.
        1   -1    0    0  501    0  0.00000000000E+00  0.00000000000E+00 -0.10578308975E+04  0.10578308975E+04  0.50400001928E-02 0. -1.
    10030    2    1    2    0    0  0.00000000000E+00  0.00000000000E+00 -0.81914611300E+03  0.12965156821E+04  0.10049639592E+04 0.  0.
        3    1    3    3  502    0  0.12202005004E+03  0.20631193330E+03  0.16017538376E+03  0.28828747839E+03  0.10100000352E+00 0.  1.
       -3    1    3    3    0  502 -0.12202005004E+03 -0.20631193330E+03 -0.97932149677E+03  0.10082282037E+04  0.10100000352E+00 0. -1.
</event>
<event>
 5   0  0.3466598E-03  0.9878054E+03  0.7818609E-02  0.9322022E-01
        1   -1    0    0  501    0  0.00000000000E+00  0.00000000000E+00  0.14407402153E+04  0.14407402153E+04  0.50400001928E-02 0.  1.
       -1   -1    0    0    0  501  0.00000000000E+00  0.00000000000E+00 -0.16931566715E+03  0.16931566723E+03  0.50400001928E-02 0. -1.
    10030    2    1    2    0    0  0.00000000000E+00  0.00000000000E+00  0.12714245482E+04  0.16100558825E+04  0.98780542784E+03 0.  0.
        3    1    3    3  502    0 -0.22269247665E+03 -0.26333128600E+03  0.59433669097E+02  0.34995382062E+03  0.10100000352E+00 0. -1.
       -3    1    3    3    0  502  0.22269247665E+03  0.26333128600E+03  0.12119908791E+04  0.12601020619E+04  0.10100000352E+00 0.  1.
</event>
<event>
 5   0  0.3640180E-03  0.1040443E+04  0.7818609E-02  0.9265267E-01
       -1   -1    0    0    0  501  0.00000000000E+00  0.00000000000E+00  0.14087740904E+03  0.14087740913E+03  0.50400001928E-02 0. -1.
        1   -1    0    0  501    0  0.00000000000E+00  0.00000000000E+00 -0.19210340744E+04  0.19210340745E+04  0.50400001928E-02 0.  1.
    10030    2    1    2    0    0  0.00000000000E+00  0.00000000000E+00 -0.17801566654E+04  0.20619114836E+04  0.10404427965E+04 0.  0.
        5    1    3    3  502    0  0.14731248569E+03  0.41089857138E+03 -0.14508494835E+04  0.15150989797E+04  0.46999998093E+01 0.  1.
       -5    1    3    3    0  502 -0.14731248569E+03 -0.41089857138E+03 -0.32930718191E+03  0.54681250393E+03  0.46999998093E+01 0. -1.
</event>
<event>
 5   0  0.3643002E-03  0.9969074E+03  0.7818609E-02  0.9311943E-01
       -1   -1    0    0    0  501  0.00000000000E+00  0.00000000000E+00  0.25911855502E+03  0.25911855506E+03  0.50400001928E-02 0.  1.
        1   -1    0    0  501    0  0.00000000000E+00  0.00000000000E+00 -0.95885093864E+03  0.95885093865E+03  0.50400001928E-02 0. -1.
    10030    2    1    2    0    0  0.00000000000E+00  0.00000000000E+00 -0.69973238362E+03  0.12179694937E+04  0.99690735725E+03 0.  0.
        2    1    3    3  502    0  0.97024626805E+02 -0.18541363562E+03  0.20285029389E+03  0.29144508268E+03  0.25500000920E-02 0.  1.
       -2    1    3    3    0  502 -0.97024626805E+02  0.18541363562E+03 -0.90258267752E+03  0.92652441103E+03  0.25500000920E-02 0. -1.
</event>
<event>
 5   0  0.2417750E-03  0.1005191E+04  0.7818609E-02  0.9302870E-01
        3   -1    0    0  501    0  0.00000000000E+00  0.00000000000E+00  0.16060371399E+03  0.16060374574E+03  0.10100000352E+00 0. -1.
       -3   -1    0    0    0  501  0.00000000000E+00  0.00000000000E+00 -0.15728281048E+04  0.15728281080E+04  0.10100000352E+00 0.  1.
    10030    2    1    2    0    0  0.00000000000E+00  0.00000000000E+00 -0.14122243908E+04  0.17334318538E+04  0.10051906594E+04 0.  0.
        4    1    3    3  502    0 -0.81466608599E+02 -0.16563680506E+03 -0.15122549715E+04  0.15234792651E+04  0.12699999809E+01 0.  1.
       -4    1    3    3    0  502  0.81466608599E+02  0.16563680506E+03  0.10003058070E+03  0.20995258866E+03  0.12699999809E+01 0. -1.
</event>
<event>
 5   0  0.3643002E-03  0.1010704E+04  0.7818609E-02  0.9296883E-01
       -1   -1    0    0    0  501  0.00000000000E+00  0.00000000000E+00  0.69072118416E+03  0.69072118418E+03  0.50400001928E-02 0. -1.
        1   -1    0    0  501    0  0.00000000000E+00  0.00000000000E+00 -0.36973011525E+03  0.36973011529E+03  0.50400001928E-02 0.  1.
    10030    2    1    2    0    0  0.00000000000E+00  0.00000000000E+00  0.32099106891E+03  0.10604512995E+04  0.10107035630E+04 0.  0.
        2    1    3    3  502    0 -0.10117215703E+03 -0.40605055964E+03  0.45775587055E+03  0.62020424005E+03  0.25500000920E-02 0. -1.
       -2    1    3    3    0  502  0.10117215703E+03  0.40605055964E+03 -0.13676480165E+03  0.44024705941E+03  0.25500000920E-02 0.  1.
</event>
<event>
 5   0  0.6022787E-03  0.9985068E+03  0.7818609E-02  0.9310184E-01
        2   -1    0    0  501    0  0.00000000000E+00  0.00000000000E+00  0.51187902082E+03  0.51187902083E+03  0.25500000920E-02 0. -1.
       -2   -1    0    0    0  501  0.00000000000E+00  0.00000000000E+00 -0.48693920899E+03  0.48693920900E+03  0.25500000920E-02 0.  1.
    10030    2    1    2    0    0  0.00000000000E+00  0.00000000000E+00  0.24939811829E+02  0.99881822983E+03  0.99850681621E+03 0.  0.
        5    1    3    3  502    0  0.29890746708E+03 -0.30166897191E+02  0.41131240385E+03  0.50936794081E+03  0.46999998093E+01 0. -1.
       -5    1    3    3    0  502 -0.29890746708E+03  0.30166897191E+02 -0.38637259202E+03  0.48945028902E+03  0.46999998093E+01 0.  1.
</event>
<event>
 5   0  0.3466598E-03  0.1009998E+04  0.7818609E-02  0.9297646E-01
       -1   -1    0    0    0  501  0.00000000000E+00  0.00000000000E+00  0.14456088598E+04  0.14456088598E+04  0.50400001928E-02 0. -1.
        1   -1    0    0  501    0  0.00000000000E+00  0.00000000000E+00 -0.17641300373E+03  0.17641300380E+03  0.50400001928E-02 0.  1.
    10030    2    1    2    0    0  0.00000000000E+00  0.00000000000E+00  0.12691958561E+04  0.16220218636E+04  0.10099984183E+04 0.  0.
        3    1    3    3  502    0 -0.21181915905E+03  0.20487191694E+03  0.12932086222E+04  0.13263590800E+04  0.10100000352E+00 0. -1.
       -3    1    3    3    0  502  0.21181915905E+03 -0.20487191694E+03 -0.24012766056E+02  0.29566278363E+03  0.10100000352E+00 0.  1.
</event>
<event>
 5   0  0.6022787E-03  0.1008008E+04  0.7818609E-02  0.9299805E-01
       -2   -1    0    0    0  501  0.00000000000E+00  0.00000000000E+00  0.19273110510E+03  0.19273110512E+03  0.25500000920E-02 0.  1.
        2   -1    0    0  501    0  0.00000000000E+00  0.00000000000E+00 -0.13180017846E+04  0.13180017846E+04  0.25500000920E-02 0. -1.
    10030    2    1    2    0    0  0.00000000000E+00  0.00000000000E+00 -0.11252706795E+04  0.15107328897E+04  0.10080078184E+04 0.  0.
        5    1    3    3  502    0  0.19936115982E+03  0.46280681740E+03 -0.55075575859E+03  0.74651792872E+03  0.46999998093E+01 0.  1.
       -5    1    3    3    0  502 -0.19936115982E+03 -0.46280681740E+03 -0.57451492094E+03  0.76421496103E+03  0.46999998093E+01 0. -1.
</event>
<event>
 5   0  0.3466598E-03  0.9947873E+03  0.7818609E-02  0.9314281E-01
        1   -1    0    0  501    0  0.00000000000E+00  0.00000000000E+00  0.86770079055E+03  0.86770079057E+03  0.50400001928E-02 0.  1.
       -1   -1    0    0    0  501  0.00000000000E+00  0.00000000000E+00 -0.28512182633E+03  0.28512182637E+03  0.50400001928E-02 0. -1.
    10030    2    1    2    0    0  0.00000000000E+00  0.00000000000E+00  0.58257896422E+03  0.11528226169E+04  0.99478728207E+03 0.  0.
        3    1    3    3  502    0 -0.84702178601E+02  0.64024019198E+02  0.85441471412E+03  0.86098667121E+03  0.10100000352E+00 0.  1.
       -3    1    3    3    0  502  0.84702178601E+02 -0.64024019198E+02 -0.27183574990E+03  0.29183594573E+03  0.10100000352E+00 0. -1.
</event>
<event>
 5   0  0.6360455E-03  0.9995694E+03  0.7818609E-02  0.9309017E-01
        2   -1    0    0  501    0  0.00000000000E+00  0.00000000000E+00  0.13165485687E+04  0.13165485687E+04  0.25500000920E-02 0.  1.
       -2   -1    0    0    0  501  0.00000000000E+00  0.00000000000E+00 -0.18972694032E+03  0.18972694034E+03  0.25500000920E-02 0. -1.
    10030    2    1    2    0    0  0.00000000000E+00  0.00000000000E+00  0.11268216284E+04  0.15062755090E+04  0.99956937075E+03 0.  0.
        4    1    3    3  502    0 -0.13055191734E+03 -0.17218464786E+03 -0.11569528283E+03  0.24510888896E+03  0.12699999809E+01 0. -1.
       -4    1    3    3    0  502  0.13055191734E+03  0.17218464786E+03  0.12425169112E+04  0.12611666201E+04  0.12699999809E+01 0.  1.
</event>
<event>
 5   0  0.3569359E-03  0.9868294E+03  0.7818609E-02  0.9323109E-01
       -1   -1    0    0    0  501  0.00000000000E+00  0.00000000000E+00  0.28313556917E+03  0.28313556921E+03  0.50400001928E-02 0.  1.
        1   -1    0    0  501    0  0.00000000000E+00  0.00000000000E+00 -0.85986400382E+03  0.85986400384E+03  0.50400001928E-02 0. -1.
    10030    2    1    2    0    0  0.00000000000E+00  0.00000000000E+00 -0.57672843466E+03  0.11429995730E+04  0.98682943645E+03 0.  0.
        4    1    3    3  502    0 -0.41728018385E+03  0.25098719506E+03 -0.19614543237E+03  0.52496853949E+03  0.12699999809E+01 0.  1.
       -4    1    3    3    0  502  0.41728018385E+03 -0.25098719506E+03 -0.38058300229E+03  0.61803103356E+03  0.12699999809E+01 0. -1.
</event>
<event>
 5   0  0.6360455E-03  0.1017980E+04  0.7818609E-02  0.9289042E-01
        2   -1    0    0  501    0  0.00000000000E+00  0.00000000000E+00  0.40171368796E+03  0.40171368797E+03  0.25500000920E-02 0. -1.
       -2   -1    0    0    0  501  0.00000000000E+00  0.00000000000E+00 -0.64491386663E+03  0.64491386663E+03  0.25500000920E-02 0.  1.
    10030    2    1    2    0    0  0.00000000000E+00  0.00000000000E+00 -0.24320017866E+03  0.10466275546E+04  0.10179798186E+04 0.  0.
        4    1    3    3  502    0 -0.15638024058E+03  0.15991213285E+03  0.34847824386E+03  0.41408377078E+03  0.12699999809E+01 0. -1.
       -4    1    3    3    0  502  0.15638024058E+03 -0.15991213285E+03 -0.59167842253E+03  0.63254378383E+03  0.12699999809E+01 0.  1.
</event>
<event>
 5   0  0.6199539E-03  0.9165089E+03  0.7818609E-02  0.9405177E-01
        2   -1    0    0  501    0  0.00000000000E+00  0.00000000000E+00  0.47094634914E+03  0.47094634915E+03  0.25500000920E-02 0. -1.
       -2   -1    0    0    0  501  0.00000000000E+00  0.00000000000E+00 -0.44590454646E+03  0.44590454646E+03  0.25500000920E-02 0.  1.
    10030    2    1    2    0    0  0.00000000000E+00  0.00000000000E+00  0.25041802686E+02  0.91685089561E+03  0.91650885042E+03 0.  0.
        2    1    3    3  502    0  0.42144770196E+03 -0.17796198722E+03 -0.14106392035E+02  0.45769818078E+03  0.25500000920E-02 0. -1.
       -2    1    3    3    0  502 -0.42144770196E+03  0.17796198722E+03  0.39148194721E+02  0.45915271484E+03  0.25500000920E-02 0.  1.
</event>
<event>
 5   0  0.3608845E-03  0.9681238E+03  0.7818609E-02  0.9344214E-01
        1   -1    0    0  501    0  0.00000000000E+00  0.00000000000E+00  0.58366981311E+03  0.58366981313E+03  0.50400001928E-02 0. -1.
       -1   -1    0    0    0  501  0.00000000000E+00  0.00000000000E+00 -0.40145283718E+03  0.40145283721E+03  0.50400001928E-02 0.  1.
    10030    2    1    2    0    0  0.00000000000E+00  0.00000000000E+00  0.18221697593E+03  0.98512265034E+03  0.96812375753E+03 0.  0.
        1    1    3    3  502    0  0.62939805823E+02  0.52345632054E+02  0.57657503808E+03  0.58235750095E+03  0.50400001928E-02 0. -1.
       -1    1    3    3    0  502 -0.62939805823E+02 -0.52345632054E+02 -0.39435806215E+03  0.40276514939E+03  0.50400001928E-02 0.  1.
</event>
<event>
 5   0  0.2417750E-03  0.9695515E+03  0.7818609E-02  0.9342585E-01
        3   -1    0    0  501    0  0.00000000000E+00  0.00000000000E+00  0.27373428873E+03  0.27373430736E+03  0.10100000352E+00 0.  1.
       -3   -1    0    0    0  501  0.00000000000E+00  0.00000000000E+00 -0.85852424669E+03  0.85852425263E+03  0.10100000352E+00 0. -1.
    10030    2    1    2    0    0  0.00000000000E+00  0.00000000000E+00 -0.58478995796E+03  0.11322585600E+04  0.96955152093E+03 0.  0.
        2    1    3    3  502    0 -0.20843664493E+03  0.43735625348E+03 -0.31197848781E+03  0.57624378891E+03  0.25500000920E-02 0. -1.
       -2    1    3    3    0  502  0.20843664493E+03 -0.43735625348E+03 -0.27281147015E+03  0.55601477108E+03  0.25500000920E-02 0.  1.
</event>
<event>
 5   0  0.3608845E-03  0.9834598E+03  0.7818609E-02  0.9326874E-01
        1   -1    0    0  501    0  0.00000000000E+00  0.00000000000E+00  0.59968915098E+03  0.59968915100E+03  0.50400001928E-02 0.  1.
       -1   -1    0    0    0  501  0.00000000000E+00  0.00000000000E+00 -0.40320606957E+03  0.40320606960E+03  0.50400001928E-02 0. -1.
    10030    2    1    2    0    0  0.00000000000E+00  0.00000000000E+00  0.19648308141E+03  0.10028952206E+04  0.98345982238E+03 0.  0.
        1    1    3    3  502    0  0.23654837521E+03 -0.31593124773E+03  0.39734777270E+03  0.56004726551E+03  0.50400001928E-02 0.  1.
       -1    1    3    3    0  502 -0.23654837521E+03  0.31593124773E+03 -0.20086469129E+03  0.44284795510E+03  0.50400001928E-02 0. -1.
</event>
<event>
 5   0  0.6022787E-03  0.9977235E+03  0.7818609E-02  0.9311045E-01
       -2   -1    0    0    0  501  0.00000000000E+00  0.00000000000E+00  0.50089047824E+03  0.50089047824E+03  0.25500000920E-02 0.  1.
        2   -1    0    0  501    0  0.00000000000E+00  0.00000000000E+00 -0.49684124246E+03  0.49684124247E+03  0.25500000920E-02 0. -1.
    10030    2    1    2    0    0  0.00000000000E+00  0.00000000000E+00  0.40492357775E+01  0.99773172071E+03  0.99772350388E+03 0.  0.
        5    1    3    3  502    0  0.23471105677E+03  0.11988651162E+03 -0.42151033498E+03  0.49714696854E+03  0.46999998093E+01 0. -1.
       -5    1    3    3    0  502 -0.23471105677E+03 -0.11988651162E+03  0.42555957075E+03  0.50058475216E+03  0.46999998093E+01 0.  1.
</event>
<event>
 5   0  0.6376961E-03  0.1013912E+04  0.7818609E-02  0.9293416E-01
       -2   -1    0    0    0  501  0.00000000000E+00  0.00000000000E+00  0.19131509905E+03  0.19131509907E+03  0.25500000920E-02 0.  1.
        2   -1    0    0  501    0  0.00000000000E+00  0.00000000000E+00 -0.13433570229E+04  0.13433570229E+04  0.25500000920E-02 0. -1.
    10030    2    1    2    0    0  0.00000000000E+00  0.00000000000E+00 -0.11520419238E+04  0.15346721219E+04  0.10139121893E+04 0.  0.
        3    1    3    3  502    0  0.35565103412E+03  0.18638488819E+03 -0.10444534188E+04  0.11189771842E+04  0.10100000352E+00 0. -1.
       -3    1    3    3    0  502 -0.35565103412E+03 -0.18638488819E+03 -0.10758850503E+03  0.41569493771E+03  0.10100000352E+00 0.  1.
</event>
<event>
 5   0  0.6022787E-03  0.9978749E+03  0.7818609E-02  0.9310879E-01
       -2   -1    0    0    0  501  0.00000000000E+00  0.00000000000E+00  0.25496254911E+03  0.25496254912E+03  0.25500000920E-02 0. -1.
        2   -1    0    0  501    0  0.00000000000E+00  0.00000000000E+00 -0.97637315764E+03  0.97637315764E+03  0.25500000920E-02 0.  1.
    10030    2    1    2    0    0  0.00000000000E+00  0.00000000000E+00 -0.72141060853E+03  0.12313357068E+04  0.99787492034E+03 0.  0.
        5    1    3    3  502    0 -0.46540174285E+03  0.17009926361E+03 -0.28892375765E+03  0.57361273474E+03  0.46999998093E+01 0. -1.
       -5    1    3    3    0  502  0.46540174285E+03 -0.17009926361E+03 -0.43248685088E+03  0.65772297201E+03  0.46999998093E+01 0.  1.
</event>
<event>
 5   0  0.3643002E-03  0.1022268E+04  0.7818609E-02  0.9284453E-01
       -1   -1    0    0    0  501  0.00000000000E+00  0.00000000000E+00  0.46846682344E+03  0.46846682347E+03  0.50400001928E-02 0.  1.
        1   -1    0    0  501    0  0.00000000000E+00  0.00000000000E+00 -0.55768734281E+03  0.55768734283E+03  0.50400001928E-02 0. -1.
    10030    2    1    2    0    0  0.00000000000E+00  0.00000000000E+00 -0.89220519373E+02  0.10261541663E+04  0.10222681018E+04 0.  0.
        2    1    3    3  502    0 -0.22020805230E+03  0.21054801045E+03 -0.45657990755E+03  0.54889640461E+03  0.25500000920E-02 0. -1.
       -2    1    3    3    0  502  0.22020805230E+03 -0.21054801045E+03  0.36735938818E+03  0.47725776169E+03  0.25500000920E-02 0.  1.
</event>
<event>
 5   0  0.6360455E-03  0.9996403E+03  0.7818609E-02  0.9308939E-01
       -2   -1    0    0    0  501  0.00000000000E+00  0.00000000000E+00  0.20873192811E+03  0.20873192812E+03  0.25500000920E-02 0. -1.
        2   -1    0    0  501    0  0.00000000000E+00  0.00000000000E+00 -0.11968470979E+04  0.11968470979E+04  0.25500000920E-02 0.  1.
    10030    2    1    2    0    0  0.00000000000E+00  0.00000000000E+00 -0.98811516978E+03  0.14055790260E+04  0.99964034013E+03 0.  0.
        4    1    3    3  502    0 -0.39579148460E+02 -0.57686135064E+02 -0.11899266210E+04  0.11919820365E+04  0.12699999809E+01 0.  1.
       -4    1    3    3    0  502  0.39579148460E+02  0.57686135064E+02  0.20181145121E+03  0.21359698947E+03  0.12699999809E+01 0. -1.
</event>
<event>
 5   0  0.3608845E-03  0.9889309E+03  0.7818609E-02  0.9320769E-01
        1   -1    0    0  501    0  0.00000000000E+00  0.00000000000E+00  0.22736094611E+04  0.22736094611E+04  0.50400001928E-02 0. -1.
       -1   -1    0    0    0  501  0.00000000000E+00  0.00000000000E+00 -0.10753653837E+03  0.10753653849E+03  0.50400001928E-02 0.  1.
    10030    2    1    2    0    0  0.00000000000E+00  0.00000000000E+00  0.21660729227E+04  0.23811459996E+04  0.98893092014E+03 0.  0.
        1    1    3    3  502    0  0.35345728818E+03  0.24649122499E+03  0.16669268208E+04  0.17217244275E+04  0.50400001928E-02 0.  1.
       -1    1    3    3    0  502 -0.35345728818E+03 -0.24649122499E+03  0.49914610196E+03  0.65942157206E+03  0.50400001928E-02 0. -1.
</event>
<event>
 5   0  0.6376961E-03  0.9945076E+03  0.7818609E-02  0.9314589E-01
       -2   -1    0    0    0  501  0.00000000000E+00  0.00000000000E+00  0.35540265336E+03  0.35540265336E+03  0.25500000920E-02 0.  1.
        2   -1    0    0  501    0  0.00000000000E+00  0.00000000000E+00 -0.69572173027E+03  0.69572173027E+03  0.25500000920E-02 0. -1.
    10030    2    1    2    0    0  0.00000000000E+00  0.00000000000E+00 -0.34031907691E+03  0.10511243836E+04  0.99450761473E+03 0.  0.
        3    1    3    3  502    0  0.28108253479E+03 -0.10153639432E+03 -0.59020663562E+03  0.66155945588E+03  0.10100000352E+00 0. -1.
       -3    1    3    3    0  502 -0.28108253479E+03  0.10153639432E+03  0.24988755871E+03  0.38956492775E+03  0.10100000352E+00 0.  1.
</event>
<event>
 5   0  0.3608845E-03  0.1002614E+04  0.7818609E-02  0.9305682E-01
       -1   -1    0    0    0  501  0.00000000000E+00  0.00000000000E+00  0.20682463990E+03  0.20682463996E+03  0.50400001928E-02 0.  1.
        1   -1    0    0  501    0  0.00000000000E+00  0.00000000000E+00 -0.12150816571E+04  0.12150816571E+04  0.50400001928E-02 0. -1.
    10030    2    1    2    0    0  0.00000000000E+00  0.00000000000E+00 -0.10082570172E+04  0.14219062970E+04  0.10026142353E+04 0.  0.
        1    1    3    3  502    0  0.10644464846E+03  0.79785711723E+02  0.18133642978E+03  0.22489802972E+03  0.50400001928E-02 0.  1.
       -1    1    3    3    0  502 -0.10644464846E+03 -0.79785711723E+02 -0.11895934469E+04  0.11970082673E+04  0.50400001928E-02 0. -1.
</event>
<event>
 5   0  0.6022787E-03  0.1028059E+04  0.7818609E-02  0.9278295E-01
        2   -1    0    0  501    0  0.00000000000E+00  0.00000000000E+00  0.96045848913E+03  0.96045848914E+03  0.25500000920E-02 0. -1.
       -2   -1    0    0    0  501  0.00000000000E+00  0.00000000000E+00 -0.27510427206E+03  0.27510427207E+03  0.25500000920E-02 0.  1.
    10030    2    1    2    0    0  0.00000000000E+00  0.00000000000E+00  0.68535421707E+03  0.12355627612E+04  0.10280588184E+04 0.  0.
        5    1    3    3  502    0 -0.36163504916E+02 -0.27055352587E+03 -0.18077533647E+03  0.32742758241E+03  0.46999998093E+01 0.  1.
       -5    1    3    3    0  502  0.36163504916E+02  0.27055352587E+03  0.86612955354E+03  0.90813517880E+03  0.46999998093E+01 0. -1.
</event>
<event>
 5   0  0.2417750E-03  0.9177926E+03  0.7818609E-02  0.9403609E-01
       -3   -1    0    0    0  501  0.00000000000E+00  0.00000000000E+00  0.39212391752E+03  0.39212393052E+03  0.10100000352E+00 0. -1.
        3   -1    0    0  501    0  0.00000000000E+00  0.00000000000E+00 -0.53703895231E+03  0.53703896181E+03  0.10100000352E+00 0.  1.
    10030    2    1    2    0    0  0.00000000000E+00  0.00000000000E+00 -0.14491503479E+03  0.92916289233E+03  0.91779263081E+03 0.  0.
        4    1    3    3  502    0  0.12020874077E+03  0.69907112165E+02  0.37027832833E+03  0.39553103421E+03  0.12699999809E+01 0. -1.
       -4    1    3    3    0  502 -0.12020874077E+03 -0.69907112165E+02 -0.51519336313E+03  0.53363185812E+03  0.12699999809E+01 0.  1.
</event>
<event>
 5   0  0.3569359E-03  0.9947406E+03  0.7818609E-02  0.9314332E-01
        1   -1    0    0  501    0  0.00000000000E+00  0.00000000000E+00  0.47889345945E+03  0.47889345948E+03  0.50400001928E-02 0.  1.
       -1   -1    0    0    0  501  0.00000000000E+00  0.00000000000E+00 -0.51656001602E+03  0.51656001604E+03  0.50400001928E-02 0. -1.
    10030    2    1    2    0    0  0.00000000000E+00  0.00000000000E+00 -0.37666556564E+02  0.99545347552E+03  0.99474059556E+03 0.  0.
        4    1    3    3  502    0 -0.35267052043E+03 -0.31307411216E+03  0.13934234076E+03  0.49174159526E+03  0.12699999809E+01 0.  1.
       -4    1    3    3    0  502  0.35267052043E+03  0.31307411216E+03 -0.17700889732E+03  0.50371188026E+03  0.12699999809E+01 0. -1.
</event>
<event>
 5   0  0.6199539E-03  0.9929240E+03  0.7818609E-02  0.9316340E-01
       -2   -1    0    0    0  501  0.00000000000E+00  0.00000000000E+00  0.72678537414E+03  0.72678537414E+03  0.25500000920E-02 0. -1.
        2   -1    0    0  501    0  0.00000000000E+00  0.00000000000E+00 -0.33912972876E+03  0.33912972877E+03  0.25500000920E-02 0.  1.
    10030    2    1    2    0    0  0.00000000000E+00  0.00000000000E+00  0.38765564538E+03  0.10659151029E+04  0.99292401886E+03 0.  0.
        2    1    3    3  502    0 -0.37616713822E+02 -0.20037898501E+03  0.67977136473E+03  0.70968715862E+03  0.25500000920E-02 0. -1.
       -2    1    3    3    0  502  0.37616713822E+02  0.20037898501E+03 -0.29211571935E+03  0.35622794429E+03  0.25500000920E-02 0.  1.
</event>
<event>
 5   0  0.6376961E-03  0.1011758E+04  0.7818609E-02  0.9295742E-01
        2   -1    0    0  501    0  0.00000000000E+00  0.00000000000E+00  0.12529792394E+04  0.12529792394E+04  0.25500000920E-02 0.  1.
       -2   -1    0    0    0  501  0.00000000000E+00  0.00000000000E+00 -0.20424392193E+03  0.20424392195E+03  0.25500000920E-02 0. -1.
    10030    2    1    2    0    0  0.00000000000E+00  0.00000000000E+00  0.10487353175E+04  0.14572231614E+04  0.10117576666E+04 0.  0.
        3    1    3    3  502    0  0.62281157482E+02 -0.46097382338E+03  0.81075550124E+03  0.93471937040E+03  0.10100000352E+00 0.  1.
       -3    1    3    3    0  502 -0.62281157482E+02  0.46097382338E+03  0.23797981624E+03  0.52250379096E+03  0.10100000352E+00 0. -1.
</event>
<event>
 5   0  0.3640180E-03  0.1000437E+04  0.7818609E-02  0.9308066E-01
       -1   -1    0    0    0  501  0.00000000000E+00  0.00000000000E+00  0.27890241437E+03  0.27890241441E+03  0.50400001928E-02 0. -1.
        1   -1    0    0  501    0  0.00000000000E+00  0.00000000000E+00 -0.89715462241E+03  0.89715462242E+03  0.50400001928E-02 0.  1.
    10030    2    1    2    0    0  0.00000000000E+00  0.00000000000E+00 -0.61825220804E+03  0.11760570368E+04  0.10004370850E+04 0.  0.
        5    1    3    3  502    0 -0.98446301096E+02 -0.37075752898E+03  0.68228179707E+02  0.38965368469E+03  0.46999998093E+01 0. -1.
       -5    1    3    3    0  502  0.98446301096E+02  0.37075752898E+03 -0.68648038775E+03  0.78640335214E+03  0.46999998093E+01 0.  1.
</event>
<event>
 5   0  0.2417750E-03  0.9984100E+03  0.7818609E-02  0.9310290E-01
        4   -1    0    0  501    0  0.00000000000E+00  0.00000000000E+00  0.68001263102E+03  0.68001381695E+03  0.12699999809E+01 0. -1.
       -4   -1    0    0    0  501  0.00000000000E+00  0.00000000000E+00 -0.36646944823E+03  0.36647164881E+03  0.12699999809E+01 0.  1.
    10030    2    1    2    0    0  0.00000000000E+00  0.00000000000E+00  0.31354318279E+03  0.10464854658E+04  0.99840998722E+03 0.  0.
        1    1    3    3  502    0 -0.37150095045E+03  0.23580844063E+03  0.40389341084E+03  0.59728424071E+03  0.50400001928E-02 0.  1.
       -1    1    3    3    0  502  0.37150095045E+03 -0.23580844063E+03 -0.90350228048E+02  0.44920122505E+03  0.50400001928E-02 0. -1.
</event>
<event>
 5   0  0.6360455E-03  0.9980719E+03  0.7818609E-02  0.9310662E-01
       -2   -1    0    0    0  501  0.00000000000E+00  0.00000000000E+00  0.12477422597E+04  0.12477422597E+04  0.25500000920E-02 0. -1.
        2   -1    0    0  501    0  0.00000000000E+00  0.00000000000E+00 -0.19958999450E+03  0.19958999451E+03  0.25500000920E-02 0.  1.
    10030    2    1    2    0    0  0.00000000000E+00  0.00000000000E+00  0.10481522652E+04  0.14473322542E+04  0.99807188269E+03 0.  0.
        4    1    3    3  502    0  0.34987411922E+03  0.61607781340E+02  0.10322997307E+04  0.10917196366E+04  0.12699999809E+01 0. -1.
       -4    1    3    3    0  502 -0.34987411922E+03 -0.61607781340E+02  0.15852534437E+02  0.35561261756E+03  0.12699999809E+01 0.  1.
</event>
<event>
 5   0  0.6199539E-03  0.1002224E+04  0.7818609E-02  0.9306109E-01
        2   -1    0    0  501    0  0.00000000000E+00  0.00000000000E+00  0.10332928704E+04  0.10332928704E+04  0.25500000920E-02 0. -1.
       -2   -1    0    0    0  501  0.00000000000E+00  0.00000000000E+00 -0.24302210766E+03  0.24302210767E+03  0.25500000920E-02 0.  1.
    10030    2    1    2    0    0  0.00000000000E+00  0.00000000000E+00  0.79027076271E+03  0.12763149780E+04  0.10022235503E+04 0.  0.
        2    1    3    3  502    0 -0.46635609895E+03 -0.18335790752E+03  0.39232276556E+03  0.63641596904E+03  0.25500000920E-02 0.  1.
       -2    1    3    3    0  502  0.46635609895E+03  0.18335790752E+03  0.39794799715E+03  0.63989900900E+03  0.25500000920E-02 0. -1.
</event>
<event>
 5   0  0.3643002E-03  0.1002884E+04  0.7818609E-02  0.9305387E-01
        1   -1    0    0  501    0  0.00000000000E+00  0.00000000000E+00  0.91226010158E+03  0.91226010160E+03  0.50400001928E-02 0.  1.
       -1   -1    0    0    0  501  0.00000000000E+00  0.00000000000E+00 -0.27562758208E+03  0.27562758213E+03  0.50400001928E-02 0. -1.
    10030    2    1    2    0    0  0.00000000000E+00  0.00000000000E+00  0.63663251950E+03  0.11878876837E+04  0.10028839336E+04 0.  0.
        2    1    3    3  502    0  0.94360821250E+02 -0.31411351402E+03 -0.13096057456E+03  0.35315993030E+03  0.25500000920E-02 0. -1.
       -2    1    3    3    0  502 -0.94360821250E+02  0.31411351402E+03  0.76759309406E+03  0.83472775342E+03  0.25500000920E-02 0.  1.
</event>
<event>
 5   0  0.6199539E-03  0.1000692E+04  0.7818609E-02  0.9307786E-01
       -2   -1    0    0    0  501  0.00000000000E+00  0.00000000000E+00  0.24548655595E+03  0.24548655596E+03  0.25500000920E-02 0. -1.
        2   -1    0    0  501    0  0.00000000000E+00  0.00000000000E+00 -0.10197958220E+04  0.10197958221E+04  0.25500000920E-02 0.  1.
    10030    2    1    2    0    0  0.00000000000E+00  0.00000000000E+00 -0.77430926610E+03  0.12652823780E+04  0.10006920888E+04 0.  0.
        2    1    3    3  502    0 -0.46425500008E+03  0.11015008946E+03 -0.19673465574E+03  0.51611071688E+03  0.25500000920E-02 0.  1.
       -2    1    3    3    0  502  0.46425500008E+03 -0.11015008946E+03 -0.57757461036E+03  0.74917166113E+03  0.25500000920E-02 0. -1.
</event>
<event>
 5   0  0.6022787E-03  0.9958576E+03  0.7818609E-02  0.9313100E-01
       -2   -1    0    0    0  501  0.00000000000E+00  0.00000000000E+00  0.13280811752E+03  0.13280811754E+03  0.25500000920E-02 0. -1.
        2   -1    0    0  501    0  0.00000000000E+00  0.00000000000E+00 -0.18668519313E+04  0.18668519314E+04  0.25500000920E-02 0.  1.
    10030    2    1    2    0    0  0.00000000000E+00  0.00000000000E+00 -0.17340438138E+04  0.19996600489E+04  0.99585760169E+03 0.  0.
        5    1    3    3  502    0 -0.40672711409E+03  0.13574965096E+02 -0.29097446428E+03  0.50029936426E+03  0.46999998093E+01 0. -1.
       -5    1    3    3    0  502  0.40672711409E+03 -0.13574965096E+02 -0.14430693495E+04  0.14993606846E+04  0.46999998093E+01 0.  1.
</event>
<event>
 5   0  0.6360455E-03  0.1010447E+04  0.7818609E-02  0.9297160E-01
        2   -1    0    0  501    0  0.00000000000E+00  0.00000000000E+00  0.33109922581E+03  0.33109922582E+03  0.25500000920E-02 0.  1.
       -2   -1    0    0    0  501  0.00000000000E+00  0.00000000000E+00 -0.77091955571E+03  0.77091955572E+03  0.25500000920E-02 0. -1.
    10030    2    1    2    0    0  0.00000000000E+00  0.00000000000E+00 -0.43982032990E+03  0.11020187815E+04  0.10104471645E+04 0.  0.
        4    1    3    3  502    0 -0.14625350377E+03  0.19021001832E+02 -0.74691716354E+03  0.76134010007E+03  0.12699999809E+01 0. -1.
       -4    1    3    3    0  502  0.14625350377E+03 -0.19021001832E+02  0.30709683365E+03  0.34067868147E+03  0.12699999809E+01 0.  1.
</event>
<event>
 5   0  0.6199539E-03  0.9869313E+03  0.7818609E-02  0.9322996E-01
       -2   -1    0    0    0  501  0.00000000000E+00  0.00000000000E+00  0.26889991086E+03  0.26889991087E+03  0.25500000920E-02 0.  1.
        2   -1    0    0  501    0  0.00000000000E+00  0.00000000000E+00 -0.90557247464E+03  0.90557247465E+03  0.25500000920E-02 0. -1.
    10030    2    1    2    0    0  0.00000000000E+00  0.00000000000E+00 -0.63667256378E+03  0.11744723855E+04  0.98693132024E+03 0.  0.
        2    1    3    3  502    0  0.21084847773E+03 -0.28018172416E+03 -0.73151557342E+03  0.81121754991E+03  0.25500000920E-02 0. -1.
       -2    1    3    3    0  502 -0.21084847773E+03  0.28018172416E+03  0.94843009637E+02  0.36325483561E+03  0.25500000920E-02 0.  1.
</event>
<event>
 5   0  0.2417750E-03  0.9991012E+03  0.7818609E-02  0.9309531E-01
        4   -1    0    0  501    0  0.00000000000E+00  0.00000000000E+00  0.45898289699E+03  0.45898465403E+03  0.12699999809E+01 0.  1.
       -4   -1    0    0    0  501  0.00000000000E+00  0.00000000000E+00 -0.54370033703E+03  0.54370182029E+03  0.12699999809E+01 0. -1.
    10030    2    1    2    0    0  0.00000000000E+00  0.00000000000E+00 -0.84717440040E+02  0.10026864743E+04  0.99910115661E+03 0.  0.
        2    1    3    3  502    0  0.20383779687E+03  0.30908837157E+03 -0.37892065037E+03  0.52977950900E+03  0.25500000920E-02 0. -1.
       -2    1    3    3    0  502 -0.20383779687E+03 -0.30908837157E+03  0.29420321033E+03  0.47290696532E+03  0.25500000920E-02 0.  1.
</event>
<event>
 5   0  0.3608845E-03  0.9055667E+03  0.7818609E-02  0.9418649E-01
        1   -1    0    0  501    0  0.00000000000E+00  0.00000000000E+00  0.19573908537E+04  0.19573908537E+04  0.50400001928E-02 0.  1.
       -1   -1    0    0    0  501  0.00000000000E+00  0.00000000000E+00 -0.10473778090E+03  0.10473778102E+03  0.50400001928E-02 0. -1.
    10030    2    1    2    0    0  0.00000000000E+00  0.00000000000E+00  0.18526530728E+04  0.20621286347E+04  0.90556672753E+03 0.  0.
        1    1    3    3  502    0  0.19343352682E+03 -0.92244045525E+02  0.18060602230E+02  0.21506203433E+03  0.50400001928E-02 0. -1.
       -1    1    3    3    0  502 -0.19343352682E+03  0.92244045525E+02  0.18345924705E+04  0.18470666004E+04  0.50400001928E-02 0.  1.
</event>
<event>
 5   0  0.6376961E-03  0.9997781E+03  0.7818609E-02  0.9308788E-01
        2   -1    0    0  501    0  0.00000000000E+00  0.00000000000E+00  0.32053876559E+03  0.32053876560E+03  0.25500000920E-02 0. -1.
       -2   -1    0    0    0  501  0.00000000000E+00  0.00000000000E+00 -0.77959081124E+03  0.77959081125E+03  0.25500000920E-02 0.  1.
    10030    2    1    2    0    0  0.00000000000E+00  0.00000000000E+00 -0.45905204565E+03  0.11001295768E+04  0.99977812801E+03 0.  0.
        3    1    3    3  502    0  0.43971024026E+03  0.23443617240E+03 -0.18573651575E+03  0.53179270191E+03  0.10100000352E+00 0. -1.
       -3    1    3    3    0  502 -0.43971024026E+03 -0.23443617240E+03 -0.27331552990E+03  0.56833687494E+03  0.10100000352E+00 0.  1.
</event>
<event>
 5   0  0.3608845E-03  0.9410051E+03  0.7818609E-02  0.9375726E-01
       -1   -1    0    0    0  501  0.00000000000E+00  0.00000000000E+00  0.14024924908E+04  0.14024924908E+04  0.50400001928E-02 0.  1.
        1   -1    0    0  501    0  0.00000000000E+00  0.00000000000E+00 -0.15784230484E+03  0.15784230492E+03  0.50400001928E-02 0. -1.
    10030    2    1    2    0    0  0.00000000000E+00  0.00000000000E+00  0.12446501859E+04  0.15603347957E+04  0.94100509529E+03 0.  0.
        1    1    3    3  502    0 -0.22118489417E+03  0.32997999396E+03  0.20427499353E+03  0.44669657132E+03  0.50400001928E-02 0. -1.
       -1    1    3    3    0  502  0.22118489417E+03 -0.32997999396E+03  0.10403751924E+04  0.11136382244E+04  0.50400001928E-02 0.  1.
</event>
<event>
 5   0  0.6199539E-03  0.9999100E+03  0.7818609E-02  0.9308644E-01
       -2   -1    0    0    0  501  0.00000000000E+00  0.00000000000E+00  0.10541766860E+04  0.10541766860E+04  0.25500000920E-02 0. -1.
        2   -1    0    0  501    0  0.00000000000E+00  0.00000000000E+00 -0.23710919832E+03  0.23710919834E+03  0.25500000920E-02 0.  1.
    10030    2    1    2    0    0  0.00000000000E+00  0.00000000000E+00  0.81706748772E+03  0.12912858844E+04  0.99990997381E+03 0.  0.
        2    1    3    3  502    0 -0.96317701611E+01  0.39414828520E+03  0.11526085083E+02  0.39443439551E+03  0.25500000920E-02 0.  1.
       -2    1    3    3    0  502  0.96317701611E+01 -0.39414828520E+03  0.80554140264E+03  0.89685148887E+03  0.25500000920E-02 0. -1.
</event>
<event>
 5   0  0.6022787E-03  0.9936099E+03  0.7818609E-02  0.9315581E-01
       -2   -1    0    0    0  501  0.00000000000E+00  0.00000000000E+00  0.22879459637E+03  0.22879459638E+03  0.25500000920E-02 0.  1.
        2   -1    0    0  501    0  0.00000000000E+00  0.00000000000E+00 -0.10787630015E+04  0.10787630015E+04  0.25500000920E-02 0. -1.
    10030    2    1    2    0    0  0.00000000000E+00  0.00000000000E+00 -0.84996840514E+03  0.13075575979E+04  0.99360987418E+03 0.  0.
        5    1    3    3  502    0 -0.16399672572E+03  0.28462264965E+02  0.19097827049E+03  0.25337682683E+03  0.46999998093E+01 0.  1.
       -5    1    3    3    0  502  0.16399672572E+03 -0.28462264965E+02 -0.10409466756E+04  0.10541807711E+04  0.46999998093E+01 0. -1.
</event>
<event>
 5   0  0.3608845E-03  0.9838856E+03  0.7818609E-02  0.9326397E-01
       -1   -1    0    0    0  501  0.00000000000E+00  0.00000000000E+00  0.15799047053E+03  0.15799047061E+03  0.50400001928E-02 0.  1.
        1   -1    0    0  501    0  0.00000000000E+00  0.00000000000E+00 -0.15317869611E+04  0.15317869611E+04  0.50400001928E-02 0. -1.
    10030    2    1    2    0    0  0.00000000000E+00  0.00000000000E+00 -0.13737964906E+04  0.16897774317E+04  0.98388564948E+03 0.  0.
        1    1    3    3  502    0  0.72582912333E+02 -0.93398853962E+02 -0.15069998331E+04  0.15116349170E+04  0.50400001928E-02 0. -1.
       -1    1    3    3    0  502 -0.72582912333E+02  0.93398853962E+02  0.13320334254E+03  0.17814251478E+03  0.50400001928E-02 0.  1.
</event>
<event>
 5   0  0.3569359E-03  0.9981503E+03  0.7818609E-02  0.9310576E-01
       -1   -1    0    0    0  501  0.00000000000E+00  0.00000000000E+00  0.41798709709E+03  0.41798709712E+03  0.50400001928E-02 0. -1.
        1   -1    0    0  501    0  0.00000000000E+00  0.00000000000E+00 -0.59589397172E+03  0.59589397174E+03  0.50400001928E-02 0.  1.
    10030    2    1    2    0    0  0.00000000000E+00  0.00000000000E+00 -0.17790687462E+03  0.10138810689E+04  0.99815027214E+03 0.  0.
        4    1    3    3  502    0  0.25232279756E+03 -0.27264434777E+03  0.24957459704E+03  0.44753863177E+03  0.12699999809E+01 0. -1.
       -4    1    3    3    0  502 -0.25232279756E+03  0.27264434777E+03 -0.42748147167E+03  0.56634243710E+03  0.12699999809E+01 0.  1.
</event>
<event>
 5   0  0.3466598E-03  0.9943164E+03  0.7818609E-02  0.9314800E-01
        1   -1    0    0  501    0  0.00000000000E+00  0.00000000000E+00  0.20187382008E+04  0.20187382008E+04  0.50400001928E-02 0. -1.
       -1   -1    0    0    0  501  0.00000000000E+00  0.00000000000E+00 -0.12243603292E+03  0.12243603302E+03  0.50400001928E-02 0.  1.
    10030    2    1    2    0    0  0.00000000000E+00  0.00000000000E+00  0.18963021679E+04  0.21411742338E+04  0.99431644243E+03 0.  0.
        3    1    3    3  502    0  0.36877897707E+03 -0.23023214012E+03  0.14674832717E+04  0.15305266856E+04  0.10100000352E+00 0. -1.
       -3    1    3    3    0  502 -0.36877897707E+03  0.23023214012E+03  0.42881889615E+03  0.61064754824E+03  0.10100000352E+00 0.  1.
</event>
<event>
 5   0  0.2417750E-03  0.9884120E+03  0.7818609E-02  0.9321346E-01
        3   -1    0    0  501    0  0.00000000000E+00  0.00000000000E+00  0.21057137132E+03  0.21057139554E+03  0.10100000352E+00 0.  1.
       -3   -1    0    0    0  501  0.00000000000E+00  0.00000000000E+00 -0.11598895662E+04  0.11598895706E+04  0.10100000352E+00 0. -1.
    10030    2    1    2    0    0  0.00000000000E+00  0.00000000000E+00 -0.94931819485E+03  0.13704609661E+04  0.98841197106E+03 0.  0.
        4    1    3    3  502    0 -0.57393612447E+02  0.55816942507E+02  0.20151809433E+03  0.21684259974E+03  0.12699999809E+01 0.  1.
       -4    1    3    3    0  502  0.57393612447E+02 -0.55816942507E+02 -0.11508362892E+04  0.11536183664E+04  0.12699999809E+01 0. -1.
</event>
<event>
 5   0  0.3640180E-03  0.1018620E+04  0.7818609E-02  0.9288355E-01
       -1   -1    0    0    0  501  0.00000000000E+00  0.00000000000E+00  0.96923607926E+03  0.96923607927E+03  0.50400001928E-02 0.  1.
        1   -1    0    0  501    0  0.00000000000E+00  0.00000000000E+00 -0.26763015964E+03  0.26763015969E+03  0.50400001928E-02 0. -1.
    10030    2    1    2    0    0  0.00000000000E+00  0.00000000000E+00  0.70160591962E+03  0.12368662390E+04  0.10186202563E+04 0.  0.
        5    1    3    3  502    0 -0.27396739248E+03  0.42150140734E+03  0.44984601387E+03  0.67461477505E+03  0.46999998093E+01 0. -1.
       -5    1    3    3    0  502  0.27396739248E+03 -0.42150140734E+03  0.25175990575E+03  0.56225146391E+03  0.46999998093E+01 0.  1.
</event>
<event>
 5   0  0.3466598E-03  0.9981771E+03  0.7818609E-02  0.9310546E-01
       -1   -1    0    0    0  501  0.00000000000E+00  0.00000000000E+00  0.76814648523E+03  0.76814648524E+03  0.50400001928E-02 0.  1.
        1   -1    0    0  501    0  0.00000000000E+00  0.00000000000E+00 -0.32427330721E+03  0.32427330725E+03  0.50400001928E-02 0. -1.
    10030    2    1    2    0    0  0.00000000000E+00  0.00000000000E+00  0.44387317802E+03  0.10924197925E+04  0.99817714102E+03 0.  0.
        3    1    3    3  502    0  0.23326126670E+03  0.31476384779E+03 -0.11645229927E+03  0.40871536138E+03  0.10100000352E+00 0. -1.
       -3    1    3    3    0  502 -0.23326126670E+03 -0.31476384779E+03  0.56032547729E+03  0.68370443111E+03  0.10100000352E+00 0.  1.
</event>
<event>
 5   0  0.6022787E-03  0.9622549E+03  0.7818609E-02  0.9350940E-01
        2   -1    0    0  501    0  0.00000000000E+00  0.00000000000E+00  0.75770070152E+03  0.75770070152E+03  0.25500000920E-02 0.  1.
       -2   -1    0    0    0  501  0.00000000000E+00  0.00000000000E+00 -0.30550797342E+03  0.30550797343E+03  0.25500000920E-02 0. -1.
    10030    2    1    2    0    0  0.00000000000E+00  0.00000000000E+00  0.45219272810E+03  0.10632086750E+04  0.96225486393E+03 0.  0.
        5    1    3    3  502    0 -0.18370677925E+03 -0.17514086757E+03  0.67767912256E+03  0.72366676543E+03  0.46999998093E+01 0.  1.
       -5    1    3    3    0  502  0.18370677925E+03  0.17514086757E+03 -0.22548639446E+03  0.33954190952E+03  0.46999998093E+01 0. -1.
</event>
<event>
 5   0  0.3640180E-03  0.9975471E+03  0.7818609E-02  0.9311239E-01
        1   -1    0    0  501    0  0.00000000000E+00  0.00000000000E+00  0.33665788368E+03  0.33665788371E+03  0.50400001928E-02 0. -1.
       -1   -1    0    0    0  501  0.00000000000E+00  0.00000000000E+00 -0.73895508435E+03  0.73895508437E+03  0.50400001928E-02 0.  1.
    10030    2    1    2    0    0  0.00000000000E+00  0.00000000000E+00 -0.40229720067E+03  0.10756129681E+04  0.99754710136E+03 0.  0.
        5    1    3    3  502    0 -0.37301945413E+03  0.10510651534E+03  0.13736609861E+03  0.41119633726E+03  0.46999998093E+01 0. -1.
       -5    1    3    3    0  502  0.37301945413E+03 -0.10510651534E+03 -0.53966329928E+03  0.66441663083E+03  0.46999998093E+01 0.  1.
</event>
<event>
 5   0  0.6022787E-03  0.9926184E+03  0.7818609E-02  0.9316678E-01
       -2   -1    0    0    0  501  0.00000000000E+00  0.00000000000E+00  0.39738407119E+03  0.39738407120E+03  0.25500000920E-02 0.  1.
        2   -1    0    0  501    0  0.00000000000E+00  0.00000000000E+00 -0.61986087298E+03  0.61986087299E+03  0.25500000920E-02 0. -1.
    10030    2    1    2    0    0  0.00000000000E+00  0.00000000000E+00 -0.22247680179E+03  0.10172449442E+04  0.99261843079E+03 0.  0.
        5    1    3    3  502    0  0.28726730662E+03  0.35044690957E+03 -0.31865846951E+03  0.55398632842E+03  0.46999998093E+01 0. -1.
       -5    1    3    3    0  502 -0.28726730662E+03 -0.35044690957E+03  0.96181667721E+02  0.46325861577E+03  0.46999998093E+01 0.  1.
</event>
<event>
 5   0  0.3569359E-03  0.1001125E+04  0.7818609E-02  0.9307312E-01
        1   -1    0    0  501    0  0.00000000000E+00  0.00000000000E+00  0.99110022672E+03  0.99110022673E+03  0.50400001928E-02 0.  1.
       -1   -1    0    0    0  501  0.00000000000E+00  0.00000000000E+00 -0.25281288433E+03  0.25281288438E+03  0.50400001928E-02 0. -1.
    10030    2    1    2    0    0  0.00000000000E+00  0.00000000000E+00  0.73828734238E+03  0.12439131111E+04  0.10011251810E+04 0.  0.
        4    1    3    3  502    0 -0.13735096861E+03  0.41896772226E+03  0.74685813111E+02  0.44718991989E+03  0.12699999809E+01 0. -1.
       -4    1    3    3    0  502  0.13735096861E+03 -0.41896772226E+03  0.66360152927E+03  0.79672319122E+03  0.12699999809E+01 0.  1.
</event>
<event>
 5   0  0.3640180E-03  0.9858621E+03  0.7818609E-02  0.9324188E-01
       -1   -1    0    0    0  501  0.00000000000E+00  0.00000000000E+00  0.12360133584E+03  0.12360133594E+03  0.50400001928E-02 0.  1.
        1   -1    0    0  501    0  0.00000000000E+00  0.00000000000E+00 -0.19658447774E+04  0.19658447774E+04  0.50400001928E-02 0. -1.
    10030    2    1    2    0    0  0.00000000000E+00  0.00000000000E+00 -0.18422434415E+04  0.20894461133E+04  0.98586214178E+03 0.  0.
        5    1    3    3  502    0 -0.67162462467E+02  0.33088670598E+03 -0.16822294017E+04  0.17157839778E+04  0.46999998093E+01 0. -1.
       -5    1    3    3    0  502  0.67162462467E+02 -0.33088670598E+03 -0.16001403979E+03  0.37366213547E+03  0.46999998093E+01 0.  1.
</event>
<event>
 5   0  0.6376961E-03  0.9992896E+03  0.7818609E-02  0.9309324E-01
        2   -1    0    0  501    0  0.00000000000E+00  0.00000000000E+00  0.15219831141E+04  0.15219831141E+04  0.25500000920E-02 0. -1.
       -2   -1    0    0    0  501  0.00000000000E+00  0.00000000000E+00 -0.16402608160E+03  0.16402608162E+03  0.25500000920E-02 0.  1.
    10030    2    1    2    0    0  0.00000000000E+00  0.00000000000E+00  0.13579570325E+04  0.16860091958E+04  0.99928960064E+03 0.  0.
        3    1    3    3  502    0 -0.93328211300E+02 -0.33506144100E+02 -0.14725748966E+03  0.17753195537E+03  0.10100000352E+00 0.  1.
       -3    1    3    3    0  502  0.93328211300E+02  0.33506144100E+02  0.15052145222E+04  0.15084772404E+04  0.10100000352E+00 0. -1.
</event>
<event>
 5   0  0.6022787E-03  0.9967671E+03  0.7818609E-02  0.9312098E-01
        2   -1    0    0  501    0  0.00000000000E+00  0.00000000000E+00  0.92580751507E+03  0.92580751507E+03  0.25500000920E-02 0. -1.
       -2   -1    0    0    0  501  0.00000000000E+00  0.00000000000E+00 -0.26829136020E+03  0.26829136021E+03  0.25500000920E-02 0.  1.
    10030    2    1    2    0    0  0.00000000000E+00  0.00000000000E+00  0.65751615487E+03  0.11940988753E+04  0.99676708917E+03 0.  0.
        5    1    3    3  502    0  0.43211841490E+03 -0.24744799536E+03  0.35293315466E+03  0.61036115257E+03  0.46999998093E+01 0. -1.
       -5    1    3    3    0  502 -0.43211841490E+03  0.24744799536E+03  0.30458300021E+03  0.58373772272E+03  0.46999998093E+01 0.  1.
</event>
<event>
 5   0  0.2417750E-03  0.1001152E+04  0.7818609E-02  0.9307282E-01
        3   -1    0    0  501    0  0.00000000000E+00  0.00000000000E+00  0.38838348214E+03  0.38838349527E+03  0.10100000352E+00 0. -1.
       -3   -1    0    0    0  501  0.00000000000E+00  0.00000000000E+00 -0.64517773258E+03  0.64517774048E+03  0.10100000352E+00 0.  1.
    10030    2    1    2    0    0  0.00000000000E+00  0.00000000000E+00 -0.25679425044E+03  0.10335612358E+04  0.10011521068E+04 0.  0.
        2    1    3    3  502    0  0.73243830314E+02 -0.13736502624E+03 -0.61955292207E+03  0.63881110851E+03  0.25500000920E-02 0.  1.
       -2    1    3    3    0  502 -0.73243830314E+02  0.13736502624E+03  0.36275867163E+03  0.39475012725E+03  0.25500000920E-02 0. -1.
</event>
<event>
 5   0  0.6360455E-03  0.1005841E+04  0.7818609E-02  0.9302162E-01
        2   -1    0    0  501    0  0.00000000000E+00  0.00000000000E+00  0.10835994669E+04  0.10835994669E+04  0.25500000920E-02 0.  1.
       -2   -1    0    0    0  501  0.00000000000E+00  0.00000000000E+00 -0.23341552471E+03  0.23341552473E+03  0.25500000920E-02 0. -1.
    10030    2    1    2    0    0  0.00000000000E+00  0.00000000000E+00  0.85018394220E+03  0.13170149916E+04  0.10058408187E+04 0.  0.
        4    1    3    3  502    0 -0.38514266929E+03 -0.17517948859E+03  0.69135258579E+02  0.42872371734E+03  0.12699999809E+01 0.  1.
       -4    1    3    3    0  502  0.38514266929E+03  0.17517948859E+03  0.78104868362E+03  0.88829127431E+03  0.12699999809E+01 0. -1.
</event>
<event>
 5   0  0.3608845E-03  0.9837374E+03  0.7818609E-02  0.9326563E-01
       -1   -1    0    0    0  501  0.00000000000E+00  0.00000000000E+00  0.41830895766E+03  0.41830895769E+03  0.50400001928E-02 0. -1.
        1   -1    0    0  501    0  0.00000000000E+00  0.00000000000E+00 -0.57836392943E+03  0.57836392945E+03  0.50400001928E-02 0.  1.
    10030    2    1    2    0    0  0.00000000000E+00  0.00000000000E+00 -0.16005497177E+03  0.99667288714E+03  0.98373738872E+03 0.  0.
        1    1    3    3  502    0 -0.57981997775E+01  0.32670685584E+03  0.29245315072E+03  0.43852004990E+03  0.50400001928E-02 0. -1.
       -1    1    3    3    0  502  0.57981997775E+01 -0.32670685584E+03 -0.45250812249E+03  0.55815283724E+03  0.50400001928E-02 0.  1.
</event>
<event>
 5   0  0.3643002E-03  0.9977904E+03  0.7818609E-02  0.9310972E-01
        1   -1    0    0  501    0  0.00000000000E+00  0.00000000000E+00  0.76885896545E+03  0.76885896546E+03  0.50400001928E-02 0. -1.
       -1   -1    0    0    0  501  0.00000000000E+00  0.00000000000E+00 -0.32372180415E+03  0.32372180419E+03  0.50400001928E-02 0.  1.
    10030    2    1    2    0    0  0.00000000000E+00  0.00000000000E+00  0.44513716129E+03  0.10925807697E+04  0.99779038172E+03 0.  0.
        2    1    3    3  502    0 -0.17697873036E+03  0.94937493986E+02 -0.27750237987E+03  0.34255243337E+03  0.25500000920E-02 0.  1.
       -2    1    3    3    0  502  0.17697873036E+03 -0.94937493986E+02  0.72263954117E+03  0.75002833628E+03  0.25500000920E-02 0. -1.
</event>
<event>
 5   0  0.3569359E-03  0.1065769E+04  0.7818609E-02  0.9239213E-01
       -1   -1    0    0    0  501  0.00000000000E+00  0.00000000000E+00  0.75908491581E+03  0.75908491583E+03  0.50400001928E-02 0.  1.
        1   -1    0    0  501    0  0.00000000000E+00  0.00000000000E+00 -0.37408963330E+03  0.37408963333E+03  0.50400001928E-02 0. -1.
    10030    2    1    2    0    0  0.00000000000E+00  0.00000000000E+00  0.38499528251E+03  0.11331745492E+04  0.10657688264E+04 0.  0.
        4    1    3    3  502    0 -0.24321710825E+03 -0.42655860309E+03  0.41261110820E+03  0.64137067530E+03  0.12699999809E+01 0.  1.
       -4    1    3    3    0  502  0.24321710825E+03  0.42655860309E+03 -0.27615825689E+02  0.49180387386E+03  0.12699999809E+01 0. -1.
</event>
<event>
 5   0  0.3569359E-03  0.1000528E+04  0.7818609E-02  0.9307966E-01
        1   -1    0    0  501    0  0.00000000000E+00  0.00000000000E+00  0.19051561296E+04  0.19051561296E+04  0.50400001928E-02 0. -1.
       -1   -1    0    0    0  501  0.00000000000E+00  0.00000000000E+00 -0.13136142575E+03  0.13136142585E+03  0.50400001928E-02 0.  1.
    10030    2    1    2    0    0  0.00000000000E+00  0.00000000000E+00  0.17737947039E+04  0.20365175555E+04  0.10005279118E+04 0.  0.
        4    1    3    3  502    0 -0.32496526297E+03 -0.37709602430E+03  0.78597182336E+03  0.93035324135E+03  0.12699999809E+01 0.  1.
       -4    1    3    3    0  502  0.32496526297E+03  0.37709602430E+03  0.98782288053E+03  0.11061643141E+04  0.12699999809E+01 0. -1.
</event>
<event>
 5   0  0.3608845E-03  0.9153094E+03  0.7818609E-02  0.9406644E-01
        1   -1    0    0  501    0  0.00000000000E+00  0.00000000000E+00  0.22391139916E+03  0.22391139921E+03  0.50400001928E-02 0.  1.
       -1   -1    0    0    0  501  0.00000000000E+00  0.00000000000E+00 -0.93540499244E+03  0.93540499245E+03  0.50400001928E-02 0. -1.
    10030    2    1    2    0    0  0.00000000000E+00  0.00000000000E+00 -0.71149359328E+03  0.11593163917E+04  0.91530943549E+03 0.  0.
        1    1    3    3  502    0 -0.16069414454E+03  0.42839476662E+03 -0.36861098288E+03  0.58755318132E+03  0.50400001928E-02 0. -1.
       -1    1    3    3    0  502  0.16069414454E+03 -0.42839476662E+03 -0.34288261040E+03  0.57176321034E+03  0.50400001928E-02 0.  1.
</event>
<event>
 5   0  0.3640180E-03  0.1000701E+04  0.7818609E-02  0.9307776E-01
       -1   -1    0    0    0  501  0.00000000000E+00  0.00000000000E+00  0.58878923213E+03  0.58878923215E+03  0.50400001928E-02 0. -1.
        1   -1    0    0  501    0  0.00000000000E+00  0.00000000000E+00 -0.42519562217E+03  0.42519562220E+03  0.50400001928E-02 0.  1.
    10030    2    1    2    0    0  0.00000000000E+00  0.00000000000E+00  0.16359360996E+03  0.10139848544E+04  0.10007009621E+04 0.  0.
        5    1    3    3  502    0 -0.31166482799E+03 -0.27405469348E+03 -0.20135420541E+03  0.46130959892E+03  0.46999998093E+01 0.  1.
       -5    1    3    3    0  502  0.31166482799E+03  0.27405469348E+03  0.36494781537E+03  0.55267525543E+03  0.46999998093E+01 0. -1.
</event>
<event>
 5   0  0.6360455E-03  0.1001296E+04  0.7818609E-02  0.9307124E-01
        2   -1    0    0  501    0  0.00000000000E+00  0.00000000000E+00  0.12333853799E+04  0.12333853799E+04  0.25500000920E-02 0. -1.
       -2   -1    0    0    0  501  0.00000000000E+00  0.00000000000E+00 -0.20321989176E+03  0.20321989177E+03  0.25500000920E-02 0.  1.
    10030    2    1    2    0    0  0.00000000000E+00  0.00000000000E+00  0.10301654881E+04  0.14366052717E+04  0.10012960469E+04 0.  0.
        4    1    3    3  502    0 -0.48090581285E+02  0.49532245247E+03  0.43663225968E+03  0.66204711239E+03  0.12699999809E+01 0.  1.
       -4    1    3    3    0  502  0.48090581285E+02 -0.49532245247E+03  0.59353322844E+03  0.77455815927E+03  0.12699999809E+01 0. -1.
</event>
<event>
 5   0  0.3640180E-03  0.1002617E+04  0.7818609E-02  0.9305679E-01
       -1   -1    0    0    0  501  0.00000000000E+00  0.00000000000E+00  0.45405128452E+03  0.45405128455E+03  0.50400001928E-02 0. -1.
        1   -1    0    0  501    0  0.00000000000E+00  0.00000000000E+00 -0.55348429996E+03  0.55348429999E+03  0.50400001928E-02 0.  1.
    10030    2    1    2    0    0  0.00000000000E+00  0.00000000000E+00 -0.99433015446E+02  0.10075355845E+04  0.10026170902E+04 0.  0.
        5    1    3    3  502    0 -0.42386426473E+03  0.25513014762E+03  0.31524755778E+02  0.49575014611E+03  0.46999998093E+01 0. -1.
       -5    1    3    3    0  502  0.42386426473E+03 -0.25513014762E+03 -0.13095777122E+03  0.51178543843E+03  0.46999998093E+01 0.  1.
</event>
<event>
 5   0  0.6360455E-03  0.9913643E+03  0.7818609E-02  0.9318067E-01
        2   -1    0    0  501    0  0.00000000000E+00  0.00000000000E+00  0.96311272740E+03  0.96311272741E+03  0.25500000920E-02 0.  1.
       -2   -1    0    0    0  501  0.00000000000E+00  0.00000000000E+00 -0.25511114354E+03  0.25511114356E+03  0.25500000920E-02 0. -1.
    10030    2    1    2    0    0  0.00000000000E+00  0.00000000000E+00  0.70800158386E+03  0.12182238710E+04  0.99136429078E+03 0.  0.
        4    1    3    3  502    0  0.34298767413E+03 -0.25831689721E+03  0.49678405791E+02  0.43224729136E+03  0.12699999809E+01 0. -1.
       -4    1    3    3    0  502 -0.34298767413E+03  0.25831689721E+03  0.65832317807E+03  0.78597657960E+03  0.12699999809E+01 0.  1.
</event>
<event>
 5   0  0.3608845E-03  0.1012711E+04  0.7818609E-02  0.9294713E-01
       -1   -1    0    0    0  501  0.00000000000E+00  0.00000000000E+00  0.53998646462E+03  0.53998646464E+03  0.50400001928E-02 0.  1.
        1   -1    0    0  501    0  0.00000000000E+00  0.00000000000E+00 -0.47481881042E+03  0.47481881044E+03  0.50400001928E-02 0. -1.
    10030    2    1    2    0    0  0.00000000000E+00  0.00000000000E+00  0.65167654203E+02  0.10148052751E+04  0.10127106809E+04 0.  0.
        1    1    3    3  502    0 -0.38898955304E+03  0.20176174774E+03 -0.22166334671E+03  0.49107567087E+03  0.50400001928E-02 0. -1.
       -1    1    3    3    0  502  0.38898955304E+03 -0.20176174774E+03  0.28683100091E+03  0.52372960422E+03  0.50400001928E-02 0.  1.
</event>
<event>
 5   0  0.2417750E-03  0.9996772E+03  0.7818609E-02  0.9308899E-01
        3   -1    0    0  501    0  0.00000000000E+00  0.00000000000E+00  0.70316902701E+03  0.70316903426E+03  0.10100000352E+00 0.  1.
       -3   -1    0    0    0  501  0.00000000000E+00  0.00000000000E+00 -0.35530380292E+03  0.35530381727E+03  0.10100000352E+00 0. -1.
    10030    2    1    2    0    0  0.00000000000E+00  0.00000000000E+00  0.34786522409E+03  0.10584728515E+04  0.99967722956E+03 0.  0.
        5    1    3    3  502    0 -0.44659177153E+03 -0.22380282192E+03  0.19179608301E+03  0.53510722380E+03  0.46999998093E+01 0. -1.
       -5    1    3    3    0  502  0.44659177153E+03  0.22380282192E+03  0.15606914108E+03  0.52336562774E+03  0.46999998093E+01 0.  1.
</event>
<event>
 5   0  0.6606947E-03  0.1007009E+04  0.7818609E-02  0.9300890E-01
       -2   -1    0    0    0  501  0.00000000000E+00  0.00000000000E+00  0.57641678593E+03  0.57641678593E+03  0.25500000920E-02 0. -1.
        2   -1    0    0  501    0  0.00000000000E+00  0.00000000000E+00 -0.43981539294E+03  0.43981539294E+03  0.25500000920E-02 0.  1.
    10030    2    1    2    0    0  0.00000000000E+00  0.00000000000E+00  0.13660139299E+03  0.10162321789E+04  0.10070093847E+04 0.  0.
        1    1    3    3  502    0  0.19692770205E+03  0.17783170002E+03  0.50013608868E+03  0.56616317488E+03  0.50400001928E-02 0. -1.
       -1    1    3    3    0  502 -0.19692770205E+03 -0.17783170002E+03 -0.36353469568E+03  0.45006900400E+03  0.50400001928E-02 0.  1.
</event>
<event>
 5   0  0.3466598E-03  0.1000024E+04  0.7818609E-02  0.9308519E-01
       -1   -1    0    0    0  501  0.00000000000E+00  0.00000000000E+00  0.59171854879E+03  0.59171854881E+03  0.50400001928E-02 0.  1.
        1   -1    0    0  501    0  0.00000000000E+00  0.00000000000E+00 -0.42251814673E+03  0.42251814676E+03  0.50400001928E-02 0. -1.
    10030    2    1    2    0    0  0.00000000000E+00  0.00000000000E+00  0.16920040206E+03  0.10142366956E+04  0.10000236490E+04 0.  0.
        3    1    3    3  502    0  0.32337403469E+03 -0.38134353267E+03  0.88922010919E+02  0.50783933527E+03  0.10100000352E+00 0. -1.
       -3    1    3    3    0  502 -0.32337403469E+03  0.38134353267E+03  0.80278391145E+02  0.50639736029E+03  0.10100000352E+00 0.  1.
</event>
<event>
 5   0  0.6199539E-03  0.9967741E+03  0.7818609E-02  0.9312090E-01
        2   -1    0    0  501    0  0.00000000000E+00  0.00000000000E+00  0.85161706461E+03  0.85161706461E+03  0.25500000920E-02 0.  1.
       -2   -1    0    0    0  501  0.00000000000E+00  0.00000000000E+00 -0.29166826443E+03  0.29166826444E+03  0.25500000920E-02 0. -1.
    10030    2    1    2    0    0  0.00000000000E+00  0.00000000000E+00  0.55994880018E+03  0.11432853291E+04  0.99677413932E+03 0.  0.
        2    1    3    3  502    0  0.95812958577E+02  0.34842604655E+03 -0.11370873019E+03  0.37882780821E+03  0.25500000920E-02 0. -1.
       -2    1    3    3    0  502 -0.95812958577E+02 -0.34842604655E+03  0.67365753037E+03  0.76445752084E+03  0.25500000920E-02 0.  1.
</event>
<event>
 5   0  0.3608845E-03  0.9711365E+03  0.7818609E-02  0.9340781E-01
        1   -1    0    0  501    0  0.00000000000E+00  0.00000000000E+00  0.34646565150E+03  0.34646565154E+03  0.50400001928E-02 0.  1.
       -1   -1    0    0    0  501  0.00000000000E+00  0.00000000000E+00 -0.68051913258E+03  0.68051913260E+03  0.50400001928E-02 0. -1.
    10030    2    1    2    0    0  0.00000000000E+00  0.00000000000E+00 -0.33405348108E+03  0.10269847841E+04  0.97113645726E+03 0.  0.
        1    1    3    3  502    0 -0.11445584256E+03  0.35142376454E+03  0.16600894566E+03  0.40516388320E+03  0.50400001928E-02 0.  1.
       -1    1    3    3    0  502  0.11445584256E+03 -0.35142376454E+03 -0.50006242673E+03  0.62182090094E+03  0.50400001928E-02 0. -1.
</event>
<event>
 5   0  0.3466598E-03  0.1002923E+04  0.7818609E-02  0.9305345E-01
       -1   -1    0    0    0  501  0.00000000000E+00  0.00000000000E+00  0.33108722442E+03  0.33108722446E+03  0.50400001928E-02 0. -1.
        1   -1    0    0  501    0  0.00000000000E+00  0.00000000000E+00 -0.75950849424E+03  0.75950849426E+03  0.50400001928E-02 0.  1.
    10030    2    1    2    0    0  0.00000000000E+00  0.00000000000E+00 -0.42842126982E+03  0.10905957187E+04  0.10029228471E+04 0.  0.
        3    1    3    3  502    0 -0.19605229854E+03  0.99544455244E+02  0.27587323912E+03  0.35277706359E+03  0.10100000352E+00 0. -1.
       -3    1    3    3    0  502  0.19605229854E+03 -0.99544455244E+02 -0.70429450894E+03  0.73781865513E+03  0.10100000352E+00 0.  1.
</event>
<event>
 5   0  0.3608845E-03  0.1006104E+04  0.7818609E-02  0.9301875E-01
       -1   -1    0    0    0  501  0.00000000000E+00  0.00000000000E+00  0.86601322564E+02  0.86601322710E+02  0.50400001928E-02 0. -1.
        1   -1    0    0  501    0  0.00000000000E+00  0.00000000000E+00 -0.29221411733E+04  0.29221411733E+04  0.50400001928E-02 0.  1.
    10030    2    1    2    0    0  0.00000000000E+00  0.00000000000E+00 -0.28355398507E+04  0.30087424960E+04  0.10061039520E+04 0.  0.
        1    1    3    3  502    0 -0.28850672027E+03 -0.20757130563E+03 -0.24823978287E+04  0.25077122950E+04  0.50400001928E-02 0.  1.
       -1    1    3    3    0  502  0.28850672027E+03  0.20757130563E+03 -0.35314202202E+03  0.50103020100E+03  0.50400001928E-02 0. -1.
</event>
<event>
 5   0  0.6022787E-03  0.9991773E+03  0.7818609E-02  0.9309448E-01
        2   -1    0    0  501    0  0.00000000000E+00  0.00000000000E+00  0.10507618790E+04  0.10507618790E+04  0.25500000920E-02 0. -1.
       -2   -1    0    0    0  501  0.00000000000E+00  0.00000000000E+00 -0.23753130590E+03  0.23753130591E+03  0.25500000920E-02 0.  1.
    10030    2    1    2    0    0  0.00000000000E+00  0.00000000000E+00  0.81323057307E+03  0.12882931849E+04  0.99917734424E+03 0.  0.
        5    1    3    3  502    0 -0.13198477964E+03  0.16589598897E+03 -0.17663073537E+03  0.27597457834E+03  0.46999998093E+01 0.  1.
       -5    1    3    3    0  502  0.13198477964E+03 -0.16589598897E+03  0.98986130844E+03  0.10123186065E+04  0.46999998093E+01 0. -1.
</event>
<event>
 5   0  0.6376961E-03  0.1001373E+04  0.7818609E-02  0.9307040E-01
       -2   -1    0    0    0  501  0.00000000000E+00  0.00000000000E+00  0.19450707508E+03  0.19450707510E+03  0.25500000920E-02 0. -1.
        2   -1    0    0  501    0  0.00000000000E+00  0.00000000000E+00 -0.12888333784E+04  0.12888333784E+04  0.25500000920E-02 0.  1.
    10030    2    1    2    0    0  0.00000000000E+00  0.00000000000E+00 -0.10943263033E+04  0.14833404535E+04  0.10013734782E+04 0.  0.
        3    1    3    3  502    0 -0.29145049146E+03  0.39695420681E+03 -0.41326121486E+03  0.64288480553E+03  0.10100000352E+00 0. -1.
       -3    1    3    3    0  502  0.29145049146E+03 -0.39695420681E+03 -0.68106508844E+03  0.84045564795E+03  0.10100000352E+00 0.  1.
</event>
<event>
 5   0  0.6606947E-03  0.1007883E+04  0.7818609E-02  0.9299941E-01
        2   -1    0    0  501    0  0.00000000000E+00  0.00000000000E+00  0.80886238782E+03  0.80886238782E+03  0.25500000920E-02 0. -1.
       -2   -1    0    0    0  501  0.00000000000E+00  0.00000000000E+00 -0.31396804071E+03  0.31396804072E+03  0.25500000920E-02 0.  1.
    10030    2    1    2    0    0  0.00000000000E+00  0.00000000000E+00  0.49489434711E+03  0.11228304285E+04  0.10078828089E+04 0.  0.
        1    1    3    3  502    0 -0.37103128472E+03 -0.33551291090E+03  0.17946454096E+03  0.53145145508E+03  0.50400001928E-02 0.  1.
       -1    1    3    3    0  502  0.37103128472E+03  0.33551291090E+03  0.31542980614E+03  0.59137897346E+03  0.50400001928E-02 0. -1.
</event>
<event>
 5   0  0.3643002E-03  0.1005588E+04  0.7818609E-02  0.9302438E-01
       -1   -1    0    0    0  501  0.00000000000E+00  0.00000000000E+00  0.33904700827E+03  0.33904700831E+03  0.50400001928E-02 0. -1.
        1   -1    0    0  501    0  0.00000000000E+00  0.00000000000E+00 -0.74562404716E+03  0.74562404718E+03  0.50400001928E-02 0.  1.
    10030    2    1    2    0    0  0.00000000000E+00  0.00000000000E+00 -0.40657703889E+03  0.10846710555E+04  0.10055875944E+04 0.  0.
        2    1    3    3  502    0  0.20430995468E+02  0.46885649557E+03 -0.86604717801E+01  0.46938134048E+03  0.25500000920E-02 0. -1.
       -2    1    3    3    0  502 -0.20430995468E+02 -0.46885649557E+03 -0.39791656711E+03  0.61528971501E+03  0.25500000920E-02 0.  1.
</event>
<event>
 5   0  0.3608845E-03  0.9938849E+03  0.7818609E-02  0.9315277E-01
       -1   -1    0    0    0  501  0.00000000000E+00  0.00000000000E+00  0.60583142404E+03  0.60583142406E+03  0.50400001928E-02 0. -1.
        1   -1    0    0  501    0  0.00000000000E+00  0.00000000000E+00 -0.40762462020E+03  0.40762462024E+03  0.50400001928E-02 0.  1.
    10030    2    1    2    0    0  0.00000000000E+00  0.00000000000E+00  0.19820680383E+03  0.10134560443E+04  0.99388491116E+03 0.  0.
        1    1    3    3  502    0  0.35395439768E+03 -0.18726789650E+03  0.39917494779E+03  0.56541455558E+03  0.50400001928E-02 0. -1.
       -1    1    3    3    0  502 -0.35395439768E+03  0.18726789650E+03 -0.20096814396E+03  0.44804148871E+03  0.50400001928E-02 0.  1.
</event>
<event>
 5   0  0.6022787E-03  0.9945415E+03  0.7818609E-02  0.9314552E-01
        2   -1    0    0  501    0  0.00000000000E+00  0.00000000000E+00  0.11488126875E+04  0.11488126875E+04  0.25500000920E-02 0.  1.
       -2   -1    0    0    0  501  0.00000000000E+00  0.00000000000E+00 -0.21524673092E+03  0.21524673094E+03  0.25500000920E-02 0. -1.
    10030    2    1    2    0    0  0.00000000000E+00  0.00000000000E+00  0.93356595661E+03  0.13640594185E+04  0.99454145303E+03 0.  0.
        5    1    3    3  502    0 -0.10404123409E+03  0.48086238809E+03  0.56571386898E+03  0.74973827849E+03  0.46999998093E+01 0.  1.
       -5    1    3    3    0  502  0.10404123409E+03 -0.48086238809E+03  0.36785208762E+03  0.61432113999E+03  0.46999998093E+01 0. -1.
</event>
<event>
 5   0  0.3466598E-03  0.1025678E+04  0.7818609E-02  0.9280822E-01
       -1   -1    0    0    0  501  0.00000000000E+00  0.00000000000E+00  0.25918802824E+03  0.25918802829E+03  0.50400001928E-02 0. -1.
        1   -1    0    0  501    0  0.00000000000E+00  0.00000000000E+00 -0.10147218968E+04  0.10147218968E+04  0.50400001928E-02 0.  1.
    10030    2    1    2    0    0  0.00000000000E+00  0.00000000000E+00 -0.75553386859E+03  0.12739099251E+04  0.10256778592E+04 0.  0.
        3    1    3    3  502    0  0.11822401616E+03 -0.23653164961E+03 -0.92351971383E+03  0.96063146487E+03  0.10100000352E+00 0.  1.
       -3    1    3    3    0  502 -0.11822401616E+03  0.23653164961E+03  0.16798584524E+03  0.31327846027E+03  0.10100000352E+00 0. -1.
</event>
<event>
 5   0  0.3569359E-03  0.1003028E+04  0.7818609E-02  0.9305230E-01
        1   -1    0    0  501    0  0.00000000000E+00  0.00000000000E+00  0.39216595252E+03  0.39216595255E+03  0.50400001928E-02 0. -1.
       -1   -1    0    0    0  501  0.00000000000E+00  0.00000000000E+00 -0.64135186476E+03  0.64135186478E+03  0.50400001928E-02 0.  1.
    10030    2    1    2    0    0  0.00000000000E+00  0.00000000000E+00 -0.24918591224E+03  0.10335178173E+04  0.10030281451E+04 0.  0.
        4    1    3    3  502    0 -0.14173042272E+03  0.26682495194E+03  0.28786439423E+03  0.41731353928E+03  0.12699999809E+01 0. -1.
       -4    1    3    3    0  502  0.14173042272E+03 -0.26682495194E+03 -0.53705030647E+03  0.61620427805E+03  0.12699999809E+01 0.  1.
</event>
<event>
 5   0  0.6022787E-03  0.9599881E+03  0.7818609E-02  0.9353552E-01
        2   -1    0    0  501    0  0.00000000000E+00  0.00000000000E+00  0.22663473880E+03  0.22663473882E+03  0.25500000920E-02 0.  1.
       -2   -1    0    0    0  501  0.00000000000E+00  0.00000000000E+00 -0.10165886543E+04  0.10165886543E+04  0.25500000920E-02 0. -1.
    10030    2    1    2    0    0  0.00000000000E+00  0.00000000000E+00 -0.78995391553E+03  0.12432233932E+04  0.95998813358E+03 0.  0.
        5    1    3    3  502    0 -0.32746348940E+03  0.16753155258E+03 -0.79428865835E+03  0.87533748965E+03  0.46999998093E+01 0. -1.
       -5    1    3    3    0  502  0.32746348940E+03 -0.16753155258E+03  0.43347428226E+01  0.36788590350E+03  0.46999998093E+01 0.  1.
</event>
<event>
 5   0  0.3640180E-03  0.8912032E+03  0.7818609E-02  0.9436645E-01
       -1   -1    0    0    0  501  0.00000000000E+00  0.00000000000E+00  0.72279108321E+03  0.72279108323E+03  0.50400001928E-02 0. -1.
        1   -1    0    0  501    0  0.00000000000E+00  0.00000000000E+00 -0.27471391111E+03  0.27471391116E+03  0.50400001928E-02 0.  1.
    10030    2    1    2    0    0  0.00000000000E+00  0.00000000000E+00  0.44807717210E+03  0.99750499438E+03  0.89120315398E+03 0.  0.
        5    1    3    3  502    0  0.36574465961E+03 -0.20865397525E+03  0.38713500760E+03  0.57201507108E+03  0.46999998093E+01 0. -1.
       -5    1    3    3    0  502 -0.36574465961E+03  0.20865397525E+03  0.60942164498E+02  0.42548992331E+03  0.46999998093E+01 0.  1.
</event>
<event>
 5   0  0.6022787E-03  0.1000811E+04  0.7818609E-02  0.9307656E-01
       -2   -1    0    0    0  501  0.00000000000E+00  0.00000000000E+00  0.44777336094E+03  0.44777336095E+03  0.25500000920E-02 0.  1.
        2   -1    0    0  501    0  0.00000000000E+00  0.00000000000E+00 -0.55922400813E+03  0.55922400814E+03  0.25500000920E-02 0. -1.
    10030    2    1    2    0    0  0.00000000000E+00  0.00000000000E+00 -0.11145064719E+03  0.10069973691E+04  0.10008108985E+04 0.  0.
        5    1    3    3  502    0 -0.44745244782E+02  0.41061090379E+03  0.22847431606E+03  0.47204454698E+03  0.46999998093E+01 0.  1.
       -5    1    3    3    0  502  0.44745244782E+02 -0.41061090379E+03 -0.33992496325E+03  0.53495282210E+03  0.46999998093E+01 0. -1.
</event>
<event>
 5   0  0.6360455E-03  0.1006540E+04  0.7818609E-02  0.9301401E-01
        2   -1    0    0  501    0  0.00000000000E+00  0.00000000000E+00  0.13166085988E+04  0.13166085988E+04  0.25500000920E-02 0.  1.
       -2   -1    0    0    0  501  0.00000000000E+00  0.00000000000E+00 -0.19237340171E+03  0.19237340172E+03  0.25500000920E-02 0. -1.
    10030    2    1    2    0    0  0.00000000000E+00  0.00000000000E+00  0.11242351971E+04  0.15089820005E+04  0.10065395668E+04 0.  0.
        4    1    3    3  502    0  0.36198055842E+03 -0.56838651513E+02  0.10793194708E+04  0.11398213413E+04  0.12699999809E+01 0.  1.
       -4    1    3    3    0  502 -0.36198055842E+03  0.56838651513E+02  0.44915726263E+02  0.36916065926E+03  0.12699999809E+01 0. -1.
</event>
<event>
 5   0  0.6606947E-03  0.9967297E+03  0.7818609E-02  0.9312139E-01
        2   -1    0    0  501    0  0.00000000000E+00  0.00000000000E+00  0.28443066817E+03  0.28443066819E+03  0.25500000920E-02 0.  1.
       -2   -1    0    0    0  501  0.00000000000E+00  0.00000000000E+00 -0.87320934996E+03  0.87320934996E+03  0.25500000920E-02 0. -1.
    10030    2    1    2    0    0  0.00000000000E+00  0.00000000000E+00 -0.58877868178E+03  0.11576400181E+04  0.99672969028E+03 0.  0.
        1    1    3    3  502    0 -0.26650591846E+03  0.34361014793E+03 -0.57715646542E+03  0.72263609371E+03  0.50400001928E-02 0. -1.
       -1    1    3    3    0  502  0.26650591846E+03 -0.34361014793E+03 -0.11622216365E+02  0.43500392444E+03  0.50400001928E-02 0.  1.
</event>
<event>
 5   0  0.6606947E-03  0.1011975E+04  0.7818609E-02  0.9295508E-01
       -2   -1    0    0    0  501  0.00000000000E+00  0.00000000000E+00  0.10545013418E+03  0.10545013421E+03  0.25500000920E-02 0.  1.
        2   -1    0    0  501    0  0.00000000000E+00  0.00000000000E+00 -0.24279077411E+04  0.24279077411E+04  0.25500000920E-02 0. -1.
    10030    2    1    2    0    0  0.00000000000E+00  0.00000000000E+00 -0.23224576069E+04  0.25333578753E+04  0.10119746975E+04 0.  0.
        1    1    3    3  502    0  0.31018505903E+03 -0.21878952723E+03 -0.32366344615E+03  0.49884030959E+03  0.50400001928E-02 0.  1.
       -1    1    3    3    0  502 -0.31018505903E+03  0.21878952723E+03 -0.19987941608E+04  0.20345175657E+04  0.50400001928E-02 0. -1.
</event>
<event>
 5   0  0.3643002E-03  0.1005238E+04  0.7818609E-02  0.9302819E-01
       -1   -1    0    0    0  501  0.00000000000E+00  0.00000000000E+00  0.19015813835E+03  0.19015813841E+03  0.50400001928E-02 0.  1.
        1   -1    0    0  501    0  0.00000000000E+00  0.00000000000E+00 -0.13285029176E+04  0.13285029176E+04  0.50400001928E-02 0. -1.
    10030    2    1    2    0    0  0.00000000000E+00  0.00000000000E+00 -0.11383447792E+04  0.15186610560E+04  0.10052375673E+04 0.  0.
        2    1    3    3  502    0  0.34864001724E+03  0.33117430758E+03 -0.34817226524E+03  0.59367517205E+03  0.25500000920E-02 0.  1.
       -2    1    3    3    0  502 -0.34864001724E+03 -0.33117430758E+03 -0.79017251400E+03  0.92498588395E+03  0.25500000920E-02 0. -1.
</event>
<event>
 5   0  0.6606947E-03  0.9261083E+03  0.7818609E-02  0.9393521E-01
        2   -1    0    0  501    0  0.00000000000E+00  0.00000000000E+00  0.99783166465E+03  0.99783166465E+03  0.25500000920E-02 0.  1.
       -2   -1    0    0    0  501  0.00000000000E+00  0.00000000000E+00 -0.21488507134E+03  0.21488507135E+03  0.25500000920E-02 0. -1.
    10030    2    1    2    0    0  0.00000000000E+00  0.00000000000E+00  0.78294659331E+03  0.12127167360E+04  0.92610826247E+03 0.  0.
        1    1    3    3  502    0  0.87461389754E+01  0.44096155668E+03  0.20676965126E+03  0.48711115582E+03  0.50400001928E-02 0. -1.
       -1    1    3    3    0  502 -0.87461389754E+01 -0.44096155668E+03  0.57617694205E+03  0.72560558018E+03  0.50400001928E-02 0.  1.
</event>
<event>
 5   0  0.3640180E-03  0.1003579E+04  0.7818609E-02  0.9304628E-01
       -1   -1    0    0    0  501  0.00000000000E+00  0.00000000000E+00  0.36274787720E+03  0.36274787724E+03  0.50400001928E-02 0.  1.
        1   -1    0    0  501    0  0.00000000000E+00  0.00000000000E+00 -0.69412606241E+03  0.69412606243E+03  0.50400001928E-02 0. -1.
    10030    2    1    2    0    0  0.00000000000E+00  0.00000000000E+00 -0.33137818521E+03  0.10568739397E+04  0.10035791064E+04 0.  0.
        5    1    3    3  502    0  0.17194526996E+02 -0.77810340473E+02 -0.68739656095E+03  0.69201605678E+03  0.46999998093E+01 0. -1.
       -5    1    3    3    0  502 -0.17194526996E+02  0.77810340473E+02  0.35601837574E+03  0.36485788289E+03  0.46999998093E+01 0.  1.
</event>
<event>
 5   0  0.3466598E-03  0.1029983E+04  0.7818609E-02  0.9276258E-01
       -1   -1    0    0    0  501  0.00000000000E+00  0.00000000000E+00  0.22523109611E+03  0.22523109616E+03  0.50400001928E-02 0. -1.
        1   -1    0    0  501    0  0.00000000000E+00  0.00000000000E+00 -0.11775289546E+04  0.11775289546E+04  0.50400001928E-02 0.  1.
    10030    2    1    2    0    0  0.00000000000E+00  0.00000000000E+00 -0.95229785852E+03  0.14027600508E+04  0.10299827905E+04 0.  0.
        3    1    3    3  502    0 -0.32321614607E+03  0.12352571224E+03  0.43330403215E+02  0.34871881611E+03  0.10100000352E+00 0. -1.
       -3    1    3    3    0  502  0.32321614607E+03 -0.12352571224E+03 -0.99562826174E+03  0.10540412347E+04  0.10100000352E+00 0.  1.
</event>
<event>
 5   0  0.6360455E-03  0.1002515E+04  0.7818609E-02  0.9305791E-01
       -2   -1    0    0    0  501  0.00000000000E+00  0.00000000000E+00  0.30262380812E+03  0.30262380813E+03  0.25500000920E-02 0.  1.
        2   -1    0    0  501    0  0.00000000000E+00  0.00000000000E+00 -0.83026830392E+03  0.83026830392E+03  0.25500000920E-02 0. -1.
    10030    2    1    2    0    0  0.00000000000E+00  0.00000000000E+00 -0.52764449580E+03  0.11328921121E+04  0.10025147498E+04 0.  0.
        4    1    3    3  502    0 -0.24948809191E+03  0.40135704233E+03 -0.45266430560E+03  0.65439924350E+03  0.12699999809E+01 0.  1.
       -4    1    3    3    0  502  0.24948809191E+03 -0.40135704233E+03 -0.74980190203E+02  0.47849286855E+03  0.12699999809E+01 0. -1.
</event>
<event>
 5   0  0.3569359E-03  0.1003209E+04  0.7818609E-02  0.9305033E-01
        1   -1    0    0  501    0  0.00000000000E+00  0.00000000000E+00  0.94318123387E+03  0.94318123388E+03  0.50400001928E-02 0. -1.
       -1   -1    0    0    0  501  0.00000000000E+00  0.00000000000E+00 -0.26676411486E+03  0.26676411491E+03  0.50400001928E-02 0.  1.
    10030    2    1    2    0    0  0.00000000000E+00  0.00000000000E+00  0.67641711901E+03  0.12099453488E+04  0.10032086663E+04 0.  0.
        4    1    3    3  502    0 -0.31182609733E+03  0.34851769284E+03  0.11942900865E+03  0.48266447788E+03  0.12699999809E+01 0.  1.
       -4    1    3    3    0  502  0.31182609733E+03 -0.34851769284E+03  0.55698811036E+03  0.72728087091E+03  0.12699999809E+01 0. -1.
</event>
<event>
 5   0  0.6376961E-03  0.1152012E+04  0.7818609E-02  0.9155929E-01
        2   -1    0    0  501    0  0.00000000000E+00  0.00000000000E+00  0.10211926358E+04  0.10211926358E+04  0.25500000920E-02 0.  1.
       -2   -1    0    0    0  501  0.00000000000E+00  0.00000000000E+00 -0.32489767734E+03  0.32489767735E+03  0.25500000920E-02 0. -1.
    10030    2    1    2    0    0  0.00000000000E+00  0.00000000000E+00  0.69629495847E+03  0.13460903131E+04  0.11520123532E+04 0.  0.
        3    1    3    3  502    0  0.32308561809E+03  0.40891850380E+03  0.63480226456E+03  0.82132367837E+03  0.10100000352E+00 0.  1.
       -3    1    3    3    0  502 -0.32308561809E+03 -0.40891850380E+03  0.61492693909E+02  0.52476663478E+03  0.10100000352E+00 0. -1.
</event>
<event>
 5   0  0.6376961E-03  0.1006759E+04  0.7818609E-02  0.9301162E-01
        2   -1    0    0  501    0  0.00000000000E+00  0.00000000000E+00  0.10206633980E+04  0.10206633980E+04  0.25500000920E-02 0.  1.
       -2   -1    0    0    0  501  0.00000000000E+00  0.00000000000E+00 -0.24826124281E+03  0.24826124283E+03  0.25500000920E-02 0. -1.
    10030    2    1    2    0    0  0.00000000000E+00  0.00000000000E+00  0.77240215514E+03  0.12689246408E+04  0.10067594821E+04 0.  0.
        3    1    3    3  502    0  0.20767851240E+03  0.28510218899E+03  0.83885587899E+03  0.90999605416E+03  0.10100000352E+00 0.  1.
       -3    1    3    3    0  502 -0.20767851240E+03 -0.28510218899E+03 -0.66453723850E+02  0.35892858662E+03  0.10100000352E+00 0. -1.
</event>
<event>
 5   0  0.6376961E-03  0.9992352E+03  0.7818609E-02  0.9309384E-01
       -2   -1    0    0    0  501  0.00000000000E+00  0.00000000000E+00  0.23353445746E+03  0.23353445747E+03  0.25500000920E-02 0.  1.
        2   -1    0    0  501    0  0.00000000000E+00  0.00000000000E+00 -0.10688690038E+04  0.10688690038E+04  0.25500000920E-02 0. -1.
    10030    2    1    2    0    0  0.00000000000E+00  0.00000000000E+00 -0.83533454634E+03  0.13024034613E+04  0.99923519335E+03 0.  0.
        3    1    3    3  502    0  0.47599592239E+03  0.13252433841E+03 -0.32115477681E+03  0.58930061876E+03  0.10100000352E+00 0. -1.
       -3    1    3    3    0  502 -0.47599592239E+03 -0.13252433841E+03 -0.51417976954E+03  0.71310284252E+03  0.10100000352E+00 0.  1.
</event>
<event>
 5   0  0.3643002E-03  0.9970777E+03  0.7818609E-02  0.9311756E-01
       -1   -1    0    0    0  501  0.00000000000E+00  0.00000000000E+00  0.22016807871E+03  0.22016807876E+03  0.50400001928E-02 0.  1.
        1   -1    0    0  501    0  0.00000000000E+00  0.00000000000E+00 -0.11288692188E+04  0.11288692188E+04  0.50400001928E-02 0. -1.
    10030    2    1    2    0    0  0.00000000000E+00  0.00000000000E+00 -0.90870114011E+03  0.13490372976E+04  0.99707766411E+03 0.  0.
        2    1    3    3  502    0  0.31666411952E+03  0.25904724860E+03 -0.83979713873E+03  0.93415249067E+03  0.25500000920E-02 0.  1.
       -2    1    3    3    0  502 -0.31666411952E+03 -0.25904724860E+03 -0.68904001381E+02  0.41488480692E+03  0.25500000920E-02 0. -1.
</event>
<event>
 5   0  0.6022787E-03  0.9971197E+03  0.7818609E-02  0.9311710E-01
       -2   -1    0    0    0  501  0.00000000000E+00  0.00000000000E+00  0.66541097572E+03  0.66541097572E+03  0.25500000920E-02 0. -1.
        2   -1    0    0  501    0  0.00000000000E+00  0.00000000000E+00 -0.37354646303E+03  0.37354646304E+03  0.25500000920E-02 0.  1.
    10030    2    1    2    0    0  0.00000000000E+00  0.00000000000E+00  0.29186451268E+03  0.10389574388E+04  0.99711968479E+03 0.  0.
        5    1    3    3  502    0 -0.54663041769E+02 -0.30528129277E+03  0.55263675874E+03  0.63373037876E+03  0.46999998093E+01 0. -1.
       -5    1    3    3    0  502  0.54663041769E+02  0.30528129277E+03 -0.26077224605E+03  0.40522706001E+03  0.46999998093E+01 0.  1.
</event>
<event>
 5   0  0.6022787E-03  0.1008569E+04  0.7818609E-02  0.9299196E-01
        2   -1    0    0  501    0  0.00000000000E+00  0.00000000000E+00  0.18271202852E+04  0.18271202852E+04  0.25500000920E-02 0. -1.
       -2   -1    0    0    0  501  0.00000000000E+00  0.00000000000E+00 -0.13918228971E+03  0.13918228973E+03  0.25500000920E-02 0.  1.
    10030    2    1    2    0    0  0.00000000000E+00  0.00000000000E+00  0.16879379954E+04  0.19663025749E+04  0.10085688571E+04 0.  0.
        5    1    3    3  502    0  0.37126657171E+03 -0.13845012835E+03  0.14520225345E+04  0.15051241929E+04  0.46999998093E+01 0. -1.
       -5    1    3    3    0  502 -0.37126657171E+03  0.13845012835E+03  0.23591546093E+03  0.46117838199E+03  0.46999998093E+01 0.  1.
</event>
<event>
 5   0  0.6360455E-03  0.9973678E+03  0.7818609E-02  0.9311436E-01
       -2   -1    0    0    0  501  0.00000000000E+00  0.00000000000E+00  0.40707065276E+03  0.40707065277E+03  0.25500000920E-02 0.  1.
        2   -1    0    0  501    0  0.00000000000E+00  0.00000000000E+00 -0.61091519745E+03  0.61091519745E+03  0.25500000920E-02 0. -1.
    10030    2    1    2    0    0  0.00000000000E+00  0.00000000000E+00 -0.20384454469E+03  0.10179858502E+04  0.99736783227E+03 0.  0.
        4    1    3    3  502    0  0.40954037880E+03  0.19710781063E+03 -0.31136968790E+03  0.55093330478E+03  0.12699999809E+01 0.  1.
       -4    1    3    3    0  502 -0.40954037880E+03 -0.19710781063E+03  0.10752514321E+03  0.46705254544E+03  0.12699999809E+01 0. -1.
</event>
<event>
 5   0  0.6360455E-03  0.9913576E+03  0.7818609E-02  0.9318075E-01
        2   -1    0    0  501    0  0.00000000000E+00  0.00000000000E+00  0.87604865633E+03  0.87604865634E+03  0.25500000920E-02 0. -1.
       -2   -1    0    0    0  501  0.00000000000E+00  0.00000000000E+00 -0.28046100131E+03  0.28046100132E+03  0.25500000920E-02 0.  1.
    10030    2    1    2    0    0  0.00000000000E+00  0.00000000000E+00  0.59558765502E+03  0.11565096577E+04  0.99135762137E+03 0.  0.
        4    1    3    3  502    0 -0.38011790897E+03 -0.31704838838E+03  0.26722633617E+03  0.56251296246E+03  0.12699999809E+01 0.  1.
       -4    1    3    3    0  502  0.38011790897E+03  0.31704838838E+03  0.32836131885E+03  0.59399669520E+03  0.12699999809E+01 0. -1.
</event>
<event>
 5   0  0.3643002E-03  0.1006199E+04  0.7818609E-02  0.9301771E-01
        1   -1    0    0  501    0  0.00000000000E+00  0.00000000000E+00  0.72910659505E+03  0.72910659507E+03  0.50400001928E-02 0.  1.
       -1   -1    0    0    0  501  0.00000000000E+00  0.00000000000E+00 -0.34714992648E+03  0.34714992652E+03  0.50400001928E-02 0. -1.
    10030    2    1    2    0    0  0.00000000000E+00  0.00000000000E+00  0.38195666857E+03  0.10762565216E+04  0.10061993856E+04 0.  0.
        2    1    3    3  502    0 -0.49477679411E+03 -0.35589169402E+02  0.10124041425E+03  0.50628083753E+03  0.25500000920E-02 0.  1.
       -2    1    3    3    0  502  0.49477679411E+03  0.35589169402E+02  0.28071625432E+03  0.56997568405E+03  0.25500000920E-02 0. -1.
</event>
<event>
 5   0  0.6376961E-03  0.9650034E+03  0.7818609E-02  0.9347784E-01
       -2   -1    0    0    0  501  0.00000000000E+00  0.00000000000E+00  0.20799796628E+03  0.20799796630E+03  0.25500000920E-02 0.  1.
        2   -1    0    0  501    0  0.00000000000E+00  0.00000000000E+00 -0.11192796635E+04  0.11192796635E+04  0.25500000920E-02 0. -1.
    10030    2    1    2    0    0  0.00000000000E+00  0.00000000000E+00 -0.91128169719E+03  0.13272776298E+04  0.96500340665E+03 0.  0.
        3    1    3    3  502    0 -0.11526492390E+03 -0.46754746784E+03 -0.49738741586E+03  0.69230115486E+03  0.10100000352E+00 0.  1.
       -3    1    3    3    0  502  0.11526492390E+03  0.46754746784E+03 -0.41389428133E+03  0.63497647491E+03  0.10100000352E+00 0. -1.
</event>
<event>
 5   0  0.3569359E-03  0.9862816E+03  0.7818609E-02  0.9323720E-01
        1   -1    0    0  501    0  0.00000000000E+00  0.00000000000E+00  0.12938903109E+04  0.12938903110E+04  0.50400001928E-02 0. -1.
       -1   -1    0    0    0  501  0.00000000000E+00  0.00000000000E+00 -0.18795090788E+03  0.18795090795E+03  0.50400001928E-02 0.  1.
    10030    2    1    2    0    0  0.00000000000E+00  0.00000000000E+00  0.11059394031E+04  0.14818412189E+04  0.98628162043E+03 0.  0.
        4    1    3    3  502    0  0.37132234172E+03  0.30744185425E+03  0.39693532837E+03  0.62446780782E+03  0.12699999809E+01 0.  1.
       -4    1    3    3    0  502 -0.37132234172E+03 -0.30744185425E+03  0.70900407469E+03  0.85737341108E+03  0.12699999809E+01 0. -1.
</event>
<event>
 5   0  0.6606947E-03  0.9376476E+03  0.7818609E-02  0.9379706E-01
       -2   -1    0    0    0  501  0.00000000000E+00  0.00000000000E+00  0.89295976003E+02  0.89295976040E+02  0.25500000920E-02 0. -1.
        2   -1    0    0  501    0  0.00000000000E+00  0.00000000000E+00 -0.24614293038E+04  0.24614293038E+04  0.25500000920E-02 0.  1.
    10030    2    1    2    0    0  0.00000000000E+00  0.00000000000E+00 -0.23721333278E+04  0.25507252799E+04  0.93764755019E+03 0.  0.
        1    1    3    3  502    0 -0.28246037895E+03 -0.39672626478E+02 -0.21982324235E+04  0.22166604546E+04  0.50400001928E-02 0.  1.
       -1    1    3    3    0  502  0.28246037895E+03  0.39672626478E+02 -0.17390090431E+03  0.33406482532E+03  0.50400001928E-02 0. -1.
</event>
<event>
 5   0  0.6199539E-03  0.9873965E+03  0.7818609E-02  0.9322477E-01
        2   -1    0    0  501    0  0.00000000000E+00  0.00000000000E+00  0.13288282811E+03  0.13288282813E+03  0.25500000920E-02 0.  1.
       -2   -1    0    0    0  501  0.00000000000E+00  0.00000000000E+00 -0.18342320468E+04  0.18342320468E+04  0.25500000920E-02 0. -1.
    10030    2    1    2    0    0  0.00000000000E+00  0.00000000000E+00 -0.17013492187E+04  0.19671148749E+04  0.98739645898E+03 0.  0.
        2    1    3    3  502    0 -0.35245861602E+03 -0.12274917114E+03 -0.20683323815E+03  0.42670179685E+03  0.25500000920E-02 0.  1.
       -2    1    3    3    0  502  0.35245861602E+03  0.12274917114E+03 -0.14945159805E+04  0.15404130780E+04  0.25500000920E-02 0. -1.
</event>
<event>
 5   0  0.3569359E-03  0.9998565E+03  0.7818609E-02  0.9308702E-01
       -1   -1    0    0    0  501  0.00000000000E+00  0.00000000000E+00  0.60359585065E+03  0.60359585067E+03  0.50400001928E-02 0. -1.
        1   -1    0    0  501    0  0.00000000000E+00  0.00000000000E+00 -0.41406557040E+03  0.41406557043E+03  0.50400001928E-02 0.  1.
    10030    2    1    2    0    0  0.00000000000E+00  0.00000000000E+00  0.18953028025E+03  0.10176614211E+04  0.99985651014E+03 0.  0.
        4    1    3    3  502    0  0.40509801995E+02  0.49784202446E+03  0.11608867868E+03  0.51280202769E+03  0.12699999809E+01 0.  1.
       -4    1    3    3    0  502 -0.40509801995E+02 -0.49784202446E+03  0.73441601569E+02  0.50485939342E+03  0.12699999809E+01 0. -1.
</event>
<event>
 5   0  0.3643002E-03  0.1002600E+04  0.7818609E-02  0.9305698E-01
       -1   -1    0    0    0  501  0.00000000000E+00  0.00000000000E+00  0.27384458697E+03  0.27384458701E+03  0.50400001928E-02 0. -1.
        1   -1    0    0  501    0  0.00000000000E+00  0.00000000000E+00 -0.91767976425E+03  0.91767976426E+03  0.50400001928E-02 0.  1.
    10030    2    1    2    0    0  0.00000000000E+00  0.00000000000E+00 -0.64383517728E+03  0.11915243513E+04  0.10025998924E+04 0.  0.
        2    1    3    3  502    0  0.35260199463E+02 -0.25437352469E+03  0.18973414625E+03  0.31929331028E+03  0.25500000920E-02 0. -1.
       -2    1    3    3    0  502 -0.35260199463E+02  0.25437352469E+03 -0.83356932353E+03  0.87223104099E+03  0.25500000920E-02 0.  1.
</event>
<event>
 5   0  0.6360455E-03  0.9871407E+03  0.7818609E-02  0.9322762E-01
       -2   -1    0    0    0  501  0.00000000000E+00  0.00000000000E+00  0.15820766782E+04  0.15820766782E+04  0.25500000920E-02 0.  1.
        2   -1    0    0  501    0  0.00000000000E+00  0.00000000000E+00 -0.15398221737E+03  0.15398221739E+03  0.25500000920E-02 0. -1.
    10030    2    1    2    0    0  0.00000000000E+00  0.00000000000E+00  0.14280944608E+04  0.17360588956E+04  0.98714066876E+03 0.  0.
        4    1    3    3  502    0  0.11904481829E+03 -0.46619449511E+03  0.52058437903E+03  0.70888552293E+03  0.12699999809E+01 0. -1.
       -4    1    3    3    0  502 -0.11904481829E+03  0.46619449511E+03  0.90751008179E+03  0.10271733726E+04  0.12699999809E+01 0.  1.
</event>
<event>
 5   0  0.6360455E-03  0.1002627E+04  0.7818609E-02  0.9305669E-01
       -2   -1    0    0    0  501  0.00000000000E+00  0.00000000000E+00  0.73946834804E+03  0.73946834805E+03  0.25500000920E-02 0. -1.
        2   -1    0    0  501    0  0.00000000000E+00  0.00000000000E+00 -0.33985915520E+03  0.33985915521E+03  0.25500000920E-02 0.  1.
    10030    2    1    2    0    0  0.00000000000E+00  0.00000000000E+00  0.39960919284E+03  0.10793275033E+04  0.10026267263E+04 0.  0.
        4    1    3    3  502    0  0.64990931124E+02  0.45935062039E+03  0.40430177487E+03  0.61537659335E+03  0.12699999809E+01 0.  1.
       -4    1    3    3    0  502 -0.64990931124E+02 -0.45935062039E+03 -0.46925820336E+01  0.46395090991E+03  0.12699999809E+01 0. -1.
</event>
<event>
 5   0  0.3569359E-03  0.9954351E+03  0.7818609E-02  0.9313566E-01
       -1   -1    0    0    0  501  0.00000000000E+00  0.00000000000E+00  0.24327809127E+03  0.24327809132E+03  0.50400001928E-02 0. -1.
        1   -1    0    0  501    0  0.00000000000E+00  0.00000000000E+00 -0.10182699464E+04  0.10182699464E+04  0.50400001928E-02 0.  1.
    10030    2    1    2    0    0  0.00000000000E+00  0.00000000000E+00 -0.77499185511E+03  0.12615480377E+04  0.99543511891E+03 0.  0.
        4    1    3    3  502    0 -0.19657077735E+02  0.46339488420E+03 -0.15867317154E+03  0.49020404698E+03  0.12699999809E+01 0.  1.
       -4    1    3    3    0  502  0.19657077735E+02 -0.46339488420E+03 -0.61631868357E+03  0.77134399072E+03  0.12699999809E+01 0. -1.
</event>
<event>
 5   0  0.3643002E-03  0.1006436E+04  0.7818609E-02  0.9301514E-01
        1   -1    0    0  501    0  0.00000000000E+00  0.00000000000E+00  0.68748382671E+03  0.68748382673E+03  0.50400001928E-02 0.  1.
       -1   -1    0    0    0  501  0.00000000000E+00  0.00000000000E+00 -0.36834076988E+03  0.36834076992E+03  0.50400001928E-02 0. -1.
    10030    2    1    2    0    0  0.00000000000E+00  0.00000000000E+00  0.31914305682E+03  0.10558245966E+04  0.10064359335E+04 0.  0.
        2    1    3    3  502    0 -0.19952466773E+03  0.19202435931E+03 -0.28121995774E+03  0.39467469166E+03  0.25500000920E-02 0. -1.
       -2    1    3    3    0  502  0.19952466773E+03 -0.19202435931E+03  0.60036301456E+03  0.66114990498E+03  0.25500000920E-02 0.  1.
</event>
<event>
 5   0  0.6022787E-03  0.1126921E+04  0.7818609E-02  0.9179343E-01
        2   -1    0    0  501    0  0.00000000000E+00  0.00000000000E+00  0.84553060332E+03  0.84553060332E+03  0.25500000920E-02 0. -1.
       -2   -1    0    0    0  501  0.00000000000E+00  0.00000000000E+00 -0.37548933095E+03  0.37548933096E+03  0.25500000920E-02 0.  1.
    10030    2    1    2    0    0  0.00000000000E+00  0.00000000000E+00  0.47004127236E+03  0.12210199343E+04  0.11269209742E+04 0.  0.
        5    1    3    3  502    0  0.12437423212E+02 -0.38976862611E+03 -0.20562117157E+03  0.44088142124E+03  0.46999998093E+01 0.  1.
       -5    1    3    3    0  502 -0.12437423212E+02  0.38976862611E+03  0.67566244394E+03  0.78013851305E+03  0.46999998093E+01 0. -1.
</event>
<event>
 5   0  0.2417750E-03  0.1037781E+04  0.7818609E-02  0.9268051E-01
        4   -1    0    0  501    0  0.00000000000E+00  0.00000000000E+00  0.31129501473E+03  0.31129760535E+03  0.12699999809E+01 0.  1.
       -4   -1    0    0    0  501  0.00000000000E+00  0.00000000000E+00 -0.86492019203E+03  0.86492112443E+03  0.12699999809E+01 0. -1.
    10030    2    1    2    0    0  0.00000000000E+00  0.00000000000E+00 -0.55362517730E+03  0.11762187298E+04  0.10377811250E+04 0.  0.
        2    1    3    3  502    0  0.33106500838E+03 -0.39952041016E+03 -0.27094317291E+03  0.58534673559E+03  0.25500000920E-02 0.  1.
       -2    1    3    3    0  502 -0.33106500838E+03  0.39952041016E+03 -0.28268200439E+03  0.59087199420E+03  0.25500000920E-02 0. -1.
</event>
<event>
 5   0  0.3640180E-03  0.1000293E+04  0.7818609E-02  0.9308224E-01
        1   -1    0    0  501    0  0.00000000000E+00  0.00000000000E+00  0.16313650922E+03  0.16313650929E+03  0.50400001928E-02 0.  1.
       -1   -1    0    0    0  501  0.00000000000E+00  0.00000000000E+00 -0.15333559009E+04  0.15333559010E+04  0.50400001928E-02 0. -1.
    10030    2    1    2    0    0  0.00000000000E+00  0.00000000000E+00 -0.13702193917E+04  0.16964924102E+04  0.10002926155E+04 0.  0.
        5    1    3    3  502    0  0.11623791274E+03  0.28032903644E+03 -0.10903515148E+02  0.30370478704E+03  0.46999998093E+01 0.  1.
       -5    1    3    3    0  502 -0.11623791274E+03 -0.28032903644E+03 -0.13593158766E+04  0.13927876232E+04  0.46999998093E+01 0. -1.
</event>
<event>
 5   0  0.6199539E-03  0.1010198E+04  0.7818609E-02  0.9297431E-01
        2   -1    0    0  501    0  0.00000000000E+00  0.00000000000E+00  0.31134164963E+03  0.31134164964E+03  0.25500000920E-02 0. -1.
       -2   -1    0    0    0  501  0.00000000000E+00  0.00000000000E+00 -0.81943662978E+03  0.81943662978E+03  0.25500000920E-02 0.  1.
    10030    2    1    2    0    0  0.00000000000E+00  0.00000000000E+00 -0.50809498015E+03  0.11307782794E+04  0.10101975096E+04 0.  0.
        2    1    3    3  502    0 -0.17063239160E+02  0.28605475663E+03  0.21154084499E+03  0.35618535487E+03  0.25500000920E-02 0. -1.
       -2    1    3    3    0  502  0.17063239160E+02 -0.28605475663E+03 -0.71963582514E+03  0.77459292454E+03  0.25500000920E-02 0.  1.
</event>
<event>
 5   0  0.3569359E-03  0.9980758E+03  0.7818609E-02  0.9310658E-01
        1   -1    0    0  501    0  0.00000000000E+00  0.00000000000E+00  0.70876433698E+03  0.70876433700E+03  0.50400001928E-02 0.  1.
       -1   -1    0    0    0  501  0.00000000000E+00  0.00000000000E+00 -0.35137040541E+03  0.35137040545E+03  0.50400001928E-02 0. -1.
    10030    2    1    2    0    0  0.00000000000E+00  0.00000000000E+00  0.35739393157E+03  0.10601347425E+04  0.99807577359E+03 0.  0.
        4    1    3    3  502    0  0.76136693321E+02  0.28395693870E+03  0.60701825048E+03  0.67446357086E+03  0.12699999809E+01 0.  1.
       -4    1    3    3    0  502 -0.76136693321E+02 -0.28395693870E+03 -0.24962431890E+03  0.38567117159E+03  0.12699999809E+01 0. -1.
</event>
<event>
 5   0  0.6376961E-03  0.1003042E+04  0.7818609E-02  0.9305215E-01
        2   -1    0    0  501    0  0.00000000000E+00  0.00000000000E+00  0.57051069454E+03  0.57051069455E+03  0.25500000920E-02 0. -1.
       -2   -1    0    0    0  501  0.00000000000E+00  0.00000000000E+00 -0.44087403068E+03  0.44087403069E+03  0.25500000920E-02 0.  1.
    10030    2    1    2    0    0  0.00000000000E+00  0.00000000000E+00  0.12963666386E+03  0.10113847252E+04  0.10030420718E+04 0.  0.
        3    1    3    3  502    0  0.90043565028E+02  0.44355725338E+03  0.28265329200E+03  0.53361388130E+03  0.10100000352E+00 0.  1.
       -3    1    3    3    0  502 -0.90043565028E+02 -0.44355725338E+03 -0.15301662813E+03  0.47777084394E+03  0.10100000352E+00 0. -1.
</event>
<event>
 5   0  0.2417750E-03  0.1000843E+04  0.7818609E-02  0.9307620E-01
       -4   -1    0    0    0  501  0.00000000000E+00  0.00000000000E+00  0.13296813001E+04  0.13296819066E+04  0.12699999809E+01 0. -1.
        4   -1    0    0  501    0  0.00000000000E+00  0.00000000000E+00 -0.18832940391E+03  0.18833368599E+03  0.12699999809E+01 0.  1.
    10030    2    1    2    0    0  0.00000000000E+00  0.00000000000E+00  0.11413518962E+04  0.15180155926E+04  0.10008432387E+04 0.  0.
        4    1    3    3  502    0 -0.55537642611E+02  0.49652479314E+03  0.52780608415E+03  0.72677518897E+03  0.12699999809E+01 0. -1.
       -4    1    3    3    0  502  0.55537642611E+02 -0.49652479314E+03  0.61354581206E+03  0.79124040363E+03  0.12699999809E+01 0.  1.
</event>
<event>
 5   0  0.6199539E-03  0.9967797E+03  0.7818609E-02  0.9312084E-01
       -2   -1    0    0    0  501  0.00000000000E+00  0.00000000000E+00  0.18297515930E+03  0.18297515932E+03  0.25500000920E-02 0. -1.
        2   -1    0    0  501    0  0.00000000000E+00  0.00000000000E+00 -0.13575200919E+04  0.13575200919E+04  0.25500000920E-02 0.  1.
    10030    2    1    2    0    0  0.00000000000E+00  0.00000000000E+00 -0.11745449326E+04  0.15404952513E+04  0.99677972511E+03 0.  0.
        2    1    3    3  502    0  0.33233086308E+03  0.35649970440E+03 -0.74830304471E+03  0.89302479726E+03  0.25500000920E-02 0.  1.
       -2    1    3    3    0  502 -0.33233086308E+03 -0.35649970440E+03 -0.42624188793E+03  0.64747045401E+03  0.25500000920E-02 0. -1.
</event>
<event>
 5   0  0.3466598E-03  0.9946672E+03  0.7818609E-02  0.9314413E-01
        1   -1    0    0  501    0  0.00000000000E+00  0.00000000000E+00  0.25968245962E+04  0.25968245962E+04  0.50400001928E-02 0.  1.
       -1   -1    0    0    0  501  0.00000000000E+00  0.00000000000E+00 -0.95247369607E+02  0.95247369740E+02  0.50400001928E-02 0. -1.
    10030    2    1    2    0    0  0.00000000000E+00  0.00000000000E+00  0.25015772266E+04  0.26920719660E+04  0.99466720526E+03 0.  0.
        3    1    3    3  502    0 -0.13103525401E+02 -0.35616211727E+03  0.31198803403E+03  0.47366623242E+03  0.10100000352E+00 0. -1.
       -3    1    3    3    0  502  0.13103525401E+02  0.35616211727E+03  0.21895891926E+04  0.22184057335E+04  0.10100000352E+00 0.  1.
</event>
<event>
 5   0  0.6199539E-03  0.1006737E+04  0.7818609E-02  0.9301187E-01
       -2   -1    0    0    0  501  0.00000000000E+00  0.00000000000E+00  0.97675042083E+03  0.97675042083E+03  0.25500000920E-02 0.  1.
        2   -1    0    0  501    0  0.00000000000E+00  0.00000000000E+00 -0.25941096204E+03  0.25941096205E+03  0.25500000920E-02 0. -1.
    10030    2    1    2    0    0  0.00000000000E+00  0.00000000000E+00  0.71733945879E+03  0.12361613829E+04  0.10067368402E+04 0.  0.
        2    1    3    3  502    0  0.11392016663E+03 -0.46042785693E+03  0.15171245729E+03  0.49798422215E+03  0.25500000920E-02 0. -1.
       -2    1    3    3    0  502 -0.11392016663E+03  0.46042785693E+03  0.56562700150E+03  0.73817716074E+03  0.25500000920E-02 0.  1.
</event>
<event>
 5   0  0.3640180E-03  0.9975105E+03  0.7818609E-02  0.9311279E-01
        1   -1    0    0  501    0  0.00000000000E+00  0.00000000000E+00  0.13423595515E+04  0.13423595515E+04  0.50400001928E-02 0. -1.
       -1   -1    0    0    0  501  0.00000000000E+00  0.00000000000E+00 -0.18531309293E+03  0.18531309300E+03  0.50400001928E-02 0.  1.
    10030    2    1    2    0    0  0.00000000000E+00  0.00000000000E+00  0.11570464586E+04  0.15276726445E+04  0.99751050196E+03 0.  0.
        5    1    3    3  502    0 -0.28092094541E+02  0.49645828845E+03  0.63733530344E+03  0.80838009436E+03  0.46999998093E+01 0. -1.
       -5    1    3    3    0  502  0.28092094541E+02 -0.49645828845E+03  0.51971115517E+03  0.71929255018E+03  0.46999998093E+01 0.  1.
</event>
<event>
 5   0  0.3569359E-03  0.9975592E+03  0.7818609E-02  0.9311226E-01
        1   -1    0    0  501    0  0.00000000000E+00  0.00000000000E+00  0.68833967097E+03  0.68833967099E+03  0.50400001928E-02 0.  1.
       -1   -1    0    0    0  501  0.00000000000E+00  0.00000000000E+00 -0.36142196252E+03  0.36142196256E+03  0.50400001928E-02 0. -1.
    10030    2    1    2    0    0  0.00000000000E+00  0.00000000000E+00  0.32691770845E+03  0.10497616335E+04  0.99755917076E+03 0.  0.
        4    1    3    3  502    0 -0.85047468085E+02 -0.32468879377E+02  0.67952158238E+03  0.68559353394E+03  0.12699999809E+01 0.  1.
       -4    1    3    3    0  502  0.85047468085E+02  0.32468879377E+02 -0.35260387394E+03  0.36416809961E+03  0.12699999809E+01 0. -1.
</event>
<event>
 5   0  0.6376961E-03  0.1024302E+04  0.7818609E-02  0.9282285E-01
       -2   -1    0    0    0  501  0.00000000000E+00  0.00000000000E+00  0.85749276950E+03  0.85749276950E+03  0.25500000920E-02 0. -1.
        2   -1    0    0  501    0  0.00000000000E+00  0.00000000000E+00 -0.30589022589E+03  0.30589022590E+03  0.25500000920E-02 0.  1.
    10030    2    1    2    0    0  0.00000000000E+00  0.00000000000E+00  0.55160254361E+03  0.11633829954E+04  0.10243020198E+04 0.  0.
        3    1    3    3  502    0  0.11346425953E+03  0.16451335812E+03 -0.25977691667E+03  0.32775423694E+03  0.10100000352E+00 0.  1.
       -3    1    3    3    0  502 -0.11346425953E+03 -0.16451335812E+03  0.81137946029E+03  0.83562875846E+03  0.10100000352E+00 0. -1.
</event>
<event>
 5   0  0.3466598E-03  0.8602541E+03  0.7818609E-02  0.9476677E-01
       -1   -1    0    0    0  501  0.00000000000E+00  0.00000000000E+00  0.21169887391E+03  0.21169887397E+03  0.50400001928E-02 0.  1.
        1   -1    0    0  501    0  0.00000000000E+00  0.00000000000E+00 -0.87392657807E+03  0.87392657809E+03  0.50400001928E-02 0. -1.
    10030    2    1    2    0    0  0.00000000000E+00  0.00000000000E+00 -0.66222770416E+03  0.10856254521E+04  0.86025408456E+03 0.  0.
        3    1    3    3  502    0  0.94494227574E+02 -0.24477595319E+03  0.99007116458E+02  0.28044044932E+03  0.10100000352E+00 0.  1.
       -3    1    3    3    0  502 -0.94494227574E+02  0.24477595319E+03 -0.76123482062E+03  0.80518500274E+03  0.10100000352E+00 0. -1.
</event>
<event>
 5   0  0.3643002E-03  0.1037469E+04  0.7818609E-02  0.9268378E-01
       -1   -1    0    0    0  501  0.00000000000E+00  0.00000000000E+00  0.18369208007E+03  0.18369208014E+03  0.50400001928E-02 0.  1.
        1   -1    0    0  501    0  0.00000000000E+00  0.00000000000E+00 -0.14648732410E+04  0.14648732410E+04  0.50400001928E-02 0. -1.
    10030    2    1    2    0    0  0.00000000000E+00  0.00000000000E+00 -0.12811811609E+04  0.16485653211E+04  0.10374692530E+04 0.  0.
        2    1    3    3  502    0 -0.17054533794E+03 -0.23549121738E+03  0.42031983169E+02  0.29378310600E+03  0.25500000920E-02 0.  1.
       -2    1    3    3    0  502  0.17054533794E+03  0.23549121738E+03 -0.13232131441E+04  0.13547822151E+04  0.25500000920E-02 0. -1.
</event>
<event>
 5   0  0.3643002E-03  0.9978595E+03  0.7818609E-02  0.9310896E-01
        1   -1    0    0  501    0  0.00000000000E+00  0.00000000000E+00  0.56037886224E+03  0.56037886226E+03  0.50400001928E-02 0.  1.
       -1   -1    0    0    0  501  0.00000000000E+00  0.00000000000E+00 -0.44421888712E+03  0.44421888715E+03  0.50400001928E-02 0. -1.
    10030    2    1    2    0    0  0.00000000000E+00  0.00000000000E+00  0.11615997512E+03  0.10045977494E+04  0.99785945819E+03 0.  0.
        2    1    3    3  502    0  0.15879364319E+03 -0.98452446090E+01  0.53415645159E+03  0.55734680832E+03  0.25500000920E-02 0.  1.
       -2    1    3    3    0  502 -0.15879364319E+03  0.98452446090E+01 -0.41799647647E+03  0.44725094109E+03  0.25500000920E-02 0. -1.
</event>
<event>
 5   0  0.6360455E-03  0.1005673E+04  0.7818609E-02  0.9302345E-01
       -2   -1    0    0    0  501  0.00000000000E+00  0.00000000000E+00  0.11973475812E+03  0.11973475815E+03  0.25500000920E-02 0.  1.
        2   -1    0    0  501    0  0.00000000000E+00  0.00000000000E+00 -0.21117056066E+04  0.21117056066E+04  0.25500000920E-02 0. -1.
    10030    2    1    2    0    0  0.00000000000E+00  0.00000000000E+00 -0.19919708485E+04  0.22314403647E+04  0.10056730285E+04 0.  0.
        4    1    3    3  502    0 -0.39450840655E+02  0.16807999363E+02 -0.21076374490E+04  0.21080740279E+04  0.12699999809E+01 0. -1.
       -4    1    3    3    0  502  0.39450840655E+02 -0.16807999363E+02  0.11566660058E+03  0.12336633682E+03  0.12699999809E+01 0.  1.
</event>
<event>
 5   0  0.3569359E-03  0.1015726E+04  0.7818609E-02  0.9291463E-01
       -1   -1    0    0    0  501  0.00000000000E+00  0.00000000000E+00  0.16507465900E+03  0.16507465908E+03  0.50400001928E-02 0.  1.
        1   -1    0    0  501    0  0.00000000000E+00  0.00000000000E+00 -0.15624743215E+04  0.15624743215E+04  0.50400001928E-02 0. -1.
    10030    2    1    2    0    0  0.00000000000E+00  0.00000000000E+00 -0.13973996625E+04  0.17275489806E+04  0.10157261755E+04 0.  0.
        4    1    3    3  502    0 -0.15412523084E+03  0.11589134560E+03  0.10038371898E+03  0.21740260970E+03  0.12699999809E+01 0.  1.
       -4    1    3    3    0  502  0.15412523084E+03 -0.11589134560E+03 -0.14977833815E+04  0.15101463709E+04  0.12699999809E+01 0. -1.
</event>
<event>
 5   0  0.3608845E-03  0.1012407E+04  0.7818609E-02  0.9295041E-01
       -1   -1    0    0    0  501  0.00000000000E+00  0.00000000000E+00  0.33468664875E+03  0.33468664879E+03  0.50400001928E-02 0. -1.
        1   -1    0    0  501    0  0.00000000000E+00  0.00000000000E+00 -0.76561779057E+03  0.76561779059E+03  0.50400001928E-02 0.  1.
    10030    2    1    2    0    0  0.00000000000E+00  0.00000000000E+00 -0.43093114182E+03  0.11003044394E+04  0.10124071366E+04 0.  0.
        1    1    3    3  502    0 -0.92779422592E+02  0.34470952701E+03 -0.60552555696E+03  0.70291811716E+03  0.50400001928E-02 0.  1.
       -1    1    3    3    0  502  0.92779422592E+02 -0.34470952701E+03  0.17459441514E+03  0.39738632222E+03  0.50400001928E-02 0. -1.
</event>
<event>
 5   0  0.6022787E-03  0.9863766E+03  0.7818609E-02  0.9323614E-01
       -2   -1    0    0    0  501  0.00000000000E+00  0.00000000000E+00  0.83769217287E+03  0.83769217287E+03  0.25500000920E-02 0. -1.
        2   -1    0    0  501    0  0.00000000000E+00  0.00000000000E+00 -0.29036284024E+03  0.29036284025E+03  0.25500000920E-02 0.  1.
    10030    2    1    2    0    0  0.00000000000E+00  0.00000000000E+00  0.54732933263E+03  0.11280550131E+04  0.98637655806E+03 0.  0.
        5    1    3    3  502    0 -0.73288312984E+02  0.25554124656E+03 -0.20137791361E+03  0.33353809318E+03  0.46999998093E+01 0.  1.
       -5    1    3    3    0  502  0.73288312984E+02 -0.25554124656E+03  0.74870724624E+03  0.79451691994E+03  0.46999998093E+01 0. -1.
</event>
<event>
 5   0  0.6606947E-03  0.1008908E+04  0.7818609E-02  0.9298829E-01
        2   -1    0    0  501    0  0.00000000000E+00  0.00000000000E+00  0.72569261639E+03  0.72569261639E+03  0.25500000920E-02 0.  1.
       -2   -1    0    0    0  501  0.00000000000E+00  0.00000000000E+00 -0.35066316505E+03  0.35066316506E+03  0.25500000920E-02 0. -1.
    10030    2    1    2    0    0  0.00000000000E+00  0.00000000000E+00  0.37502945134E+03  0.10763557814E+04  0.10089076662E+04 0.  0.
        1    1    3    3  502    0 -0.23736782161E+03 -0.37458701517E+03  0.44403622565E+03  0.62755643920E+03  0.50400001928E-02 0.  1.
       -1    1    3    3    0  502  0.23736782161E+03  0.37458701517E+03 -0.69006774313E+02  0.44879934224E+03  0.50400001928E-02 0. -1.
</event>
<event>
 5   0  0.6606947E-03  0.9873022E+03  0.7818609E-02  0.9322582E-01
        2   -1    0    0  501    0  0.00000000000E+00  0.00000000000E+00  0.13930835330E+04  0.13930835330E+04  0.25500000920E-02 0. -1.
       -2   -1    0    0    0  501  0.00000000000E+00  0.00000000000E+00 -0.17492951788E+03  0.17492951790E+03  0.25500000920E-02 0.  1.
    10030    2    1    2    0    0  0.00000000000E+00  0.00000000000E+00  0.12181540151E+04  0.15680130509E+04  0.98730224515E+03 0.  0.
        1    1    3    3  502    0  0.90178680814E+02  0.40105502600E+03  0.17496595797E+03  0.44675543067E+03  0.50400001928E-02 0.  1.
       -1    1    3    3    0  502 -0.90178680814E+02 -0.40105502600E+03  0.10431880572E+04  0.11212576203E+04  0.50400001928E-02 0. -1.
</event>
<event>
 5   0  0.3466598E-03  0.9634137E+03  0.7818609E-02  0.9349608E-01
        1   -1    0    0  501    0  0.00000000000E+00  0.00000000000E+00  0.44430303083E+03  0.44430303086E+03  0.50400001928E-02 0.  1.
       -1   -1    0    0    0  501  0.00000000000E+00  0.00000000000E+00 -0.52225948962E+03  0.52225948964E+03  0.50400001928E-02 0. -1.
    10030    2    1    2    0    0  0.00000000000E+00  0.00000000000E+00 -0.77956458785E+02  0.96656252050E+03  0.96341366846E+03 0.  0.
        3    1    3    3  502    0 -0.47573639365E+02 -0.47462282399E+03  0.28408165744E+02  0.47784632498E+03  0.10100000352E+00 0.  1.
       -3    1    3    3    0  502  0.47573639365E+02  0.47462282399E+03 -0.10636462453E+03  0.48871619552E+03  0.10100000352E+00 0. -1.
</event>
<event>
 5   0  0.6022787E-03  0.1001500E+04  0.7818609E-02  0.9306901E-01
       -2   -1    0    0    0  501  0.00000000000E+00  0.00000000000E+00  0.24292043778E+03  0.24292043779E+03  0.25500000920E-02 0. -1.
        2   -1    0    0  501    0  0.00000000000E+00  0.00000000000E+00 -0.10322340479E+04  0.10322340479E+04  0.25500000920E-02 0.  1.
    10030    2    1    2    0    0  0.00000000000E+00  0.00000000000E+00 -0.78931361016E+03  0.12751544857E+04  0.10015003681E+04 0.  0.
        5    1    3    3  502    0  0.22267937173E+03 -0.37754545753E+03 -0.86431819374E+02  0.44678767272E+03  0.46999998093E+01 0. -1.
       -5    1    3    3    0  502 -0.22267937173E+03  0.37754545753E+03 -0.70288179078E+03  0.82836681302E+03  0.46999998093E+01 0.  1.
</event>
<event>
 5   0  0.6199539E-03  0.1009720E+04  0.7818609E-02  0.9297948E-01
       -2   -1    0    0    0  501  0.00000000000E+00  0.00000000000E+00  0.21788082495E+03  0.21788082496E+03  0.25500000920E-02 0.  1.
        2   -1    0    0  501    0  0.00000000000E+00  0.00000000000E+00 -0.11698296395E+04  0.11698296395E+04  0.25500000920E-02 0. -1.
    10030    2    1    2    0    0  0.00000000000E+00  0.00000000000E+00 -0.95194881457E+03  0.13877104645E+04  0.10097196580E+04 0.  0.
        2    1    3    3  502    0 -0.23297174103E+03 -0.43886955615E+03 -0.59890886977E+03  0.77818645178E+03  0.25500000920E-02 0. -1.
       -2    1    3    3    0  502  0.23297174103E+03  0.43886955615E+03 -0.35303994481E+03  0.60952401271E+03  0.25500000920E-02 0.  1.
</event>
<event>
 5   0  0.3640180E-03  0.1005000E+04  0.7818609E-02  0.9303078E-01
       -1   -1    0    0    0  501  0.00000000000E+00  0.00000000000E+00  0.40797264577E+03  0.40797264581E+03  0.50400001928E-02 0.  1.
        1   -1    0    0  501    0  0.00000000000E+00  0.00000000000E+00 -0.61892899001E+03  0.61892899003E+03  0.50400001928E-02 0. -1.
    10030    2    1    2    0    0  0.00000000000E+00  0.00000000000E+00 -0.21095634423E+03  0.10269016358E+04  0.10049996968E+04 0.  0.
        5    1    3    3  502    0  0.37505103720E+03 -0.27951053444E+03 -0.29303936745E+03  0.55198150353E+03  0.46999998093E+01 0.  1.
       -5    1    3    3    0  502 -0.37505103720E+03  0.27951053444E+03  0.82083023217E+02  0.47492013230E+03  0.46999998093E+01 0. -1.
</event>
<event>
 5   0  0.6606947E-03  0.1003514E+04  0.7818609E-02  0.9304699E-01
        2   -1    0    0  501    0  0.00000000000E+00  0.00000000000E+00  0.12628315342E+04  0.12628315342E+04  0.25500000920E-02 0.  1.
       -2   -1    0    0    0  501  0.00000000000E+00  0.00000000000E+00 -0.19936175448E+03  0.19936175450E+03  0.25500000920E-02 0. -1.
    10030    2    1    2    0    0  0.00000000000E+00  0.00000000000E+00  0.10634697797E+04  0.14621932887E+04  0.10035144449E+04 0.  0.
        1    1    3    3  502    0 -0.31335253746E+03 -0.56731750481E+02 -0.33248618875E+02  0.32017772397E+03  0.50400001928E-02 0. -1.
       -1    1    3    3    0  502  0.31335253746E+03  0.56731750481E+02  0.10967183986E+04  0.11420155647E+04  0.50400001928E-02 0.  1.
</event>
<event>
 5   0  0.6360455E-03  0.1004440E+04  0.7818609E-02  0.9303689E-01
       -2   -1    0    0    0  501  0.00000000000E+00  0.00000000000E+00  0.19208113072E+03  0.19208113074E+03  0.25500000920E-02 0. -1.
        2   -1    0    0  501    0  0.00000000000E+00  0.00000000000E+00 -0.13131154361E+04  0.13131154361E+04  0.25500000920E-02 0.  1.
    10030    2    1    2    0    0  0.00000000000E+00  0.00000000000E+00 -0.11210343053E+04  0.15051965668E+04  0.10044395407E+04 0.  0.
        4    1    3    3  502    0 -0.10386306540E+03  0.18496765496E+03  0.12164542108E+03  0.24453995809E+03  0.12699999809E+01 0. -1.
       -4    1    3    3    0  502  0.10386306540E+03 -0.18496765496E+03 -0.12426797264E+04  0.12606566087E+04  0.12699999809E+01 0.  1.
</event>
<event>
 5   0  0.6606947E-03  0.9320733E+03  0.7818609E-02  0.9386353E-01
        2   -1    0    0  501    0  0.00000000000E+00  0.00000000000E+00  0.16168072611E+04  0.16168072611E+04  0.25500000920E-02 0.  1.
       -2   -1    0    0    0  501  0.00000000000E+00  0.00000000000E+00 -0.13433273283E+03  0.13433273285E+03  0.25500000920E-02 0. -1.
    10030    2    1    2    0    0  0.00000000000E+00  0.00000000000E+00  0.14824745282E+04  0.17511399939E+04  0.93207325433E+03 0.  0.
        1    1    3    3  502    0 -0.17727572252E+03 -0.30065069329E+03  0.16103065726E+03  0.38438053251E+03  0.50400001928E-02 0. -1.
       -1    1    3    3    0  502  0.17727572252E+03  0.30065069329E+03  0.13214438710E+04  0.13667594614E+04  0.50400001928E-02 0.  1.
</event>
<event>
 5   0  0.6199539E-03  0.1022673E+04  0.7818609E-02  0.9284021E-01
        2   -1    0    0  501    0  0.00000000000E+00  0.00000000000E+00  0.14639767214E+04  0.14639767214E+04  0.25500000920E-02 0. -1.
       -2   -1    0    0    0  501  0.00000000000E+00  0.00000000000E+00 -0.17859917325E+03  0.17859917327E+03  0.25500000920E-02 0.  1.
    10030    2    1    2    0    0  0.00000000000E+00  0.00000000000E+00  0.12853775481E+04  0.16425758947E+04  0.10226730311E+04 0.  0.
        2    1    3    3  502    0  0.60733651814E+02 -0.22701589221E+03 -0.86727325647E+02  0.25049235677E+03  0.25500000920E-02 0.  1.
       -2    1    3    3    0  502 -0.60733651814E+02  0.22701589221E+03  0.13721048738E+04  0.13920835379E+04  0.25500000920E-02 0. -1.
</event>
<event>
 5   0  0.3643002E-03  0.9127813E+03  0.7818609E-02  0.9409744E-01
       -1   -1    0    0    0  501  0.00000000000E+00  0.00000000000E+00  0.19097675536E+03  0.19097675543E+03  0.50400001928E-02 0. -1.
        1   -1    0    0  501    0  0.00000000000E+00  0.00000000000E+00 -0.10906689028E+04  0.10906689028E+04  0.50400001928E-02 0.  1.
    10030    2    1    2    0    0  0.00000000000E+00  0.00000000000E+00 -0.89969214741E+03  0.12816456582E+04  0.91278126247E+03 0.  0.
        2    1    3    3  502    0 -0.27723807685E+03 -0.28537732079E+03 -0.13590494401E+03  0.42044181558E+03  0.25500000920E-02 0. -1.
       -2    1    3    3    0  502  0.27723807685E+03  0.28537732079E+03 -0.76378720340E+03  0.86120384263E+03  0.25500000920E-02 0.  1.
</event>
<event>
 5   0  0.3643002E-03  0.9858317E+03  0.7818609E-02  0.9324222E-01
        1   -1    0    0  501    0  0.00000000000E+00  0.00000000000E+00  0.96034670268E+03  0.96034670269E+03  0.50400001928E-02 0.  1.
       -1   -1    0    0    0  501  0.00000000000E+00  0.00000000000E+00 -0.25299826124E+03  0.25299826129E+03  0.50400001928E-02 0. -1.
    10030    2    1    2    0    0  0.00000000000E+00  0.00000000000E+00  0.70734844144E+03  0.12133449640E+04  0.98583172195E+03 0.  0.
        2    1    3    3  502    0 -0.15075421714E+03  0.45928240993E+03  0.23498895036E+03  0.53748206747E+03  0.25500000920E-02 0. -1.
       -2    1    3    3    0  502  0.15075421714E+03 -0.45928240993E+03  0.47235949108E+03  0.67586289651E+03  0.25500000920E-02 0.  1.
</event>
<event>
 5   0  0.6606947E-03  0.1002094E+04  0.7818609E-02  0.9306252E-01
        2   -1    0    0  501    0  0.00000000000E+00  0.00000000000E+00  0.94618640206E+03  0.94618640206E+03  0.25500000920E-02 0.  1.
       -2   -1    0    0    0  501  0.00000000000E+00  0.00000000000E+00 -0.26532603909E+03  0.26532603910E+03  0.25500000920E-02 0. -1.
    10030    2    1    2    0    0  0.00000000000E+00  0.00000000000E+00  0.68086036297E+03  0.12115124412E+04  0.10020935891E+04 0.  0.
        1    1    3    3  502    0  0.41621380002E+03  0.26759216222E+03  0.43568991416E+03  0.65929143323E+03  0.50400001928E-02 0.  1.
       -1    1    3    3    0  502 -0.41621380002E+03 -0.26759216222E+03  0.24517044882E+03  0.55222100793E+03  0.50400001928E-02 0. -1.
</event>
<event>
 5   0  0.3608845E-03  0.9907860E+03  0.7818609E-02  0.9318709E-01
       -1   -1    0    0    0  501  0.00000000000E+00  0.00000000000E+00  0.38613463637E+03  0.38613463640E+03  0.50400001928E-02 0. -1.
        1   -1    0    0  501    0  0.00000000000E+00  0.00000000000E+00 -0.63556642463E+03  0.63556642465E+03  0.50400001928E-02 0.  1.
    10030    2    1    2    0    0  0.00000000000E+00  0.00000000000E+00 -0.24943178826E+03  0.10217010610E+04  0.99078597142E+03 0.  0.
        1    1    3    3  502    0  0.31038022396E+03 -0.57509938146E+02 -0.51842863002E+03  0.60696912677E+03  0.50400001928E-02 0.  1.
       -1    1    3    3    0  502 -0.31038022396E+03  0.57509938146E+02  0.26899684175E+03  0.41473193428E+03  0.50400001928E-02 0. -1.
</event>
<event>
 5   0  0.3640180E-03  0.1011067E+04  0.7818609E-02  0.9296490E-01
        1   -1    0    0  501    0  0.00000000000E+00  0.00000000000E+00  0.51257181952E+03  0.51257181954E+03  0.50400001928E-02 0.  1.
       -1   -1    0    0    0  501  0.00000000000E+00  0.00000000000E+00 -0.49859142282E+03  0.49859142285E+03  0.50400001928E-02 0. -1.
    10030    2    1    2    0    0  0.00000000000E+00  0.00000000000E+00  0.13980396692E+02  0.10111632424E+04  0.10110665909E+04 0.  0.
        5    1    3    3  502    0 -0.44293103089E+03 -0.24070436685E+03 -0.30634302686E+02  0.50506142285E+03  0.46999998093E+01 0. -1.
       -5    1    3    3    0  502  0.44293103089E+03  0.24070436685E+03  0.44614699379E+02  0.50610181955E+03  0.46999998093E+01 0.  1.
</event>
<event>
 5   0  0.6376961E-03  0.1023515E+04  0.7818609E-02  0.9283123E-01
       -2   -1    0    0    0  501  0.00000000000E+00  0.00000000000E+00  0.34935896936E+03  0.34935896937E+03  0.25500000920E-02 0. -1.
        2   -1    0    0  501    0  0.00000000000E+00  0.00000000000E+00 -0.74964725429E+03  0.74964725429E+03  0.25500000920E-02 0.  1.
    10030    2    1    2    0    0  0.00000000000E+00  0.00000000000E+00 -0.40028828493E+03  0.10990062237E+04  0.10235154951E+04 0.  0.
        3    1    3    3  502    0  0.13129898370E+03 -0.44884627504E+03  0.23015332812E+02  0.46822229495E+03  0.10100000352E+00 0. -1.
       -3    1    3    3    0  502 -0.13129898370E+03  0.44884627504E+03 -0.42330361774E+03  0.63078392872E+03  0.10100000352E+00 0.  1.
</event>
<event>
 5   0  0.3569359E-03  0.1004954E+04  0.7818609E-02  0.9303128E-01
       -1   -1    0    0    0  501  0.00000000000E+00  0.00000000000E+00  0.16653655637E+03  0.16653655645E+03  0.50400001928E-02 0. -1.
        1   -1    0    0  501    0  0.00000000000E+00  0.00000000000E+00 -0.15160832519E+04  0.15160832519E+04  0.50400001928E-02 0.  1.
    10030    2    1    2    0    0  0.00000000000E+00  0.00000000000E+00 -0.13495466955E+04  0.16826198083E+04  0.10049542955E+04 0.  0.
        4    1    3    3  502    0 -0.78139760751E+02  0.65144500756E+02  0.14911017932E+03  0.18051339747E+03  0.12699999809E+01 0. -1.
       -4    1    3    3    0  502  0.78139760751E+02 -0.65144500756E+02 -0.14986568748E+04  0.15021064108E+04  0.12699999809E+01 0.  1.
</event>
<event>
 5   0  0.6199539E-03  0.9917702E+03  0.7818609E-02  0.9317617E-01
       -2   -1    0    0    0  501  0.00000000000E+00  0.00000000000E+00  0.26203280992E+03  0.26203280994E+03  0.25500000920E-02 0. -1.
        2   -1    0    0  501    0  0.00000000000E+00  0.00000000000E+00 -0.93843989822E+03  0.93843989822E+03  0.25500000920E-02 0.  1.
    10030    2    1    2    0    0  0.00000000000E+00  0.00000000000E+00 -0.67640708829E+03  0.12004727082E+04  0.99177022235E+03 0.  0.
        2    1    3    3  502    0 -0.11314536290E+03 -0.40388088999E+03 -0.17997572026E+02  0.41981610147E+03  0.25500000920E-02 0. -1.
       -2    1    3    3    0  502  0.11314536290E+03  0.40388088999E+03 -0.65840951627E+03  0.78065660669E+03  0.25500000920E-02 0.  1.
</event>
<event>
 5   0  0.3569359E-03  0.1007199E+04  0.7818609E-02  0.9300685E-01
       -1   -1    0    0    0  501  0.00000000000E+00  0.00000000000E+00  0.30908105941E+03  0.30908105945E+03  0.50400001928E-02 0. -1.
        1   -1    0    0  501    0  0.00000000000E+00  0.00000000000E+00 -0.82053640110E+03  0.82053640112E+03  0.50400001928E-02 0.  1.
    10030    2    1    2    0    0  0.00000000000E+00  0.00000000000E+00 -0.51145534169E+03  0.11296174606E+04  0.10071986103E+04 0.  0.
        4    1    3    3  502    0 -0.40115970928E+03 -0.56695671017E+02  0.79737970376E+02  0.41292041398E+03  0.12699999809E+01 0. -1.
       -4    1    3    3    0  502  0.40115970928E+03  0.56695671017E+02 -0.59119331207E+03  0.71669704659E+03  0.12699999809E+01 0.  1.
</event>
<event>
 5   0  0.3608845E-03  0.9787838E+03  0.7818609E-02  0.9332125E-01
        1   -1    0    0  501    0  0.00000000000E+00  0.00000000000E+00  0.77029496990E+03  0.77029496991E+03  0.50400001928E-02 0.  1.
       -1   -1    0    0    0  501  0.00000000000E+00  0.00000000000E+00 -0.31092560644E+03  0.31092560648E+03  0.50400001928E-02 0. -1.
    10030    2    1    2    0    0  0.00000000000E+00  0.00000000000E+00  0.45936936346E+03  0.10812205764E+04  0.97878379774E+03 0.  0.
        1    1    3    3  502    0 -0.18383620087E+03  0.30881323189E+03 -0.13725954675E+03  0.38470968813E+03  0.50400001928E-02 0. -1.
       -1    1    3    3    0  502  0.18383620087E+03 -0.30881323189E+03  0.59662891021E+03  0.69651088826E+03  0.50400001928E-02 0.  1.
</event>
<event>
 5   0  0.6022787E-03  0.1098357E+04  0.7818609E-02  0.9206795E-01
        2   -1    0    0  501    0  0.00000000000E+00  0.00000000000E+00  0.17358101383E+04  0.17358101383E+04  0.25500000920E-02 0.  1.
       -2   -1    0    0    0  501  0.00000000000E+00  0.00000000000E+00 -0.17374998286E+03  0.17374998288E+03  0.25500000920E-02 0. -1.
    10030    2    1    2    0    0  0.00000000000E+00  0.00000000000E+00  0.15620601554E+04  0.19095601211E+04  0.10983569216E+04 0.  0.
        5    1    3    3  502    0 -0.24824093967E+03 -0.46769234759E+03  0.10342590346E+04  0.11619266486E+04  0.46999998093E+01 0. -1.
       -5    1    3    3    0  502  0.24824093967E+03  0.46769234759E+03  0.52780112077E+03  0.74763347250E+03  0.46999998093E+01 0.  1.
</event>
<event>
 5   0  0.3466598E-03  0.1001053E+04  0.7818609E-02  0.9307391E-01
        1   -1    0    0  501    0  0.00000000000E+00  0.00000000000E+00  0.13470360883E+04  0.13470360883E+04  0.50400001928E-02 0.  1.
       -1   -1    0    0    0  501  0.00000000000E+00  0.00000000000E+00 -0.18598365510E+03  0.18598365517E+03  0.50400001928E-02 0. -1.
    10030    2    1    2    0    0  0.00000000000E+00  0.00000000000E+00  0.11610524332E+04  0.15330197435E+04  0.10010528364E+04 0.  0.
        3    1    3    3  502    0  0.12460952903E+03  0.31138096468E+03  0.11549012197E+02  0.33558758883E+03  0.10100000352E+00 0. -1.
       -3    1    3    3    0  502 -0.12460952903E+03 -0.31138096468E+03  0.11495034210E+04  0.11974321547E+04  0.10100000352E+00 0.  1.
</event>
<event>
 5   0  0.3466598E-03  0.1002764E+04  0.7818609E-02  0.9305519E-01
       -1   -1    0    0    0  501  0.00000000000E+00  0.00000000000E+00  0.65240935536E+03  0.65240935538E+03  0.50400001928E-02 0. -1.
        1   -1    0    0  501    0  0.00000000000E+00  0.00000000000E+00 -0.38531620229E+03  0.38531620233E+03  0.50400001928E-02 0.  1.
    10030    2    1    2    0    0  0.00000000000E+00  0.00000000000E+00  0.26709315306E+03  0.10377255577E+04  0.10027639706E+04 0.  0.
        3    1    3    3  502    0 -0.49218263716E+03 -0.41933983427E+02  0.22245877129E+03  0.54174728648E+03  0.10100000352E+00 0. -1.
       -3    1    3    3    0  502  0.49218263716E+03  0.41933983427E+02  0.44634381772E+02  0.49597827122E+03  0.10100000352E+00 0.  1.
</event>
<event>
 5   0  0.6199539E-03  0.1010134E+04  0.7818609E-02  0.9297499E-01
        2   -1    0    0  501    0  0.00000000000E+00  0.00000000000E+00  0.29371975934E+03  0.29371975935E+03  0.25500000920E-02 0.  1.
       -2   -1    0    0    0  501  0.00000000000E+00  0.00000000000E+00 -0.86849043384E+03  0.86849043384E+03  0.25500000920E-02 0. -1.
    10030    2    1    2    0    0  0.00000000000E+00  0.00000000000E+00 -0.57477067449E+03  0.11622101932E+04  0.10101342509E+04 0.  0.
        2    1    3    3  502    0  0.19844660055E+03  0.42420005137E+03 -0.50497645338E+03  0.68871471258E+03  0.25500000920E-02 0. -1.
       -2    1    3    3    0  502 -0.19844660055E+03 -0.42420005137E+03 -0.69794221114E+02  0.47349548061E+03  0.25500000920E-02 0.  1.
</event>
<event>
 5   0  0.6360455E-03  0.9977623E+03  0.7818609E-02  0.9311003E-01
        2   -1    0    0  501    0  0.00000000000E+00  0.00000000000E+00  0.19833008166E+04  0.19833008166E+04  0.25500000920E-02 0.  1.
       -2   -1    0    0    0  501  0.00000000000E+00  0.00000000000E+00 -0.12548897206E+03  0.12548897209E+03  0.25500000920E-02 0. -1.
    10030    2    1    2    0    0  0.00000000000E+00  0.00000000000E+00  0.18578118445E+04  0.21087897887E+04  0.99776225783E+03 0.  0.
        4    1    3    3  502    0  0.87195278408E+02 -0.20529953922E+03  0.18720420948E+04  0.18852835688E+04  0.12699999809E+01 0.  1.
       -4    1    3    3    0  502 -0.87195278408E+02  0.20529953922E+03 -0.14230250262E+02  0.22350621983E+03  0.12699999809E+01 0. -1.
</event>
<event>
 5   0  0.3466598E-03  0.9974050E+03  0.7818609E-02  0.9311396E-01
        1   -1    0    0  501    0  0.00000000000E+00  0.00000000000E+00  0.18251822133E+04  0.18251822133E+04  0.50400001928E-02 0.  1.
       -1   -1    0    0    0  501  0.00000000000E+00  0.00000000000E+00 -0.13626266354E+03  0.13626266363E+03  0.50400001928E-02 0. -1.
    10030    2    1    2    0    0  0.00000000000E+00  0.00000000000E+00  0.16889195497E+04  0.19614448769E+04  0.99740501286E+03 0.  0.
        3    1    3    3  502    0  0.23830056677E+03  0.20110613295E+03  0.79087606095E+02  0.32169192790E+03  0.10100000352E+00 0. -1.
       -3    1    3    3    0  502 -0.23830056677E+03 -0.20110613295E+03  0.16098319437E+04  0.16397529490E+04  0.10100000352E+00 0.  1.
</event>
<event>
 5   0  0.6199539E-03  0.1000293E+04  0.7818609E-02  0.9308223E-01
       -2   -1    0    0    0  501  0.00000000000E+00  0.00000000000E+00  0.65140746650E+03  0.65140746651E+03  0.25500000920E-02 0.  1.
        2   -1    0    0  501    0  0.00000000000E+00  0.00000000000E+00 -0.38400958558E+03  0.38400958559E+03  0.25500000920E-02 0. -1.
    10030    2    1    2    0    0  0.00000000000E+00  0.00000000000E+00  0.26739788092E+03  0.10354170521E+04  0.10002933795E+04 0.  0.
        2    1    3    3  502    0  0.52126857553E+02  0.27559934476E+03  0.56233400452E+03  0.62840412217E+03  0.25500000920E-02 0.  1.
       -2    1    3    3    0  502 -0.52126857553E+02 -0.27559934476E+03 -0.29493612360E+03  0.40701292992E+03  0.25500000920E-02 0. -1.
</event>
<event>
 5   0  0.6360455E-03  0.1002187E+04  0.7818609E-02  0.9306150E-01
       -2   -1    0    0    0  501  0.00000000000E+00  0.00000000000E+00  0.10608217224E+03  0.10608217227E+03  0.25500000920E-02 0.  1.
        2   -1    0    0  501    0  0.00000000000E+00  0.00000000000E+00 -0.23669813064E+04  0.23669813064E+04  0.25500000920E-02 0. -1.
    10030    2    1    2    0    0  0.00000000000E+00  0.00000000000E+00 -0.22608991341E+04  0.24730634787E+04  0.10021866466E+04 0.  0.
        4    1    3    3  502    0  0.12735681873E+03  0.33971337005E+03 -0.19833776211E+04  0.20162870167E+04  0.12699999809E+01 0. -1.
       -4    1    3    3    0  502 -0.12735681873E+03 -0.33971337005E+03 -0.27752151306E+03  0.45677646193E+03  0.12699999809E+01 0.  1.
</event>
<event>
 5   0  0.6376961E-03  0.9656614E+03  0.7818609E-02  0.9347030E-01
        2   -1    0    0  501    0  0.00000000000E+00  0.00000000000E+00  0.52645576083E+03  0.52645576083E+03  0.25500000920E-02 0. -1.
       -2   -1    0    0    0  501  0.00000000000E+00  0.00000000000E+00 -0.44282066075E+03  0.44282066076E+03  0.25500000920E-02 0.  1.
    10030    2    1    2    0    0  0.00000000000E+00  0.00000000000E+00  0.83635100077E+02  0.96927642159E+03  0.96566140624E+03 0.  0.
        3    1    3    3  502    0 -0.16432555881E+02  0.47850030815E+03  0.10444426247E+03  0.49004202672E+03  0.10100000352E+00 0. -1.
       -3    1    3    3    0  502  0.16432555881E+02 -0.47850030815E+03 -0.20809162389E+02  0.47923439487E+03  0.10100000352E+00 0.  1.
</event>
<event>
 5   0  0.3466598E-03  0.9336370E+03  0.7818609E-02  0.9384484E-01
       -1   -1    0    0    0  501  0.00000000000E+00  0.00000000000E+00  0.17446292941E+03  0.17446292948E+03  0.50400001928E-02 0.  1.
        1   -1    0    0  501    0  0.00000000000E+00  0.00000000000E+00 -0.12490877448E+04  0.12490877448E+04  0.50400001928E-02 0. -1.
    10030    2    1    2    0    0  0.00000000000E+00  0.00000000000E+00 -0.10746248153E+04  0.14235506743E+04  0.93363698963E+03 0.  0.
        3    1    3    3  502    0  0.35377063550E+03 -0.29098766640E+03 -0.67447104147E+03  0.81531508052E+03  0.10100000352E+00 0. -1.
       -3    1    3    3    0  502 -0.35377063550E+03  0.29098766640E+03 -0.40015377388E+03  0.60823559373E+03  0.10100000352E+00 0.  1.
</event>
<event>
 5   0  0.6199539E-03  0.1003039E+04  0.7818609E-02  0.9305218E-01
       -2   -1    0    0    0  501  0.00000000000E+00  0.00000000000E+00  0.10915761817E+04  0.10915761817E+04  0.25500000920E-02 0. -1.
        2   -1    0    0  501    0  0.00000000000E+00  0.00000000000E+00 -0.23042056168E+03  0.23042056169E+03  0.25500000920E-02 0.  1.
    10030    2    1    2    0    0  0.00000000000E+00  0.00000000000E+00  0.86115562006E+03  0.13219967434E+04  0.10030385774E+04 0.  0.
        2    1    3    3  502    0 -0.24426358757E+03 -0.74947886237E+02 -0.13820818366E+03  0.29048818891E+03  0.25500000920E-02 0.  1.
       -2    1    3    3    0  502  0.24426358757E+03  0.74947886237E+02  0.99936380372E+03  0.10315085545E+04  0.25500000920E-02 0. -1.
</event>
<event>
 5   0  0.3640180E-03  0.9972027E+03  0.7818609E-02  0.9311618E-01
        1   -1    0    0  501    0  0.00000000000E+00  0.00000000000E+00  0.37954042995E+03  0.37954042998E+03  0.50400001928E-02 0.  1.
       -1   -1    0    0    0  501  0.00000000000E+00  0.00000000000E+00 -0.65501133758E+03  0.65501133760E+03  0.50400001928E-02 0. -1.
    10030    2    1    2    0    0  0.00000000000E+00  0.00000000000E+00 -0.27547090763E+03  0.10345517676E+04  0.99720265686E+03 0.  0.
        5    1    3    3  502    0 -0.29175899559E+03  0.17160207841E+03  0.24205005701E+03  0.41615009903E+03  0.46999998093E+01 0.  1.
       -5    1    3    3    0  502  0.29175899559E+03 -0.17160207841E+03 -0.51752096465E+03  0.61840166855E+03  0.46999998093E+01 0. -1.
</event>
<event>
 5   0  0.3569359E-03  0.1002663E+04  0.7818609E-02  0.9305629E-01
       -1   -1    0    0    0  501  0.00000000000E+00  0.00000000000E+00  0.81834279290E+03  0.81834279291E+03  0.50400001928E-02 0. -1.
        1   -1    0    0  501    0  0.00000000000E+00  0.00000000000E+00 -0.30712455532E+03  0.30712455536E+03  0.50400001928E-02 0.  1.
    10030    2    1    2    0    0  0.00000000000E+00  0.00000000000E+00  0.51121823758E+03  0.11254673483E+04  0.10026627876E+04 0.  0.
        4    1    3    3  502    0 -0.12816983230E+03  0.47669895221E+03  0.35386385940E+03  0.60736368087E+03  0.12699999809E+01 0.  1.
       -4    1    3    3    0  502  0.12816983230E+03 -0.47669895221E+03  0.15735437817E+03  0.51810366741E+03  0.12699999809E+01 0. -1.
</event>
<event>
 5   0  0.6199539E-03  0.9885339E+03  0.7818609E-02  0.9321211E-01
       -2   -1    0    0    0  501  0.00000000000E+00  0.00000000000E+00  0.10283806013E+03  0.10283806016E+03  0.25500000920E-02 0. -1.
        2   -1    0    0  501    0  0.00000000000E+00  0.00000000000E+00 -0.23755779222E+04  0.23755779222E+04  0.25500000920E-02 0.  1.
    10030    2    1    2    0    0  0.00000000000E+00  0.00000000000E+00 -0.22727398621E+04  0.24784159824E+04  0.98853391492E+03 0.  0.
        2    1    3    3  502    0  0.41409548251E+03 -0.19721389945E+03 -0.15982016286E+04  0.16627136965E+04  0.25500000920E-02 0.  1.
       -2    1    3    3    0  502 -0.41409548251E+03  0.19721389945E+03 -0.67453823344E+03  0.81570228586E+03  0.25500000920E-02 0. -1.
</event>
<event>
 5   0  0.3640180E-03  0.1021530E+04  0.7818609E-02  0.9285241E-01
        1   -1    0    0  501    0  0.00000000000E+00  0.00000000000E+00  0.96407976767E+03  0.96407976768E+03  0.50400001928E-02 0.  1.
       -1   -1    0    0    0  501  0.00000000000E+00  0.00000000000E+00 -0.27060117615E+03  0.27060117619E+03  0.50400001928E-02 0. -1.
    10030    2    1    2    0    0  0.00000000000E+00  0.00000000000E+00  0.69347859152E+03  0.12346809439E+04  0.10215304578E+04 0.  0.
        5    1    3    3  502    0  0.14532617835E+03 -0.77246696596E+02 -0.23764687558E+03  0.28911049397E+03  0.46999998093E+01 0. -1.
       -5    1    3    3    0  502 -0.14532617835E+03  0.77246696596E+02  0.93112546711E+03  0.94557044991E+03  0.46999998093E+01 0.  1.
</event>
<event>
 5   0  0.3466598E-03  0.9995974E+03  0.7818609E-02  0.9308986E-01
       -1   -1    0    0    0  501  0.00000000000E+00  0.00000000000E+00  0.58987475997E+03  0.58987475999E+03  0.50400001928E-02 0.  1.
        1   -1    0    0  501    0  0.00000000000E+00  0.00000000000E+00 -0.42347761724E+03  0.42347761727E+03  0.50400001928E-02 0. -1.
    10030    2    1    2    0    0  0.00000000000E+00  0.00000000000E+00  0.16639714272E+03  0.10133523773E+04  0.99959743467E+03 0.  0.
        3    1    3    3  502    0 -0.47311742882E+02 -0.83880863504E+02 -0.41398283699E+03  0.42503670406E+03  0.10100000352E+00 0. -1.
       -3    1    3    3    0  502  0.47311742882E+02  0.83880863504E+02  0.58037997972E+03  0.58831567320E+03  0.10100000352E+00 0.  1.
</event>
<event>
 5   0  0.3466598E-03  0.9926007E+03  0.7818609E-02  0.9316698E-01
        1   -1    0    0  501    0  0.00000000000E+00  0.00000000000E+00  0.13143870688E+04  0.13143870688E+04  0.50400001928E-02 0. -1.
       -1   -1    0    0    0  501  0.00000000000E+00  0.00000000000E+00 -0.18739838515E+03  0.18739838522E+03  0.50400001928E-02 0.  1.
    10030    2    1    2    0    0  0.00000000000E+00  0.00000000000E+00  0.11269886836E+04  0.15017854540E+04  0.99260065326E+03 0.  0.
        3    1    3    3  502    0 -0.27283570326E+03  0.11446108670E+03  0.11663622011E+04  0.12033043903E+04  0.10100000352E+00 0. -1.
       -3    1    3    3    0  502  0.27283570326E+03 -0.11446108670E+03 -0.39373517435E+02  0.29848106376E+03  0.10100000352E+00 0.  1.
</event>
<event>
 5   0  0.3643002E-03  0.1000340E+04  0.7818609E-02  0.9308172E-01
        1   -1    0    0  501    0  0.00000000000E+00  0.00000000000E+00  0.51400452197E+03  0.51400452199E+03  0.50400001928E-02 0. -1.
       -1   -1    0    0    0  501  0.00000000000E+00  0.00000000000E+00 -0.48670795252E+03  0.48670795254E+03  0.50400001928E-02 0.  1.
    10030    2    1    2    0    0  0.00000000000E+00  0.00000000000E+00  0.27296569449E+02  0.10007124745E+04  0.10003401192E+04 0.  0.
        2    1    3    3  502    0  0.22951485649E+02  0.10203704794E+03  0.50294358379E+03  0.51370281129E+03  0.25500000920E-02 0. -1.
       -2    1    3    3    0  502 -0.22951485649E+02 -0.10203704794E+03 -0.47564701434E+03  0.48700966325E+03  0.25500000920E-02 0.  1.
</event>
<event>
 5   0  0.6022787E-03  0.1015896E+04  0.7818609E-02  0.9291281E-01
       -2   -1    0    0    0  501  0.00000000000E+00  0.00000000000E+00  0.82338317595E+03  0.82338317595E+03  0.25500000920E-02 0. -1.
        2   -1    0    0  501    0  0.00000000000E+00  0.00000000000E+00 -0.31335464037E+03  0.31335464038E+03  0.25500000920E-02 0.  1.
    10030    2    1    2    0    0  0.00000000000E+00  0.00000000000E+00  0.51002853558E+03  0.11367378163E+04  0.10158955438E+04 0.  0.
        5    1    3    3  502    0  0.44268820668E+03  0.21434725328E+03  0.11316204093E+03  0.50472302387E+03  0.46999998093E+01 0.  1.
       -5    1    3    3    0  502 -0.44268820668E+03 -0.21434725328E+03  0.39686649465E+03  0.63201479246E+03  0.46999998093E+01 0. -1.
</event>
<event>
 5   0  0.3569359E-03  0.9893689E+03  0.7818609E-02  0.9320282E-01
        1   -1    0    0  501    0  0.00000000000E+00  0.00000000000E+00  0.51112882040E+03  0.51112882042E+03  0.50400001928E-02 0. -1.
       -1   -1    0    0    0  501  0.00000000000E+00  0.00000000000E+00 -0.47876909941E+03  0.47876909943E+03  0.50400001928E-02 0.  1.
    10030    2    1    2    0    0  0.00000000000E+00  0.00000000000E+00  0.32359720995E+02  0.98989791986E+03  0.98936885952E+03 0.  0.
        4    1    3    3  502    0 -0.44961855374E+03 -0.20250847512E+03 -0.23141865143E+02  0.49366353439E+03  0.12699999809E+01 0.  1.
       -4    1    3    3    0  502  0.44961855374E+03  0.20250847512E+03  0.55501586138E+02  0.49623438547E+03  0.12699999809E+01 0. -1.
</event>
<event>
 5   0  0.3466598E-03  0.9035672E+03  0.7818609E-02  0.9421133E-01
        1   -1    0    0  501    0  0.00000000000E+00  0.00000000000E+00  0.31459851849E+03  0.31459851853E+03  0.50400001928E-02 0.  1.
       -1   -1    0    0    0  501  0.00000000000E+00  0.00000000000E+00 -0.64879018607E+03  0.64879018609E+03  0.50400001928E-02 0. -1.
    10030    2    1    2    0    0  0.00000000000E+00  0.00000000000E+00 -0.33419166758E+03  0.96338870462E+03  0.90356722247E+03 0.  0.
        3    1    3    3  502    0 -0.42435714528E+03  0.11150436323E+03 -0.52280697931E+02  0.44186592010E+03  0.10100000352E+00 0. -1.
       -3    1    3    3    0  502  0.42435714528E+03 -0.11150436323E+03 -0.28191096964E+03  0.52152278452E+03  0.10100000352E+00 0.  1.
</event>
<event>
 5   0  0.6199539E-03  0.9702435E+03  0.7818609E-02  0.9341797E-01
       -2   -1    0    0    0  501  0.00000000000E+00  0.00000000000E+00  0.24121319038E+03  0.24121319039E+03  0.25500000920E-02 0.  1.
        2   -1    0    0  501    0  0.00000000000E+00  0.00000000000E+00 -0.97566426318E+03  0.97566426319E+03  0.25500000920E-02 0. -1.
    10030    2    1    2    0    0  0.00000000000E+00  0.00000000000E+00 -0.73445107280E+03  0.12168774536E+04  0.97024345331E+03 0.  0.
        2    1    3    3  502    0 -0.34220005878E+03 -0.22117147406E+03 -0.36998764216E+02  0.40912908687E+03  0.25500000920E-02 0.  1.
       -2    1    3    3    0  502  0.34220005878E+03  0.22117147406E+03 -0.69745230859E+03  0.80774836671E+03  0.25500000920E-02 0. -1.
</event>
<event>
 5   0  0.3643002E-03  0.1075673E+04  0.7818609E-02  0.9229232E-01
       -1   -1    0    0    0  501  0.00000000000E+00  0.00000000000E+00  0.39094950622E+03  0.39094950625E+03  0.50400001928E-02 0.  1.
        1   -1    0    0  501    0  0.00000000000E+00  0.00000000000E+00 -0.73991213613E+03  0.73991213614E+03  0.50400001928E-02 0. -1.
    10030    2    1    2    0    0  0.00000000000E+00  0.00000000000E+00 -0.34896262991E+03  0.11308616424E+04  0.10756733413E+04 0.  0.
        2    1    3    3  502    0 -0.11896111133E+03  0.75759599994E+02  0.37116263121E+03  0.39705536366E+03  0.25500000920E-02 0.  1.
       -2    1    3    3    0  502  0.11896111133E+03 -0.75759599994E+02 -0.72012526112E+03  0.73380627873E+03  0.25500000920E-02 0. -1.
</event>
<event>
 5   0  0.6022787E-03  0.1002052E+04  0.7818609E-02  0.9306297E-01
        2   -1    0    0  501    0  0.00000000000E+00  0.00000000000E+00  0.14495368772E+04  0.14495368772E+04  0.25500000920E-02 0. -1.
       -2   -1    0    0    0  501  0.00000000000E+00  0.00000000000E+00 -0.17317734757E+03  0.17317734758E+03  0.25500000920E-02 0.  1.
    10030    2    1    2    0    0  0.00000000000E+00  0.00000000000E+00  0.12763595296E+04  0.16227142247E+04  0.10020517983E+04 0.  0.
        5    1    3    3  502    0 -0.24086871691E+02  0.41841052074E+03  0.10827236030E+04  0.11610168094E+04  0.46999998093E+01 0. -1.
       -5    1    3    3    0  502  0.24086871691E+02 -0.41841052074E+03  0.19363592658E+03  0.46169741532E+03  0.46999998093E+01 0.  1.
</event>
<event>
 5   0  0.3608845E-03  0.9941835E+03  0.7818609E-02  0.9314947E-01
        1   -1    0    0  501    0  0.00000000000E+00  0.00000000000E+00  0.15293499770E+04  0.15293499770E+04  0.50400001928E-02 0.  1.
       -1   -1    0    0    0  501  0.00000000000E+00  0.00000000000E+00 -0.16157203399E+03  0.16157203406E+03  0.50400001928E-02 0. -1.
    10030    2    1    2    0    0  0.00000000000E+00  0.00000000000E+00  0.13677779430E+04  0.16909220110E+04  0.99418345696E+03 0.  0.
        1    1    3    3  502    0 -0.22975334232E+03 -0.12597947191E+03 -0.34577510512E+02  0.26429723780E+03  0.50400001928E-02 0. -1.
       -1    1    3    3    0  502  0.22975334232E+03  0.12597947191E+03  0.14023554535E+04  0.14266247732E+04  0.50400001928E-02 0.  1.
</event>
<event>
 5   0  0.6376961E-03  0.8530917E+03  0.7818609E-02  0.9486197E-01
       -2   -1    0    0    0  501  0.00000000000E+00  0.00000000000E+00  0.75274776033E+02  0.75274776076E+02  0.25500000920E-02 0. -1.
        2   -1    0    0  501    0  0.00000000000E+00  0.00000000000E+00 -0.24170295123E+04  0.24170295123E+04  0.25500000920E-02 0.  1.
    10030    2    1    2    0    0  0.00000000000E+00  0.00000000000E+00 -0.23417547362E+04  0.24923042883E+04  0.85309168383E+03 0.  0.
        3    1    3    3  502    0 -0.37286149188E+03 -0.11174601055E+03 -0.66125849838E+03  0.76731719314E+03  0.10100000352E+00 0. -1.
       -3    1    3    3    0  502  0.37286149188E+03  0.11174601055E+03 -0.16804962379E+04  0.17249870952E+04  0.10100000352E+00 0.  1.
</event>
<event>
 5   0  0.6022787E-03  0.1002646E+04  0.7818609E-02  0.9305647E-01
       -2   -1    0    0    0  501  0.00000000000E+00  0.00000000000E+00  0.30853070359E+03  0.30853070360E+03  0.25500000920E-02 0.  1.
        2   -1    0    0  501    0  0.00000000000E+00  0.00000000000E+00 -0.81458652262E+03  0.81458652262E+03  0.25500000920E-02 0. -1.
    10030    2    1    2    0    0  0.00000000000E+00  0.00000000000E+00 -0.50605581903E+03  0.11231172262E+04  0.10026464042E+04 0.  0.
        5    1    3    3  502    0  0.27588651583E+03  0.13252760556E+03 -0.69775247022E+03  0.76194326269E+03  0.46999998093E+01 0. -1.
       -5    1    3    3    0  502 -0.27588651583E+03 -0.13252760556E+03  0.19169665120E+03  0.36117396353E+03  0.46999998093E+01 0.  1.
</event>
<event>
 5   0  0.3608845E-03  0.1025853E+04  0.7818609E-02  0.9280636E-01
       -1   -1    0    0    0  501  0.00000000000E+00  0.00000000000E+00  0.10428679388E+04  0.10428679388E+04  0.50400001928E-02 0.  1.
        1   -1    0    0  501    0  0.00000000000E+00  0.00000000000E+00 -0.25227889481E+03  0.25227889486E+03  0.50400001928E-02 0. -1.
    10030    2    1    2    0    0  0.00000000000E+00  0.00000000000E+00  0.79058904394E+03  0.12951468336E+04  0.10258529545E+04 0.  0.
        1    1    3    3  502    0 -0.34090537703E+03  0.10133599058E+03 -0.71334922111E+02  0.36273148500E+03  0.50400001928E-02 0. -1.
       -1    1    3    3    0  502  0.34090537703E+03 -0.10133599058E+03  0.86192396605E+03  0.93241534863E+03  0.50400001928E-02 0.  1.
</event>
<event>
 5   0  0.6199539E-03  0.9630869E+03  0.7818609E-02  0.9349984E-01
        2   -1    0    0  501    0  0.00000000000E+00  0.00000000000E+00  0.65520504332E+03  0.65520504333E+03  0.25500000920E-02 0. -1.
       -2   -1    0    0    0  501  0.00000000000E+00  0.00000000000E+00 -0.35391069864E+03  0.35391069865E+03  0.25500000920E-02 0.  1.
    10030    2    1    2    0    0  0.00000000000E+00  0.00000000000E+00  0.30129434468E+03  0.10091157420E+04  0.96308685931E+03 0.  0.
        2    1    3    3  502    0 -0.15306450400E+03  0.30782551769E+03  0.50395514017E+03  0.61004596141E+03  0.25500000920E-02 0. -1.
       -2    1    3    3    0  502  0.15306450400E+03 -0.30782551769E+03 -0.20266079549E+03  0.39906978057E+03  0.25500000920E-02 0.  1.
</event>
<event>
 5   0  0.6022787E-03  0.9939851E+03  0.7818609E-02  0.9315167E-01
       -2   -1    0    0    0  501  0.00000000000E+00  0.00000000000E+00  0.45215583869E+03  0.45215583869E+03  0.25500000920E-02 0. -1.
        2   -1    0    0  501    0  0.00000000000E+00  0.00000000000E+00 -0.54627532224E+03  0.54627532224E+03  0.25500000920E-02 0.  1.
    10030    2    1    2    0    0  0.00000000000E+00  0.00000000000E+00 -0.94119483552E+02  0.99843116094E+03  0.99398506324E+03 0.  0.
        5    1    3    3  502    0 -0.23930183560E+03 -0.30201030699E+03  0.26819742246E+03  0.46949711550E+03  0.46999998093E+01 0. -1.
       -5    1    3    3    0  502  0.23930183560E+03  0.30201030699E+03 -0.36231690601E+03  0.52893404544E+03  0.46999998093E+01 0.  1.
</event>
<event>
 5   0  0.3643002E-03  0.9980393E+03  0.7818609E-02  0.9310698E-01
        1   -1    0    0  501    0  0.00000000000E+00  0.00000000000E+00  0.95821866848E+03  0.95821866849E+03  0.50400001928E-02 0.  1.
       -1   -1    0    0    0  501  0.00000000000E+00  0.00000000000E+00 -0.25987869797E+03  0.25987869802E+03  0.50400001928E-02 0. -1.
    10030    2    1    2    0    0  0.00000000000E+00  0.00000000000E+00  0.69833997051E+03  0.12180973665E+04  0.99803931780E+03 0.  0.
        2    1    3    3  502    0  0.22413855367E+03  0.22662348168E+03 -0.11944797512E+03  0.34038817908E+03  0.25500000920E-02 0. -1.
       -2    1    3    3    0  502 -0.22413855367E+03 -0.22662348168E+03  0.81778794562E+03  0.87770918743E+03  0.25500000920E-02 0.  1.
</event>
<event>
 5   0  0.6022787E-03  0.9982677E+03  0.7818609E-02  0.9310447E-01
        2   -1    0    0  501    0  0.00000000000E+00  0.00000000000E+00  0.12667491755E+04  0.12667491755E+04  0.25500000920E-02 0.  1.
       -2   -1    0    0    0  501  0.00000000000E+00  0.00000000000E+00 -0.19667240584E+03  0.19667240586E+03  0.25500000920E-02 0. -1.
    10030    2    1    2    0    0  0.00000000000E+00  0.00000000000E+00  0.10700767696E+04  0.14634215813E+04  0.99826771550E+03 0.  0.
        5    1    3    3  502    0  0.46378621520E+03  0.16009640070E+03  0.66926796940E+03  0.82986156423E+03  0.46999998093E+01 0.  1.
       -5    1    3    3    0  502 -0.46378621520E+03 -0.16009640070E+03  0.40080880023E+03  0.63356001710E+03  0.46999998093E+01 0. -1.
</event>
<event>
 5   0  0.3569359E-03  0.9930663E+03  0.7818609E-02  0.9316182E-01
       -1   -1    0    0    0  501  0.00000000000E+00  0.00000000000E+00  0.70029561245E+03  0.70029561247E+03  0.50400001928E-02 0. -1.
        1   -1    0    0  501    0  0.00000000000E+00  0.00000000000E+00 -0.35205872910E+03  0.35205872914E+03  0.50400001928E-02 0.  1.
    10030    2    1    2    0    0  0.00000000000E+00  0.00000000000E+00  0.34823688335E+03  0.10523543416E+04  0.99306632879E+03 0.  0.
        4    1    3    3  502    0  0.19612946221E+03  0.29006906844E+03 -0.19894592953E+03  0.40272562147E+03  0.12699999809E+01 0.  1.
       -4    1    3    3    0  502 -0.19612946221E+03 -0.29006906844E+03  0.54718281288E+03  0.64962872014E+03  0.12699999809E+01 0. -1.
</event>
<event>
 5   0  0.3640180E-03  0.1006710E+04  0.7818609E-02  0.9301216E-01
       -1   -1    0    0    0  501  0.00000000000E+00  0.00000000000E+00  0.59725684779E+03  0.59725684781E+03  0.50400001928E-02 0. -1.
        1   -1    0    0  501    0  0.00000000000E+00  0.00000000000E+00 -0.42421637628E+03  0.42421637631E+03  0.50400001928E-02 0.  1.
    10030    2    1    2    0    0  0.00000000000E+00  0.00000000000E+00  0.17304047150E+03  0.10214732241E+04  0.10067097610E+04 0.  0.
        5    1    3    3  502    0 -0.32493691668E+03 -0.15248054432E+03  0.44455430311E+03  0.57138860211E+03  0.46999998093E+01 0. -1.
       -5    1    3    3    0  502  0.32493691668E+03  0.15248054432E+03 -0.27151383160E+03  0.45008462201E+03  0.46999998093E+01 0.  1.
</event>
<event>
 5   0  0.3640180E-03  0.9901144E+03  0.7818609E-02  0.9319454E-01
        1   -1    0    0  501    0  0.00000000000E+00  0.00000000000E+00  0.60288719395E+03  0.60288719397E+03  0.50400001928E-02 0. -1.
       -1   -1    0    0    0  501  0.00000000000E+00  0.00000000000E+00 -0.40651325784E+03  0.40651325787E+03  0.50400001928E-02 0.  1.
    10030    2    1    2    0    0  0.00000000000E+00  0.00000000000E+00  0.19637393611E+03  0.10094004518E+04  0.99011441227E+03 0.  0.
        5    1    3    3  502    0 -0.34868223490E+03  0.12439428284E+03 -0.23685767198E+03  0.43951892486E+03  0.46999998093E+01 0.  1.
       -5    1    3    3    0  502  0.34868223490E+03 -0.12439428284E+03  0.43323160810E+03  0.56988152698E+03  0.46999998093E+01 0. -1.
</event>
<event>
 5   0  0.3640180E-03  0.9983768E+03  0.7818609E-02  0.9310327E-01
        1   -1    0    0  501    0  0.00000000000E+00  0.00000000000E+00  0.19956442917E+04  0.19956442917E+04  0.50400001928E-02 0. -1.
       -1   -1    0    0    0  501  0.00000000000E+00  0.00000000000E+00 -0.12486648194E+03  0.12486648204E+03  0.50400001928E-02 0.  1.
    10030    2    1    2    0    0  0.00000000000E+00  0.00000000000E+00  0.18707778098E+04  0.21205107738E+04  0.99837684674E+03 0.  0.
        5    1    3    3  502    0 -0.31499895116E+02 -0.39876161315E+03  0.15696098352E+04  0.16197839956E+04  0.46999998093E+01 0. -1.
       -5    1    3    3    0  502  0.31499895116E+02  0.39876161315E+03  0.30116797460E+03  0.50072677823E+03  0.46999998093E+01 0.  1.
</event>
<event>
 5   0  0.6376961E-03  0.1007128E+04  0.7818609E-02  0.9300761E-01
        2   -1    0    0  501    0  0.00000000000E+00  0.00000000000E+00  0.15253908616E+04  0.15253908616E+04  0.25500000920E-02 0. -1.
       -2   -1    0    0    0  501  0.00000000000E+00  0.00000000000E+00 -0.16623715922E+03  0.16623715924E+03  0.25500000920E-02 0.  1.
    10030    2    1    2    0    0  0.00000000000E+00  0.00000000000E+00  0.13591537024E+04  0.16916280208E+04  0.10071278837E+04 0.  0.
        3    1    3    3  502    0  0.10132760933E+03  0.38994222000E+03  0.11869730279E+04  0.12534860185E+04  0.10100000352E+00 0. -1.
       -3    1    3    3    0  502 -0.10132760933E+03 -0.38994222000E+03  0.17218067442E+03  0.43814200232E+03  0.10100000352E+00 0.  1.
</event>
<event>
 5   0  0.3640180E-03  0.9434648E+03  0.7818609E-02  0.9372822E-01
        1   -1    0    0  501    0  0.00000000000E+00  0.00000000000E+00  0.10911264022E+04  0.10911264022E+04  0.50400001928E-02 0.  1.
       -1   -1    0    0    0  501  0.00000000000E+00  0.00000000000E+00 -0.20394652619E+03  0.20394652625E+03  0.50400001928E-02 0. -1.
    10030    2    1    2    0    0  0.00000000000E+00  0.00000000000E+00  0.88717987601E+03  0.12950729285E+04  0.94346476227E+03 0.  0.
        5    1    3    3  502    0  0.74361542291E+02 -0.28506524951E+03  0.94928241037E+03  0.99395725265E+03  0.46999998093E+01 0.  1.
       -5    1    3    3    0  502 -0.74361542291E+02  0.28506524951E+03 -0.62102534361E+02  0.30111567582E+03  0.46999998093E+01 0. -1.
</event>
<event>
 5   0  0.3640180E-03  0.1005943E+04  0.7818609E-02  0.9302051E-01
       -1   -1    0    0    0  501  0.00000000000E+00  0.00000000000E+00  0.32981870629E+03  0.32981870633E+03  0.50400001928E-02 0.  1.
        1   -1    0    0  501    0  0.00000000000E+00  0.00000000000E+00 -0.76702776035E+03  0.76702776037E+03  0.50400001928E-02 0. -1.
    10030    2    1    2    0    0  0.00000000000E+00  0.00000000000E+00 -0.43720905407E+03  0.10968464667E+04  0.10059425503E+04 0.  0.
        5    1    3    3  502    0  0.33412587654E+03  0.32376726423E+03 -0.42689791642E+03  0.63145012773E+03  0.46999998093E+01 0.  1.
       -5    1    3    3    0  502 -0.33412587654E+03 -0.32376726423E+03 -0.10311137647E+02  0.46539633897E+03  0.46999998093E+01 0. -1.
</event>
<event>
 5   0  0.6376961E-03  0.9757292E+03  0.7818609E-02  0.9335573E-01
       -2   -1    0    0    0  501  0.00000000000E+00  0.00000000000E+00  0.12382335594E+03  0.12382335596E+03  0.25500000920E-02 0.  1.
        2   -1    0    0  501    0  0.00000000000E+00  0.00000000000E+00 -0.19221887923E+04  0.19221887923E+04  0.25500000920E-02 0. -1.
    10030    2    1    2    0    0  0.00000000000E+00  0.00000000000E+00 -0.17983654364E+04  0.20460121483E+04  0.97572919817E+03 0.  0.
        3    1    3    3  502    0 -0.96435522696E+02 -0.21663258823E+02  0.10260892026E+03  0.14247002329E+03  0.10100000352E+00 0.  1.
       -3    1    3    3    0  502  0.96435522696E+02  0.21663258823E+02 -0.19009743566E+04  0.19035421250E+04  0.10100000352E+00 0. -1.
</event>
<event>
 5   0  0.6606947E-03  0.1022818E+04  0.7818609E-02  0.9283867E-01
        2   -1    0    0  501    0  0.00000000000E+00  0.00000000000E+00  0.41828213671E+03  0.41828213672E+03  0.25500000920E-02 0.  1.
       -2   -1    0    0    0  501  0.00000000000E+00  0.00000000000E+00 -0.62526928532E+03  0.62526928533E+03  0.25500000920E-02 0. -1.
    10030    2    1    2    0    0  0.00000000000E+00  0.00000000000E+00 -0.20698714861E+03  0.10435514220E+04  0.10228176234E+04 0.  0.
        1    1    3    3  502    0  0.25361461324E+03  0.44058549399E+03 -0.46659583011E+02  0.51050275834E+03  0.50400001928E-02 0.  1.
       -1    1    3    3    0  502 -0.25361461324E+03 -0.44058549399E+03 -0.16032756560E+03  0.53304866370E+03  0.50400001928E-02 0. -1.
</event>
<event>
 5   0  0.6360455E-03  0.1001605E+04  0.7818609E-02  0.9306786E-01
       -2   -1    0    0    0  501  0.00000000000E+00  0.00000000000E+00  0.30867344857E+03  0.30867344858E+03  0.25500000920E-02 0.  1.
        2   -1    0    0  501    0  0.00000000000E+00  0.00000000000E+00 -0.81251906457E+03  0.81251906458E+03  0.25500000920E-02 0. -1.
    10030    2    1    2    0    0  0.00000000000E+00  0.00000000000E+00 -0.50384561600E+03  0.11211925132E+04  0.10016048357E+04 0.  0.
        4    1    3    3  502    0 -0.31306895940E+03 -0.29925142675E+03  0.29573274700E+02  0.43409651142E+03  0.12699999809E+01 0.  1.
       -4    1    3    3    0  502  0.31306895940E+03  0.29925142675E+03 -0.53341889070E+03  0.68709600174E+03  0.12699999809E+01 0. -1.
</event>
<event>
 5   0  0.3643002E-03  0.9939970E+03  0.7818609E-02  0.9315153E-01
       -1   -1    0    0    0  501  0.00000000000E+00  0.00000000000E+00  0.42960996104E+03  0.42960996107E+03  0.50400001928E-02 0.  1.
        1   -1    0    0  501    0  0.00000000000E+00  0.00000000000E+00 -0.57495763300E+03  0.57495763302E+03  0.50400001928E-02 0. -1.
    10030    2    1    2    0    0  0.00000000000E+00  0.00000000000E+00 -0.14534767196E+03  0.10045675941E+04  0.99399703488E+03 0.  0.
        2    1    3    3  502    0  0.35875879839E+03  0.38258156064E+02  0.27277389887E+03  0.45230206924E+03  0.25500000920E-02 0.  1.
       -2    1    3    3    0  502 -0.35875879839E+03 -0.38258156064E+02 -0.41812157083E+03  0.55226552484E+03  0.25500000920E-02 0. -1.
</event>
<event>
 5   0  0.6022787E-03  0.1000191E+04  0.7818609E-02  0.9308335E-01
        2   -1    0    0  501    0  0.00000000000E+00  0.00000000000E+00  0.20923408206E+04  0.20923408206E+04  0.25500000920E-02 0. -1.
       -2   -1    0    0    0  501  0.00000000000E+00  0.00000000000E+00 -0.11952915788E+03  0.11952915790E+03  0.25500000920E-02 0.  1.
    10030    2    1    2    0    0  0.00000000000E+00  0.00000000000E+00  0.19728116627E+04  0.22118699785E+04  0.10001914543E+04 0.  0.
        5    1    3    3  502    0  0.21348323254E+03 -0.37901990255E+03  0.15318871352E+04  0.15924608196E+04  0.46999998093E+01 0. -1.
       -5    1    3    3    0  502 -0.21348323254E+03  0.37901990255E+03  0.44092452748E+03  0.61940915883E+03  0.46999998093E+01 0.  1.
</event>
<event>
 5   0  0.3569359E-03  0.9976128E+03  0.7818609E-02  0.9311167E-01
       -1   -1    0    0    0  501  0.00000000000E+00  0.00000000000E+00  0.36880897059E+03  0.36880897063E+03  0.50400001928E-02 0. -1.
        1   -1    0    0  501    0  0.00000000000E+00  0.00000000000E+00 -0.67462518816E+03  0.67462518818E+03  0.50400001928E-02 0.  1.
    10030    2    1    2    0    0  0.00000000000E+00  0.00000000000E+00 -0.30581621757E+03  0.10434341588E+04  0.99761279304E+03 0.  0.
        4    1    3    3  502    0 -0.33635453352E+03  0.36165764560E+03 -0.79875580052E+02  0.50031224853E+03  0.12699999809E+01 0.  1.
       -4    1    3    3    0  502  0.33635453352E+03 -0.36165764560E+03 -0.22594063752E+03  0.54312191028E+03  0.12699999809E+01 0. -1.
</event>
<event>
 5   0  0.6606947E-03  0.9173134E+03  0.7818609E-02  0.9404194E-01
        2   -1    0    0  501    0  0.00000000000E+00  0.00000000000E+00  0.85297081582E+03  0.85297081583E+03  0.25500000920E-02 0.  1.
       -2   -1    0    0    0  501  0.00000000000E+00  0.00000000000E+00 -0.24662740694E+03  0.24662740695E+03  0.25500000920E-02 0. -1.
    10030    2    1    2    0    0  0.00000000000E+00  0.00000000000E+00  0.60634340888E+03  0.10995982228E+04  0.91731342628E+03 0.  0.
        1    1    3    3  502    0  0.48594156654E+02 -0.42932308914E+03  0.48765822898E+03  0.65152916684E+03  0.50400001928E-02 0. -1.
       -1    1    3    3    0  502 -0.48594156654E+02  0.42932308914E+03  0.11868517991E+03  0.44806905593E+03  0.50400001928E-02 0.  1.
</event>
<event>
 5   0  0.2417750E-03  0.9883824E+03  0.7818609E-02  0.9321379E-01
       -4   -1    0    0    0  501  0.00000000000E+00  0.00000000000E+00  0.73590383877E+03  0.73590493464E+03  0.12699999809E+01 0. -1.
        4   -1    0    0  501    0  0.00000000000E+00  0.00000000000E+00 -0.33186817458E+03  0.33187060461E+03  0.12699999809E+01 0.  1.
    10030    2    1    2    0    0  0.00000000000E+00  0.00000000000E+00  0.40403566419E+03  0.10677755392E+04  0.98838240791E+03 0.  0.
        2    1    3    3  502    0 -0.43248301866E+03 -0.23817080802E+03  0.17889655581E+03  0.52513890820E+03  0.25500000920E-02 0. -1.
       -2    1    3    3    0  502  0.43248301866E+03  0.23817080802E+03  0.22513910838E+03  0.54263663104E+03  0.25500000920E-02 0.  1.
</event>
<event>
 5   0  0.6199539E-03  0.9892904E+03  0.7818609E-02  0.9320370E-01
       -2   -1    0    0    0  501  0.00000000000E+00  0.00000000000E+00  0.28676589415E+03  0.28676589416E+03  0.25500000920E-02 0.  1.
        2   -1    0    0  501    0  0.00000000000E+00  0.00000000000E+00 -0.85321814393E+03  0.85321814393E+03  0.25500000920E-02 0. -1.
    10030    2    1    2    0    0  0.00000000000E+00  0.00000000000E+00 -0.56645224978E+03  0.11399840381E+04  0.98929037994E+03 0.  0.
        2    1    3    3  502    0  0.41486564909E+02  0.37321037428E+03  0.87791650114E+02  0.38563518041E+03  0.25500000920E-02 0.  1.
       -2    1    3    3    0  502 -0.41486564909E+02 -0.37321037428E+03 -0.65424389989E+03  0.75434885768E+03  0.25500000920E-02 0. -1.
</event>
<event>
 5   0  0.3608845E-03  0.1030316E+04  0.7818609E-02  0.9275906E-01
       -1   -1    0    0    0  501  0.00000000000E+00  0.00000000000E+00  0.28469086452E+03  0.28469086457E+03  0.50400001928E-02 0.  1.
        1   -1    0    0  501    0  0.00000000000E+00  0.00000000000E+00 -0.93219648989E+03  0.93219648990E+03  0.50400001928E-02 0. -1.
    10030    2    1    2    0    0  0.00000000000E+00  0.00000000000E+00 -0.64750562537E+03  0.12168873545E+04  0.10303161159E+04 0.  0.
        1    1    3    3  502    0 -0.86242167448E+02 -0.12510007057E+03 -0.90512823610E+03  0.91779347509E+03  0.50400001928E-02 0. -1.
       -1    1    3    3    0  502  0.86242167448E+02  0.12510007057E+03  0.25762261073E+03  0.29909387939E+03  0.50400001928E-02 0.  1.
</event>
<event>
 5   0  0.3569359E-03  0.9936880E+03  0.7818609E-02  0.9315495E-01
        1   -1    0    0  501    0  0.00000000000E+00  0.00000000000E+00  0.77328555634E+03  0.77328555635E+03  0.50400001928E-02 0. -1.
       -1   -1    0    0    0  501  0.00000000000E+00  0.00000000000E+00 -0.31922740186E+03  0.31922740190E+03  0.50400001928E-02 0.  1.
    10030    2    1    2    0    0  0.00000000000E+00  0.00000000000E+00  0.45405815448E+03  0.10925129582E+04  0.99368795720E+03 0.  0.
        4    1    3    3  502    0 -0.41108137388E+02  0.43433064376E+03  0.48841073480E+03  0.65488903323E+03  0.12699999809E+01 0. -1.
       -4    1    3    3    0  502  0.41108137388E+02 -0.43433064376E+03 -0.34352580324E+02  0.43762392502E+03  0.12699999809E+01 0.  1.
</event>
<event>
 5   0  0.6199539E-03  0.9972468E+03  0.7818609E-02  0.9311570E-01
       -2   -1    0    0    0  501  0.00000000000E+00  0.00000000000E+00  0.16275393813E+03  0.16275393815E+03  0.25500000920E-02 0.  1.
        2   -1    0    0  501    0  0.00000000000E+00  0.00000000000E+00 -0.15276145235E+04  0.15276145235E+04  0.25500000920E-02 0. -1.
    10030    2    1    2    0    0  0.00000000000E+00  0.00000000000E+00 -0.13648605854E+04  0.16903684617E+04  0.99724676918E+03 0.  0.
        2    1    3    3  502    0 -0.12234398697E+03  0.10878741038E+03  0.11589808708E+03  0.20058693476E+03  0.25500000920E-02 0.  1.
       -2    1    3    3    0  502  0.12234398697E+03 -0.10878741038E+03 -0.14807586725E+04  0.14897815269E+04  0.25500000920E-02 0. -1.
</event>
<event>
 5   0  0.6022787E-03  0.1001601E+04  0.7818609E-02  0.9306790E-01
       -2   -1    0    0    0  501  0.00000000000E+00  0.00000000000E+00  0.33042220513E+03  0.33042220514E+03  0.25500000920E-02 0. -1.
        2   -1    0    0  501    0  0.00000000000E+00  0.00000000000E+00 -0.75903260161E+03  0.75903260162E+03  0.25500000920E-02 0.  1.
    10030    2    1    2    0    0  0.00000000000E+00  0.00000000000E+00 -0.42861039649E+03  0.10894548068E+04  0.10016011701E+04 0.  0.
        5    1    3    3  502    0  0.11985116084E+03  0.38788102858E+03  0.10460656507E+03  0.41926199034E+03  0.46999998093E+01 0. -1.
       -5    1    3    3    0  502 -0.11985116084E+03 -0.38788102858E+03 -0.53321696156E+03  0.67019281642E+03  0.46999998093E+01 0.  1.
</event>
<event>
 5   0  0.3569359E-03  0.1024482E+04  0.7818609E-02  0.9282094E-01
        1   -1    0    0  501    0  0.00000000000E+00  0.00000000000E+00  0.11664967179E+04  0.11664967179E+04  0.50400001928E-02 0. -1.
       -1   -1    0    0    0  501  0.00000000000E+00  0.00000000000E+00 -0.22493900917E+03  0.22493900922E+03  0.50400001928E-02 0.  1.
    10030    2    1    2    0    0  0.00000000000E+00  0.00000000000E+00  0.94155770870E+03  0.13914357271E+04  0.10244815586E+04 0.  0.
        4    1    3    3  502    0  0.28121045552E+03  0.41667667909E+03  0.60447718969E+03  0.78618894736E+03  0.12699999809E+01 0. -1.
       -4    1    3    3    0  502 -0.28121045552E+03 -0.41667667909E+03  0.33708051900E+03  0.60524677974E+03  0.12699999809E+01 0.  1.
</event>
<event>
 5   0  0.3643002E-03  0.9979495E+03  0.7818609E-02  0.9310797E-01
       -1   -1    0    0    0  501  0.00000000000E+00  0.00000000000E+00  0.77607760740E+03  0.77607760742E+03  0.50400001928E-02 0.  1.
        1   -1    0    0  501    0  0.00000000000E+00  0.00000000000E+00 -0.32081299853E+03  0.32081299857E+03  0.50400001928E-02 0. -1.
    10030    2    1    2    0    0  0.00000000000E+00  0.00000000000E+00  0.45526460887E+03  0.10968906060E+04  0.99794946636E+03 0.  0.
        2    1    3    3  502    0 -0.32080911216E+03  0.85783123152E+02  0.63697847604E+03  0.71834449230E+03  0.25500000920E-02 0.  1.
       -2    1    3    3    0  502  0.32080911216E+03 -0.85783123152E+02 -0.18171386717E+03  0.37854611369E+03  0.25500000920E-02 0. -1.
</event>
<event>
 5   0  0.2417750E-03  0.1002912E+04  0.7818609E-02  0.9305356E-01
        3   -1    0    0  501    0  0.00000000000E+00  0.00000000000E+00  0.61509210700E+03  0.61509211530E+03  0.10100000352E+00 0. -1.
       -3   -1    0    0    0  501  0.00000000000E+00  0.00000000000E+00 -0.40881409984E+03  0.40881411232E+03  0.10100000352E+00 0.  1.
    10030    2    1    2    0    0  0.00000000000E+00  0.00000000000E+00  0.20627800716E+03  0.10239062276E+04  0.10029124322E+04 0.  0.
        5    1    3    3  502    0 -0.31734195770E+03  0.36316353000E+03  0.24328069098E+03  0.54018631253E+03  0.46999998093E+01 0. -1.
       -5    1    3    3    0  502  0.31734195770E+03 -0.36316353000E+03 -0.37002683817E+02  0.48371991509E+03  0.46999998093E+01 0.  1.
</event>
<event>
 5   0  0.6360455E-03  0.9847807E+03  0.7818609E-02  0.9325396E-01
       -2   -1    0    0    0  501  0.00000000000E+00  0.00000000000E+00  0.25056200137E+03  0.25056200138E+03  0.25500000920E-02 0.  1.
        2   -1    0    0  501    0  0.00000000000E+00  0.00000000000E+00 -0.96761774222E+03  0.96761774222E+03  0.25500000920E-02 0. -1.
    10030    2    1    2    0    0  0.00000000000E+00  0.00000000000E+00 -0.71705574085E+03  0.12181797436E+04  0.98478066199E+03 0.  0.
        4    1    3    3  502    0 -0.19054311720E+03 -0.23409625858E+03  0.12269596496E+03  0.32582763927E+03  0.12699999809E+01 0.  1.
       -4    1    3    3    0  502  0.19054311720E+03  0.23409625858E+03 -0.83975170581E+03  0.89235210433E+03  0.12699999809E+01 0. -1.
</event>
<event>
 5   0  0.3640180E-03  0.9911659E+03  0.7818609E-02  0.9318287E-01
       -1   -1    0    0    0  501  0.00000000000E+00  0.00000000000E+00  0.39220943514E+03  0.39220943518E+03  0.50400001928E-02 0. -1.
        1   -1    0    0  501    0  0.00000000000E+00  0.00000000000E+00 -0.62620229599E+03  0.62620229601E+03  0.50400001928E-02 0.  1.
    10030    2    1    2    0    0  0.00000000000E+00  0.00000000000E+00 -0.23399286084E+03  0.10184117312E+04  0.99116587678E+03 0.  0.
        5    1    3    3  502    0 -0.39322480770E+02  0.33592016375E+03 -0.48915695530E+03  0.59471441115E+03  0.46999998093E+01 0.  1.
       -5    1    3    3    0  502  0.39322480770E+02 -0.33592016375E+03  0.25516409446E+03  0.42369732004E+03  0.46999998093E+01 0. -1.
</event>
<event>
 5   0  0.6360455E-03  0.9939418E+03  0.7818609E-02  0.9315214E-01
        2   -1    0    0  501    0  0.00000000000E+00  0.00000000000E+00  0.37237358629E+03  0.37237358629E+03  0.25500000920E-02 0. -1.
       -2   -1    0    0    0  501  0.00000000000E+00  0.00000000000E+00 -0.66325885168E+03  0.66325885168E+03  0.25500000920E-02 0.  1.
    10030    2    1    2    0    0  0.00000000000E+00  0.00000000000E+00 -0.29088526539E+03  0.10356324380E+04  0.99394180361E+03 0.  0.
        4    1    3    3  502    0  0.84766557152E+02 -0.44835196451E+03 -0.35061213875E+03  0.57544360109E+03  0.12699999809E+01 0.  1.
       -4    1    3    3    0  502 -0.84766557152E+02  0.44835196451E+03  0.59726873357E+02  0.46018883689E+03  0.12699999809E+01 0. -1.
</event>
<event>
 5   0  0.6360455E-03  0.9937499E+03  0.7818609E-02  0.9315427E-01
        2   -1    0    0  501    0  0.00000000000E+00  0.00000000000E+00  0.30737020178E+03  0.30737020179E+03  0.25500000920E-02 0.  1.
       -2   -1    0    0    0  501  0.00000000000E+00  0.00000000000E+00 -0.80321612268E+03  0.80321612268E+03  0.25500000920E-02 0. -1.
    10030    2    1    2    0    0  0.00000000000E+00  0.00000000000E+00 -0.49584592090E+03  0.11105863245E+04  0.99374987136E+03 0.  0.
        4    1    3    3  502    0 -0.13480404087E+03  0.37799534116E+02  0.28486929671E+03  0.31741623040E+03  0.12699999809E+01 0.  1.
       -4    1    3    3    0  502  0.13480404087E+03 -0.37799534116E+02 -0.78071521761E+03  0.79317009407E+03  0.12699999809E+01 0. -1.
</event>
<event>
 5   0  0.6022787E-03  0.9999776E+03  0.7818609E-02  0.9308569E-01
        2   -1    0    0  501    0  0.00000000000E+00  0.00000000000E+00  0.29527807558E+03  0.29527807560E+03  0.25500000920E-02 0. -1.
       -2   -1    0    0    0  501  0.00000000000E+00  0.00000000000E+00 -0.84662164679E+03  0.84662164679E+03  0.25500000920E-02 0.  1.
    10030    2    1    2    0    0  0.00000000000E+00  0.00000000000E+00 -0.55134357120E+03  0.11418997224E+04  0.99997762099E+03 0.  0.
        5    1    3    3  502    0  0.40668037858E+03  0.29627046373E+02 -0.60604169886E+03  0.73046240351E+03  0.46999998093E+01 0.  1.
       -5    1    3    3    0  502 -0.40668037858E+03 -0.29627046373E+02  0.54698127651E+02  0.41143731887E+03  0.46999998093E+01 0. -1.
</event>
<event>
 5   0  0.3643002E-03  0.9923135E+03  0.7818609E-02  0.9317016E-01
       -1   -1    0    0    0  501  0.00000000000E+00  0.00000000000E+00  0.21302159750E+03  0.21302159756E+03  0.50400001928E-02 0.  1.
        1   -1    0    0  501    0  0.00000000000E+00  0.00000000000E+00 -0.11556177533E+04  0.11556177533E+04  0.50400001928E-02 0. -1.
    10030    2    1    2    0    0  0.00000000000E+00  0.00000000000E+00 -0.94259615584E+03  0.13686393509E+04  0.99231353908E+03 0.  0.
        2    1    3    3  502    0 -0.26707512881E+03 -0.25829251601E+03 -0.92483011344E+03  0.99667190538E+03  0.25500000920E-02 0. -1.
       -2    1    3    3    0  502  0.26707512881E+03  0.25829251601E+03 -0.17766042400E+02  0.37196744552E+03  0.25500000920E-02 0.  1.
</event>
<event>
 5   0  0.3569359E-03  0.9827265E+03  0.7818609E-02  0.9327696E-01
       -1   -1    0    0    0  501  0.00000000000E+00  0.00000000000E+00  0.33465013021E+03  0.33465013025E+03  0.50400001928E-02 0. -1.
        1   -1    0    0  501    0  0.00000000000E+00  0.00000000000E+00 -0.72146353414E+03  0.72146353416E+03  0.50400001928E-02 0.  1.
    10030    2    1    2    0    0  0.00000000000E+00  0.00000000000E+00 -0.38681340393E+03  0.10561136644E+04  0.98272654522E+03 0.  0.
        4    1    3    3  502    0  0.14789289859E+03 -0.14268282353E+03 -0.67306139394E+03  0.70373571069E+03  0.12699999809E+01 0.  1.
       -4    1    3    3    0  502 -0.14789289859E+03  0.14268282353E+03  0.28624799001E+03  0.35237795372E+03  0.12699999809E+01 0. -1.
</event>
<event>
 5   0  0.3640180E-03  0.9546076E+03  0.7818609E-02  0.9359781E-01
       -1   -1    0    0    0  501  0.00000000000E+00  0.00000000000E+00  0.14546315402E+04  0.14546315402E+04  0.50400001928E-02 0.  1.
        1   -1    0    0  501    0  0.00000000000E+00  0.00000000000E+00 -0.15661623451E+03  0.15661623459E+03  0.50400001928E-02 0. -1.
    10030    2    1    2    0    0  0.00000000000E+00  0.00000000000E+00  0.12980153056E+04  0.16112477748E+04  0.95460759371E+03 0.  0.
        5    1    3    3  502    0 -0.93295154360E+02  0.11284504141E+03  0.14157491699E+04  0.14233080451E+04  0.46999998093E+01 0.  1.
       -5    1    3    3    0  502  0.93295154360E+02 -0.11284504141E+03 -0.11773386424E+03  0.18793972966E+03  0.46999998093E+01 0. -1.
</event>
<event>
 5   0  0.6606947E-03  0.1002295E+04  0.7818609E-02  0.9306031E-01
        2   -1    0    0  501    0  0.00000000000E+00  0.00000000000E+00  0.46420075939E+03  0.46420075939E+03  0.25500000920E-02 0.  1.
       -2   -1    0    0    0  501  0.00000000000E+00  0.00000000000E+00 -0.54103530924E+03  0.54103530924E+03  0.25500000920E-02 0. -1.
    10030    2    1    2    0    0  0.00000000000E+00  0.00000000000E+00 -0.76834549848E+02  0.10052360686E+04  0.10022953685E+04 0.  0.
        1    1    3    3  502    0 -0.31689767501E+02 -0.96639565832E+02  0.45374190428E+03  0.46500017502E+03  0.50400001928E-02 0.  1.
       -1    1    3    3    0  502  0.31689767501E+02  0.96639565832E+02 -0.53057645413E+03  0.54023589361E+03  0.50400001928E-02 0. -1.
</event>
<event>
 5   0  0.6022787E-03  0.1008051E+04  0.7818609E-02  0.9299759E-01
       -2   -1    0    0    0  501  0.00000000000E+00  0.00000000000E+00  0.44641655957E+03  0.44641655958E+03  0.25500000920E-02 0. -1.
        2   -1    0    0  501    0  0.00000000000E+00  0.00000000000E+00 -0.56906818386E+03  0.56906818386E+03  0.25500000920E-02 0.  1.
    10030    2    1    2    0    0  0.00000000000E+00  0.00000000000E+00 -0.12265162428E+03  0.10154847434E+04  0.10080505162E+04 0.  0.
        5    1    3    3  502    0  0.19857261112E+03  0.37278548361E+03  0.21569178190E+03  0.47428381108E+03  0.46999998093E+01 0. -1.
       -5    1    3    3    0  502 -0.19857261112E+03 -0.37278548361E+03 -0.33834340619E+03  0.54120093236E+03  0.46999998093E+01 0.  1.
</event>
<event>
 5   0  0.6360455E-03  0.9905904E+03  0.7818609E-02  0.9318926E-01
        2   -1    0    0  501    0  0.00000000000E+00  0.00000000000E+00  0.17904818186E+04  0.17904818186E+04  0.25500000920E-02 0.  1.
       -2   -1    0    0    0  501  0.00000000000E+00  0.00000000000E+00 -0.13701191210E+03  0.13701191213E+03  0.25500000920E-02 0. -1.
    10030    2    1    2    0    0  0.00000000000E+00  0.00000000000E+00  0.16534699065E+04  0.19274937307E+04  0.99059040491E+03 0.  0.
        4    1    3    3  502    0  0.40998158933E+03  0.27790420033E+03  0.82727324578E+03  0.96420863107E+03  0.12699999809E+01 0.  1.
       -4    1    3    3    0  502 -0.40998158933E+03 -0.27790420033E+03  0.82619666071E+03  0.96328509965E+03  0.12699999809E+01 0. -1.
</event>
<event>
 5   0  0.3640180E-03  0.1002604E+04  0.7818609E-02  0.9305693E-01
        1   -1    0    0  501    0  0.00000000000E+00  0.00000000000E+00  0.24656173336E+03  0.24656173341E+03  0.50400001928E-02 0. -1.
       -1   -1    0    0    0  501  0.00000000000E+00  0.00000000000E+00 -0.10192327471E+04  0.10192327471E+04  0.50400001928E-02 0.  1.
    10030    2    1    2    0    0  0.00000000000E+00  0.00000000000E+00 -0.77267101372E+03  0.12657944805E+04  0.10026041948E+04 0.  0.
        5    1    3    3  502    0  0.46618283774E+03 -0.92323713848E+02 -0.18499994427E+03  0.50999723109E+03  0.46999998093E+01 0.  1.
       -5    1    3    3    0  502 -0.46618283774E+03  0.92323713848E+02 -0.58767106945E+03  0.75579724940E+03  0.46999998093E+01 0. -1.
</event>
<event>
 5   0  0.3608845E-03  0.1055347E+04  0.7818609E-02  0.9249841E-01
       -1   -1    0    0    0  501  0.00000000000E+00  0.00000000000E+00  0.10199161057E+04  0.10199161057E+04  0.50400001928E-02 0.  1.
        1   -1    0    0  501    0  0.00000000000E+00  0.00000000000E+00 -0.27300193990E+03  0.27300193995E+03  0.50400001928E-02 0. -1.
    10030    2    1    2    0    0  0.00000000000E+00  0.00000000000E+00  0.74691416575E+03  0.12929180456E+04  0.10553465316E+04 0.  0.
        1    1    3    3  502    0  0.10624768852E+03 -0.70215202550E+01 -0.25970344338E+03  0.28068443418E+03  0.50400001928E-02 0. -1.
       -1    1    3    3    0  502 -0.10624768852E+03  0.70215202550E+01  0.10066176091E+04  0.10122336114E+04  0.50400001928E-02 0.  1.
</event>
<event>
 5   0  0.3643002E-03  0.9978172E+03  0.7818609E-02  0.9310942E-01
        1   -1    0    0  501    0  0.00000000000E+00  0.00000000000E+00  0.86273822385E+03  0.86273822387E+03  0.50400001928E-02 0. -1.
       -1   -1    0    0    0  501  0.00000000000E+00  0.00000000000E+00 -0.28851138224E+03  0.28851138229E+03  0.50400001928E-02 0.  1.
    10030    2    1    2    0    0  0.00000000000E+00  0.00000000000E+00  0.57422684161E+03  0.11512496062E+04  0.99781721274E+03 0.  0.
        2    1    3    3  502    0  0.18718106084E+03 -0.12608181269E+02 -0.24626454743E+03  0.30958349940E+03  0.25500000920E-02 0.  1.
       -2    1    3    3    0  502 -0.18718106084E+03  0.12608181269E+02  0.82049138904E+03  0.84166610676E+03  0.25500000920E-02 0. -1.
</event>
<event>
 5   0  0.3643002E-03  0.1003375E+04  0.7818609E-02  0.9304851E-01
       -1   -1    0    0    0  501  0.00000000000E+00  0.00000000000E+00  0.43679152400E+03  0.43679152403E+03  0.50400001928E-02 0.  1.
        1   -1    0    0  501    0  0.00000000000E+00  0.00000000000E+00 -0.57622489908E+03  0.57622489911E+03  0.50400001928E-02 0. -1.
    10030    2    1    2    0    0  0.00000000000E+00  0.00000000000E+00 -0.13943337509E+03  0.10130164231E+04  0.10033746097E+04 0.  0.
        2    1    3    3  502    0 -0.60605409625E+01  0.30343182221E+03 -0.47303327208E+03  0.56202142076E+03  0.25500000920E-02 0. -1.
       -2    1    3    3    0  502  0.60605409625E+01 -0.30343182221E+03  0.33359989700E+03  0.45099500238E+03  0.25500000920E-02 0.  1.
</event>
<event>
 5   0  0.3466598E-03  0.1004784E+04  0.7818609E-02  0.9303313E-01
       -1   -1    0    0    0  501  0.00000000000E+00  0.00000000000E+00  0.71852070486E+03  0.71852070487E+03  0.50400001928E-02 0. -1.
        1   -1    0    0  501    0  0.00000000000E+00  0.00000000000E+00 -0.35127445976E+03  0.35127445979E+03  0.50400001928E-02 0.  1.
    10030    2    1    2    0    0  0.00000000000E+00  0.00000000000E+00  0.36724624510E+03  0.10697951647E+04  0.10047844992E+04 0.  0.
        3    1    3    3  502    0 -0.33098705189E+03 -0.50213817852E+02  0.58245865824E+03  0.67181244018E+03  0.10100000352E+00 0. -1.
       -3    1    3    3    0  502  0.33098705189E+03  0.50213817852E+02 -0.21521241314E+03  0.39798272449E+03  0.10100000352E+00 0.  1.
</event>
<event>
 5   0  0.6606947E-03  0.9955769E+03  0.7818609E-02  0.9313409E-01
        2   -1    0    0  501    0  0.00000000000E+00  0.00000000000E+00  0.77600951826E+03  0.77600951827E+03  0.25500000920E-02 0. -1.
       -2   -1    0    0    0  501  0.00000000000E+00  0.00000000000E+00 -0.31931736905E+03  0.31931736906E+03  0.25500000920E-02 0.  1.
    10030    2    1    2    0    0  0.00000000000E+00  0.00000000000E+00  0.45669214922E+03  0.10953268873E+04  0.99557685336E+03 0.  0.
        1    1    3    3  502    0 -0.35239282089E+03  0.32374600959E+03  0.77490614039E+02  0.48476486489E+03  0.50400001928E-02 0.  1.
       -1    1    3    3    0  502  0.35239282089E+03 -0.32374600959E+03  0.37920153518E+03  0.61056202244E+03  0.50400001928E-02 0. -1.
</event>
<event>
 5   0  0.3643002E-03  0.1001203E+04  0.7818609E-02  0.9307226E-01
        1   -1    0    0  501    0  0.00000000000E+00  0.00000000000E+00  0.24763945333E+03  0.24763945338E+03  0.50400001928E-02 0. -1.
       -1   -1    0    0    0  501  0.00000000000E+00  0.00000000000E+00 -0.10119629120E+04  0.10119629120E+04  0.50400001928E-02 0.  1.
    10030    2    1    2    0    0  0.00000000000E+00  0.00000000000E+00 -0.76432345865E+03  0.12596023654E+04  0.10012031609E+04 0.  0.
        2    1    3    3  502    0  0.10753484901E+03 -0.16294733913E+03  0.19776988870E+03  0.27790017626E+03  0.25500000920E-02 0. -1.
       -2    1    3    3    0  502 -0.10753484901E+03  0.16294733913E+03 -0.96209334735E+03  0.98170218911E+03  0.25500000920E-02 0.  1.
</event>
<event>
 5   0  0.3608845E-03  0.1014268E+04  0.7818609E-02  0.9293033E-01
        1   -1    0    0  501    0  0.00000000000E+00  0.00000000000E+00  0.11554264429E+04  0.11554264430E+04  0.50400001928E-02 0. -1.
       -1   -1    0    0    0  501  0.00000000000E+00  0.00000000000E+00 -0.22258876914E+03  0.22258876919E+03  0.50400001928E-02 0.  1.
    10030    2    1    2    0    0  0.00000000000E+00  0.00000000000E+00  0.93283767381E+03  0.13780152122E+04  0.10142681101E+04 0.  0.
        1    1    3    3  502    0 -0.23971886866E+03  0.30096422487E+03  0.17576401366E+02  0.38516688663E+03  0.50400001928E-02 0.  1.
       -1    1    3    3    0  502  0.23971886866E+03 -0.30096422487E+03  0.91526127245E+03  0.99284832553E+03  0.50400001928E-02 0. -1.
</event>
<event>
 5   0  0.6360455E-03  0.9841412E+03  0.7818609E-02  0.9326112E-01
        2   -1    0    0  501    0  0.00000000000E+00  0.00000000000E+00  0.82144088069E+03  0.82144088070E+03  0.25500000920E-02 0.  1.
       -2   -1    0    0    0  501  0.00000000000E+00  0.00000000000E+00 -0.29476676024E+03  0.29476676025E+03  0.25500000920E-02 0. -1.
    10030    2    1    2    0    0  0.00000000000E+00  0.00000000000E+00  0.52667412045E+03  0.11162076409E+04  0.98414118325E+03 0.  0.
        4    1    3    3  502    0  0.44791824903E+03 -0.68207896090E+02  0.45616652961E+02  0.45537409547E+03  0.12699999809E+01 0. -1.
       -4    1    3    3    0  502 -0.44791824903E+03  0.68207896090E+02  0.48105746749E+03  0.66083354548E+03  0.12699999809E+01 0.  1.
</event>
<event>
 5   0  0.3640180E-03  0.1003467E+04  0.7818609E-02  0.9304750E-01
        1   -1    0    0  501    0  0.00000000000E+00  0.00000000000E+00  0.67016429146E+03  0.67016429148E+03  0.50400001928E-02 0.  1.
       -1   -1    0    0    0  501  0.00000000000E+00  0.00000000000E+00 -0.37563402896E+03  0.37563402899E+03  0.50400001928E-02 0. -1.
    10030    2    1    2    0    0  0.00000000000E+00  0.00000000000E+00  0.29453026251E+03  0.10457983205E+04  0.10034670157E+04 0.  0.
        5    1    3    3  502    0  0.20706407087E+02 -0.14192618027E+03  0.64831950879E+03  0.66401210186E+03  0.46999998093E+01 0.  1.
       -5    1    3    3    0  502 -0.20706407087E+02  0.14192618027E+03 -0.35378924628E+03  0.38178621862E+03  0.46999998093E+01 0. -1.
</event>
<event>
 5   0  0.3640180E-03  0.9894257E+03  0.7818609E-02  0.9320219E-01
       -1   -1    0    0    0  501  0.00000000000E+00  0.00000000000E+00  0.15068662693E+03  0.15068662702E+03  0.50400001928E-02 0.  1.
        1   -1    0    0  501    0  0.00000000000E+00  0.00000000000E+00 -0.16241706731E+04  0.16241706731E+04  0.50400001928E-02 0. -1.
    10030    2    1    2    0    0  0.00000000000E+00  0.00000000000E+00 -0.14734840461E+04  0.17748573001E+04  0.98942569275E+03 0.  0.
        5    1    3    3  502    0  0.12313320719E+03  0.45803850628E+03 -0.48459844815E+03  0.67809940709E+03  0.46999998093E+01 0.  1.
       -5    1    3    3    0  502 -0.12313320719E+03 -0.45803850628E+03 -0.98888559799E+03  0.10967578930E+04  0.46999998093E+01 0. -1.
</event>
<event>
 5   0  0.3643002E-03  0.1000700E+04  0.7818609E-02  0.9307777E-01
       -1   -1    0    0    0  501  0.00000000000E+00  0.00000000000E+00  0.14813175371E+03  0.14813175379E+03  0.50400001928E-02 0.  1.
        1   -1    0    0  501    0  0.00000000000E+00  0.00000000000E+00 -0.16900515300E+04  0.16900515300E+04  0.50400001928E-02 0. -1.
    10030    2    1    2    0    0  0.00000000000E+00  0.00000000000E+00 -0.15419197763E+04  0.18381832838E+04  0.10007003489E+04 0.  0.
        2    1    3    3  502    0  0.46656670713E+03  0.17261293402E+03 -0.67254301135E+03  0.83653680093E+03  0.25500000920E-02 0.  1.
       -2    1    3    3    0  502 -0.46656670713E+03 -0.17261293402E+03 -0.86937676492E+03  0.10016464828E+04  0.25500000920E-02 0. -1.
</event>
<event>
 5   0  0.6606947E-03  0.1003519E+04  0.7818609E-02  0.9304693E-01
       -2   -1    0    0    0  501  0.00000000000E+00  0.00000000000E+00  0.16963785614E+03  0.16963785616E+03  0.25500000920E-02 0.  1.
        2   -1    0    0  501    0  0.00000000000E+00  0.00000000000E+00 -0.14841192073E+04  0.14841192073E+04  0.25500000920E-02 0. -1.
    10030    2    1    2    0    0  0.00000000000E+00  0.00000000000E+00 -0.13144813511E+04  0.16537570634E+04  0.10035194081E+04 0.  0.
        1    1    3    3  502    0  0.44324243175E+03  0.84912945381E+02 -0.29585774921E+03  0.53963494085E+03  0.50400001928E-02 0.  1.
       -1    1    3    3    0  502 -0.44324243175E+03 -0.84912945381E+02 -0.10186236019E+04  0.11141221226E+04  0.50400001928E-02 0. -1.
</event>
<event>
 5   0  0.3643002E-03  0.9906024E+03  0.7818609E-02  0.9318912E-01
        1   -1    0    0  501    0  0.00000000000E+00  0.00000000000E+00  0.27307001858E+03  0.27307001862E+03  0.50400001928E-02 0.  1.
       -1   -1    0    0    0  501  0.00000000000E+00  0.00000000000E+00 -0.89838957109E+03  0.89838957110E+03  0.50400001928E-02 0. -1.
    10030    2    1    2    0    0  0.00000000000E+00  0.00000000000E+00 -0.62531955251E+03  0.11714595897E+04  0.99060235595E+03 0.  0.
        2    1    3    3  502    0  0.72109208725E+02 -0.53047925678E+02  0.26342375417E+03  0.27821914864E+03  0.25500000920E-02 0.  1.
       -2    1    3    3    0  502 -0.72109208725E+02  0.53047925678E+02 -0.88874330669E+03  0.89324044109E+03  0.25500000920E-02 0. -1.
</event>
<event>
 5   0  0.6606947E-03  0.9991320E+03  0.7818609E-02  0.9309497E-01
        2   -1    0    0  501    0  0.00000000000E+00  0.00000000000E+00  0.90106208656E+03  0.90106208656E+03  0.25500000920E-02 0.  1.
       -2   -1    0    0    0  501  0.00000000000E+00  0.00000000000E+00 -0.27696893570E+03  0.27696893571E+03  0.25500000920E-02 0. -1.
    10030    2    1    2    0    0  0.00000000000E+00  0.00000000000E+00  0.62409315086E+03  0.11780310223E+04  0.99913203756E+03 0.  0.
        1    1    3    3  502    0  0.27882391213E+03  0.16639328440E+03  0.75967859216E+03  0.82616043386E+03  0.50400001928E-02 0.  1.
       -1    1    3    3    0  502 -0.27882391213E+03 -0.16639328440E+03 -0.13558544130E+03  0.35187058841E+03  0.50400001928E-02 0. -1.
</event>
<event>
 5   0  0.6376961E-03  0.1045198E+04  0.7818609E-02  0.9260316E-01
       -2   -1    0    0    0  501  0.00000000000E+00  0.00000000000E+00  0.19243304449E+03  0.19243304451E+03  0.25500000920E-02 0.  1.
        2   -1    0    0  501    0  0.00000000000E+00  0.00000000000E+00 -0.14192454219E+04  0.14192454219E+04  0.25500000920E-02 0. -1.
    10030    2    1    2    0    0  0.00000000000E+00  0.00000000000E+00 -0.12268123774E+04  0.16116784664E+04  0.10451980050E+04 0.  0.
        3    1    3    3  502    0  0.27579595514E+03  0.43758454839E+03 -0.72844750077E+03  0.89340887473E+03  0.10100000352E+00 0.  1.
       -3    1    3    3    0  502 -0.27579595514E+03 -0.43758454839E+03 -0.49836487661E+03  0.71826959166E+03  0.10100000352E+00 0. -1.
</event>
<event>
 5   0  0.6376961E-03  0.9918428E+03  0.7818609E-02  0.9317537E-01
       -2   -1    0    0    0  501  0.00000000000E+00  0.00000000000E+00  0.14727507501E+03  0.14727507503E+03  0.25500000920E-02 0. -1.
        2   -1    0    0  501    0  0.00000000000E+00  0.00000000000E+00 -0.16699229891E+04  0.16699229891E+04  0.25500000920E-02 0.  1.
    10030    2    1    2    0    0  0.00000000000E+00  0.00000000000E+00 -0.15226479141E+04  0.18171980641E+04  0.99184279703E+03 0.  0.
        3    1    3    3  502    0 -0.17747230674E+03  0.28674520261E+03 -0.14275260840E+04  0.14668162672E+04  0.10100000352E+00 0.  1.
       -3    1    3    3    0  502  0.17747230674E+03 -0.28674520261E+03 -0.95121830055E+02  0.35038179695E+03  0.10100000352E+00 0. -1.
</event>
<event>
 5   0  0.3608845E-03  0.9912602E+03  0.7818609E-02  0.9318183E-01
       -1   -1    0    0    0  501  0.00000000000E+00  0.00000000000E+00  0.36552003378E+03  0.36552003382E+03  0.50400001928E-02 0. -1.
        1   -1    0    0  501    0  0.00000000000E+00  0.00000000000E+00 -0.67205398316E+03  0.67205398317E+03  0.50400001928E-02 0.  1.
    10030    2    1    2    0    0  0.00000000000E+00  0.00000000000E+00 -0.30653394937E+03  0.10375740170E+04  0.99126019723E+03 0.  0.
        1    1    3    3  502    0  0.46891671072E+03 -0.15335196715E+03 -0.20291170811E+03  0.53345371752E+03  0.50400001928E-02 0.  1.
       -1    1    3    3    0  502 -0.46891671072E+03  0.15335196715E+03 -0.10362224126E+03  0.50412029947E+03  0.50400001928E-02 0. -1.
</event>
<event>
 5   0  0.3640180E-03  0.1005843E+04  0.7818609E-02  0.9302160E-01
        1   -1    0    0  501    0  0.00000000000E+00  0.00000000000E+00  0.87067310252E+03  0.87067310254E+03  0.50400001928E-02 0. -1.
       -1   -1    0    0    0  501  0.00000000000E+00  0.00000000000E+00 -0.29049925524E+03  0.29049925529E+03  0.50400001928E-02 0.  1.
    10030    2    1    2    0    0  0.00000000000E+00  0.00000000000E+00  0.58017384728E+03  0.11611723578E+04  0.10058427071E+04 0.  0.
        5    1    3    3  502    0 -0.16303128088E+03 -0.36207716576E+03 -0.66159573696E+02  0.40258943317E+03  0.46999998093E+01 0.  1.
       -5    1    3    3    0  502  0.16303128088E+03  0.36207716576E+03  0.64633342098E+03  0.75858292466E+03  0.46999998093E+01 0. -1.
</event>
<event>
 5   0  0.6376961E-03  0.1010769E+04  0.7818609E-02  0.9296811E-01
        2   -1    0    0  501    0  0.00000000000E+00  0.00000000000E+00  0.20334766560E+03  0.20334766562E+03  0.25500000920E-02 0. -1.
       -2   -1    0    0    0  501  0.00000000000E+00  0.00000000000E+00 -0.12560445012E+04  0.12560445012E+04  0.25500000920E-02 0.  1.
    10030    2    1    2    0    0  0.00000000000E+00  0.00000000000E+00 -0.10526968356E+04  0.14593921668E+04  0.10107694440E+04 0.  0.
        3    1    3    3  502    0  0.25240851555E+03  0.25488182224E+03 -0.10403623394E+04  0.11004674504E+04  0.10100000352E+00 0.  1.
       -3    1    3    3    0  502 -0.25240851555E+03 -0.25488182224E+03 -0.12334496196E+02  0.35892471638E+03  0.10100000352E+00 0. -1.
</event>
<event>
 5   0  0.3640180E-03  0.9960145E+03  0.7818609E-02  0.9312927E-01
       -1   -1    0    0    0  501  0.00000000000E+00  0.00000000000E+00  0.13449457681E+04  0.13449457681E+04  0.50400001928E-02 0. -1.
        1   -1    0    0  501    0  0.00000000000E+00  0.00000000000E+00 -0.18440240804E+03  0.18440240810E+03  0.50400001928E-02 0.  1.
    10030    2    1    2    0    0  0.00000000000E+00  0.00000000000E+00  0.11605433600E+04  0.15293481762E+04  0.99601453477E+03 0.  0.
        5    1    3    3  502    0  0.10406455786E+02  0.29000615028E+03  0.12016663583E+04  0.12362184225E+04  0.46999998093E+01 0. -1.
       -5    1    3    3    0  502 -0.10406455786E+02 -0.29000615028E+03 -0.41122998225E+02  0.29312975370E+03  0.46999998093E+01 0.  1.
</event>
<event>
 5   0  0.6199539E-03  0.9988400E+03  0.7818609E-02  0.9309818E-01
       -2   -1    0    0    0  501  0.00000000000E+00  0.00000000000E+00  0.20225634104E+03  0.20225634106E+03  0.25500000920E-02 0.  1.
        2   -1    0    0  501    0  0.00000000000E+00  0.00000000000E+00 -0.12331893069E+04  0.12331893069E+04  0.25500000920E-02 0. -1.
    10030    2    1    2    0    0  0.00000000000E+00  0.00000000000E+00 -0.10309329658E+04  0.14354456479E+04  0.99884004132E+03 0.  0.
        2    1    3    3  502    0  0.94497040150E+01 -0.12161198364E+03 -0.12114528573E+04  0.12175782509E+04  0.25500000920E-02 0. -1.
       -2    1    3    3    0  502 -0.94497040150E+01  0.12161198364E+03  0.18051989149E+03  0.21786739706E+03  0.25500000920E-02 0.  1.
</event>
<event>
 5   0  0.3608845E-03  0.9331243E+03  0.7818609E-02  0.9385096E-01
        1   -1    0    0  501    0  0.00000000000E+00  0.00000000000E+00  0.24829378507E+03  0.24829378512E+03  0.50400001928E-02 0.  1.
       -1   -1    0    0    0  501  0.00000000000E+00  0.00000000000E+00 -0.87670431188E+03  0.87670431190E+03  0.50400001928E-02 0. -1.
    10030    2    1    2    0    0  0.00000000000E+00  0.00000000000E+00 -0.62841052682E+03  0.11249980970E+04  0.93312428330E+03 0.  0.
        1    1    3    3  502    0 -0.16717320297E+03  0.92244312857E+02 -0.82744533685E+03  0.84918883562E+03  0.50400001928E-02 0. -1.
       -1    1    3    3    0  502  0.16717320297E+03 -0.92244312857E+02  0.19903481003E+03  0.27580926140E+03  0.50400001928E-02 0.  1.
</event>
<event>
 5   0  0.3608845E-03  0.9887466E+03  0.7818609E-02  0.9320974E-01
        1   -1    0    0  501    0  0.00000000000E+00  0.00000000000E+00  0.45707057473E+03  0.45707057476E+03  0.50400001928E-02 0. -1.
       -1   -1    0    0    0  501  0.00000000000E+00  0.00000000000E+00 -0.53472035832E+03  0.53472035835E+03  0.50400001928E-02 0.  1.
    10030    2    1    2    0    0  0.00000000000E+00  0.00000000000E+00 -0.77649783593E+02  0.99179093310E+03  0.98874656313E+03 0.  0.
        1    1    3    3  502    0  0.40893194529E+03 -0.22119703117E+03  0.12977439814E+03  0.48269540801E+03  0.50400001928E-02 0. -1.
       -1    1    3    3    0  502 -0.40893194529E+03  0.22119703117E+03 -0.20742418173E+03  0.50909552509E+03  0.50400001928E-02 0.  1.
</event>
<event>
 5   0  0.3569359E-03  0.9756696E+03  0.7818609E-02  0.9335640E-01
        1   -1    0    0  501    0  0.00000000000E+00  0.00000000000E+00  0.53263922482E+03  0.53263922485E+03  0.50400001928E-02 0. -1.
       -1   -1    0    0    0  501  0.00000000000E+00  0.00000000000E+00 -0.44679923745E+03  0.44679923748E+03  0.50400001928E-02 0.  1.
    10030    2    1    2    0    0  0.00000000000E+00  0.00000000000E+00  0.85839987369E+02  0.97943846233E+03  0.97566961521E+03 0.  0.
        4    1    3    3  502    0 -0.60800814622E+01  0.35196529031E+03  0.38195919596E+03  0.51943331935E+03  0.12699999809E+01 0. -1.
       -4    1    3    3    0  502  0.60800814622E+01 -0.35196529031E+03 -0.29611920859E+03  0.46000514298E+03  0.12699999809E+01 0.  1.
</event>
<event>
 5   0  0.6360455E-03  0.1006825E+04  0.7818609E-02  0.9301091E-01
       -2   -1    0    0    0  501  0.00000000000E+00  0.00000000000E+00  0.56216145614E+03  0.56216145615E+03  0.25500000920E-02 0.  1.
        2   -1    0    0  501    0  0.00000000000E+00  0.00000000000E+00 -0.45080329607E+03  0.45080329608E+03  0.25500000920E-02 0. -1.
    10030    2    1    2    0    0  0.00000000000E+00  0.00000000000E+00  0.11135816007E+03  0.10129647522E+04  0.10068251832E+04 0.  0.
        4    1    3    3  502    0  0.34806863716E+03 -0.32508021452E+02 -0.30876464626E+03  0.46641801778E+03  0.12699999809E+01 0. -1.
       -4    1    3    3    0  502 -0.34806863716E+03  0.32508021452E+02  0.42012280633E+03  0.54654673444E+03  0.12699999809E+01 0.  1.
</event>
<event>
 5   0  0.3466598E-03  0.1005700E+04  0.7818609E-02  0.9302315E-01
       -1   -1    0    0    0  501  0.00000000000E+00  0.00000000000E+00  0.43419392242E+03  0.43419392245E+03  0.50400001928E-02 0.  1.
        1   -1    0    0  501    0  0.00000000000E+00  0.00000000000E+00 -0.58236226435E+03  0.58236226437E+03  0.50400001928E-02 0. -1.
    10030    2    1    2    0    0  0.00000000000E+00  0.00000000000E+00 -0.14816834193E+03  0.10165561868E+04  0.10057000663E+04 0.  0.
        3    1    3    3  502    0 -0.36685773536E+03 -0.22980170666E+03 -0.33270683278E+03  0.54597368907E+03  0.10100000352E+00 0. -1.
       -3    1    3    3    0  502  0.36685773536E+03  0.22980170666E+03  0.18453849086E+03  0.47058249775E+03  0.10100000352E+00 0.  1.
</event>
<event>
 5   0  0.3640180E-03  0.1040530E+04  0.7818609E-02  0.9265176E-01
        1   -1    0    0  501    0  0.00000000000E+00  0.00000000000E+00  0.66807125573E+03  0.66807125575E+03  0.50400001928E-02 0.  1.
       -1   -1    0    0    0  501  0.00000000000E+00  0.00000000000E+00 -0.40516003722E+03  0.40516003726E+03  0.50400001928E-02 0. -1.
    10030    2    1    2    0    0  0.00000000000E+00  0.00000000000E+00  0.26291121851E+03  0.10732312930E+04  0.10405302011E+04 0.  0.
        5    1    3    3  502    0  0.27847550014E+03 -0.24620893448E+03  0.50688133305E+03  0.62858429776E+03  0.46999998093E+01 0.  1.
       -5    1    3    3    0  502 -0.27847550014E+03  0.24620893448E+03 -0.24397011454E+03  0.44464699525E+03  0.46999998093E+01 0. -1.
</event>
<event>
 5   0  0.3569359E-03  0.1035099E+04  0.7818609E-02  0.9270865E-01
       -1   -1    0    0    0  501  0.00000000000E+00  0.00000000000E+00  0.41522270361E+03  0.41522270364E+03  0.50400001928E-02 0.  1.
        1   -1    0    0  501    0  0.00000000000E+00  0.00000000000E+00 -0.64509398739E+03  0.64509398741E+03  0.50400001928E-02 0. -1.
    10030    2    1    2    0    0  0.00000000000E+00  0.00000000000E+00 -0.22987128378E+03  0.10603166911E+04  0.10350993567E+04 0.  0.
        4    1    3    3  502    0  0.26078904384E+03 -0.44414537975E+03 -0.62904363175E+02  0.51887822805E+03  0.12699999809E+01 0.  1.
       -4    1    3    3    0  502 -0.26078904384E+03  0.44414537975E+03 -0.16696692061E+03  0.54143846300E+03  0.12699999809E+01 0. -1.
</event>
<event>
 5   0  0.6199539E-03  0.9992851E+03  0.7818609E-02  0.9309329E-01
       -2   -1    0    0    0  501  0.00000000000E+00  0.00000000000E+00  0.31020559991E+03  0.31020559992E+03  0.25500000920E-02 0.  1.
        2   -1    0    0  501    0  0.00000000000E+00  0.00000000000E+00 -0.80476525341E+03  0.80476525341E+03  0.25500000920E-02 0. -1.
    10030    2    1    2    0    0  0.00000000000E+00  0.00000000000E+00 -0.49455965350E+03  0.11149708533E+04  0.99928512093E+03 0.  0.
        2    1    3    3  502    0  0.14909479336E+03 -0.37247450818E+03 -0.57953944450E+03  0.70486345089E+03  0.25500000920E-02 0. -1.
       -2    1    3    3    0  502 -0.14909479336E+03  0.37247450818E+03  0.84979791007E+02  0.41010740244E+03  0.25500000920E-02 0.  1.
</event>
<event>
 5   0  0.2417750E-03  0.1005685E+04  0.7818609E-02  0.9302331E-01
       -3   -1    0    0    0  501  0.00000000000E+00  0.00000000000E+00  0.45830982868E+03  0.45830983980E+03  0.10100000352E+00 0. -1.
        3   -1    0    0  501    0  0.00000000000E+00  0.00000000000E+00 -0.55170261549E+03  0.55170262473E+03  0.10100000352E+00 0.  1.
    10030    2    1    2    0    0  0.00000000000E+00  0.00000000000E+00 -0.93392786814E+02  0.10100124645E+04  0.10056853215E+04 0.  0.
        3    1    3    3  502    0  0.69901346634E+02 -0.28281920069E+03 -0.45831083988E+03  0.54306697072E+03  0.10100000352E+00 0.  1.
       -3    1    3    3    0  502 -0.69901346634E+02  0.28281920069E+03  0.36491805306E+03  0.46694549381E+03  0.10100000352E+00 0. -1.
</event>
<event>
 5   0  0.6360455E-03  0.1006689E+04  0.7818609E-02  0.9301238E-01
        2   -1    0    0  501    0  0.00000000000E+00  0.00000000000E+00  0.42073150593E+03  0.42073150594E+03  0.25500000920E-02 0. -1.
       -2   -1    0    0    0  501  0.00000000000E+00  0.00000000000E+00 -0.60217952363E+03  0.60217952363E+03  0.25500000920E-02 0.  1.
    10030    2    1    2    0    0  0.00000000000E+00  0.00000000000E+00 -0.18144801769E+03  0.10229110296E+04  0.10066894215E+04 0.  0.
        4    1    3    3  502    0 -0.61988424428E+02 -0.15771600671E+03 -0.57232056249E+03  0.59688302261E+03  0.12699999809E+01 0.  1.
       -4    1    3    3    0  502  0.61988424428E+02  0.15771600671E+03  0.39087254480E+03  0.42602800696E+03  0.12699999809E+01 0. -1.
</event>
<event>
 5   0  0.6360455E-03  0.1086978E+04  0.7818609E-02  0.9217977E-01
        2   -1    0    0  501    0  0.00000000000E+00  0.00000000000E+00  0.13149165542E+04  0.13149165542E+04  0.25500000920E-02 0. -1.
       -2   -1    0    0    0  501  0.00000000000E+00  0.00000000000E+00 -0.22463819537E+03  0.22463819539E+03  0.25500000920E-02 0.  1.
    10030    2    1    2    0    0  0.00000000000E+00  0.00000000000E+00  0.10902783588E+04  0.15395547495E+04  0.10869783472E+04 0.  0.
        4    1    3    3  502    0 -0.26125889938E+02  0.75732998223E+02 -0.21622725270E+03  0.23059463752E+03  0.12699999809E+01 0.  1.
       -4    1    3    3    0  502  0.26125889938E+02 -0.75732998223E+02  0.13065056115E+04  0.13089601120E+04  0.12699999809E+01 0. -1.
</event>
<event>
 5   0  0.3569359E-03  0.9988966E+03  0.7818609E-02  0.9309756E-01
        1   -1    0    0  501    0  0.00000000000E+00  0.00000000000E+00  0.30197315559E+03  0.30197315564E+03  0.50400001928E-02 0.  1.
       -1   -1    0    0    0  501  0.00000000000E+00  0.00000000000E+00 -0.82606222065E+03  0.82606222067E+03  0.50400001928E-02 0. -1.
    10030    2    1    2    0    0  0.00000000000E+00  0.00000000000E+00 -0.52408906506E+03  0.11280353763E+04  0.99889662232E+03 0.  0.
        4    1    3    3  502    0  0.41033435788E+03  0.21509468680E+03 -0.47273041160E+03  0.66190306276E+03  0.12699999809E+01 0.  1.
       -4    1    3    3    0  502 -0.41033435788E+03 -0.21509468680E+03 -0.51358653460E+02  0.46613231354E+03  0.12699999809E+01 0. -1.
</event>
<event>
 5   0  0.6199539E-03  0.1044893E+04  0.7818609E-02  0.9260633E-01
       -2   -1    0    0    0  501  0.00000000000E+00  0.00000000000E+00  0.34572007671E+03  0.34572007672E+03  0.25500000920E-02 0.  1.
        2   -1    0    0  501    0  0.00000000000E+00  0.00000000000E+00 -0.78951238939E+03  0.78951238940E+03  0.25500000920E-02 0. -1.
    10030    2    1    2    0    0  0.00000000000E+00  0.00000000000E+00 -0.44379231268E+03  0.11352324661E+04  0.10448928822E+04 0.  0.
        2    1    3    3  502    0  0.49461149358E+02 -0.46047450771E+02 -0.78474392269E+03  0.78764827000E+03  0.25500000920E-02 0. -1.
       -2    1    3    3    0  502 -0.49461149358E+02  0.46047450771E+02  0.34095161001E+03  0.34758419612E+03  0.25500000920E-02 0.  1.
</event>
<event>
 5   0  0.2417750E-03  0.1005691E+04  0.7818609E-02  0.9302325E-01
       -3   -1    0    0    0  501  0.00000000000E+00  0.00000000000E+00  0.58442480186E+03  0.58442481058E+03  0.10100000352E+00 0.  1.
        3   -1    0    0  501    0  0.00000000000E+00  0.00000000000E+00 -0.43265350758E+03  0.43265351937E+03  0.10100000352E+00 0. -1.
    10030    2    1    2    0    0  0.00000000000E+00  0.00000000000E+00  0.15177129427E+03  0.10170783300E+04  0.10056907097E+04 0.  0.
        5    1    3    3  502    0  0.69539203966E+01  0.43925395831E+03 -0.17150427045E+03  0.47162294439E+03  0.46999998093E+01 0. -1.
       -5    1    3    3    0  502 -0.69539203966E+01 -0.43925395831E+03  0.32327556472E+03  0.54545538556E+03  0.46999998093E+01 0.  1.
</event>
<event>
 5   0  0.6360455E-03  0.1026624E+04  0.7818609E-02  0.9279817E-01
        2   -1    0    0  501    0  0.00000000000E+00  0.00000000000E+00  0.18522167552E+04  0.18522167552E+04  0.25500000920E-02 0.  1.
       -2   -1    0    0    0  501  0.00000000000E+00  0.00000000000E+00 -0.14225612213E+03  0.14225612215E+03  0.25500000920E-02 0. -1.
    10030    2    1    2    0    0  0.00000000000E+00  0.00000000000E+00  0.17099606330E+04  0.19944728773E+04  0.10266239291E+04 0.  0.
        4    1    3    3  502    0  0.44630931783E+03  0.16860513492E+03  0.12229139532E+04  0.13126842151E+04  0.12699999809E+01 0.  1.
       -4    1    3    3    0  502 -0.44630931783E+03 -0.16860513492E+03  0.48704667980E+03  0.68178866220E+03  0.12699999809E+01 0. -1.
</event>
<event>
 5   0  0.6022787E-03  0.9923758E+03  0.7818609E-02  0.9316947E-01
       -2   -1    0    0    0  501  0.00000000000E+00  0.00000000000E+00  0.21487913883E+03  0.21487913884E+03  0.25500000920E-02 0.  1.
        2   -1    0    0  501    0  0.00000000000E+00  0.00000000000E+00 -0.11457716994E+04  0.11457716994E+04  0.25500000920E-02 0. -1.
    10030    2    1    2    0    0  0.00000000000E+00  0.00000000000E+00 -0.93089256055E+03  0.13606508382E+04  0.99237580798E+03 0.  0.
        5    1    3    3  502    0  0.48082103393E+03 -0.10614104651E+03 -0.38175770609E+03  0.62306967875E+03  0.46999998093E+01 0.  1.
       -5    1    3    3    0  502 -0.48082103393E+03  0.10614104651E+03 -0.54913485446E+03  0.73758115947E+03  0.46999998093E+01 0. -1.
</event>
<event>
 5   0  0.2417750E-03  0.1000858E+04  0.7818609E-02  0.9307605E-01
       -4   -1    0    0    0  501  0.00000000000E+00  0.00000000000E+00  0.77162613939E+03  0.77162718452E+03  0.12699999809E+01 0. -1.
        4   -1    0    0  501    0  0.00000000000E+00  0.00000000000E+00 -0.32454447923E+03  0.32454696409E+03  0.12699999809E+01 0.  1.
    10030    2    1    2    0    0  0.00000000000E+00  0.00000000000E+00  0.44708166016E+03  0.10961741486E+04  0.10008575090E+04 0.  0.
        3    1    3    3  502    0 -0.12089986424E+03  0.13768859643E+03  0.73356531272E+03  0.75610383215E+03  0.10100000352E+00 0. -1.
       -3    1    3    3    0  502  0.12089986424E+03 -0.13768859643E+03 -0.28648365256E+03  0.34007031647E+03  0.10100000352E+00 0.  1.
</event>
<event>
 5   0  0.6022787E-03  0.1021470E+04  0.7818609E-02  0.9285305E-01
        2   -1    0    0  501    0  0.00000000000E+00  0.00000000000E+00  0.83257383313E+03  0.83257383313E+03  0.25500000920E-02 0.  1.
       -2   -1    0    0    0  501  0.00000000000E+00  0.00000000000E+00 -0.31330585453E+03  0.31330585455E+03  0.25500000920E-02 0. -1.
    10030    2    1    2    0    0  0.00000000000E+00  0.00000000000E+00  0.51926797859E+03  0.11458796877E+04  0.10214700314E+04 0.  0.
        5    1    3    3  502    0  0.50703522299E+03 -0.59388105859E+02  0.24312790201E+03  0.56545992891E+03  0.46999998093E+01 0. -1.
       -5    1    3    3    0  502 -0.50703522299E+03  0.59388105859E+02  0.27614007658E+03  0.58041975877E+03  0.46999998093E+01 0.  1.
</event>
<event>
 5   0  0.3640180E-03  0.1016718E+04  0.7818609E-02  0.9290397E-01
       -1   -1    0    0    0  501  0.00000000000E+00  0.00000000000E+00  0.16977950730E+03  0.16977950737E+03  0.50400001928E-02 0.  1.
        1   -1    0    0  501    0  0.00000000000E+00  0.00000000000E+00 -0.15221440381E+04  0.15221440381E+04  0.50400001928E-02 0. -1.
    10030    2    1    2    0    0  0.00000000000E+00  0.00000000000E+00 -0.13523645308E+04  0.16919235454E+04  0.10167179843E+04 0.  0.
        5    1    3    3  502    0  0.44688563525E+02  0.32603315677E+02 -0.15170842544E+04  0.15180997230E+04  0.46999998093E+01 0. -1.
       -5    1    3    3    0  502 -0.44688563525E+02 -0.32603315677E+02  0.16471972365E+03  0.17382382247E+03  0.46999998093E+01 0.  1.
</event>
<event>
 5   0  0.3643002E-03  0.9771526E+03  0.7818609E-02  0.9333965E-01
        1   -1    0    0  501    0  0.00000000000E+00  0.00000000000E+00  0.86727093163E+03  0.86727093165E+03  0.50400001928E-02 0. -1.
       -1   -1    0    0    0  501  0.00000000000E+00  0.00000000000E+00 -0.27523902373E+03  0.27523902377E+03  0.50400001928E-02 0.  1.
    10030    2    1    2    0    0  0.00000000000E+00  0.00000000000E+00  0.59203190791E+03  0.11425099554E+04  0.97715260746E+03 0.  0.
        2    1    3    3  502    0  0.10435920226E+03 -0.29007093860E+03  0.73920387634E+03  0.80090846126E+03  0.25500000920E-02 0. -1.
       -2    1    3    3    0  502 -0.10435920226E+03  0.29007093860E+03 -0.14717196844E+03  0.34160149416E+03  0.25500000920E-02 0.  1.
</event>
<event>
 5   0  0.6606947E-03  0.1002161E+04  0.7818609E-02  0.9306178E-01
       -2   -1    0    0    0  501  0.00000000000E+00  0.00000000000E+00  0.38677760069E+03  0.38677760070E+03  0.25500000920E-02 0. -1.
        2   -1    0    0  501    0  0.00000000000E+00  0.00000000000E+00 -0.64916284765E+03  0.64916284765E+03  0.25500000920E-02 0.  1.
    10030    2    1    2    0    0  0.00000000000E+00  0.00000000000E+00 -0.26238524695E+03  0.10359404484E+04  0.10021609625E+04 0.  0.
        1    1    3    3  502    0  0.28193338264E+03 -0.17157856438E+03  0.25855181408E+03  0.41925490646E+03  0.50400001928E-02 0. -1.
       -1    1    3    3    0  502 -0.28193338264E+03  0.17157856438E+03 -0.52093706103E+03  0.61668554190E+03  0.50400001928E-02 0.  1.
</event>
<event>
 5   0  0.3569359E-03  0.9977098E+03  0.7818609E-02  0.9311060E-01
       -1   -1    0    0    0  501  0.00000000000E+00  0.00000000000E+00  0.30711745186E+03  0.30711745190E+03  0.50400001928E-02 0.  1.
        1   -1    0    0  501    0  0.00000000000E+00  0.00000000000E+00 -0.81029648366E+03  0.81029648368E+03  0.50400001928E-02 0. -1.
    10030    2    1    2    0    0  0.00000000000E+00  0.00000000000E+00 -0.50317903181E+03  0.11174139356E+04  0.99770976008E+03 0.  0.
        4    1    3    3  502    0 -0.41168968918E+03 -0.28079621848E+03 -0.22605836914E+03  0.54721012020E+03  0.12699999809E+01 0. -1.
       -4    1    3    3    0  502  0.41168968918E+03  0.28079621848E+03 -0.27712066267E+03  0.57020381538E+03  0.12699999809E+01 0.  1.
</event>
<event>
 5   0  0.6376961E-03  0.9724864E+03  0.7818609E-02  0.9339247E-01
       -2   -1    0    0    0  501  0.00000000000E+00  0.00000000000E+00  0.32413846032E+03  0.32413846033E+03  0.25500000920E-02 0.  1.
        2   -1    0    0  501    0  0.00000000000E+00  0.00000000000E+00 -0.72941801791E+03  0.72941801792E+03  0.25500000920E-02 0. -1.
    10030    2    1    2    0    0  0.00000000000E+00  0.00000000000E+00 -0.40527955759E+03  0.10535564782E+04  0.97248636652E+03 0.  0.
        3    1    3    3  502    0  0.45708329580E+02 -0.32697435063E+03 -0.58937324301E+03  0.67554593266E+03  0.10100000352E+00 0. -1.
       -3    1    3    3    0  502 -0.45708329580E+02  0.32697435063E+03  0.18409368542E+03  0.37801054559E+03  0.10100000352E+00 0.  1.
</event>
<event>
 5   0  0.3640180E-03  0.1009136E+04  0.7818609E-02  0.9298581E-01
       -1   -1    0    0    0  501  0.00000000000E+00  0.00000000000E+00  0.15071812889E+03  0.15071812897E+03  0.50400001928E-02 0. -1.
        1   -1    0    0  501    0  0.00000000000E+00  0.00000000000E+00 -0.16891736201E+04  0.16891736201E+04  0.50400001928E-02 0.  1.
    10030    2    1    2    0    0  0.00000000000E+00  0.00000000000E+00 -0.15384554912E+04  0.18398917491E+04  0.10091364377E+04 0.  0.
        5    1    3    3  502    0 -0.30584997701E+03 -0.28026485982E+01 -0.15008307216E+04  0.15316876340E+04  0.46999998093E+01 0.  1.
       -5    1    3    3    0  502  0.30584997701E+03  0.28026485982E+01 -0.37624769638E+02  0.30820411510E+03  0.46999998093E+01 0. -1.
</event>
<event>
 5   0  0.3466598E-03  0.1033365E+04  0.7818609E-02  0.9272689E-01
       -1   -1    0    0    0  501  0.00000000000E+00  0.00000000000E+00  0.23453709121E+03  0.23453709126E+03  0.50400001928E-02 0. -1.
        1   -1    0    0  501    0  0.00000000000E+00  0.00000000000E+00 -0.11382453565E+04  0.11382453565E+04  0.50400001928E-02 0.  1.
    10030    2    1    2    0    0  0.00000000000E+00  0.00000000000E+00 -0.90370826527E+03  0.13727824478E+04  0.10333649017E+04 0.  0.
        3    1    3    3  502    0  0.78727453015E+02 -0.42751174143E+03 -0.82286395900E+03  0.93062850061E+03  0.10100000352E+00 0. -1.
       -3    1    3    3    0  502 -0.78727453015E+02  0.42751174143E+03 -0.80844306271E+02  0.44215394714E+03  0.10100000352E+00 0.  1.
</event>
<event>
 5   0  0.3640180E-03  0.9897605E+03  0.7818609E-02  0.9319847E-01
       -1   -1    0    0    0  501  0.00000000000E+00  0.00000000000E+00  0.37410673771E+03  0.37410673775E+03  0.50400001928E-02 0.  1.
        1   -1    0    0  501    0  0.00000000000E+00  0.00000000000E+00 -0.65464327867E+03  0.65464327869E+03  0.50400001928E-02 0. -1.
    10030    2    1    2    0    0  0.00000000000E+00  0.00000000000E+00 -0.28053654096E+03  0.10287500164E+04  0.98976049906E+03 0.  0.
        5    1    3    3  502    0  0.99990153185E+02 -0.38616420495E+02 -0.64240919367E+03  0.65130708639E+03  0.46999998093E+01 0. -1.
       -5    1    3    3    0  502 -0.99990153185E+02  0.38616420495E+02  0.36187265271E+03  0.37744293005E+03  0.46999998093E+01 0.  1.
</event>
<event>
 5   0  0.6199539E-03  0.9856366E+03  0.7818609E-02  0.9324440E-01
       -2   -1    0    0    0  501  0.00000000000E+00  0.00000000000E+00  0.98709738738E+02  0.98709738771E+02  0.25500000920E-02 0. -1.
        2   -1    0    0  501    0  0.00000000000E+00  0.00000000000E+00 -0.24604450831E+04  0.24604450831E+04  0.25500000920E-02 0.  1.
    10030    2    1    2    0    0  0.00000000000E+00  0.00000000000E+00 -0.23617353444E+04  0.25591548219E+04  0.98563662955E+03 0.  0.
        2    1    3    3  502    0  0.36170629118E+03 -0.29310943192E+03 -0.16005401235E+04  0.16668753004E+04  0.25500000920E-02 0.  1.
       -2    1    3    3    0  502 -0.36170629118E+03  0.29310943192E+03 -0.76119522087E+03  0.89227952148E+03  0.25500000920E-02 0. -1.
</event>
<event>
 5   0  0.6022787E-03  0.1011465E+04  0.7818609E-02  0.9296058E-01
        2   -1    0    0  501    0  0.00000000000E+00  0.00000000000E+00  0.88475094168E+03  0.88475094168E+03  0.25500000920E-02 0.  1.
       -2   -1    0    0    0  501  0.00000000000E+00  0.00000000000E+00 -0.28908199007E+03  0.28908199008E+03  0.25500000920E-02 0. -1.
    10030    2    1    2    0    0  0.00000000000E+00  0.00000000000E+00  0.59566895161E+03  0.11738329318E+04  0.10114653982E+04 0.  0.
        5    1    3    3  502    0 -0.45094278179E+03 -0.18039338455E+03  0.13431828791E+03  0.50393914127E+03  0.46999998093E+01 0.  1.
       -5    1    3    3    0  502  0.45094278179E+03  0.18039338455E+03  0.46135066370E+03  0.66989379049E+03  0.46999998093E+01 0. -1.
</event>
<event>
 5   0  0.3569359E-03  0.1002857E+04  0.7818609E-02  0.9305417E-01
        1   -1    0    0  501    0  0.00000000000E+00  0.00000000000E+00  0.21602566125E+04  0.21602566125E+04  0.50400001928E-02 0.  1.
       -1   -1    0    0    0  501  0.00000000000E+00  0.00000000000E+00 -0.11638908725E+03  0.11638908736E+03  0.50400001928E-02 0. -1.
    10030    2    1    2    0    0  0.00000000000E+00  0.00000000000E+00  0.20438675252E+04  0.22766456998E+04  0.10028565111E+04 0.  0.
        4    1    3    3  502    0  0.49197250599E+03  0.89861490182E+02  0.93955949274E+03  0.10643710290E+04  0.12699999809E+01 0. -1.
       -4    1    3    3    0  502 -0.49197250599E+03 -0.89861490182E+02  0.11043080325E+04  0.12122746708E+04  0.12699999809E+01 0.  1.
</event>
<event>
 5   0  0.6360455E-03  0.1015380E+04  0.7818609E-02  0.9291836E-01
        2   -1    0    0  501    0  0.00000000000E+00  0.00000000000E+00  0.12134626793E+04  0.12134626793E+04  0.25500000920E-02 0. -1.
       -2   -1    0    0    0  501  0.00000000000E+00  0.00000000000E+00 -0.21240782099E+03  0.21240782101E+03  0.25500000920E-02 0.  1.
    10030    2    1    2    0    0  0.00000000000E+00  0.00000000000E+00  0.10010548583E+04  0.14258705003E+04  0.10153796602E+04 0.  0.
        4    1    3    3  502    0 -0.91281571700E+02 -0.20441919308E+03  0.11404013283E+04  0.11621688063E+04  0.12699999809E+01 0. -1.
       -4    1    3    3    0  502  0.91281571700E+02  0.20441919308E+03 -0.13934646999E+03  0.26370169402E+03  0.12699999809E+01 0.  1.
</event>
<event>
 5   0  0.3640180E-03  0.9682642E+03  0.7818609E-02  0.9344054E-01
       -1   -1    0    0    0  501  0.00000000000E+00  0.00000000000E+00  0.29282255189E+03  0.29282255193E+03  0.50400001928E-02 0. -1.
        1   -1    0    0  501    0  0.00000000000E+00  0.00000000000E+00 -0.80042972087E+03  0.80042972088E+03  0.50400001928E-02 0.  1.
    10030    2    1    2    0    0  0.00000000000E+00  0.00000000000E+00 -0.50760716897E+03  0.10932522728E+04  0.96826416541E+03 0.  0.
        5    1    3    3  502    0  0.40447378208E+02  0.18683196522E+03  0.24837848273E+03  0.31345834542E+03  0.46999998093E+01 0. -1.
       -5    1    3    3    0  502 -0.40447378208E+02 -0.18683196522E+03 -0.75598565170E+03  0.77979392740E+03  0.46999998093E+01 0.  1.
</event>
<event>
 5   0  0.6199539E-03  0.1003793E+04  0.7818609E-02  0.9304394E-01
        2   -1    0    0  501    0  0.00000000000E+00  0.00000000000E+00  0.13263565618E+04  0.13263565618E+04  0.25500000920E-02 0.  1.
       -2   -1    0    0    0  501  0.00000000000E+00  0.00000000000E+00 -0.18991899419E+03  0.18991899420E+03  0.25500000920E-02 0. -1.
    10030    2    1    2    0    0  0.00000000000E+00  0.00000000000E+00  0.11364375676E+04  0.15162755560E+04  0.10037934133E+04 0.  0.
        2    1    3    3  502    0  0.18334279932E+02 -0.16132616590E+03 -0.14915199148E+03  0.22047356801E+03  0.25500000920E-02 0. -1.
       -2    1    3    3    0  502 -0.18334279932E+02  0.16132616590E+03  0.12855895590E+04  0.12958019879E+04  0.25500000920E-02 0.  1.
</event>
<event>
 5   0  0.6376961E-03  0.9986059E+03  0.7818609E-02  0.9310075E-01
       -2   -1    0    0    0  501  0.00000000000E+00  0.00000000000E+00  0.38916393215E+03  0.38916393216E+03  0.25500000920E-02 0. -1.
        2   -1    0    0  501    0  0.00000000000E+00  0.00000000000E+00 -0.64061285559E+03  0.64061285559E+03  0.25500000920E-02 0.  1.
    10030    2    1    2    0    0  0.00000000000E+00  0.00000000000E+00 -0.25144892344E+03  0.10297767878E+04  0.99860586394E+03 0.  0.
        3    1    3    3  502    0  0.31926019687E+03 -0.30586391721E+03  0.11351639631E+03  0.45647101944E+03  0.10100000352E+00 0. -1.
       -3    1    3    3    0  502 -0.31926019687E+03  0.30586391721E+03 -0.36496531975E+03  0.57330576831E+03  0.10100000352E+00 0.  1.
</event>
<event>
 5   0  0.3643002E-03  0.9968905E+03  0.7818609E-02  0.9311962E-01
        1   -1    0    0  501    0  0.00000000000E+00  0.00000000000E+00  0.14046803605E+04  0.14046803605E+04  0.50400001928E-02 0. -1.
       -1   -1    0    0    0  501  0.00000000000E+00  0.00000000000E+00 -0.17687130675E+03  0.17687130682E+03  0.50400001928E-02 0.  1.
    10030    2    1    2    0    0  0.00000000000E+00  0.00000000000E+00  0.12278090537E+04  0.15815516673E+04  0.99689046738E+03 0.  0.
        2    1    3    3  502    0 -0.44135845492E+03  0.17319911045E+03  0.85789555399E+03  0.98019385794E+03  0.25500000920E-02 0. -1.
       -2    1    3    3    0  502  0.44135845492E+03 -0.17319911045E+03  0.36991349973E+03  0.60135780936E+03  0.25500000920E-02 0.  1.
</event>
<event>
 5   0  0.3640180E-03  0.9165164E+03  0.7818609E-02  0.9405167E-01
       -1   -1    0    0    0  501  0.00000000000E+00  0.00000000000E+00  0.37015912136E+03  0.37015912140E+03  0.50400001928E-02 0.  1.
        1   -1    0    0  501    0  0.00000000000E+00  0.00000000000E+00 -0.56732509617E+03  0.56732509619E+03  0.50400001928E-02 0. -1.
    10030    2    1    2    0    0  0.00000000000E+00  0.00000000000E+00 -0.19716597481E+03  0.93748421759E+03  0.91651635916E+03 0.  0.
        5    1    3    3  502    0  0.19768423245E+03 -0.21723055349E+03  0.26118844397E+03  0.39307717104E+03  0.46999998093E+01 0.  1.
       -5    1    3    3    0  502 -0.19768423245E+03  0.21723055349E+03 -0.45835441877E+03  0.54440704656E+03  0.46999998093E+01 0. -1.
</event>
<event>
 5   0  0.6376961E-03  0.9938540E+03  0.7818609E-02  0.9315311E-01
        2   -1    0    0  501    0  0.00000000000E+00  0.00000000000E+00  0.10002361197E+04  0.10002361197E+04  0.25500000920E-02 0. -1.
       -2   -1    0    0    0  501  0.00000000000E+00  0.00000000000E+00 -0.24687814727E+03  0.24687814728E+03  0.25500000920E-02 0.  1.
    10030    2    1    2    0    0  0.00000000000E+00  0.00000000000E+00  0.75335797239E+03  0.12471142669E+04  0.99385399342E+03 0.  0.
        3    1    3    3  502    0  0.28466002667E+03  0.39184559451E+03  0.51619700434E+03  0.70783731055E+03  0.10100000352E+00 0. -1.
       -3    1    3    3    0  502 -0.28466002667E+03 -0.39184559451E+03  0.23716096804E+03  0.53927695638E+03  0.10100000352E+00 0.  1.
</event>
<event>
 5   0  0.6376961E-03  0.9999027E+03  0.7818609E-02  0.9308652E-01
       -2   -1    0    0    0  501  0.00000000000E+00  0.00000000000E+00  0.28921004922E+03  0.28921004923E+03  0.25500000920E-02 0.  1.
        2   -1    0    0  501    0  0.00000000000E+00  0.00000000000E+00 -0.86425539567E+03  0.86425539567E+03  0.25500000920E-02 0. -1.
    10030    2    1    2    0    0  0.00000000000E+00  0.00000000000E+00 -0.57504534645E+03  0.11534654449E+04  0.99990268632E+03 0.  0.
        3    1    3    3  502    0 -0.18168654405E+03 -0.43869971418E+02  0.24739015201E+03  0.31005882054E+03  0.10100000352E+00 0.  1.
       -3    1    3    3    0  502  0.18168654405E+03  0.43869971418E+02 -0.82243549846E+03  0.84340662436E+03  0.10100000352E+00 0. -1.
</event>
<event>
 5   0  0.6199539E-03  0.1008378E+04  0.7818609E-02  0.9299404E-01
        2   -1    0    0  501    0  0.00000000000E+00  0.00000000000E+00  0.84956405465E+03  0.84956405465E+03  0.25500000920E-02 0. -1.
       -2   -1    0    0    0  501  0.00000000000E+00  0.00000000000E+00 -0.29921970209E+03  0.29921970210E+03  0.25500000920E-02 0.  1.
    10030    2    1    2    0    0  0.00000000000E+00  0.00000000000E+00  0.55034435256E+03  0.11487837567E+04  0.10083775153E+04 0.  0.
        2    1    3    3  502    0  0.64256730008E+02 -0.39798112393E+03  0.62013503038E+03  0.73965218736E+03  0.25500000920E-02 0. -1.
       -2    1    3    3    0  502 -0.64256730008E+02  0.39798112393E+03 -0.69790677818E+02  0.40913156939E+03  0.25500000920E-02 0.  1.
</event>
<event>
 5   0  0.3608845E-03  0.1005133E+04  0.7818609E-02  0.9302933E-01
        1   -1    0    0  501    0  0.00000000000E+00  0.00000000000E+00  0.10486623050E+04  0.10486623050E+04  0.50400001928E-02 0.  1.
       -1   -1    0    0    0  501  0.00000000000E+00  0.00000000000E+00 -0.24085254880E+03  0.24085254885E+03  0.50400001928E-02 0. -1.
    10030    2    1    2    0    0  0.00000000000E+00  0.00000000000E+00  0.80780975618E+03  0.12895148538E+04  0.10051328052E+04 0.  0.
        1    1    3    3  502    0  0.36573569433E+03 -0.54562865262E+02  0.84054092588E+03  0.91828576842E+03  0.50400001928E-02 0.  1.
       -1    1    3    3    0  502 -0.36573569433E+03  0.54562865262E+02 -0.32731169698E+02  0.37122908542E+03  0.50400001928E-02 0. -1.
</event>
<event>
 5   0  0.6360455E-03  0.9915540E+03  0.7818609E-02  0.9317857E-01
        2   -1    0    0  501    0  0.00000000000E+00  0.00000000000E+00  0.89800553766E+03  0.89800553766E+03  0.25500000920E-02 0.  1.
       -2   -1    0    0    0  501  0.00000000000E+00  0.00000000000E+00 -0.27371194931E+03  0.27371194933E+03  0.25500000920E-02 0. -1.
    10030    2    1    2    0    0  0.00000000000E+00  0.00000000000E+00  0.62429358834E+03  0.11717174870E+04  0.99155402519E+03 0.  0.
        4    1    3    3  502    0 -0.34360155467E+03 -0.17591395750E+03 -0.55483798040E+02  0.38998437604E+03  0.12699999809E+01 0. -1.
       -4    1    3    3    0  502  0.34360155467E+03  0.17591395750E+03  0.67977738638E+03  0.78173311095E+03  0.12699999809E+01 0.  1.
</event>
<event>
 5   0  0.6376961E-03  0.9614729E+03  0.7818609E-02  0.9351840E-01
        2   -1    0    0  501    0  0.00000000000E+00  0.00000000000E+00  0.21303509983E+04  0.21303509983E+04  0.25500000920E-02 0.  1.
       -2   -1    0    0    0  501  0.00000000000E+00  0.00000000000E+00 -0.10848330330E+03  0.10848330333E+03  0.25500000920E-02 0. -1.
    10030    2    1    2    0    0  0.00000000000E+00  0.00000000000E+00  0.20218676950E+04  0.22388343017E+04  0.96147285666E+03 0.  0.
        3    1    3    3  502    0 -0.47914109968E+03 -0.38025014549E+02  0.10324534721E+04  0.11388512973E+04  0.10100000352E+00 0. -1.
       -3    1    3    3    0  502  0.47914109968E+03  0.38025014549E+02  0.98941422294E+03  0.10999830044E+04  0.10100000352E+00 0.  1.
</event>
<event>
 5   0  0.3643002E-03  0.9639196E+03  0.7818609E-02  0.9349027E-01
       -1   -1    0    0    0  501  0.00000000000E+00  0.00000000000E+00  0.21965086880E+03  0.21965086886E+03  0.50400001928E-02 0.  1.
        1   -1    0    0  501    0  0.00000000000E+00  0.00000000000E+00 -0.10575202665E+04  0.10575202665E+04  0.50400001928E-02 0. -1.
    10030    2    1    2    0    0  0.00000000000E+00  0.00000000000E+00 -0.83786939771E+03  0.12771711354E+04  0.96391959283E+03 0.  0.
        2    1    3    3  502    0 -0.30310330636E+03 -0.14618134476E+03 -0.87608943118E+03  0.93849522711E+03  0.25500000920E-02 0. -1.
       -2    1    3    3    0  502  0.30310330636E+03  0.14618134476E+03  0.38220033468E+02  0.33867590828E+03  0.25500000920E-02 0.  1.
</event>
<event>
 5   0  0.3608845E-03  0.9834296E+03  0.7818609E-02  0.9326908E-01
        1   -1    0    0  501    0  0.00000000000E+00  0.00000000000E+00  0.14298134686E+04  0.14298134686E+04  0.50400001928E-02 0. -1.
       -1   -1    0    0    0  501  0.00000000000E+00  0.00000000000E+00 -0.16910137623E+03  0.16910137631E+03  0.50400001928E-02 0.  1.
    10030    2    1    2    0    0  0.00000000000E+00  0.00000000000E+00  0.12607120924E+04  0.15989148449E+04  0.98342956102E+03 0.  0.
        1    1    3    3  502    0  0.52215912094E+02  0.34099461261E+03  0.60657410180E+02  0.35026154333E+03  0.50400001928E-02 0.  1.
       -1    1    3    3    0  502 -0.52215912094E+02 -0.34099461261E+03  0.12000546822E+04  0.12486533016E+04  0.50400001928E-02 0. -1.
</event>
<event>
 5   0  0.6606947E-03  0.9634758E+03  0.7818609E-02  0.9349537E-01
       -2   -1    0    0    0  501  0.00000000000E+00  0.00000000000E+00  0.31706541647E+03  0.31706541648E+03  0.25500000920E-02 0. -1.
        2   -1    0    0  501    0  0.00000000000E+00  0.00000000000E+00 -0.73193545152E+03  0.73193545152E+03  0.25500000920E-02 0.  1.
    10030    2    1    2    0    0  0.00000000000E+00  0.00000000000E+00 -0.41487003504E+03  0.10490008680E+04  0.96347583005E+03 0.  0.
        1    1    3    3  502    0 -0.10548490536E+02  0.18791522102E+03 -0.69024896758E+03  0.71544883690E+03  0.50400001928E-02 0.  1.
       -1    1    3    3    0  502  0.10548490536E+02 -0.18791522102E+03  0.27537893254E+03  0.33355203110E+03  0.50400001928E-02 0. -1.
</event>
<event>
 5   0  0.3640180E-03  0.1012944E+04  0.7818609E-02  0.9294461E-01
       -1   -1    0    0    0  501  0.00000000000E+00  0.00000000000E+00  0.13321628376E+03  0.13321628386E+03  0.50400001928E-02 0. -1.
        1   -1    0    0  501    0  0.00000000000E+00  0.00000000000E+00 -0.19255441220E+04  0.19255441220E+04  0.50400001928E-02 0.  1.
    10030    2    1    2    0    0  0.00000000000E+00  0.00000000000E+00 -0.17923278383E+04  0.20587604059E+04  0.10129438924E+04 0.  0.
        5    1    3    3  502    0 -0.33224511131E+03 -0.13990212708E+03 -0.17319245155E+03  0.39997141701E+03  0.46999998093E+01 0. -1.
       -5    1    3    3    0  502  0.33224511131E+03  0.13990212708E+03 -0.16191353867E+04  0.16587889889E+04  0.46999998093E+01 0.  1.
</event>
<event>
 5   0  0.3569359E-03  0.1026265E+04  0.7818609E-02  0.9280198E-01
        1   -1    0    0  501    0  0.00000000000E+00  0.00000000000E+00  0.97761979658E+03  0.97761979659E+03  0.50400001928E-02 0. -1.
       -1   -1    0    0    0  501  0.00000000000E+00  0.00000000000E+00 -0.26933243614E+03  0.26933243619E+03  0.50400001928E-02 0.  1.
    10030    2    1    2    0    0  0.00000000000E+00  0.00000000000E+00  0.70828736044E+03  0.12469522328E+04  0.10262645302E+04 0.  0.
        4    1    3    3  502    0 -0.27504774460E+03 -0.42931029587E+03  0.28387574741E+03  0.58356288849E+03  0.12699999809E+01 0.  1.
       -4    1    3    3    0  502  0.27504774460E+03  0.42931029587E+03  0.42441161302E+03  0.66338934429E+03  0.12699999809E+01 0. -1.
</event>
<event>
 5   0  0.6376961E-03  0.1007453E+04  0.7818609E-02  0.9300408E-01
       -2   -1    0    0    0  501  0.00000000000E+00  0.00000000000E+00  0.52369974687E+03  0.52369974688E+03  0.25500000920E-02 0. -1.
        2   -1    0    0  501    0  0.00000000000E+00  0.00000000000E+00 -0.48451484696E+03  0.48451484697E+03  0.25500000920E-02 0.  1.
    10030    2    1    2    0    0  0.00000000000E+00  0.00000000000E+00  0.39184899914E+02  0.10082145938E+04  0.10074528331E+04 0.  0.
        3    1    3    3  502    0  0.38636121795E+03 -0.19988619436E+03  0.27377428350E+03  0.51398623517E+03  0.10100000352E+00 0. -1.
       -3    1    3    3    0  502 -0.38636121795E+03  0.19988619436E+03 -0.23458938359E+03  0.49422835868E+03  0.10100000352E+00 0.  1.
</event>
<event>
 5   0  0.3569359E-03  0.9970841E+03  0.7818609E-02  0.9311749E-01
        1   -1    0    0  501    0  0.00000000000E+00  0.00000000000E+00  0.42239464856E+03  0.42239464859E+03  0.50400001928E-02 0.  1.
       -1   -1    0    0    0  501  0.00000000000E+00  0.00000000000E+00 -0.58841700595E+03  0.58841700597E+03  0.50400001928E-02 0. -1.
    10030    2    1    2    0    0  0.00000000000E+00  0.00000000000E+00 -0.16602235739E+03  0.10108116546E+04  0.99708413780E+03 0.  0.
        4    1    3    3  502    0  0.76551691971E+02 -0.48875032384E+03 -0.14554955972E+03  0.51567754249E+03  0.12699999809E+01 0. -1.
       -4    1    3    3    0  502 -0.76551691971E+02  0.48875032384E+03 -0.20472797670E+02  0.49513411207E+03  0.12699999809E+01 0.  1.
</event>
<event>
 5   0  0.3608845E-03  0.1018809E+04  0.7818609E-02  0.9288153E-01
       -1   -1    0    0    0  501  0.00000000000E+00  0.00000000000E+00  0.30234519775E+03  0.30234519779E+03  0.50400001928E-02 0. -1.
        1   -1    0    0  501    0  0.00000000000E+00  0.00000000000E+00 -0.85826691250E+03  0.85826691251E+03  0.50400001928E-02 0.  1.
    10030    2    1    2    0    0  0.00000000000E+00  0.00000000000E+00 -0.55592171475E+03  0.11606121103E+04  0.10188088720E+04 0.  0.
        1    1    3    3  502    0  0.29358398316E+03  0.15966723217E+03 -0.71592938976E+03  0.79008864778E+03  0.50400001928E-02 0.  1.
       -1    1    3    3    0  502 -0.29358398316E+03 -0.15966723217E+03  0.16000767502E+03  0.37052346253E+03  0.50400001928E-02 0. -1.
</event>
<event>
 5   0  0.3643002E-03  0.1001423E+04  0.7818609E-02  0.9306985E-01
       -1   -1    0    0    0  501  0.00000000000E+00  0.00000000000E+00  0.51957247760E+03  0.51957247762E+03  0.50400001928E-02 0.  1.
        1   -1    0    0  501    0  0.00000000000E+00  0.00000000000E+00 -0.48253553032E+03  0.48253553035E+03  0.50400001928E-02 0. -1.
    10030    2    1    2    0    0  0.00000000000E+00  0.00000000000E+00  0.37036947278E+02  0.10021080080E+04  0.10014233491E+04 0.  0.
        2    1    3    3  502    0 -0.35762147672E+03  0.70132355034E+02  0.36211966995E+03  0.51375317343E+03  0.25500000920E-02 0.  1.
       -2    1    3    3    0  502  0.35762147672E+03 -0.70132355034E+02 -0.32508272267E+03  0.48835483454E+03  0.25500000920E-02 0. -1.
</event>
<event>
 5   0  0.6606947E-03  0.1046466E+04  0.7818609E-02  0.9259000E-01
       -2   -1    0    0    0  501  0.00000000000E+00  0.00000000000E+00  0.49644094045E+03  0.49644094045E+03  0.25500000920E-02 0. -1.
        2   -1    0    0  501    0  0.00000000000E+00  0.00000000000E+00 -0.55147117249E+03  0.55147117250E+03  0.25500000920E-02 0.  1.
    10030    2    1    2    0    0  0.00000000000E+00  0.00000000000E+00 -0.55030232047E+02  0.10479121130E+04  0.10464661820E+04 0.  0.
        1    1    3    3  502    0 -0.12737792862E+03 -0.49536582831E+03  0.82911578829E+02  0.51815709055E+03  0.50400001928E-02 0.  1.
       -1    1    3    3    0  502  0.12737792862E+03  0.49536582831E+03 -0.13794181088E+03  0.52975502241E+03  0.50400001928E-02 0. -1.
</event>
<event>
 5   0  0.3640180E-03  0.8864498E+03  0.7818609E-02  0.9442680E-01
        1   -1    0    0  501    0  0.00000000000E+00  0.00000000000E+00  0.62972720725E+03  0.62972720727E+03  0.50400001928E-02 0.  1.
       -1   -1    0    0    0  501  0.00000000000E+00  0.00000000000E+00 -0.31195776246E+03  0.31195776250E+03  0.50400001928E-02 0. -1.
    10030    2    1    2    0    0  0.00000000000E+00  0.00000000000E+00  0.31776944479E+03  0.94168496977E+03  0.88644975168E+03 0.  0.
        5    1    3    3  502    0  0.35290995120E+03 -0.10455063572E+03 -0.10337894315E+03  0.38234220925E+03  0.46999998093E+01 0. -1.
       -5    1    3    3    0  502 -0.35290995120E+03  0.10455063572E+03  0.42114838794E+03  0.55934276052E+03  0.46999998093E+01 0.  1.
</event>
<event>
 5   0  0.6376961E-03  0.1024459E+04  0.7818609E-02  0.9282118E-01
       -2   -1    0    0    0  501  0.00000000000E+00  0.00000000000E+00  0.21800600388E+03  0.21800600390E+03  0.25500000920E-02 0.  1.
        2   -1    0    0  501    0  0.00000000000E+00  0.00000000000E+00 -0.12035409230E+04  0.12035409230E+04  0.25500000920E-02 0. -1.
    10030    2    1    2    0    0  0.00000000000E+00  0.00000000000E+00 -0.98553491910E+03  0.14215469269E+04  0.10244591688E+04 0.  0.
        3    1    3    3  502    0 -0.17695979193E+03 -0.40051996188E+03 -0.86158951163E+03  0.96647167810E+03  0.10100000352E+00 0. -1.
       -3    1    3    3    0  502  0.17695979193E+03  0.40051996188E+03 -0.12394540747E+03  0.45507524878E+03  0.10100000352E+00 0.  1.
</event>
<event>
 5   0  0.6199539E-03  0.1000450E+04  0.7818609E-02  0.9308052E-01
       -2   -1    0    0    0  501  0.00000000000E+00  0.00000000000E+00  0.10094407788E+03  0.10094407791E+03  0.25500000920E-02 0.  1.
        2   -1    0    0  501    0  0.00000000000E+00  0.00000000000E+00 -0.24788474231E+04  0.24788474231E+04  0.25500000920E-02 0. -1.
    10030    2    1    2    0    0  0.00000000000E+00  0.00000000000E+00 -0.23779033452E+04  0.25797915010E+04  0.10004498335E+04 0.  0.
        2    1    3    3  502    0 -0.11827968021E+03 -0.89060034511E+02  0.43146421751E+02  0.15421863122E+03  0.25500000920E-02 0.  1.
       -2    1    3    3    0  502  0.11827968021E+03  0.89060034511E+02 -0.24210497670E+04  0.24255728698E+04  0.25500000920E-02 0. -1.
</event>
<event>
 5   0  0.6606947E-03  0.1022716E+04  0.7818609E-02  0.9283975E-01
        2   -1    0    0  501    0  0.00000000000E+00  0.00000000000E+00  0.84598090802E+03  0.84598090802E+03  0.25500000920E-02 0. -1.
       -2   -1    0    0    0  501  0.00000000000E+00  0.00000000000E+00 -0.30909336550E+03  0.30909336551E+03  0.25500000920E-02 0.  1.
    10030    2    1    2    0    0  0.00000000000E+00  0.00000000000E+00  0.53688754251E+03  0.11550742735E+04  0.10227161601E+04 0.  0.
        1    1    3    3  502    0  0.32104151857E+03  0.29508070089E+03  0.57012068101E+03  0.71775892027E+03  0.50400001928E-02 0. -1.
       -1    1    3    3    0  502 -0.32104151857E+03 -0.29508070089E+03 -0.33233138497E+02  0.43731535327E+03  0.50400001928E-02 0.  1.
</event>
<event>
 5   0  0.6376961E-03  0.9888649E+03  0.7818609E-02  0.9320843E-01
        2   -1    0    0  501    0  0.00000000000E+00  0.00000000000E+00  0.12406083765E+04  0.12406083765E+04  0.25500000920E-02 0.  1.
       -2   -1    0    0    0  501  0.00000000000E+00  0.00000000000E+00 -0.19705125121E+03  0.19705125123E+03  0.25500000920E-02 0. -1.
    10030    2    1    2    0    0  0.00000000000E+00  0.00000000000E+00  0.10435571253E+04  0.14376596277E+04  0.98886487016E+03 0.  0.
        3    1    3    3  502    0 -0.15660214321E+03  0.23479799981E+03  0.11119928387E+04  0.11472499360E+04  0.10100000352E+00 0.  1.
       -3    1    3    3    0  502  0.15660214321E+03 -0.23479799981E+03 -0.68435713474E+02  0.29040969173E+03  0.10100000352E+00 0. -1.
</event>
<event>
 5   0  0.3608845E-03  0.1036186E+04  0.7818609E-02  0.9269724E-01
        1   -1    0    0  501    0  0.00000000000E+00  0.00000000000E+00  0.93672062639E+03  0.93672062641E+03  0.50400001928E-02 0.  1.
       -1   -1    0    0    0  501  0.00000000000E+00  0.00000000000E+00 -0.28655312978E+03  0.28655312982E+03  0.50400001928E-02 0. -1.
    10030    2    1    2    0    0  0.00000000000E+00  0.00000000000E+00  0.65016749662E+03  0.12232737562E+04  0.10361857503E+04 0.  0.
        1    1    3    3  502    0  0.66428807785E+02  0.31984286826E+02 -0.28032832120E+03  0.28986160284E+03  0.50400001928E-02 0. -1.
       -1    1    3    3    0  502 -0.66428807785E+02 -0.31984286826E+02  0.93049581781E+03  0.93341215339E+03  0.50400001928E-02 0.  1.
</event>
<event>
 5   0  0.3640180E-03  0.1030045E+04  0.7818609E-02  0.9276192E-01
       -1   -1    0    0    0  501  0.00000000000E+00  0.00000000000E+00  0.26161370238E+03  0.26161370243E+03  0.50400001928E-02 0. -1.
        1   -1    0    0  501    0  0.00000000000E+00  0.00000000000E+00 -0.10138927107E+04  0.10138927107E+04  0.50400001928E-02 0.  1.
    10030    2    1    2    0    0  0.00000000000E+00  0.00000000000E+00 -0.75227900828E+03  0.12755064131E+04  0.10300450978E+04 0.  0.
        5    1    3    3  502    0  0.47903772253E+03 -0.61712841950E+02 -0.59744765413E+03  0.76827820735E+03  0.46999998093E+01 0. -1.
       -5    1    3    3    0  502 -0.47903772253E+03  0.61712841950E+02 -0.15483135415E+03  0.50722820574E+03  0.46999998093E+01 0.  1.
</event>
<event>
 5   0  0.2417750E-03  0.9968505E+03  0.7818609E-02  0.9312006E-01
        3   -1    0    0  501    0  0.00000000000E+00  0.00000000000E+00  0.12191898923E+04  0.12191898964E+04  0.10100000352E+00 0. -1.
       -3   -1    0    0    0  501  0.00000000000E+00  0.00000000000E+00 -0.20376457952E+03  0.20376460455E+03  0.10100000352E+00 0.  1.
    10030    2    1    2    0    0  0.00000000000E+00  0.00000000000E+00  0.10154253127E+04  0.14229545010E+04  0.99685051344E+03 0.  0.
        4    1    3    3  502    0  0.31817338735E+03  0.37250831241E+03  0.63876919708E+03  0.80499965669E+03  0.12699999809E+01 0. -1.
       -4    1    3    3    0  502 -0.31817338735E+03 -0.37250831241E+03  0.37665611565E+03  0.61795484430E+03  0.12699999809E+01 0.  1.
</event>
<event>
 5   0  0.6360455E-03  0.1007336E+04  0.7818609E-02  0.9300535E-01
        2   -1    0    0  501    0  0.00000000000E+00  0.00000000000E+00  0.17875052791E+04  0.17875052791E+04  0.25500000920E-02 0.  1.
       -2   -1    0    0    0  501  0.00000000000E+00  0.00000000000E+00 -0.14191929831E+03  0.14191929833E+03  0.25500000920E-02 0. -1.
    10030    2    1    2    0    0  0.00000000000E+00  0.00000000000E+00  0.16455859807E+04  0.19294245774E+04  0.10073360809E+04 0.  0.
        4    1    3    3  502    0  0.31586545861E+03  0.35042276314E+03  0.48494383790E+03  0.67656429087E+03  0.12699999809E+01 0. -1.
       -4    1    3    3    0  502 -0.31586545861E+03 -0.35042276314E+03  0.11606421428E+04  0.12528602865E+04  0.12699999809E+01 0.  1.
</event>
<event>
 5   0  0.6199539E-03  0.1024257E+04  0.7818609E-02  0.9282333E-01
       -2   -1    0    0    0  501  0.00000000000E+00  0.00000000000E+00  0.31069297156E+03  0.31069297157E+03  0.25500000920E-02 0.  1.
        2   -1    0    0  501    0  0.00000000000E+00  0.00000000000E+00 -0.84416281081E+03  0.84416281082E+03  0.25500000920E-02 0. -1.
    10030    2    1    2    0    0  0.00000000000E+00  0.00000000000E+00 -0.53346983926E+03  0.11548557824E+04  0.10242567104E+04 0.  0.
        2    1    3    3  502    0  0.11920186796E+02 -0.25196973577E+03 -0.76925952588E+03  0.80956226243E+03  0.25500000920E-02 0. -1.
       -2    1    3    3    0  502 -0.11920186796E+02  0.25196973577E+03  0.23578968662E+03  0.34529351995E+03  0.25500000920E-02 0.  1.
</event>
<event>
 5   0  0.3643002E-03  0.1003590E+04  0.7818609E-02  0.9304617E-01
       -1   -1    0    0    0  501  0.00000000000E+00  0.00000000000E+00  0.60138130657E+03  0.60138130660E+03  0.50400001928E-02 0.  1.
        1   -1    0    0  501    0  0.00000000000E+00  0.00000000000E+00 -0.41869942123E+03  0.41869942126E+03  0.50400001928E-02 0. -1.
    10030    2    1    2    0    0  0.00000000000E+00  0.00000000000E+00  0.18268188535E+03  0.10200807279E+04  0.10035895676E+04 0.  0.
        2    1    3    3  502    0  0.18438631665E+03  0.39741171843E+02 -0.38129491563E+03  0.42539803384E+03  0.25500000920E-02 0. -1.
       -2    1    3    3    0  502 -0.18438631665E+03 -0.39741171843E+02  0.56397680098E+03  0.59468269401E+03  0.25500000920E-02 0.  1.
</event>
<event>
 5   0  0.2417750E-03  0.1004877E+04  0.7818609E-02  0.9303212E-01
       -4   -1    0    0    0  501  0.00000000000E+00  0.00000000000E+00  0.38166270688E+03  0.38166481986E+03  0.12699999809E+01 0. -1.
        4   -1    0    0  501    0  0.00000000000E+00  0.00000000000E+00 -0.66142850685E+03  0.66142972610E+03  0.12699999809E+01 0.  1.
    10030    2    1    2    0    0  0.00000000000E+00  0.00000000000E+00 -0.27976579997E+03  0.10430945460E+04  0.10048767730E+04 0.  0.
        3    1    3    3  502    0  0.33480688249E+03 -0.97560859367E+02 -0.51534443718E+03  0.62224888025E+03  0.10100000352E+00 0.  1.
       -3    1    3    3    0  502 -0.33480688249E+03  0.97560859367E+02  0.23557863721E+03  0.42084566571E+03  0.10100000352E+00 0. -1.
</event>
<event>
 5   0  0.6606947E-03  0.1002830E+04  0.7818609E-02  0.9305447E-01
       -2   -1    0    0    0  501  0.00000000000E+00  0.00000000000E+00  0.18822617438E+03  0.18822617439E+03  0.25500000920E-02 0.  1.
        2   -1    0    0  501    0  0.00000000000E+00  0.00000000000E+00 -0.13357165730E+04  0.13357165730E+04  0.25500000920E-02 0. -1.
    10030    2    1    2    0    0  0.00000000000E+00  0.00000000000E+00 -0.11474903986E+04  0.15239427474E+04  0.10028296378E+04 0.  0.
        1    1    3    3  502    0 -0.17895754154E+03 -0.44971684699E+03 -0.37476032320E+03  0.61214078773E+03  0.50400001928E-02 0.  1.
       -1    1    3    3    0  502  0.17895754154E+03  0.44971684699E+03 -0.77273007539E+03  0.91180195963E+03  0.50400001928E-02 0. -1.
</event>
<event>
 5   0  0.3569359E-03  0.9980509E+03  0.7818609E-02  0.9310685E-01
       -1   -1    0    0    0  501  0.00000000000E+00  0.00000000000E+00  0.20083731949E+03  0.20083731955E+03  0.50400001928E-02 0. -1.
        1   -1    0    0  501    0  0.00000000000E+00  0.00000000000E+00 -0.12399407917E+04  0.12399407917E+04  0.50400001928E-02 0.  1.
    10030    2    1    2    0    0  0.00000000000E+00  0.00000000000E+00 -0.10391034722E+04  0.14407781113E+04  0.99805087042E+03 0.  0.
        4    1    3    3  502    0 -0.77090069632E+02  0.82655764134E+02 -0.12212174526E+04  0.12264373337E+04  0.12699999809E+01 0.  1.
       -4    1    3    3    0  502  0.77090069632E+02 -0.82655764134E+02  0.18211398035E+03  0.21434077755E+03  0.12699999809E+01 0. -1.
</event>
<event>
 5   0  0.3640180E-03  0.9969618E+03  0.7818609E-02  0.9311883E-01
        1   -1    0    0  501    0  0.00000000000E+00  0.00000000000E+00  0.10503223813E+04  0.10503223813E+04  0.50400001928E-02 0.  1.
       -1   -1    0    0    0  501  0.00000000000E+00  0.00000000000E+00 -0.23657805686E+03  0.23657805691E+03  0.50400001928E-02 0. -1.
    10030    2    1    2    0    0  0.00000000000E+00  0.00000000000E+00  0.81374432447E+03  0.12869004383E+04  0.99696184098E+03 0.  0.
        5    1    3    3  502    0 -0.43466485484E+02  0.76989818472E+02  0.10400916414E+04  0.10438531889E+04  0.46999998093E+01 0.  1.
       -5    1    3    3    0  502  0.43466485484E+02 -0.76989818472E+02 -0.22634731695E+03  0.24304724931E+03  0.46999998093E+01 0. -1.
</event>
<event>
 5   0  0.3608845E-03  0.9757189E+03  0.7818609E-02  0.9335584E-01
       -1   -1    0    0    0  501  0.00000000000E+00  0.00000000000E+00  0.19449933900E+03  0.19449933906E+03  0.50400001928E-02 0. -1.
        1   -1    0    0  501    0  0.00000000000E+00  0.00000000000E+00 -0.12236896318E+04  0.12236896318E+04  0.50400001928E-02 0.  1.
    10030    2    1    2    0    0  0.00000000000E+00  0.00000000000E+00 -0.10291902928E+04  0.14181889708E+04  0.97571886232E+03 0.  0.
        1    1    3    3  502    0 -0.40161854486E+03 -0.60245333345E+02 -0.12167139454E+03  0.42394679388E+03  0.50400001928E-02 0. -1.
       -1    1    3    3    0  502  0.40161854486E+03  0.60245333345E+02 -0.90751889824E+03  0.99424217696E+03  0.50400001928E-02 0.  1.
</event>
<event>
 5   0  0.3466598E-03  0.1006370E+04  0.7818609E-02  0.9301586E-01
        1   -1    0    0  501    0  0.00000000000E+00  0.00000000000E+00  0.10515819680E+04  0.10515819680E+04  0.50400001928E-02 0.  1.
       -1   -1    0    0    0  501  0.00000000000E+00  0.00000000000E+00 -0.24077523636E+03  0.24077523641E+03  0.50400001928E-02 0. -1.
    10030    2    1    2    0    0  0.00000000000E+00  0.00000000000E+00  0.81080673160E+03  0.12923572044E+04  0.10063695085E+04 0.  0.
        3    1    3    3  502    0 -0.46559313932E+03 -0.13668672698E+03  0.57641925327E+03  0.75347156446E+03  0.10100000352E+00 0.  1.
       -3    1    3    3    0  502  0.46559313932E+03  0.13668672698E+03  0.23438747833E+03  0.53888563992E+03  0.10100000352E+00 0. -1.
</event>
<event>
 5   0  0.6376961E-03  0.1031572E+04  0.7818609E-02  0.9274579E-01
       -2   -1    0    0    0  501  0.00000000000E+00  0.00000000000E+00  0.33521614115E+03  0.33521614116E+03  0.25500000920E-02 0. -1.
        2   -1    0    0  501    0  0.00000000000E+00  0.00000000000E+00 -0.79362295416E+03  0.79362295416E+03  0.25500000920E-02 0.  1.
    10030    2    1    2    0    0  0.00000000000E+00  0.00000000000E+00 -0.45840681301E+03  0.11288390953E+04  0.10315720512E+04 0.  0.
        3    1    3    3  502    0  0.39719765189E+03  0.40058027039E+02  0.12818677484E+03  0.41928806284E+03  0.10100000352E+00 0.  1.
       -3    1    3    3    0  502 -0.39719765189E+03 -0.40058027039E+02 -0.58659358784E+03  0.70955103248E+03  0.10100000352E+00 0. -1.
</event>
<event>
 5   0  0.6606947E-03  0.9958158E+03  0.7818609E-02  0.9313146E-01
        2   -1    0    0  501    0  0.00000000000E+00  0.00000000000E+00  0.33367377640E+03  0.33367377641E+03  0.25500000920E-02 0.  1.
       -2   -1    0    0    0  501  0.00000000000E+00  0.00000000000E+00 -0.74297806767E+03  0.74297806768E+03  0.25500000920E-02 0. -1.
    10030    2    1    2    0    0  0.00000000000E+00  0.00000000000E+00 -0.40930429127E+03  0.10766518441E+04  0.99581584167E+03 0.  0.
        1    1    3    3  502    0 -0.48258196556E+03 -0.86614640962E+02 -0.29843968168E+03  0.57398056860E+03  0.50400001928E-02 0.  1.
       -1    1    3    3    0  502  0.48258196556E+03  0.86614640962E+02 -0.11086460960E+03  0.50267127548E+03  0.50400001928E-02 0. -1.
</event>
<event>
 5   0  0.2417750E-03  0.9986429E+03  0.7818609E-02  0.9310034E-01
        3   -1    0    0  501    0  0.00000000000E+00  0.00000000000E+00  0.55642767129E+03  0.55642768046E+03  0.10100000352E+00 0.  1.
       -3   -1    0    0    0  501  0.00000000000E+00  0.00000000000E+00 -0.44807604912E+03  0.44807606051E+03  0.10100000352E+00 0. -1.
    10030    2    1    2    0    0  0.00000000000E+00  0.00000000000E+00  0.10835162217E+03  0.10045037410E+04  0.99864292496E+03 0.  0.
        2    1    3    3  502    0  0.38182798424E+03 -0.34734148829E+02  0.37593254715E+03  0.53695842544E+03  0.25500000920E-02 0.  1.
       -2    1    3    3    0  502 -0.38182798424E+03  0.34734148829E+02 -0.26758092498E+03  0.46754531552E+03  0.25500000920E-02 0. -1.
</event>
<event>
 5   0  0.6360455E-03  0.1022738E+04  0.7818609E-02  0.9283952E-01
       -2   -1    0    0    0  501  0.00000000000E+00  0.00000000000E+00  0.18645021849E+03  0.18645021851E+03  0.25500000920E-02 0. -1.
        2   -1    0    0  501    0  0.00000000000E+00  0.00000000000E+00 -0.14025105761E+04  0.14025105761E+04  0.25500000920E-02 0.  1.
    10030    2    1    2    0    0  0.00000000000E+00  0.00000000000E+00 -0.12160603576E+04  0.15889607946E+04  0.10227382918E+04 0.  0.
        4    1    3    3  502    0 -0.42685932977E+03  0.80933049494E+02 -0.10270442238E+04  0.11151594041E+04  0.12699999809E+01 0.  1.
       -4    1    3    3    0  502  0.42685932977E+03 -0.80933049494E+02 -0.18901613374E+03  0.47380139049E+03  0.12699999809E+01 0. -1.
</event>
<event>
 5   0  0.3643002E-03  0.9660418E+03  0.7818609E-02  0.9346594E-01
       -1   -1    0    0    0  501  0.00000000000E+00  0.00000000000E+00  0.36889578712E+03  0.36889578716E+03  0.50400001928E-02 0.  1.
        1   -1    0    0  501    0  0.00000000000E+00  0.00000000000E+00 -0.63245286491E+03  0.63245286493E+03  0.50400001928E-02 0. -1.
    10030    2    1    2    0    0  0.00000000000E+00  0.00000000000E+00 -0.26355707779E+03  0.10013486521E+04  0.96604181576E+03 0.  0.
        2    1    3    3  502    0 -0.21259349803E+03 -0.26554550857E+03 -0.48723859837E+03  0.59423216362E+03  0.25500000920E-02 0. -1.
       -2    1    3    3    0  502  0.21259349803E+03  0.26554550857E+03  0.22368152058E+03  0.40711648847E+03  0.25500000920E-02 0.  1.
</event>
<event>
 5   0  0.6022787E-03  0.9918540E+03  0.7818609E-02  0.9317525E-01
       -2   -1    0    0    0  501  0.00000000000E+00  0.00000000000E+00  0.20606818047E+03  0.20606818048E+03  0.25500000920E-02 0. -1.
        2   -1    0    0  501    0  0.00000000000E+00  0.00000000000E+00 -0.11935058718E+04  0.11935058718E+04  0.25500000920E-02 0.  1.
    10030    2    1    2    0    0  0.00000000000E+00  0.00000000000E+00 -0.98743769138E+03  0.13995740523E+04  0.99185398804E+03 0.  0.
        5    1    3    3  502    0 -0.41348451985E+03 -0.53156246109E+02 -0.11475703812E+03  0.43241912822E+03  0.46999998093E+01 0. -1.
       -5    1    3    3    0  502  0.41348451985E+03  0.53156246109E+02 -0.87268065326E+03  0.96715492411E+03  0.46999998093E+01 0.  1.
</event>
<event>
 5   0  0.6022787E-03  0.9949226E+03  0.7818609E-02  0.9314131E-01
        2   -1    0    0  501    0  0.00000000000E+00  0.00000000000E+00  0.30380485332E+03  0.30380485333E+03  0.25500000920E-02 0. -1.
       -2   -1    0    0    0  501  0.00000000000E+00  0.00000000000E+00 -0.81456147058E+03  0.81456147058E+03  0.25500000920E-02 0.  1.
    10030    2    1    2    0    0  0.00000000000E+00  0.00000000000E+00 -0.51075661726E+03  0.11183663239E+04  0.99492256602E+03 0.  0.
        5    1    3    3  502    0  0.15148029129E+03 -0.47093766208E+03 -0.19678529400E+03  0.53242379939E+03  0.46999998093E+01 0. -1.
       -5    1    3    3    0  502 -0.15148029129E+03  0.47093766208E+03 -0.31397132326E+03  0.58594252452E+03  0.46999998093E+01 0.  1.
</event>
<event>
 5   0  0.6376961E-03  0.1004506E+04  0.7818609E-02  0.9303616E-01
       -2   -1    0    0    0  501  0.00000000000E+00  0.00000000000E+00  0.94297417018E+02  0.94297417053E+02  0.25500000920E-02 0.  1.
        2   -1    0    0  501    0  0.00000000000E+00  0.00000000000E+00 -0.26751348322E+04  0.26751348322E+04  0.25500000920E-02 0. -1.
    10030    2    1    2    0    0  0.00000000000E+00  0.00000000000E+00 -0.25808374152E+04  0.27694322493E+04  0.10045064557E+04 0.  0.
        3    1    3    3  502    0  0.41371781755E+01 -0.24777440764E+03 -0.24948526379E+04  0.25071296274E+04  0.10100000352E+00 0. -1.
       -3    1    3    3    0  502 -0.41371781755E+01  0.24777440764E+03 -0.85984777260E+02  0.26230262188E+03  0.10100000352E+00 0.  1.
</event>
<event>
 5   0  0.6022787E-03  0.9946932E+03  0.7818609E-02  0.9314384E-01
        2   -1    0    0  501    0  0.00000000000E+00  0.00000000000E+00  0.17759166401E+04  0.17759166401E+04  0.25500000920E-02 0.  1.
       -2   -1    0    0    0  501  0.00000000000E+00  0.00000000000E+00 -0.13928224248E+03  0.13928224251E+03  0.25500000920E-02 0. -1.
    10030    2    1    2    0    0  0.00000000000E+00  0.00000000000E+00  0.16366343976E+04  0.19151988826E+04  0.99469322331E+03 0.  0.
        5    1    3    3  502    0  0.34932749219E+03  0.19666004551E+03  0.13850137704E+04  0.14418703494E+04  0.46999998093E+01 0.  1.
       -5    1    3    3    0  502 -0.34932749219E+03 -0.19666004551E+03  0.25162062720E+03  0.47332853319E+03  0.46999998093E+01 0. -1.
</event>
<event>
 5   0  0.6199539E-03  0.1001967E+04  0.7818609E-02  0.9306390E-01
       -2   -1    0    0    0  501  0.00000000000E+00  0.00000000000E+00  0.30989226412E+03  0.30989226413E+03  0.25500000920E-02 0.  1.
        2   -1    0    0  501    0  0.00000000000E+00  0.00000000000E+00 -0.80990936292E+03  0.80990936292E+03  0.25500000920E-02 0. -1.
    10030    2    1    2    0    0  0.00000000000E+00  0.00000000000E+00 -0.50001709879E+03  0.11198016271E+04  0.10019673572E+04 0.  0.
        2    1    3    3  502    0  0.75596622960E+02 -0.65720898402E+02  0.29858600397E+03  0.31494076850E+03  0.25500000920E-02 0.  1.
       -2    1    3    3    0  502 -0.75596622960E+02  0.65720898402E+02 -0.79860310276E+03  0.80486085856E+03  0.25500000920E-02 0. -1.
</event>
<event>
 5   0  0.6022787E-03  0.1006143E+04  0.7818609E-02  0.9301833E-01
        2   -1    0    0  501    0  0.00000000000E+00  0.00000000000E+00  0.23249526196E+03  0.23249526197E+03  0.25500000920E-02 0. -1.
       -2   -1    0    0    0  501  0.00000000000E+00  0.00000000000E+00 -0.10885418811E+04  0.10885418811E+04  0.25500000920E-02 0.  1.
    10030    2    1    2    0    0  0.00000000000E+00  0.00000000000E+00 -0.85604661911E+03  0.13210371430E+04  0.10061427927E+04 0.  0.
        5    1    3    3  502    0  0.45567131008E+03 -0.59045377090E+02 -0.69689750211E+03  0.83475200978E+03  0.46999998093E+01 0.  1.
       -5    1    3    3    0  502 -0.45567131008E+03  0.59045377090E+02 -0.15914911700E+03  0.48628513326E+03  0.46999998093E+01 0. -1.
</event>
<event>
 5   0  0.6199539E-03  0.1003724E+04  0.7818609E-02  0.9304470E-01
       -2   -1    0    0    0  501  0.00000000000E+00  0.00000000000E+00  0.17708147687E+03  0.17708147689E+03  0.25500000920E-02 0. -1.
        2   -1    0    0  501    0  0.00000000000E+00  0.00000000000E+00 -0.14223140442E+04  0.14223140442E+04  0.25500000920E-02 0.  1.
    10030    2    1    2    0    0  0.00000000000E+00  0.00000000000E+00 -0.12452325673E+04  0.15993955210E+04  0.10037240089E+04 0.  0.
        2    1    3    3  502    0 -0.35150131271E+03  0.17217554976E+03 -0.12208703738E+03  0.41000346032E+03  0.25500000920E-02 0. -1.
       -2    1    3    3    0  502  0.35150131271E+03 -0.17217554976E+03 -0.11231455299E+04  0.11893920607E+04  0.25500000920E-02 0.  1.
</event>
<event>
 5   0  0.6360455E-03  0.9963893E+03  0.7818609E-02  0.9312514E-01
        2   -1    0    0  501    0  0.00000000000E+00  0.00000000000E+00  0.67586270187E+03  0.67586270187E+03  0.25500000920E-02 0.  1.
       -2   -1    0    0    0  501  0.00000000000E+00  0.00000000000E+00 -0.36723121978E+03  0.36723121979E+03  0.25500000920E-02 0. -1.
    10030    2    1    2    0    0  0.00000000000E+00  0.00000000000E+00  0.30863148208E+03  0.10430939217E+04  0.99638925008E+03 0.  0.
        4    1    3    3  502    0  0.43305900476E+03 -0.12990059658E+02 -0.10315444177E+03  0.44536647271E+03  0.12699999809E+01 0. -1.
       -4    1    3    3    0  502 -0.43305900476E+03  0.12990059658E+02  0.41178592385E+03  0.59772744896E+03  0.12699999809E+01 0.  1.
</event>
<event>
 5   0  0.6606947E-03  0.1017252E+04  0.7818609E-02  0.9289823E-01
        2   -1    0    0  501    0  0.00000000000E+00  0.00000000000E+00  0.23023758911E+04  0.23023758911E+04  0.25500000920E-02 0.  1.
       -2   -1    0    0    0  501  0.00000000000E+00  0.00000000000E+00 -0.11236240914E+03  0.11236240917E+03  0.25500000920E-02 0. -1.
    10030    2    1    2    0    0  0.00000000000E+00  0.00000000000E+00  0.21900134819E+04  0.24147383003E+04  0.10172521849E+04 0.  0.
        1    1    3    3  502    0 -0.34127166410E+03 -0.62560310690E+01  0.19988186763E+03  0.39554803460E+03  0.50400001928E-02 0. -1.
       -1    1    3    3    0  502  0.34127166410E+03  0.62560310690E+01  0.19901316143E+04  0.20191902657E+04  0.50400001928E-02 0.  1.
</event>
<event>
 5   0  0.3608845E-03  0.9647083E+03  0.7818609E-02  0.9348122E-01
        1   -1    0    0  501    0  0.00000000000E+00  0.00000000000E+00  0.49945098642E+03  0.49945098645E+03  0.50400001928E-02 0. -1.
       -1   -1    0    0    0  501  0.00000000000E+00  0.00000000000E+00 -0.46584257571E+03  0.46584257574E+03  0.50400001928E-02 0.  1.
    10030    2    1    2    0    0  0.00000000000E+00  0.00000000000E+00  0.33608410711E+02  0.96529356219E+03  0.96470831651E+03 0.  0.
        1    1    3    3  502    0  0.80434768308E+02 -0.32459374000E+03  0.36462792580E+03  0.49475688201E+03  0.50400001928E-02 0. -1.
       -1    1    3    3    0  502 -0.80434768308E+02  0.32459374000E+03 -0.33101951508E+03  0.47053668018E+03  0.50400001928E-02 0.  1.
</event>
<event>
 5   0  0.3640180E-03  0.9982069E+03  0.7818609E-02  0.9310514E-01
       -1   -1    0    0    0  501  0.00000000000E+00  0.00000000000E+00  0.18791051536E+03  0.18791051543E+03  0.50400001928E-02 0.  1.
        1   -1    0    0  501    0  0.00000000000E+00  0.00000000000E+00 -0.13256536543E+04  0.13256536544E+04  0.50400001928E-02 0. -1.
    10030    2    1    2    0    0  0.00000000000E+00  0.00000000000E+00 -0.11377431390E+04  0.15135641698E+04  0.99820691529E+03 0.  0.
        5    1    3    3  502    0 -0.29277340958E+02 -0.76007131976E+02  0.17773103303E+03  0.19556241179E+03  0.46999998093E+01 0.  1.
       -5    1    3    3    0  502  0.29277340958E+02  0.76007131976E+02 -0.13154741720E+04  0.13180017580E+04  0.46999998093E+01 0. -1.
</event>
<event>
 5   0  0.3643002E-03  0.1009771E+04  0.7818609E-02  0.9297893E-01
       -1   -1    0    0    0  501  0.00000000000E+00  0.00000000000E+00  0.22737888989E+03  0.22737888995E+03  0.50400001928E-02 0. -1.
        1   -1    0    0  501    0  0.00000000000E+00  0.00000000000E+00 -0.11210765346E+04  0.11210765346E+04  0.50400001928E-02 0.  1.
    10030    2    1    2    0    0  0.00000000000E+00  0.00000000000E+00 -0.89369764471E+03  0.13484554246E+04  0.10097705442E+04 0.  0.
        2    1    3    3  502    0 -0.49553060591E+03  0.61602544694E+02 -0.54645702131E+03  0.74024369707E+03  0.25500000920E-02 0.  1.
       -2    1    3    3    0  502  0.49553060591E+03 -0.61602544694E+02 -0.34724062340E+03  0.60821172749E+03  0.25500000920E-02 0. -1.
</event>
<event>
 5   0  0.3640180E-03  0.1000530E+04  0.7818609E-02  0.9307964E-01
        1   -1    0    0  501    0  0.00000000000E+00  0.00000000000E+00  0.59012729202E+03  0.59012729204E+03  0.50400001928E-02 0.  1.
       -1   -1    0    0    0  501  0.00000000000E+00  0.00000000000E+00 -0.42408657269E+03  0.42408657272E+03  0.50400001928E-02 0. -1.
    10030    2    1    2    0    0  0.00000000000E+00  0.00000000000E+00  0.16604071933E+03  0.10142138648E+04  0.10005299811E+04 0.  0.
        5    1    3    3  502    0 -0.15401008621E+03  0.15754463957E+03  0.53827691500E+03  0.58163867421E+03  0.46999998093E+01 0.  1.
       -5    1    3    3    0  502  0.15401008621E+03 -0.15754463957E+03 -0.37223619567E+03  0.43257519055E+03  0.46999998093E+01 0. -1.
</event>
<event>
 5   0  0.6376961E-03  0.9923872E+03  0.7818609E-02  0.9316934E-01
       -2   -1    0    0    0  501  0.00000000000E+00  0.00000000000E+00  0.22408538059E+03  0.22408538061E+03  0.25500000920E-02 0.  1.
        2   -1    0    0  501    0  0.00000000000E+00  0.00000000000E+00 -0.10987245636E+04  0.10987245636E+04  0.25500000920E-02 0. -1.
    10030    2    1    2    0    0  0.00000000000E+00  0.00000000000E+00 -0.87463918300E+03  0.13228099442E+04  0.99238724702E+03 0.  0.
        3    1    3    3  502    0 -0.30641351716E+02  0.47527093537E+03 -0.25172353168E+03  0.53868924348E+03  0.10100000352E+00 0.  1.
       -3    1    3    3    0  502  0.30641351716E+02 -0.47527093537E+03 -0.62291565132E+03  0.78412070072E+03  0.10100000352E+00 0. -1.
</event>
<event>
 5   0  0.6360455E-03  0.1017549E+04  0.7818609E-02  0.9289504E-01
        2   -1    0    0  501    0  0.00000000000E+00  0.00000000000E+00  0.19346634625E+04  0.19346634625E+04  0.25500000920E-02 0. -1.
       -2   -1    0    0    0  501  0.00000000000E+00  0.00000000000E+00 -0.13379659995E+03  0.13379659997E+03  0.25500000920E-02 0.  1.
    10030    2    1    2    0    0  0.00000000000E+00  0.00000000000E+00  0.18008668625E+04  0.20684600624E+04  0.10175488064E+04 0.  0.
        4    1    3    3  502    0  0.38725225042E+03 -0.22595043071E+03  0.41158352294E+03  0.60862181348E+03  0.12699999809E+01 0.  1.
       -4    1    3    3    0  502 -0.38725225042E+03  0.22595043071E+03  0.13892833396E+04  0.14598382490E+04  0.12699999809E+01 0. -1.
</event>
<event>
 5   0  0.3569359E-03  0.1007650E+04  0.7818609E-02  0.9300194E-01
       -1   -1    0    0    0  501  0.00000000000E+00  0.00000000000E+00  0.70735891761E+03  0.70735891763E+03  0.50400001928E-02 0. -1.
        1   -1    0    0  501    0  0.00000000000E+00  0.00000000000E+00 -0.35885562018E+03  0.35885562021E+03  0.50400001928E-02 0.  1.
    10030    2    1    2    0    0  0.00000000000E+00  0.00000000000E+00  0.34850329743E+03  0.10662145378E+04  0.10076501835E+04 0.  0.
        4    1    3    3  502    0  0.11437032053E+03 -0.34129832590E+03  0.54726398068E+03  0.65503022444E+03  0.12699999809E+01 0. -1.
       -4    1    3    3    0  502 -0.11437032053E+03  0.34129832590E+03 -0.19876068325E+03  0.41118431340E+03  0.12699999809E+01 0.  1.
</event>
<event>
 5   0  0.3643002E-03  0.9990323E+03  0.7818609E-02  0.9309607E-01
        1   -1    0    0  501    0  0.00000000000E+00  0.00000000000E+00  0.16168116614E+04  0.16168116614E+04  0.50400001928E-02 0. -1.
       -1   -1    0    0    0  501  0.00000000000E+00  0.00000000000E+00 -0.15432618454E+03  0.15432618462E+03  0.50400001928E-02 0.  1.
    10030    2    1    2    0    0  0.00000000000E+00  0.00000000000E+00  0.14624854769E+04  0.17711378460E+04  0.99903228157E+03 0.  0.
        2    1    3    3  502    0 -0.11499635833E+03 -0.23373495722E+03 -0.24375991148E+02  0.26163023833E+03  0.25500000920E-02 0.  1.
       -2    1    3    3    0  502  0.11499635833E+03  0.23373495722E+03  0.14868614680E+04  0.15095076077E+04  0.25500000920E-02 0. -1.
</event>
<event>
 5   0  0.3643002E-03  0.1027757E+04  0.7818609E-02  0.9278615E-01
        1   -1    0    0  501    0  0.00000000000E+00  0.00000000000E+00  0.16156878565E+04  0.16156878566E+04  0.50400001928E-02 0. -1.
       -1   -1    0    0    0  501  0.00000000000E+00  0.00000000000E+00 -0.16344191174E+03  0.16344191182E+03  0.50400001928E-02 0.  1.
    10030    2    1    2    0    0  0.00000000000E+00  0.00000000000E+00  0.14522459448E+04  0.17791297684E+04  0.10277569988E+04 0.  0.
        2    1    3    3  502    0 -0.36680840237E+03  0.33065102812E+03  0.48013528718E+03  0.68877311246E+03  0.25500000920E-02 0.  1.
       -2    1    3    3    0  502  0.36680840237E+03 -0.33065102812E+03  0.97211065762E+03  0.10903566559E+04  0.25500000920E-02 0. -1.
</event>
<event>
 5   0  0.6199539E-03  0.1014471E+04  0.7818609E-02  0.9292815E-01
       -2   -1    0    0    0  501  0.00000000000E+00  0.00000000000E+00  0.25108079156E+03  0.25108079158E+03  0.25500000920E-02 0.  1.
        2   -1    0    0  501    0  0.00000000000E+00  0.00000000000E+00 -0.10247204567E+04  0.10247204567E+04  0.25500000920E-02 0. -1.
    10030    2    1    2    0    0  0.00000000000E+00  0.00000000000E+00 -0.77363966517E+03  0.12758012483E+04  0.10144705485E+04 0.  0.
        2    1    3    3  502    0  0.25105204546E+03 -0.18540448285E+03  0.11604162767E+03  0.33296788306E+03  0.25500000920E-02 0.  1.
       -2    1    3    3    0  502 -0.25105204546E+03  0.18540448285E+03 -0.88968129284E+03  0.94283336525E+03  0.25500000920E-02 0. -1.
</event>
<event>
 5   0  0.3608845E-03  0.8523361E+03  0.7818609E-02  0.9487207E-01
       -1   -1    0    0    0  501  0.00000000000E+00  0.00000000000E+00  0.35105280478E+03  0.35105280482E+03  0.50400001928E-02 0. -1.
        1   -1    0    0  501    0  0.00000000000E+00  0.00000000000E+00 -0.51735577333E+03  0.51735577335E+03  0.50400001928E-02 0.  1.
    10030    2    1    2    0    0  0.00000000000E+00  0.00000000000E+00 -0.16630296855E+03  0.86840857817E+03  0.85233607297E+03 0.  0.
        1    1    3    3  502    0 -0.12706404702E+03  0.33332903713E+03  0.15440978272E+03  0.38871056078E+03  0.50400001928E-02 0. -1.
       -1    1    3    3    0  502  0.12706404702E+03 -0.33332903713E+03 -0.32071275126E+03  0.47969801739E+03  0.50400001928E-02 0.  1.
</event>
<event>
 5   0  0.3643002E-03  0.1009055E+04  0.7818609E-02  0.9298669E-01
       -1   -1    0    0    0  501  0.00000000000E+00  0.00000000000E+00  0.85314146087E+03  0.85314146088E+03  0.50400001928E-02 0. -1.
        1   -1    0    0  501    0  0.00000000000E+00  0.00000000000E+00 -0.29836532393E+03  0.29836532397E+03  0.50400001928E-02 0.  1.
    10030    2    1    2    0    0  0.00000000000E+00  0.00000000000E+00  0.55477613694E+03  0.11515067848E+04  0.10090546633E+04 0.  0.
        2    1    3    3  502    0  0.45736088410E+03  0.21290697150E+03  0.28455765008E+03  0.57920757337E+03  0.25500000920E-02 0.  1.
       -2    1    3    3    0  502 -0.45736088410E+03 -0.21290697150E+03  0.27021848686E+03  0.57229921148E+03  0.25500000920E-02 0. -1.
</event>
<event>
 5   0  0.3466598E-03  0.1010839E+04  0.7818609E-02  0.9296736E-01
       -1   -1    0    0    0  501  0.00000000000E+00  0.00000000000E+00  0.43321458065E+03  0.43321458068E+03  0.50400001928E-02 0. -1.
        1   -1    0    0  501    0  0.00000000000E+00  0.00000000000E+00 -0.58965953889E+03  0.58965953891E+03  0.50400001928E-02 0.  1.
    10030    2    1    2    0    0  0.00000000000E+00  0.00000000000E+00 -0.15644495823E+03  0.10228741196E+04  0.10108394727E+04 0.  0.
        3    1    3    3  502    0 -0.29083797504E+03  0.17167146460E+03  0.30227458595E+03  0.45324138712E+03  0.10100000352E+00 0. -1.
       -3    1    3    3    0  502  0.29083797504E+03 -0.17167146460E+03 -0.45871954419E+03  0.56963273247E+03  0.10100000352E+00 0.  1.
</event>
<event>
 5   0  0.3569359E-03  0.9958264E+03  0.7818609E-02  0.9313134E-01
       -1   -1    0    0    0  501  0.00000000000E+00  0.00000000000E+00  0.28912810534E+03  0.28912810538E+03  0.50400001928E-02 0. -1.
        1   -1    0    0  501    0  0.00000000000E+00  0.00000000000E+00 -0.85746606383E+03  0.85746606384E+03  0.50400001928E-02 0.  1.
    10030    2    1    2    0    0  0.00000000000E+00  0.00000000000E+00 -0.56833795849E+03  0.11465941692E+04  0.99582636732E+03 0.  0.
        4    1    3    3  502    0  0.69293702364E+02  0.32061237574E+03  0.14714050749E+03  0.35950779478E+03  0.12699999809E+01 0. -1.
       -4    1    3    3    0  502 -0.69293702364E+02 -0.32061237574E+03 -0.71547846597E+03  0.78708637444E+03  0.12699999809E+01 0.  1.
</event>
<event>
 5   0  0.6360455E-03  0.1004273E+04  0.7818609E-02  0.9303871E-01
       -2   -1    0    0    0  501  0.00000000000E+00  0.00000000000E+00  0.18262482169E+03  0.18262482171E+03  0.25500000920E-02 0. -1.
        2   -1    0    0  501    0  0.00000000000E+00  0.00000000000E+00 -0.13806498525E+04  0.13806498525E+04  0.25500000920E-02 0.  1.
    10030    2    1    2    0    0  0.00000000000E+00  0.00000000000E+00 -0.11980250308E+04  0.15632746742E+04  0.10042727381E+04 0.  0.
        4    1    3    3  502    0  0.16899915651E+01  0.97789960453E+02 -0.13656770516E+04  0.13691753557E+04  0.12699999809E+01 0.  1.
       -4    1    3    3    0  502 -0.16899915651E+01 -0.97789960453E+02  0.16765202085E+03  0.19409931848E+03  0.12699999809E+01 0. -1.
</event>
<event>
 5   0  0.6199539E-03  0.1007152E+04  0.7818609E-02  0.9300735E-01
       -2   -1    0    0    0  501  0.00000000000E+00  0.00000000000E+00  0.59919590324E+03  0.59919590325E+03  0.25500000920E-02 0.  1.
        2   -1    0    0  501    0  0.00000000000E+00  0.00000000000E+00 -0.42321533359E+03  0.42321533360E+03  0.25500000920E-02 0. -1.
    10030    2    1    2    0    0  0.00000000000E+00  0.00000000000E+00  0.17598056965E+03  0.10224112368E+04  0.10071522111E+04 0.  0.
        2    1    3    3  502    0  0.10714078046E+02 -0.50148825059E+03  0.13320310715E+03  0.51898778859E+03  0.25500000920E-02 0. -1.
       -2    1    3    3    0  502 -0.10714078046E+02  0.50148825059E+03  0.42777462498E+02  0.50342344825E+03  0.25500000920E-02 0.  1.
</event>
<event>
 5   0  0.6022787E-03  0.9876219E+03  0.7818609E-02  0.9322226E-01
        2   -1    0    0  501    0  0.00000000000E+00  0.00000000000E+00  0.10962972769E+04  0.10962972769E+04  0.25500000920E-02 0. -1.
       -2   -1    0    0    0  501  0.00000000000E+00  0.00000000000E+00 -0.22242987319E+03  0.22242987321E+03  0.25500000920E-02 0.  1.
    10030    2    1    2    0    0  0.00000000000E+00  0.00000000000E+00  0.87386740370E+03  0.13187271501E+04  0.98762192015E+03 0.  0.
        5    1    3    3  502    0  0.19297759826E+03 -0.35394557661E+02 -0.16812109680E+03  0.25841811340E+03  0.46999998093E+01 0.  1.
       -5    1    3    3    0  502 -0.19297759826E+03  0.35394557661E+02  0.10419885005E+04  0.10603090367E+04  0.46999998093E+01 0. -1.
</event>
<event>
 5   0  0.6376961E-03  0.1041653E+04  0.7818609E-02  0.9264004E-01
        2   -1    0    0  501    0  0.00000000000E+00  0.00000000000E+00  0.12611752022E+04  0.12611752022E+04  0.25500000920E-02 0.  1.
       -2   -1    0    0    0  501  0.00000000000E+00  0.00000000000E+00 -0.21508531050E+03  0.21508531052E+03  0.25500000920E-02 0. -1.
    10030    2    1    2    0    0  0.00000000000E+00  0.00000000000E+00  0.10460898917E+04  0.14762605127E+04  0.10416530324E+04 0.  0.
        3    1    3    3  502    0  0.39713660702E+02  0.50051054274E+03  0.32680983887E+03  0.59907650532E+03  0.10100000352E+00 0. -1.
       -3    1    3    3    0  502 -0.39713660702E+02 -0.50051054274E+03  0.71928005282E+03  0.87718400739E+03  0.10100000352E+00 0.  1.
</event>
<event>
 5   0  0.6606947E-03  0.9922392E+03  0.7818609E-02  0.9317098E-01
       -2   -1    0    0    0  501  0.00000000000E+00  0.00000000000E+00  0.31501135623E+03  0.31501135624E+03  0.25500000920E-02 0.  1.
        2   -1    0    0  501    0  0.00000000000E+00  0.00000000000E+00 -0.78135177307E+03  0.78135177307E+03  0.25500000920E-02 0. -1.
    10030    2    1    2    0    0  0.00000000000E+00  0.00000000000E+00 -0.46634041684E+03  0.10963631293E+04  0.99223924884E+03 0.  0.
        1    1    3    3  502    0  0.24927077769E+03  0.27331185991E+03  0.13212744771E+03  0.39280142036E+03  0.50400001928E-02 0.  1.
       -1    1    3    3    0  502 -0.24927077769E+03 -0.27331185991E+03 -0.59846786455E+03  0.70356170895E+03  0.50400001928E-02 0. -1.
</event>
<event>
 5   0  0.3466598E-03  0.9962597E+03  0.7818609E-02  0.9312657E-01
        1   -1    0    0  501    0  0.00000000000E+00  0.00000000000E+00  0.54102460940E+03  0.54102460942E+03  0.50400001928E-02 0. -1.
       -1   -1    0    0    0  501  0.00000000000E+00  0.00000000000E+00 -0.45863594996E+03  0.45863594998E+03  0.50400001928E-02 0.  1.
    10030    2    1    2    0    0  0.00000000000E+00  0.00000000000E+00  0.82388659441E+02  0.99966055941E+03  0.99625967640E+03 0.  0.
        3    1    3    3  502    0 -0.29539287015E+03  0.39001695460E+03 -0.52736941452E+02  0.49208878041E+03  0.10100000352E+00 0.  1.
       -3    1    3    3    0  502  0.29539287015E+03 -0.39001695460E+03  0.13512560089E+03  0.50757177899E+03  0.10100000352E+00 0. -1.
</event>
<event>
 5   0  0.3466598E-03  0.9983173E+03  0.7818609E-02  0.9310392E-01
        1   -1    0    0  501    0  0.00000000000E+00  0.00000000000E+00  0.20303360791E+04  0.20303360791E+04  0.50400001928E-02 0. -1.
       -1   -1    0    0    0  501  0.00000000000E+00  0.00000000000E+00 -0.12271827482E+03  0.12271827492E+03  0.50400001928E-02 0.  1.
    10030    2    1    2    0    0  0.00000000000E+00  0.00000000000E+00  0.19076178043E+04  0.21530543540E+04  0.99831726628E+03 0.  0.
        3    1    3    3  502    0  0.18491400673E+03 -0.42257962197E+02 -0.41963426027E+02  0.19426750778E+03  0.10100000352E+00 0.  1.
       -3    1    3    3    0  502 -0.18491400673E+03  0.42257962197E+02  0.19495812303E+04  0.19587868462E+04  0.10100000352E+00 0. -1.
</event>
<event>
 5   0  0.6022787E-03  0.9923347E+03  0.7818609E-02  0.9316992E-01
       -2   -1    0    0    0  501  0.00000000000E+00  0.00000000000E+00  0.75394054958E+03  0.75394054958E+03  0.25500000920E-02 0.  1.
        2   -1    0    0  501    0  0.00000000000E+00  0.00000000000E+00 -0.32652714094E+03  0.32652714095E+03  0.25500000920E-02 0. -1.
    10030    2    1    2    0    0  0.00000000000E+00  0.00000000000E+00  0.42741340864E+03  0.10804676905E+04  0.99233472598E+03 0.  0.
        5    1    3    3  502    0  0.30576640335E+03 -0.11999780627E+03 -0.19116132690E+03  0.38007540018E+03  0.46999998093E+01 0. -1.
       -5    1    3    3    0  502 -0.30576640335E+03  0.11999780627E+03  0.61857473554E+03  0.70039229034E+03  0.46999998093E+01 0.  1.
</event>
<event>
 5   0  0.3569359E-03  0.9898720E+03  0.7818609E-02  0.9319723E-01
        1   -1    0    0  501    0  0.00000000000E+00  0.00000000000E+00  0.17305520676E+04  0.17305520676E+04  0.50400001928E-02 0. -1.
       -1   -1    0    0    0  501  0.00000000000E+00  0.00000000000E+00 -0.14155114306E+03  0.14155114315E+03  0.50400001928E-02 0.  1.
    10030    2    1    2    0    0  0.00000000000E+00  0.00000000000E+00  0.15890009245E+04  0.18721032107E+04  0.98987195815E+03 0.  0.
        4    1    3    3  502    0 -0.11553933863E+03  0.48108878811E+03  0.77026211423E+03  0.91547861708E+03  0.12699999809E+01 0.  1.
       -4    1    3    3    0  502  0.11553933863E+03 -0.48108878811E+03  0.81873881028E+03  0.95662459365E+03  0.12699999809E+01 0. -1.
</event>
<event>
 5   0  0.6606947E-03  0.1006734E+04  0.7818609E-02  0.9301189E-01
       -2   -1    0    0    0  501  0.00000000000E+00  0.00000000000E+00  0.49776944892E+03  0.49776944892E+03  0.25500000920E-02 0. -1.
        2   -1    0    0  501    0  0.00000000000E+00  0.00000000000E+00 -0.50902780277E+03  0.50902780277E+03  0.25500000920E-02 0.  1.
    10030    2    1    2    0    0  0.00000000000E+00  0.00000000000E+00 -0.11258353848E+02  0.10067972517E+04  0.10067343023E+04 0.  0.
        1    1    3    3  502    0  0.15635577073E+03 -0.37376902931E+03  0.29310018795E+03  0.50005813114E+03  0.50400001928E-02 0. -1.
       -1    1    3    3    0  502 -0.15635577073E+03  0.37376902931E+03 -0.30435854180E+03  0.50673912056E+03  0.50400001928E-02 0.  1.
</event>
<event>
 5   0  0.6376961E-03  0.1008839E+04  0.7818609E-02  0.9298903E-01
       -2   -1    0    0    0  501  0.00000000000E+00  0.00000000000E+00  0.35639684146E+03  0.35639684147E+03  0.25500000920E-02 0.  1.
        2   -1    0    0  501    0  0.00000000000E+00  0.00000000000E+00 -0.71392008109E+03  0.71392008109E+03  0.25500000920E-02 0. -1.
    10030    2    1    2    0    0  0.00000000000E+00  0.00000000000E+00 -0.35752323963E+03  0.10703169226E+04  0.10088386629E+04 0.  0.
        3    1    3    3  502    0 -0.33392819563E+03 -0.10074636682E+03 -0.56535873719E+03  0.66429540280E+03  0.10100000352E+00 0. -1.
       -3    1    3    3    0  502  0.33392819563E+03  0.10074636682E+03  0.20783549756E+03  0.40602151976E+03  0.10100000352E+00 0.  1.
</event>
<event>
 5   0  0.2417750E-03  0.1003930E+04  0.7818609E-02  0.9304245E-01
        3   -1    0    0  501    0  0.00000000000E+00  0.00000000000E+00  0.24569688552E+03  0.24569690628E+03  0.10100000352E+00 0. -1.
       -3   -1    0    0    0  501  0.00000000000E+00  0.00000000000E+00 -0.10255273720E+04  0.10255273770E+04  0.10100000352E+00 0.  1.
    10030    2    1    2    0    0  0.00000000000E+00  0.00000000000E+00 -0.77983048650E+03  0.12712242833E+04  0.10039300726E+04 0.  0.
        5    1    3    3  502    0  0.42106475331E+03  0.13731141510E+03 -0.68902018103E+03  0.81909758336E+03  0.46999998093E+01 0. -1.
       -5    1    3    3    0  502 -0.42106475331E+03 -0.13731141510E+03 -0.90810305463E+02  0.45212669991E+03  0.46999998093E+01 0.  1.
</event>
<event>
 5   0  0.3608845E-03  0.9974142E+03  0.7818609E-02  0.9311385E-01
        1   -1    0    0  501    0  0.00000000000E+00  0.00000000000E+00  0.15506107221E+04  0.15506107221E+04  0.50400001928E-02 0. -1.
       -1   -1    0    0    0  501  0.00000000000E+00  0.00000000000E+00 -0.16039406939E+03  0.16039406947E+03  0.50400001928E-02 0.  1.
    10030    2    1    2    0    0  0.00000000000E+00  0.00000000000E+00  0.13902166527E+04  0.17110047916E+04  0.99741418444E+03 0.  0.
        1    1    3    3  502    0 -0.16926263296E+03  0.32985499888E+03  0.12292567879E+03  0.39059554751E+03  0.50400001928E-02 0.  1.
       -1    1    3    3    0  502  0.16926263296E+03 -0.32985499888E+03  0.12672909740E+04  0.13204092441E+04  0.50400001928E-02 0. -1.
</event>
<event>
 5   0  0.6376961E-03  0.9644204E+03  0.7818609E-02  0.9348452E-01
        2   -1    0    0  501    0  0.00000000000E+00  0.00000000000E+00  0.10155348441E+04  0.10155348441E+04  0.25500000920E-02 0.  1.
       -2   -1    0    0    0  501  0.00000000000E+00  0.00000000000E+00 -0.22896968583E+03  0.22896968584E+03  0.25500000920E-02 0. -1.
    10030    2    1    2    0    0  0.00000000000E+00  0.00000000000E+00  0.78656515831E+03  0.12445045300E+04  0.96442043574E+03 0.  0.
        3    1    3    3  502    0 -0.43217505526E+03  0.21064977930E+03  0.44118601671E+03  0.65252871159E+03  0.10100000352E+00 0. -1.
       -3    1    3    3    0  502  0.43217505526E+03 -0.21064977930E+03  0.34537914160E+03  0.59197581839E+03  0.10100000352E+00 0.  1.
</event>
<event>
 5   0  0.6606947E-03  0.9635506E+03  0.7818609E-02  0.9349451E-01
       -2   -1    0    0    0  501  0.00000000000E+00  0.00000000000E+00  0.54051523998E+03  0.54051523998E+03  0.25500000920E-02 0.  1.
        2   -1    0    0  501    0  0.00000000000E+00  0.00000000000E+00 -0.42941887545E+03  0.42941887546E+03  0.25500000920E-02 0. -1.
    10030    2    1    2    0    0  0.00000000000E+00  0.00000000000E+00  0.11109636452E+03  0.96993411544E+03  0.96355061418E+03 0.  0.
        1    1    3    3  502    0  0.40458438641E+03 -0.18823366060E+03  0.23837469565E+03  0.50590802748E+03  0.50400001928E-02 0.  1.
       -1    1    3    3    0  502 -0.40458438641E+03  0.18823366060E+03 -0.12727833113E+03  0.46402608797E+03  0.50400001928E-02 0. -1.
</event>
<event>
 5   0  0.3643002E-03  0.9974329E+03  0.7818609E-02  0.9311365E-01
       -1   -1    0    0    0  501  0.00000000000E+00  0.00000000000E+00  0.31917353622E+03  0.31917353626E+03  0.50400001928E-02 0.  1.
        1   -1    0    0  501    0  0.00000000000E+00  0.00000000000E+00 -0.77925671531E+03  0.77925671532E+03  0.50400001928E-02 0. -1.
    10030    2    1    2    0    0  0.00000000000E+00  0.00000000000E+00 -0.46008317909E+03  0.10984302516E+04  0.99743294808E+03 0.  0.
        2    1    3    3  502    0 -0.31150679191E+03  0.37572559088E+03 -0.11713226553E+03  0.50192247278E+03  0.25500000920E-02 0. -1.
       -2    1    3    3    0  502  0.31150679191E+03 -0.37572559088E+03 -0.34295091356E+03  0.59650777880E+03  0.25500000920E-02 0.  1.
</event>
<event>
 5   0  0.6360455E-03  0.9996042E+03  0.7818609E-02  0.9308979E-01
        2   -1    0    0  501    0  0.00000000000E+00  0.00000000000E+00  0.18259544897E+04  0.18259544897E+04  0.25500000920E-02 0. -1.
       -2   -1    0    0    0  501  0.00000000000E+00  0.00000000000E+00 -0.13680633612E+03  0.13680633614E+03  0.25500000920E-02 0.  1.
    10030    2    1    2    0    0  0.00000000000E+00  0.00000000000E+00  0.16891481536E+04  0.19627608258E+04  0.99960420903E+03 0.  0.
        4    1    3    3  502    0  0.41647129230E+03 -0.27607871549E+03  0.86719624330E+03  0.10008490055E+04  0.12699999809E+01 0. -1.
       -4    1    3    3    0  502 -0.41647129230E+03  0.27607871549E+03  0.82195191025E+03  0.96191182035E+03  0.12699999809E+01 0.  1.
</event>
<event>
 5   0  0.6199539E-03  0.9987060E+03  0.7818609E-02  0.9309965E-01
       -2   -1    0    0    0  501  0.00000000000E+00  0.00000000000E+00  0.27096663367E+03  0.27096663368E+03  0.25500000920E-02 0. -1.
        2   -1    0    0  501    0  0.00000000000E+00  0.00000000000E+00 -0.92023670941E+03  0.92023670942E+03  0.25500000920E-02 0.  1.
    10030    2    1    2    0    0  0.00000000000E+00  0.00000000000E+00 -0.64927007575E+03  0.11912033431E+04  0.99870604952E+03 0.  0.
        2    1    3    3  502    0 -0.44910074466E+03 -0.13357818775E+03 -0.11866998446E+03  0.48333960764E+03  0.25500000920E-02 0. -1.
       -2    1    3    3    0  502  0.44910074466E+03  0.13357818775E+03 -0.53060009129E+03  0.70786373546E+03  0.25500000920E-02 0.  1.
</event>
<event>
 5   0  0.3466598E-03  0.9821515E+03  0.7818609E-02  0.9328340E-01
       -1   -1    0    0    0  501  0.00000000000E+00  0.00000000000E+00  0.23534530586E+03  0.23534530591E+03  0.50400001928E-02 0.  1.
        1   -1    0    0  501    0  0.00000000000E+00  0.00000000000E+00 -0.10246875177E+04  0.10246875177E+04  0.50400001928E-02 0. -1.
    10030    2    1    2    0    0  0.00000000000E+00  0.00000000000E+00 -0.78934221180E+03  0.12600328236E+04  0.98215151030E+03 0.  0.
        3    1    3    3  502    0 -0.42567697437E+03 -0.75305999409E+02 -0.95763257317E+02  0.44276685931E+03  0.10100000352E+00 0.  1.
       -3    1    3    3    0  502  0.42567697437E+03  0.75305999409E+02 -0.69357895449E+03  0.81726596427E+03  0.10100000352E+00 0. -1.
</event>
<event>
 5   0  0.3569359E-03  0.9984095E+03  0.7818609E-02  0.9310291E-01
       -1   -1    0    0    0  501  0.00000000000E+00  0.00000000000E+00  0.42803819626E+03  0.42803819629E+03  0.50400001928E-02 0.  1.
        1   -1    0    0  501    0  0.00000000000E+00  0.00000000000E+00 -0.58220357175E+03  0.58220357178E+03  0.50400001928E-02 0. -1.
    10030    2    1    2    0    0  0.00000000000E+00  0.00000000000E+00 -0.15416537549E+03  0.10102417681E+04  0.99840946858E+03 0.  0.
        4    1    3    3  502    0 -0.49765190112E+03  0.32000208073E+02 -0.53957387539E+02  0.50159190641E+03  0.12699999809E+01 0.  1.
       -4    1    3    3    0  502  0.49765190112E+03 -0.32000208073E+02 -0.10020798795E+03  0.50864986165E+03  0.12699999809E+01 0. -1.
</event>
<event>
 5   0  0.3640180E-03  0.9989143E+03  0.7818609E-02  0.9309736E-01
       -1   -1    0    0    0  501  0.00000000000E+00  0.00000000000E+00  0.14635856240E+03  0.14635856249E+03  0.50400001928E-02 0.  1.
        1   -1    0    0  501    0  0.00000000000E+00  0.00000000000E+00 -0.17044266801E+04  0.17044266801E+04  0.50400001928E-02 0. -1.
    10030    2    1    2    0    0  0.00000000000E+00  0.00000000000E+00 -0.15580681177E+04  0.18507852426E+04  0.99891428805E+03 0.  0.
        5    1    3    3  502    0 -0.57540388801E+02 -0.25118285583E+03 -0.15717012282E+04  0.15926928656E+04  0.46999998093E+01 0. -1.
       -5    1    3    3    0  502  0.57540388801E+02  0.25118285583E+03  0.13633110430E+02  0.25809237707E+03  0.46999998093E+01 0.  1.
</event>
<event>
 5   0  0.3569359E-03  0.1010380E+04  0.7818609E-02  0.9297233E-01
        1   -1    0    0  501    0  0.00000000000E+00  0.00000000000E+00  0.25679536639E+03  0.25679536644E+03  0.50400001928E-02 0. -1.
       -1   -1    0    0    0  501  0.00000000000E+00  0.00000000000E+00 -0.99385365006E+03  0.99385365007E+03  0.50400001928E-02 0.  1.
    10030    2    1    2    0    0  0.00000000000E+00  0.00000000000E+00 -0.73705828366E+03  0.12506490165E+04  0.10103801507E+04 0.  0.
        4    1    3    3  502    0 -0.44386443681E+03 -0.61784878298E+02 -0.65718460718E+03  0.79544090306E+03  0.12699999809E+01 0.  1.
       -4    1    3    3    0  502  0.44386443681E+03  0.61784878298E+02 -0.79873676483E+02  0.45520811345E+03  0.12699999809E+01 0. -1.
</event>
<event>
 5   0  0.3608845E-03  0.1004002E+04  0.7818609E-02  0.9304166E-01
        1   -1    0    0  501    0  0.00000000000E+00  0.00000000000E+00  0.72360785108E+03  0.72360785110E+03  0.50400001928E-02 0.  1.
       -1   -1    0    0    0  501  0.00000000000E+00  0.00000000000E+00 -0.34826188046E+03  0.34826188050E+03  0.50400001928E-02 0. -1.
    10030    2    1    2    0    0  0.00000000000E+00  0.00000000000E+00  0.37534597062E+03  0.10718697316E+04  0.10040020537E+04 0.  0.
        1    1    3    3  502    0  0.12139011981E+03 -0.59585571933E+02  0.70379744703E+03  0.71667066916E+03  0.50400001928E-02 0.  1.
       -1    1    3    3    0  502 -0.12139011981E+03  0.59585571933E+02 -0.32845147641E+03  0.35519906243E+03  0.50400001928E-02 0. -1.
</event>
<event>
 5   0  0.6022787E-03  0.9912377E+03  0.7818609E-02  0.9318208E-01
       -2   -1    0    0    0  501  0.00000000000E+00  0.00000000000E+00  0.49207025904E+03  0.49207025904E+03  0.25500000920E-02 0. -1.
        2   -1    0    0  501    0  0.00000000000E+00  0.00000000000E+00 -0.49919304438E+03  0.49919304438E+03  0.25500000920E-02 0.  1.
    10030    2    1    2    0    0  0.00000000000E+00  0.00000000000E+00 -0.71227853407E+01  0.99126330342E+03  0.99123771248E+03 0.  0.
        5    1    3    3  502    0 -0.32683582431E+02 -0.76891334462E+02  0.48495451160E+03  0.49212138970E+03  0.46999998093E+01 0. -1.
       -5    1    3    3    0  502  0.32683582431E+02  0.76891334462E+02 -0.49207729694E+03  0.49914191373E+03  0.46999998093E+01 0.  1.
</event>
<event>
 5   0  0.3569359E-03  0.9941946E+03  0.7818609E-02  0.9314935E-01
       -1   -1    0    0    0  501  0.00000000000E+00  0.00000000000E+00  0.30049484218E+03  0.30049484222E+03  0.50400001928E-02 0.  1.
        1   -1    0    0  501    0  0.00000000000E+00  0.00000000000E+00 -0.82232942395E+03  0.82232942396E+03  0.50400001928E-02 0. -1.
    10030    2    1    2    0    0  0.00000000000E+00  0.00000000000E+00 -0.52183458177E+03  0.11228242662E+04  0.99419464995E+03 0.  0.
        4    1    3    3  502    0  0.48864313265E+02  0.29136798196E+03  0.19058238935E+03  0.35157685085E+03  0.12699999809E+01 0.  1.
       -4    1    3    3    0  502 -0.48864313265E+02 -0.29136798196E+03 -0.71241697112E+03  0.77124741533E+03  0.12699999809E+01 0. -1.
</event>
<event>
 5   0  0.2417750E-03  0.1007992E+04  0.7818609E-02  0.9299822E-01
       -4   -1    0    0    0  501  0.00000000000E+00  0.00000000000E+00  0.11082761308E+04  0.11082768585E+04  0.12699999809E+01 0. -1.
        4   -1    0    0  501    0  0.00000000000E+00  0.00000000000E+00 -0.22919303178E+03  0.22919655041E+03  0.12699999809E+01 0.  1.
    10030    2    1    2    0    0  0.00000000000E+00  0.00000000000E+00  0.87908309906E+03  0.13374734089E+04  0.10079920756E+04 0.  0.
        4    1    3    3  502    0  0.36455012464E+01 -0.46959081494E+03  0.68233163396E+03  0.82831569752E+03  0.12699999809E+01 0.  1.
       -4    1    3    3    0  502 -0.36455012464E+01  0.46959081494E+03  0.19675146510E+03  0.50915771139E+03  0.12699999809E+01 0. -1.
</event>
<event>
 5   0  0.6376961E-03  0.9961880E+03  0.7818609E-02  0.9312736E-01
       -2   -1    0    0    0  501  0.00000000000E+00  0.00000000000E+00  0.21979771979E+03  0.21979771980E+03  0.25500000920E-02 0. -1.
        2   -1    0    0  501    0  0.00000000000E+00  0.00000000000E+00 -0.11287544146E+04  0.11287544146E+04  0.25500000920E-02 0.  1.
    10030    2    1    2    0    0  0.00000000000E+00  0.00000000000E+00 -0.90895669482E+03  0.13485521344E+04  0.99618802752E+03 0.  0.
        3    1    3    3  502    0  0.37254597636E+03  0.28801806584E+03 -0.67423356371E+03  0.82239638824E+03  0.10100000352E+00 0.  1.
       -3    1    3    3    0  502 -0.37254597636E+03 -0.28801806584E+03 -0.23472313111E+03  0.52615574617E+03  0.10100000352E+00 0. -1.
</event>
<event>
 5   0  0.6376961E-03  0.9852521E+03  0.7818609E-02  0.9324870E-01
       -2   -1    0    0    0  501  0.00000000000E+00  0.00000000000E+00  0.18192980666E+03  0.18192980668E+03  0.25500000920E-02 0.  1.
        2   -1    0    0  501    0  0.00000000000E+00  0.00000000000E+00 -0.13339233250E+04  0.13339233250E+04  0.25500000920E-02 0. -1.
    10030    2    1    2    0    0  0.00000000000E+00  0.00000000000E+00 -0.11519935184E+04  0.15158531317E+04  0.98525207462E+03 0.  0.
        3    1    3    3  502    0 -0.35837826578E+02  0.11232052057E+03  0.15990347413E+03  0.19866902223E+03  0.10100000352E+00 0.  1.
       -3    1    3    3    0  502  0.35837826578E+02 -0.11232052057E+03 -0.13118969925E+04  0.13171841095E+04  0.10100000352E+00 0. -1.
</event>
<event>
 5   0  0.3640180E-03  0.9981575E+03  0.7818609E-02  0.9310568E-01
       -1   -1    0    0    0  501  0.00000000000E+00  0.00000000000E+00  0.43009311606E+03  0.43009311608E+03  0.50400001928E-02 0. -1.
        1   -1    0    0  501    0  0.00000000000E+00  0.00000000000E+00 -0.57912951186E+03  0.57912951189E+03  0.50400001928E-02 0.  1.
    10030    2    1    2    0    0  0.00000000000E+00  0.00000000000E+00 -0.14903639581E+03  0.10092226280E+04  0.99815753543E+03 0.  0.
        5    1    3    3  502    0  0.32633945399E+03  0.11350610562E+03  0.28957993169E+03  0.45084332321E+03  0.46999998093E+01 0. -1.
       -5    1    3    3    0  502 -0.32633945399E+03 -0.11350610562E+03 -0.43861632750E+03  0.55837930477E+03  0.46999998093E+01 0.  1.
</event>
<event>
 5   0  0.6022787E-03  0.9557763E+03  0.7818609E-02  0.9358424E-01
        2   -1    0    0  501    0  0.00000000000E+00  0.00000000000E+00  0.74199178073E+03  0.74199178073E+03  0.25500000920E-02 0. -1.
       -2   -1    0    0    0  501  0.00000000000E+00  0.00000000000E+00 -0.30778921445E+03  0.30778921446E+03  0.25500000920E-02 0.  1.
    10030    2    1    2    0    0  0.00000000000E+00  0.00000000000E+00  0.43420256628E+03  0.10497809952E+04  0.95577626530E+03 0.  0.
        5    1    3    3  502    0 -0.17996590432E+03  0.44190183186E+03  0.24595314274E+03  0.53682398805E+03  0.46999998093E+01 0. -1.
       -5    1    3    3    0  502  0.17996590432E+03 -0.44190183186E+03  0.18824942354E+03  0.51295700715E+03  0.46999998093E+01 0.  1.
</event>
<event>
 5   0  0.6376961E-03  0.9987781E+03  0.7818609E-02  0.9309886E-01
        2   -1    0    0  501    0  0.00000000000E+00  0.00000000000E+00  0.80015942872E+03  0.80015942872E+03  0.25500000920E-02 0. -1.
       -2   -1    0    0    0  501  0.00000000000E+00  0.00000000000E+00 -0.31167465142E+03  0.31167465143E+03  0.25500000920E-02 0.  1.
    10030    2    1    2    0    0  0.00000000000E+00  0.00000000000E+00  0.48848477729E+03  0.11118340802E+04  0.99877807552E+03 0.  0.
        3    1    3    3  502    0 -0.12702253463E+03 -0.48283442707E+03  0.25671774488E+03  0.56139809316E+03  0.10100000352E+00 0. -1.
       -3    1    3    3    0  502  0.12702253463E+03  0.48283442707E+03  0.23176703242E+03  0.55043598700E+03  0.10100000352E+00 0.  1.
</event>
<event>
 5   0  0.3466598E-03  0.9808495E+03  0.7818609E-02  0.9329802E-01
       -1   -1    0    0    0  501  0.00000000000E+00  0.00000000000E+00  0.19650682034E+03  0.19650682041E+03  0.50400001928E-02 0. -1.
        1   -1    0    0  501    0  0.00000000000E+00  0.00000000000E+00 -0.12239596481E+04  0.12239596482E+04  0.50400001928E-02 0.  1.
    10030    2    1    2    0    0  0.00000000000E+00  0.00000000000E+00 -0.10274528278E+04  0.14204664686E+04  0.98084946600E+03 0.  0.
        3    1    3    3  502    0 -0.12592562200E+02  0.44485122090E+03 -0.21529443950E+03  0.49437120389E+03  0.10100000352E+00 0. -1.
       -3    1    3    3    0  502  0.12592562200E+02 -0.44485122090E+03 -0.81215838830E+03  0.92609526467E+03  0.10100000352E+00 0.  1.
</event>
<event>
 5   0  0.3466598E-03  0.9957131E+03  0.7818609E-02  0.9313259E-01
        1   -1    0    0  501    0  0.00000000000E+00  0.00000000000E+00  0.11954152877E+04  0.11954152877E+04  0.50400001928E-02 0. -1.
       -1   -1    0    0    0  501  0.00000000000E+00  0.00000000000E+00 -0.20734313096E+03  0.20734313103E+03  0.50400001928E-02 0.  1.
    10030    2    1    2    0    0  0.00000000000E+00  0.00000000000E+00  0.98807215676E+03  0.14027584188E+04  0.99571310850E+03 0.  0.
        3    1    3    3  502    0 -0.11139781427E+03 -0.47270307695E+03  0.33968772518E+03  0.59265962645E+03  0.10100000352E+00 0.  1.
       -3    1    3    3    0  502  0.11139781427E+03  0.47270307695E+03  0.64838443158E+03  0.81009879231E+03  0.10100000352E+00 0. -1.
</event>
<event>
 5   0  0.3569359E-03  0.9694090E+03  0.7818609E-02  0.9342748E-01
       -1   -1    0    0    0  501  0.00000000000E+00  0.00000000000E+00  0.29356325641E+03  0.29356325646E+03  0.50400001928E-02 0. -1.
        1   -1    0    0  501    0  0.00000000000E+00  0.00000000000E+00 -0.80029925018E+03  0.80029925020E+03  0.50400001928E-02 0.  1.
    10030    2    1    2    0    0  0.00000000000E+00  0.00000000000E+00 -0.50673599377E+03  0.10938625067E+04  0.96940900351E+03 0.  0.
        4    1    3    3  502    0 -0.33940733538E+03  0.33600005932E+03 -0.16002244750E+03  0.50368857023E+03  0.12699999809E+01 0. -1.
       -4    1    3    3    0  502  0.33940733538E+03 -0.33600005932E+03 -0.34671354626E+03  0.59017393643E+03  0.12699999809E+01 0.  1.
</event>
<event>
 5   0  0.2417750E-03  0.9793081E+03  0.7818609E-02  0.9331535E-01
       -3   -1    0    0    0  501  0.00000000000E+00  0.00000000000E+00  0.82072848533E+03  0.82072849155E+03  0.10100000352E+00 0.  1.
        3   -1    0    0  501    0  0.00000000000E+00  0.00000000000E+00 -0.29213200105E+03  0.29213201851E+03  0.10100000352E+00 0. -1.
    10030    2    1    2    0    0  0.00000000000E+00  0.00000000000E+00  0.52859648428E+03  0.11128605101E+04  0.97930805758E+03 0.  0.
        5    1    3    3  502    0 -0.12018208405E+03 -0.15180575690E+03  0.77535124527E+03  0.79917480234E+03  0.46999998093E+01 0.  1.
       -5    1    3    3    0  502  0.12018208405E+03  0.15180575690E+03 -0.24675476099E+03  0.31368570771E+03  0.46999998093E+01 0. -1.
</event>
<event>
 5   0  0.6606947E-03  0.1017173E+04  0.7818609E-02  0.9289907E-01
        2   -1    0    0  501    0  0.00000000000E+00  0.00000000000E+00  0.19986471669E+04  0.19986471669E+04  0.25500000920E-02 0.  1.
       -2   -1    0    0    0  501  0.00000000000E+00  0.00000000000E+00 -0.12941777885E+03  0.12941777887E+03  0.25500000920E-02 0. -1.
    10030    2    1    2    0    0  0.00000000000E+00  0.00000000000E+00  0.18692293881E+04  0.21280649458E+04  0.10171734898E+04 0.  0.
        1    1    3    3  502    0 -0.21763559555E+03  0.11920059979E+03  0.18634061665E+04  0.18798554670E+04  0.50400001928E-02 0.  1.
       -1    1    3    3    0  502  0.21763559555E+03 -0.11920059979E+03  0.58232215994E+01  0.24820947882E+03  0.50400001928E-02 0. -1.
</event>
<event>
 5   0  0.2417750E-03  0.9877725E+03  0.7818609E-02  0.9322058E-01
       -4   -1    0    0    0  501  0.00000000000E+00  0.00000000000E+00  0.56898742998E+03  0.56898884732E+03  0.12699999809E+01 0.  1.
        4   -1    0    0  501    0  0.00000000000E+00  0.00000000000E+00 -0.42869485819E+03  0.42869673936E+03  0.12699999809E+01 0. -1.
    10030    2    1    2    0    0  0.00000000000E+00  0.00000000000E+00  0.14029257179E+03  0.99768558669E+03  0.98777250629E+03 0.  0.
        4    1    3    3  502    0 -0.41731376040E+03 -0.17969920523E+03 -0.12539267640E+03  0.47134649163E+03  0.12699999809E+01 0. -1.
       -4    1    3    3    0  502  0.41731376040E+03  0.17969920523E+03  0.26568524819E+03  0.52633909506E+03  0.12699999809E+01 0.  1.
</event>
<event>
 5   0  0.6199539E-03  0.1004166E+04  0.7818609E-02  0.9303988E-01
        2   -1    0    0  501    0  0.00000000000E+00  0.00000000000E+00  0.19066072474E+03  0.19066072476E+03  0.25500000920E-02 0.  1.
       -2   -1    0    0    0  501  0.00000000000E+00  0.00000000000E+00 -0.13221770088E+04  0.13221770089E+04  0.25500000920E-02 0. -1.
    10030    2    1    2    0    0  0.00000000000E+00  0.00000000000E+00 -0.11315162841E+04  0.15128377336E+04  0.10041657767E+04 0.  0.
        2    1    3    3  502    0  0.10871802983E+02 -0.34137075615E+03 -0.11320831148E+02  0.34173140108E+03  0.25500000920E-02 0.  1.
       -2    1    3    3    0  502 -0.10871802983E+02  0.34137075615E+03 -0.11201954530E+04  0.11711063325E+04  0.25500000920E-02 0. -1.
</event>
<event>
 5   0  0.6376961E-03  0.9710830E+03  0.7818609E-02  0.9340842E-01
        2   -1    0    0  501    0  0.00000000000E+00  0.00000000000E+00  0.78534205810E+03  0.78534205811E+03  0.25500000920E-02 0. -1.
       -2   -1    0    0    0  501  0.00000000000E+00  0.00000000000E+00 -0.30018833932E+03  0.30018833933E+03  0.25500000920E-02 0.  1.
    10030    2    1    2    0    0  0.00000000000E+00  0.00000000000E+00  0.48515371879E+03  0.10855303974E+04  0.97108295881E+03 0.  0.
        3    1    3    3  502    0  0.33055077700E+03 -0.25741065298E+03  0.51691065737E+03  0.66537260114E+03  0.10100000352E+00 0. -1.
       -3    1    3    3    0  502 -0.33055077700E+03  0.25741065298E+03 -0.31756938580E+02  0.42015779630E+03  0.10100000352E+00 0.  1.
</event>
<event>
 5   0  0.3643002E-03  0.9959178E+03  0.7818609E-02  0.9313033E-01
        1   -1    0    0  501    0  0.00000000000E+00  0.00000000000E+00  0.34033234351E+03  0.34033234355E+03  0.50400001928E-02 0. -1.
       -1   -1    0    0    0  501  0.00000000000E+00  0.00000000000E+00 -0.72859100186E+03  0.72859100188E+03  0.50400001928E-02 0.  1.
    10030    2    1    2    0    0  0.00000000000E+00  0.00000000000E+00 -0.38825865835E+03  0.10689233454E+04  0.99591783427E+03 0.  0.
        2    1    3    3  502    0 -0.49778163486E+03 -0.11896364824E+02 -0.18777924157E+03  0.53215516823E+03  0.25500000920E-02 0. -1.
       -2    1    3    3    0  502  0.49778163486E+03  0.11896364824E+02 -0.20047941678E+03  0.53676817720E+03  0.25500000920E-02 0.  1.
</event>
<event>
 5   0  0.3608845E-03  0.9781324E+03  0.7818609E-02  0.9332859E-01
        1   -1    0    0  501    0  0.00000000000E+00  0.00000000000E+00  0.11949951473E+04  0.11949951473E+04  0.50400001928E-02 0. -1.
       -1   -1    0    0    0  501  0.00000000000E+00  0.00000000000E+00 -0.20015625184E+03  0.20015625190E+03  0.50400001928E-02 0.  1.
    10030    2    1    2    0    0  0.00000000000E+00  0.00000000000E+00  0.99483889550E+03  0.13951513992E+04  0.97813240352E+03 0.  0.
        1    1    3    3  502    0  0.25553545676E+03 -0.21261072129E+03  0.10090848736E+04  0.10624283367E+04  0.50400001928E-02 0. -1.
       -1    1    3    3    0  502 -0.25553545676E+03  0.21261072129E+03 -0.14245978054E+02  0.33272306259E+03  0.50400001928E-02 0.  1.
</event>
<event>
 5   0  0.6376961E-03  0.1001978E+04  0.7818609E-02  0.9306378E-01
        2   -1    0    0  501    0  0.00000000000E+00  0.00000000000E+00  0.94117375614E+03  0.94117375614E+03  0.25500000920E-02 0. -1.
       -2   -1    0    0    0  501  0.00000000000E+00  0.00000000000E+00 -0.26667749095E+03  0.26667749096E+03  0.25500000920E-02 0.  1.
    10030    2    1    2    0    0  0.00000000000E+00  0.00000000000E+00  0.67449626519E+03  0.12078512471E+04  0.10019777559E+04 0.  0.
        3    1    3    3  502    0  0.25636865737E+03  0.24763361238E+01 -0.18160545541E+03  0.31418397852E+03  0.10100000352E+00 0.  1.
       -3    1    3    3    0  502 -0.25636865737E+03 -0.24763361238E+01  0.85610172060E+03  0.89366726858E+03  0.10100000352E+00 0. -1.
</event>
<event>
 5   0  0.6022787E-03  0.9782314E+03  0.7818609E-02  0.9332748E-01
        2   -1    0    0  501    0  0.00000000000E+00  0.00000000000E+00  0.12183605329E+04  0.12183605329E+04  0.25500000920E-02 0. -1.
       -2   -1    0    0    0  501  0.00000000000E+00  0.00000000000E+00 -0.19635746442E+03  0.19635746444E+03  0.25500000920E-02 0.  1.
    10030    2    1    2    0    0  0.00000000000E+00  0.00000000000E+00  0.10220030685E+04  0.14147179973E+04  0.97823143479E+03 0.  0.
        5    1    3    3  502    0 -0.85277519412E+02  0.26252995969E+03  0.10949114600E+04  0.11291799813E+04  0.46999998093E+01 0. -1.
       -5    1    3    3    0  502  0.85277519412E+02 -0.26252995969E+03 -0.72908391479E+02  0.28553801603E+03  0.46999998093E+01 0.  1.
</event>
<event>
 5   0  0.3466598E-03  0.1028479E+04  0.7818609E-02  0.9277850E-01
        1   -1    0    0  501    0  0.00000000000E+00  0.00000000000E+00  0.40315229422E+03  0.40315229425E+03  0.50400001928E-02 0.  1.
       -1   -1    0    0    0  501  0.00000000000E+00  0.00000000000E+00 -0.65593586082E+03  0.65593586084E+03  0.50400001928E-02 0. -1.
    10030    2    1    2    0    0  0.00000000000E+00  0.00000000000E+00 -0.25278356660E+03  0.10590881551E+04  0.10284785796E+04 0.  0.
        3    1    3    3  502    0 -0.37688126588E+03 -0.27005250951E+03 -0.35543962746E+03  0.58421330474E+03  0.10100000352E+00 0. -1.
       -3    1    3    3    0  502  0.37688126588E+03  0.27005250951E+03  0.10265606086E+03  0.47487485035E+03  0.10100000352E+00 0.  1.
</event>
<event>
 5   0  0.3643002E-03  0.9701166E+03  0.7818609E-02  0.9341942E-01
       -1   -1    0    0    0  501  0.00000000000E+00  0.00000000000E+00  0.55521550015E+03  0.55521550017E+03  0.50400001928E-02 0.  1.
        1   -1    0    0  501    0  0.00000000000E+00  0.00000000000E+00 -0.42376615088E+03  0.42376615091E+03  0.50400001928E-02 0. -1.
    10030    2    1    2    0    0  0.00000000000E+00  0.00000000000E+00  0.13144934927E+03  0.97898165108E+03  0.97011656090E+03 0.  0.
        2    1    3    3  502    0 -0.29036357600E+03  0.31037494355E+03  0.30160826343E+03  0.52116327233E+03  0.25500000920E-02 0.  1.
       -2    1    3    3    0  502  0.29036357600E+03 -0.31037494355E+03 -0.17015891416E+03  0.45781837875E+03  0.25500000920E-02 0. -1.
</event>
<event>
 5   0  0.3643002E-03  0.9928102E+03  0.7818609E-02  0.9316466E-01
        1   -1    0    0  501    0  0.00000000000E+00  0.00000000000E+00  0.18637998299E+04  0.18637998300E+04  0.50400001928E-02 0. -1.
       -1   -1    0    0    0  501  0.00000000000E+00  0.00000000000E+00 -0.13221271621E+03  0.13221271630E+03  0.50400001928E-02 0.  1.
    10030    2    1    2    0    0  0.00000000000E+00  0.00000000000E+00  0.17315871137E+04  0.19960125463E+04  0.99281022977E+03 0.  0.
        2    1    3    3  502    0 -0.34228190467E+03  0.10504817468E+03  0.15570728568E+04  0.15977070766E+04  0.25500000920E-02 0. -1.
       -2    1    3    3    0  502  0.34228190467E+03 -0.10504817468E+03  0.17451425696E+03  0.39830546966E+03  0.25500000920E-02 0.  1.
</event>
<event>
 5   0  0.6360455E-03  0.9983110E+03  0.7818609E-02  0.9310399E-01
        2   -1    0    0  501    0  0.00000000000E+00  0.00000000000E+00  0.21838270879E+03  0.21838270880E+03  0.25500000920E-02 0.  1.
       -2   -1    0    0    0  501  0.00000000000E+00  0.00000000000E+00 -0.11409155417E+04  0.11409155417E+04  0.25500000920E-02 0. -1.
    10030    2    1    2    0    0  0.00000000000E+00  0.00000000000E+00 -0.92253283290E+03  0.13592982505E+04  0.99831102670E+03 0.  0.
        4    1    3    3  502    0 -0.79301105143E+02 -0.43377636790E+03 -0.77972904485E+03  0.89578434843E+03  0.12699999809E+01 0. -1.
       -4    1    3    3    0  502  0.79301105143E+02  0.43377636790E+03 -0.14280378806E+03  0.46351390207E+03  0.12699999809E+01 0.  1.
</event>
<event>
 5   0  0.3640180E-03  0.9903083E+03  0.7818609E-02  0.9319239E-01
        1   -1    0    0  501    0  0.00000000000E+00  0.00000000000E+00  0.33216077668E+03  0.33216077672E+03  0.50400001928E-02 0. -1.
       -1   -1    0    0    0  501  0.00000000000E+00  0.00000000000E+00 -0.73812937568E+03  0.73812937570E+03  0.50400001928E-02 0.  1.
    10030    2    1    2    0    0  0.00000000000E+00  0.00000000000E+00 -0.40596859900E+03  0.10702901524E+04  0.99030828886E+03 0.  0.
        5    1    3    3  502    0  0.24556308615E+03 -0.11316277311E+03  0.24530312235E+03  0.36510649724E+03  0.46999998093E+01 0. -1.
       -5    1    3    3    0  502 -0.24556308615E+03  0.11316277311E+03 -0.65127172135E+03  0.70518365517E+03  0.46999998093E+01 0.  1.
</event>
<event>
 5   0  0.6022787E-03  0.9895618E+03  0.7818609E-02  0.9320068E-01
       -2   -1    0    0    0  501  0.00000000000E+00  0.00000000000E+00  0.18381112771E+03  0.18381112773E+03  0.25500000920E-02 0.  1.
        2   -1    0    0  501    0  0.00000000000E+00  0.00000000000E+00 -0.13318460010E+04  0.13318460010E+04  0.25500000920E-02 0. -1.
    10030    2    1    2    0    0  0.00000000000E+00  0.00000000000E+00 -0.11480348733E+04  0.15156571287E+04  0.98956175229E+03 0.  0.
        5    1    3    3  502    0  0.39895272365E+03  0.26343313402E+03 -0.76911876940E+03  0.90560811792E+03  0.46999998093E+01 0. -1.
       -5    1    3    3    0  502 -0.39895272365E+03 -0.26343313402E+03 -0.37891610389E+03  0.61004901081E+03  0.46999998093E+01 0.  1.
</event>
<event>
 5   0  0.3643002E-03  0.1130226E+04  0.7818609E-02  0.9176223E-01
       -1   -1    0    0    0  501  0.00000000000E+00  0.00000000000E+00  0.20563441108E+03  0.20563441114E+03  0.50400001928E-02 0.  1.
        1   -1    0    0  501    0  0.00000000000E+00  0.00000000000E+00 -0.15530106272E+04  0.15530106272E+04  0.50400001928E-02 0. -1.
    10030    2    1    2    0    0  0.00000000000E+00  0.00000000000E+00 -0.13473762161E+04  0.17586450383E+04  0.11302255099E+04 0.  0.
        2    1    3    3  502    0  0.37773822991E+03  0.16881970875E+03 -0.12726340138E+04  0.13382016281E+04  0.25500000920E-02 0. -1.
       -2    1    3    3    0  502 -0.37773822991E+03 -0.16881970875E+03 -0.74742202307E+02  0.42044341023E+03  0.25500000920E-02 0.  1.
</event>
<event>
 5   0  0.6606947E-03  0.9949490E+03  0.7818609E-02  0.9314102E-01
        2   -1    0    0  501    0  0.00000000000E+00  0.00000000000E+00  0.11361502753E+04  0.11361502753E+04  0.25500000920E-02 0. -1.
       -2   -1    0    0    0  501  0.00000000000E+00  0.00000000000E+00 -0.21782408935E+03  0.21782408937E+03  0.25500000920E-02 0.  1.
    10030    2    1    2    0    0  0.00000000000E+00  0.00000000000E+00  0.91832618597E+03  0.13539743647E+04  0.99494904212E+03 0.  0.
        1    1    3    3  502    0 -0.20696583268E+03 -0.19076033311E+03 -0.99044292910E+02  0.29838587863E+03  0.50400001928E-02 0.  1.
       -1    1    3    3    0  502  0.20696583268E+03  0.19076033311E+03  0.10173704789E+04  0.10555884861E+04  0.50400001928E-02 0. -1.
</event>
<event>
 5   0  0.3640180E-03  0.1001917E+04  0.7818609E-02  0.9306445E-01
       -1   -1    0    0    0  501  0.00000000000E+00  0.00000000000E+00  0.24636143182E+03  0.24636143187E+03  0.50400001928E-02 0.  1.
        1   -1    0    0  501    0  0.00000000000E+00  0.00000000000E+00 -0.10186628814E+04  0.10186628814E+04  0.50400001928E-02 0. -1.
    10030    2    1    2    0    0  0.00000000000E+00  0.00000000000E+00 -0.77230144954E+03  0.12650243132E+04  0.10019166553E+04 0.  0.
        5    1    3    3  502    0 -0.76157670213E+02 -0.47965937982E+03 -0.54111731368E+03  0.72711976217E+03  0.46999998093E+01 0. -1.
       -5    1    3    3    0  502  0.76157670213E+02  0.47965937982E+03 -0.23118413586E+03  0.53790455107E+03  0.46999998093E+01 0.  1.
</event>
<event>
 5   0  0.2417750E-03  0.1007157E+04  0.7818609E-02  0.9300730E-01
        4   -1    0    0  501    0  0.00000000000E+00  0.00000000000E+00  0.73157993677E+03  0.73158103911E+03  0.12699999809E+01 0.  1.
       -4   -1    0    0    0  501  0.00000000000E+00  0.00000000000E+00 -0.34663275317E+03  0.34663507969E+03  0.12699999809E+01 0. -1.
    10030    2    1    2    0    0  0.00000000000E+00  0.00000000000E+00  0.38494718360E+03  0.10782161188E+04  0.10071572194E+04 0.  0.
        5    1    3    3  502    0  0.39149706985E+02  0.44640379713E+03 -0.53428419749E+02  0.45131556109E+03  0.46999998093E+01 0. -1.
       -5    1    3    3    0  502 -0.39149706985E+02 -0.44640379713E+03  0.43837560334E+03  0.62690055771E+03  0.46999998093E+01 0.  1.
</event>
<event>
 5   0  0.6199539E-03  0.1013770E+04  0.7818609E-02  0.9293570E-01
        2   -1    0    0  501    0  0.00000000000E+00  0.00000000000E+00  0.35513171130E+03  0.35513171131E+03  0.25500000920E-02 0.  1.
       -2   -1    0    0    0  501  0.00000000000E+00  0.00000000000E+00 -0.72348420764E+03  0.72348420764E+03  0.25500000920E-02 0. -1.
    10030    2    1    2    0    0  0.00000000000E+00  0.00000000000E+00 -0.36835249634E+03  0.10786159190E+04  0.10137695690E+04 0.  0.
        2    1    3    3  502    0  0.29391527323E+03  0.30103133448E+03  0.11661969496E+03  0.43658470591E+03  0.25500000920E-02 0.  1.
       -2    1    3    3    0  502 -0.29391527323E+03 -0.30103133448E+03 -0.48497219130E+03  0.64203121304E+03  0.25500000920E-02 0. -1.
</event>
<event>
 5   0  0.6199539E-03  0.1019973E+04  0.7818609E-02  0.9286906E-01
       -2   -1    0    0    0  501  0.00000000000E+00  0.00000000000E+00  0.20058274691E+03  0.20058274693E+03  0.25500000920E-02 0.  1.
        2   -1    0    0  501    0  0.00000000000E+00  0.00000000000E+00 -0.12966528866E+04  0.12966528866E+04  0.25500000920E-02 0. -1.
    10030    2    1    2    0    0  0.00000000000E+00  0.00000000000E+00 -0.10960701396E+04  0.14972356335E+04  0.10199729365E+04 0.  0.
        2    1    3    3  502    0 -0.12275847560E+03 -0.46672689205E+02  0.17533414411E+03  0.21906630354E+03  0.25500000920E-02 0.  1.
       -2    1    3    3    0  502  0.12275847560E+03  0.46672689205E+02 -0.12714042838E+04  0.12781693299E+04  0.25500000920E-02 0. -1.
</event>
<event>
 5   0  0.6360455E-03  0.9901238E+03  0.7818609E-02  0.9319444E-01
       -2   -1    0    0    0  501  0.00000000000E+00  0.00000000000E+00  0.44201754512E+03  0.44201754512E+03  0.25500000920E-02 0.  1.
        2   -1    0    0  501    0  0.00000000000E+00  0.00000000000E+00 -0.55447183672E+03  0.55447183673E+03  0.25500000920E-02 0. -1.
    10030    2    1    2    0    0  0.00000000000E+00  0.00000000000E+00 -0.11245429160E+03  0.99648938185E+03  0.99012379046E+03 0.  0.
        4    1    3    3  502    0  0.16370604958E+03 -0.46711956903E+03 -0.46986352423E+02  0.49720186308E+03  0.12699999809E+01 0. -1.
       -4    1    3    3    0  502 -0.16370604958E+03  0.46711956903E+03 -0.65467939182E+02  0.49928751877E+03  0.12699999809E+01 0.  1.
</event>
<event>
 5   0  0.6199539E-03  0.9845008E+03  0.7818609E-02  0.9325709E-01
        2   -1    0    0  501    0  0.00000000000E+00  0.00000000000E+00  0.19942850541E+04  0.19942850541E+04  0.25500000920E-02 0. -1.
       -2   -1    0    0    0  501  0.00000000000E+00  0.00000000000E+00 -0.12150240800E+03  0.12150240803E+03  0.25500000920E-02 0.  1.
    10030    2    1    2    0    0  0.00000000000E+00  0.00000000000E+00  0.18727826461E+04  0.21157874622E+04  0.98450075946E+03 0.  0.
        2    1    3    3  502    0  0.28872067161E+03  0.39456422970E+03  0.81349983325E+03  0.94911671373E+03  0.25500000920E-02 0.  1.
       -2    1    3    3    0  502 -0.28872067161E+03 -0.39456422970E+03  0.10592828129E+04  0.11666707484E+04  0.25500000920E-02 0. -1.
</event>
<event>
 5   0  0.6199539E-03  0.1000780E+04  0.7818609E-02  0.9307689E-01
       -2   -1    0    0    0  501  0.00000000000E+00  0.00000000000E+00  0.23473382599E+03  0.23473382600E+03  0.25500000920E-02 0.  1.
        2   -1    0    0  501    0  0.00000000000E+00  0.00000000000E+00 -0.10666986607E+04  0.10666986607E+04  0.25500000920E-02 0. -1.
    10030    2    1    2    0    0  0.00000000000E+00  0.00000000000E+00 -0.83196483468E+03  0.13014324867E+04  0.10007802112E+04 0.  0.
        2    1    3    3  502    0  0.35437628442E+03  0.10560169683E+03  0.22426213959E+02  0.37045540138E+03  0.25500000920E-02 0.  1.
       -2    1    3    3    0  502 -0.35437628442E+03 -0.10560169683E+03 -0.85439104864E+03  0.93097708529E+03  0.25500000920E-02 0. -1.
</event>
<event>
 5   0  0.6376961E-03  0.1005927E+04  0.7818609E-02  0.9302068E-01
        2   -1    0    0  501    0  0.00000000000E+00  0.00000000000E+00  0.46728402556E+03  0.46728402557E+03  0.25500000920E-02 0.  1.
       -2   -1    0    0    0  501  0.00000000000E+00  0.00000000000E+00 -0.54136709598E+03  0.54136709599E+03  0.25500000920E-02 0. -1.
    10030    2    1    2    0    0  0.00000000000E+00  0.00000000000E+00 -0.74083070416E+02  0.10086511216E+04  0.10059268282E+04 0.  0.
        3    1    3    3  502    0  0.34192953966E+03 -0.13414570815E+03  0.30748951960E+03  0.47902055903E+03  0.10100000352E+00 0.  1.
       -3    1    3    3    0  502 -0.34192953966E+03  0.13414570815E+03 -0.38157259002E+03  0.52963056253E+03  0.10100000352E+00 0. -1.
</event>
<event>
 5   0  0.3569359E-03  0.1004637E+04  0.7818609E-02  0.9303473E-01
       -1   -1    0    0    0  501  0.00000000000E+00  0.00000000000E+00  0.42353758146E+03  0.42353758149E+03  0.50400001928E-02 0.  1.
        1   -1    0    0  501    0  0.00000000000E+00  0.00000000000E+00 -0.59575357806E+03  0.59575357808E+03  0.50400001928E-02 0. -1.
    10030    2    1    2    0    0  0.00000000000E+00  0.00000000000E+00 -0.17221599660E+03  0.10192911596E+04  0.10046373069E+04 0.  0.
        4    1    3    3  502    0  0.44706357915E+03 -0.13685853419E+03 -0.27243397182E+03  0.54112658786E+03  0.12699999809E+01 0. -1.
       -4    1    3    3    0  502 -0.44706357915E+03  0.13685853419E+03  0.10021797522E+03  0.47816457171E+03  0.12699999809E+01 0.  1.
</event>
<event>
 5   0  0.3608845E-03  0.1005373E+04  0.7818609E-02  0.9302671E-01
       -1   -1    0    0    0  501  0.00000000000E+00  0.00000000000E+00  0.75573754004E+03  0.75573754006E+03  0.50400001928E-02 0.  1.
        1   -1    0    0  501    0  0.00000000000E+00  0.00000000000E+00 -0.33436723537E+03  0.33436723541E+03  0.50400001928E-02 0. -1.
    10030    2    1    2    0    0  0.00000000000E+00  0.00000000000E+00  0.42137030467E+03  0.10901047755E+04  0.10053733077E+04 0.  0.
        1    1    3    3  502    0 -0.47626472372E+03  0.71164402614E+02  0.36706734800E+03  0.60550053448E+03  0.50400001928E-02 0.  1.
       -1    1    3    3    0  502  0.47626472372E+03 -0.71164402614E+02  0.54302956662E+02  0.48460424099E+03  0.50400001928E-02 0. -1.
</event>
<event>
 5   0  0.3466598E-03  0.9948675E+03  0.7818609E-02  0.9314192E-01
       -1   -1    0    0    0  501  0.00000000000E+00  0.00000000000E+00  0.19409916273E+03  0.19409916279E+03  0.50400001928E-02 0.  1.
        1   -1    0    0  501    0  0.00000000000E+00  0.00000000000E+00 -0.12748140187E+04  0.12748140187E+04  0.50400001928E-02 0. -1.
    10030    2    1    2    0    0  0.00000000000E+00  0.00000000000E+00 -0.10807148559E+04  0.14689131815E+04  0.99486749613E+03 0.  0.
        3    1    3    3  502    0 -0.44408158351E+03 -0.10935200673E+03 -0.25150044876E+03  0.52193754427E+03  0.10100000352E+00 0.  1.
       -3    1    3    3    0  502  0.44408158351E+03  0.10935200673E+03 -0.82921440719E+03  0.94697563721E+03  0.10100000352E+00 0. -1.
</event>
<event>
 5   0  0.2417750E-03  0.9997685E+03  0.7818609E-02  0.9308799E-01
       -3   -1    0    0    0  501  0.00000000000E+00  0.00000000000E+00  0.17810616762E+03  0.17810619625E+03  0.10100000352E+00 0.  1.
        3   -1    0    0  501    0  0.00000000000E+00  0.00000000000E+00 -0.14030073489E+04  0.14030073526E+04  0.10100000352E+00 0. -1.
    10030    2    1    2    0    0  0.00000000000E+00  0.00000000000E+00 -0.12249011813E+04  0.15811135488E+04  0.99976854835E+03 0.  0.
        5    1    3    3  502    0 -0.30911386137E+03 -0.25607426066E+03 -0.10835531356E+04  0.11555236449E+04  0.46999998093E+01 0. -1.
       -5    1    3    3    0  502  0.30911386137E+03  0.25607426066E+03 -0.14134804568E+03  0.42558990388E+03  0.46999998093E+01 0.  1.
</event>
<event>
 5   0  0.3643002E-03  0.9943532E+03  0.7818609E-02  0.9314760E-01
        1   -1    0    0  501    0  0.00000000000E+00  0.00000000000E+00  0.49241740953E+03  0.49241740956E+03  0.50400001928E-02 0. -1.
       -1   -1    0    0    0  501  0.00000000000E+00  0.00000000000E+00 -0.50198174628E+03  0.50198174630E+03  0.50400001928E-02 0.  1.
    10030    2    1    2    0    0  0.00000000000E+00  0.00000000000E+00 -0.95643367440E+01  0.99439915586E+03  0.99435315892E+03 0.  0.
        2    1    3    3  502    0 -0.19733961782E+03  0.25122594025E+03  0.37619103315E+03  0.49353529889E+03  0.25500000920E-02 0. -1.
       -2    1    3    3    0  502  0.19733961782E+03 -0.25122594025E+03 -0.38575536990E+03  0.50086385698E+03  0.25500000920E-02 0.  1.
</event>
<event>
 5   0  0.3608845E-03  0.9894346E+03  0.7818609E-02  0.9320209E-01
        1   -1    0    0  501    0  0.00000000000E+00  0.00000000000E+00  0.55517891129E+03  0.55517891132E+03  0.50400001928E-02 0.  1.
       -1   -1    0    0    0  501  0.00000000000E+00  0.00000000000E+00 -0.44084027042E+03  0.44084027045E+03  0.50400001928E-02 0. -1.
    10030    2    1    2    0    0  0.00000000000E+00  0.00000000000E+00  0.11433864088E+03  0.99601918176E+03  0.98943462929E+03 0.  0.
        1    1    3    3  502    0 -0.41402971085E+03  0.16668423321E+03 -0.15765419154E+03  0.47334879234E+03  0.50400001928E-02 0. -1.
       -1    1    3    3    0  502  0.41402971085E+03 -0.16668423321E+03  0.27199283241E+03  0.52267038942E+03  0.50400001928E-02 0.  1.
</event>
<event>
 5   0  0.6360455E-03  0.1021186E+04  0.7818609E-02  0.9285609E-01
       -2   -1    0    0    0  501  0.00000000000E+00  0.00000000000E+00  0.31732740657E+03  0.31732740658E+03  0.25500000920E-02 0.  1.
        2   -1    0    0  501    0  0.00000000000E+00  0.00000000000E+00 -0.82156501919E+03  0.82156501919E+03  0.25500000920E-02 0. -1.
    10030    2    1    2    0    0  0.00000000000E+00  0.00000000000E+00 -0.50423761262E+03  0.11388924258E+04  0.10211857752E+04 0.  0.
        4    1    3    3  502    0  0.12710347381E+02  0.48064960154E+03 -0.44372988452E+03  0.65428083856E+03  0.12699999809E+01 0. -1.
       -4    1    3    3    0  502 -0.12710347381E+02 -0.48064960154E+03 -0.60507728097E+02  0.48461158721E+03  0.12699999809E+01 0.  1.
</event>
<event>
 5   0  0.6360455E-03  0.9946766E+03  0.7818609E-02  0.9314403E-01
       -2   -1    0    0    0  501  0.00000000000E+00  0.00000000000E+00  0.63521570386E+03  0.63521570387E+03  0.25500000920E-02 0. -1.
        2   -1    0    0  501    0  0.00000000000E+00  0.00000000000E+00 -0.38938803990E+03  0.38938803991E+03  0.25500000920E-02 0.  1.
    10030    2    1    2    0    0  0.00000000000E+00  0.00000000000E+00  0.24582766396E+03  0.10246037438E+04  0.99467662655E+03 0.  0.
        4    1    3    3  502    0 -0.74508669812E+02 -0.38093014569E+03 -0.19738280574E+03  0.43545482277E+03  0.12699999809E+01 0. -1.
       -4    1    3    3    0  502  0.74508669812E+02  0.38093014569E+03  0.44321046969E+03  0.58914892101E+03  0.12699999809E+01 0.  1.
</event>
<event>
 5   0  0.6199539E-03  0.9971759E+03  0.7818609E-02  0.9311648E-01
        2   -1    0    0  501    0  0.00000000000E+00  0.00000000000E+00  0.63059313871E+03  0.63059313871E+03  0.25500000920E-02 0.  1.
       -2   -1    0    0    0  501  0.00000000000E+00  0.00000000000E+00 -0.39421602350E+03  0.39421602351E+03  0.25500000920E-02 0. -1.
    10030    2    1    2    0    0  0.00000000000E+00  0.00000000000E+00  0.23637711520E+03  0.10248091622E+04  0.99717585129E+03 0.  0.
        2    1    3    3  502    0  0.35597074643E+03  0.34306913808E+03  0.18461970784E+03  0.52772724238E+03  0.25500000920E-02 0.  1.
       -2    1    3    3    0  502 -0.35597074643E+03 -0.34306913808E+03  0.51757407363E+02  0.49708191985E+03  0.25500000920E-02 0. -1.
</event>
<event>
 5   0  0.3640180E-03  0.1004813E+04  0.7818609E-02  0.9303281E-01
        1   -1    0    0  501    0  0.00000000000E+00  0.00000000000E+00  0.10484952600E+04  0.10484952600E+04  0.50400001928E-02 0.  1.
       -1   -1    0    0    0  501  0.00000000000E+00  0.00000000000E+00 -0.24073774773E+03  0.24073774778E+03  0.50400001928E-02 0. -1.
    10030    2    1    2    0    0  0.00000000000E+00  0.00000000000E+00  0.80775751224E+03  0.12892330078E+04  0.10048131915E+04 0.  0.
        5    1    3    3  502    0 -0.27477123909E+03  0.17923417779E+03  0.89205836499E+03  0.95048111021E+03  0.46999998093E+01 0.  1.
       -5    1    3    3    0  502  0.27477123909E+03 -0.17923417779E+03 -0.84300852754E+02  0.33875189755E+03  0.46999998093E+01 0. -1.
</event>
<event>
 5   0  0.3569359E-03  0.1006695E+04  0.7818609E-02  0.9301232E-01
        1   -1    0    0  501    0  0.00000000000E+00  0.00000000000E+00  0.11415187207E+04  0.11415187207E+04  0.50400001928E-02 0.  1.
       -1   -1    0    0    0  501  0.00000000000E+00  0.00000000000E+00 -0.22194893592E+03  0.22194893597E+03  0.50400001928E-02 0. -1.
    10030    2    1    2    0    0  0.00000000000E+00  0.00000000000E+00  0.91956978480E+03  0.13634676567E+04  0.10066953172E+04 0.  0.
        4    1    3    3  502    0 -0.31389992164E+03  0.25958067062E+03  0.86028879432E+03  0.95184752345E+03  0.12699999809E+01 0.  1.
       -4    1    3    3    0  502  0.31389992164E+03 -0.25958067062E+03  0.59280990479E+02  0.41162013325E+03  0.12699999809E+01 0. -1.
</event>
<event>
 5   0  0.3466598E-03  0.1005676E+04  0.7818609E-02  0.9302342E-01
       -1   -1    0    0    0  501  0.00000000000E+00  0.00000000000E+00  0.10277636015E+04  0.10277636015E+04  0.50400001928E-02 0.  1.
        1   -1    0    0  501    0  0.00000000000E+00  0.00000000000E+00 -0.24601566633E+03  0.24601566638E+03  0.50400001928E-02 0. -1.
    10030    2    1    2    0    0  0.00000000000E+00  0.00000000000E+00  0.78174793514E+03  0.12737792679E+04  0.10056757873E+04 0.  0.
        3    1    3    3  502    0 -0.23821630147E+03 -0.36818800206E+03  0.70250803554E+03  0.82814670280E+03  0.10100000352E+00 0.  1.
       -3    1    3    3    0  502  0.23821630147E+03  0.36818800206E+03  0.79239899594E+02  0.44563256506E+03  0.10100000352E+00 0. -1.
</event>
<event>
 5   0  0.2417750E-03  0.9829887E+03  0.7818609E-02  0.9327402E-01
        3   -1    0    0  501    0  0.00000000000E+00  0.00000000000E+00  0.22521876075E+03  0.22521878340E+03  0.10100000352E+00 0.  1.
       -3   -1    0    0    0  501  0.00000000000E+00  0.00000000000E+00 -0.10725868430E+04  0.10725868478E+04  0.10100000352E+00 0. -1.
    10030    2    1    2    0    0  0.00000000000E+00  0.00000000000E+00 -0.84736808230E+03  0.12978056312E+04  0.98298870262E+03 0.  0.
        3    1    3    3  502    0 -0.14420043610E+03 -0.28628529269E+03 -0.91558448975E+03  0.97007628703E+03  0.10100000352E+00 0. -1.
       -3    1    3    3    0  502  0.14420043610E+03  0.28628529269E+03  0.68216407452E+02  0.32772934417E+03  0.10100000352E+00 0.  1.
</event>
<event>
 5   0  0.3569359E-03  0.1001922E+04  0.7818609E-02  0.9306439E-01
       -1   -1    0    0    0  501  0.00000000000E+00  0.00000000000E+00  0.24346005994E+03  0.24346005999E+03  0.50400001928E-02 0.  1.
        1   -1    0    0  501    0  0.00000000000E+00  0.00000000000E+00 -0.10308132633E+04  0.10308132633E+04  0.50400001928E-02 0. -1.
    10030    2    1    2    0    0  0.00000000000E+00  0.00000000000E+00 -0.78735320333E+03  0.12742733233E+04  0.10019218710E+04 0.  0.
        4    1    3    3  502    0  0.22588915967E+03  0.44066697675E+03 -0.29726097875E+03  0.57756298292E+03  0.12699999809E+01 0.  1.
       -4    1    3    3    0  502 -0.22588915967E+03 -0.44066697675E+03 -0.49009222458E+03  0.69671034035E+03  0.12699999809E+01 0. -1.
</event>
<event>
 5   0  0.3569359E-03  0.9874897E+03  0.7818609E-02  0.9322373E-01
       -1   -1    0    0    0  501  0.00000000000E+00  0.00000000000E+00  0.47809397277E+03  0.47809397279E+03  0.50400001928E-02 0.  1.
        1   -1    0    0  501    0  0.00000000000E+00  0.00000000000E+00 -0.50990804815E+03  0.50990804817E+03  0.50400001928E-02 0. -1.
    10030    2    1    2    0    0  0.00000000000E+00  0.00000000000E+00 -0.31814075384E+02  0.98800202097E+03  0.98748967490E+03 0.  0.
        4    1    3    3  502    0 -0.17611224511E+01  0.26706870733E+02 -0.50918006731E+03  0.50988460689E+03  0.12699999809E+01 0. -1.
       -4    1    3    3    0  502  0.17611224511E+01 -0.26706870733E+02  0.47736599193E+03  0.47811741408E+03  0.12699999809E+01 0.  1.
</event>
<event>
 5   0  0.6376961E-03  0.1043520E+04  0.7818609E-02  0.9262060E-01
        2   -1    0    0  501    0  0.00000000000E+00  0.00000000000E+00  0.12044233261E+04  0.12044233261E+04  0.25500000920E-02 0. -1.
       -2   -1    0    0    0  501  0.00000000000E+00  0.00000000000E+00 -0.22602811908E+03  0.22602811909E+03  0.25500000920E-02 0.  1.
    10030    2    1    2    0    0  0.00000000000E+00  0.00000000000E+00  0.97839520704E+03  0.14304514452E+04  0.10435200793E+04 0.  0.
        3    1    3    3  502    0 -0.32697897652E+03 -0.24835725685E+03  0.93049323046E+03  0.10170615715E+04  0.10100000352E+00 0. -1.
       -3    1    3    3    0  502  0.32697897652E+03  0.24835725685E+03  0.47901976582E+02  0.41338987370E+03  0.10100000352E+00 0.  1.
</event>
<event>
 5   0  0.6199539E-03  0.1028051E+04  0.7818609E-02  0.9278303E-01
       -2   -1    0    0    0  501  0.00000000000E+00  0.00000000000E+00  0.78573124722E+03  0.78573124722E+03  0.25500000920E-02 0.  1.
        2   -1    0    0  501    0  0.00000000000E+00  0.00000000000E+00 -0.33627548789E+03  0.33627548790E+03  0.25500000920E-02 0. -1.
    10030    2    1    2    0    0  0.00000000000E+00  0.00000000000E+00  0.44945575933E+03  0.11220067351E+04  0.10280508908E+04 0.  0.
        2    1    3    3  502    0  0.67522676325E+02  0.48238778426E+03  0.40394522254E+03  0.63279461837E+03  0.25500000920E-02 0.  1.
       -2    1    3    3    0  502 -0.67522676325E+02 -0.48238778426E+03  0.45510536790E+02  0.48921211676E+03  0.25500000920E-02 0. -1.
</event>
<event>
 5   0  0.6376961E-03  0.9940591E+03  0.7818609E-02  0.9315085E-01
        2   -1    0    0  501    0  0.00000000000E+00  0.00000000000E+00  0.56604580857E+03  0.56604580857E+03  0.25500000920E-02 0.  1.
       -2   -1    0    0    0  501  0.00000000000E+00  0.00000000000E+00 -0.43642822761E+03  0.43642822762E+03  0.25500000920E-02 0. -1.
    10030    2    1    2    0    0  0.00000000000E+00  0.00000000000E+00  0.12961758096E+03  0.10024740362E+04  0.99405909077E+03 0.  0.
        3    1    3    3  502    0  0.29311846831E+03 -0.53135461951E+02  0.46604179509E+03  0.55311552026E+03  0.10100000352E+00 0.  1.
       -3    1    3    3    0  502 -0.29311846831E+03  0.53135461951E+02 -0.33642421413E+03  0.44935851593E+03  0.10100000352E+00 0. -1.
</event>
<event>
 5   0  0.6022787E-03  0.1000663E+04  0.7818609E-02  0.9307818E-01
       -2   -1    0    0    0  501  0.00000000000E+00  0.00000000000E+00  0.43813252505E+03  0.43813252505E+03  0.25500000920E-02 0. -1.
        2   -1    0    0  501    0  0.00000000000E+00  0.00000000000E+00 -0.57136066384E+03  0.57136066385E+03  0.25500000920E-02 0.  1.
    10030    2    1    2    0    0  0.00000000000E+00  0.00000000000E+00 -0.13322813880E+03  0.10094931889E+04  0.10006631608E+04 0.  0.
        5    1    3    3  502    0  0.30764991866E+03 -0.25257982213E+03  0.23915213649E+03  0.46439301608E+03  0.46999998093E+01 0. -1.
       -5    1    3    3    0  502 -0.30764991866E+03  0.25257982213E+03 -0.37238027528E+03  0.54510017282E+03  0.46999998093E+01 0.  1.
</event>
<event>
 5   0  0.3640180E-03  0.1007102E+04  0.7818609E-02  0.9300789E-01
        1   -1    0    0  501    0  0.00000000000E+00  0.00000000000E+00  0.66502139127E+03  0.66502139129E+03  0.50400001928E-02 0.  1.
       -1   -1    0    0    0  501  0.00000000000E+00  0.00000000000E+00 -0.38128653727E+03  0.38128653730E+03  0.50400001928E-02 0. -1.
    10030    2    1    2    0    0  0.00000000000E+00  0.00000000000E+00  0.28373485400E+03  0.10463079286E+04  0.10071021865E+04 0.  0.
        5    1    3    3  502    0 -0.32555599104E+03  0.28513251679E+03  0.40928700721E+03  0.59567205718E+03  0.46999998093E+01 0.  1.
       -5    1    3    3    0  502  0.32555599104E+03 -0.28513251679E+03 -0.12555215320E+03  0.45063587141E+03  0.46999998093E+01 0. -1.
</event>
<event>
 5   0  0.3643002E-03  0.9943387E+03  0.7818609E-02  0.9314776E-01
       -1   -1    0    0    0  501  0.00000000000E+00  0.00000000000E+00  0.71066139558E+03  0.71066139560E+03  0.50400001928E-02 0. -1.
        1   -1    0    0  501    0  0.00000000000E+00  0.00000000000E+00 -0.34781311067E+03  0.34781311071E+03  0.50400001928E-02 0.  1.
    10030    2    1    2    0    0  0.00000000000E+00  0.00000000000E+00  0.36284828491E+03  0.10584745063E+04  0.99433867603E+03 0.  0.
        2    1    3    3  502    0 -0.45271043796E+03 -0.65503624632E+02 -0.25921100667E+02  0.45815867223E+03  0.25500000920E-02 0.  1.
       -2    1    3    3    0  502  0.45271043796E+03  0.65503624632E+02  0.38876938558E+03  0.60031583408E+03  0.25500000920E-02 0. -1.
</event>
<event>
 5   0  0.3640180E-03  0.1055209E+04  0.7818609E-02  0.9249983E-01
       -1   -1    0    0    0  501  0.00000000000E+00  0.00000000000E+00  0.24238146585E+03  0.24238146590E+03  0.50400001928E-02 0.  1.
        1   -1    0    0  501    0  0.00000000000E+00  0.00000000000E+00 -0.11484638220E+04  0.11484638221E+04  0.50400001928E-02 0. -1.
    10030    2    1    2    0    0  0.00000000000E+00  0.00000000000E+00 -0.90608235620E+03  0.13908452880E+04  0.10552086897E+04 0.  0.
        5    1    3    3  502    0 -0.27205582828E+02 -0.51009767614E+03 -0.27915266736E+03  0.58214094911E+03  0.46999998093E+01 0. -1.
       -5    1    3    3    0  502  0.27205582828E+02  0.51009767614E+03 -0.62692968884E+03  0.80870433886E+03  0.46999998093E+01 0.  1.
</event>
<event>
 5   0  0.6199539E-03  0.9949008E+03  0.7818609E-02  0.9314155E-01
        2   -1    0    0  501    0  0.00000000000E+00  0.00000000000E+00  0.15177998431E+04  0.15177998431E+04  0.25500000920E-02 0.  1.
       -2   -1    0    0    0  501  0.00000000000E+00  0.00000000000E+00 -0.16303659157E+03  0.16303659159E+03  0.25500000920E-02 0. -1.
    10030    2    1    2    0    0  0.00000000000E+00  0.00000000000E+00  0.13547632515E+04  0.16808364347E+04  0.99490082546E+03 0.  0.
        2    1    3    3  502    0  0.42094104753E+03 -0.14995488855E+03  0.10466690763E+04  0.11380658986E+04  0.25500000920E-02 0.  1.
       -2    1    3    3    0  502 -0.42094104753E+03  0.14995488855E+03  0.30809417520E+03  0.54277053614E+03  0.25500000920E-02 0. -1.
</event>
<event>
 5   0  0.6606947E-03  0.9983584E+03  0.7818609E-02  0.9310347E-01
       -2   -1    0    0    0  501  0.00000000000E+00  0.00000000000E+00  0.25522848266E+03  0.25522848267E+03  0.25500000920E-02 0.  1.
        2   -1    0    0  501    0  0.00000000000E+00  0.00000000000E+00 -0.97630125122E+03  0.97630125122E+03  0.25500000920E-02 0. -1.
    10030    2    1    2    0    0  0.00000000000E+00  0.00000000000E+00 -0.72107276856E+03  0.12315297339E+04  0.99835842657E+03 0.  0.
        1    1    3    3  502    0  0.22376666608E+03 -0.31539144946E+02  0.18851831368E+03  0.29428794256E+03  0.50400001928E-02 0.  1.
       -1    1    3    3    0  502 -0.22376666608E+03  0.31539144946E+02 -0.90959108225E+03  0.93724179134E+03  0.50400001928E-02 0. -1.
</event>
<event>
 5   0  0.6606947E-03  0.9960838E+03  0.7818609E-02  0.9312850E-01
        2   -1    0    0  501    0  0.00000000000E+00  0.00000000000E+00  0.56881370770E+03  0.56881370771E+03  0.25500000920E-02 0.  1.
       -2   -1    0    0    0  501  0.00000000000E+00  0.00000000000E+00 -0.43607555878E+03  0.43607555878E+03  0.25500000920E-02 0. -1.
    10030    2    1    2    0    0  0.00000000000E+00  0.00000000000E+00  0.13273814893E+03  0.10048892665E+04  0.99608384272E+03 0.  0.
        1    1    3    3  502    0  0.38704284409E+03 -0.22322550761E+03 -0.15560775184E+03  0.47312320052E+03  0.50400001928E-02 0.  1.
       -1    1    3    3    0  502 -0.38704284409E+03  0.22322550761E+03  0.28834590076E+03  0.53176606598E+03  0.50400001928E-02 0. -1.
</event>
<event>
 5   0  0.6376961E-03  0.1005184E+04  0.7818609E-02  0.9302877E-01
       -2   -1    0    0    0  501  0.00000000000E+00  0.00000000000E+00  0.91551049429E+03  0.91551049429E+03  0.25500000920E-02 0. -1.
        2   -1    0    0  501    0  0.00000000000E+00  0.00000000000E+00 -0.27591014486E+03  0.27591014487E+03  0.25500000920E-02 0.  1.
    10030    2    1    2    0    0  0.00000000000E+00  0.00000000000E+00  0.63960034942E+03  0.11914206392E+04  0.10051838302E+04 0.  0.
        3    1    3    3  502    0 -0.15674120009E+03  0.42972884004E+03  0.72978094280E+02  0.46320674889E+03  0.10100000352E+00 0.  1.
       -3    1    3    3    0  502  0.15674120009E+03 -0.42972884004E+03  0.56662225514E+03  0.72821389028E+03  0.10100000352E+00 0. -1.
</event>
<event>
 5   0  0.3569359E-03  0.1022318E+04  0.7818609E-02  0.9284400E-01
       -1   -1    0    0    0  501  0.00000000000E+00  0.00000000000E+00  0.92845371372E+03  0.92845371373E+03  0.50400001928E-02 0. -1.
        1   -1    0    0  501    0  0.00000000000E+00  0.00000000000E+00 -0.28141798624E+03  0.28141798629E+03  0.50400001928E-02 0.  1.
    10030    2    1    2    0    0  0.00000000000E+00  0.00000000000E+00  0.64703572748E+03  0.12098717000E+04  0.10223181001E+04 0.  0.
        4    1    3    3  502    0 -0.45723637494E+03  0.22751383141E+03  0.34874291466E+03  0.61842613098E+03  0.12699999809E+01 0.  1.
       -4    1    3    3    0  502  0.45723637494E+03 -0.22751383141E+03  0.29829281282E+03  0.59144556904E+03  0.12699999809E+01 0. -1.
</event>
<event>
 5   0  0.6376961E-03  0.9998481E+03  0.7818609E-02  0.9308711E-01
       -2   -1    0    0    0  501  0.00000000000E+00  0.00000000000E+00  0.49433058000E+03  0.49433058001E+03  0.25500000920E-02 0.  1.
        2   -1    0    0  501    0  0.00000000000E+00  0.00000000000E+00 -0.50558079511E+03  0.50558079512E+03  0.25500000920E-02 0. -1.
    10030    2    1    2    0    0  0.00000000000E+00  0.00000000000E+00 -0.11250215106E+02  0.99991137513E+03  0.99984808384E+03 0.  0.
        3    1    3    3  502    0 -0.29071061068E+03 -0.40424221205E+03 -0.50344963170E+02  0.50045884015E+03  0.10100000352E+00 0. -1.
       -3    1    3    3    0  502  0.29071061068E+03  0.40424221205E+03  0.39094748064E+02  0.49945253498E+03  0.10100000352E+00 0.  1.
</event>
<event>
 5   0  0.3643002E-03  0.1045244E+04  0.7818609E-02  0.9260269E-01
       -1   -1    0    0    0  501  0.00000000000E+00  0.00000000000E+00  0.21229102700E+03  0.21229102706E+03  0.50400001928E-02 0. -1.
        1   -1    0    0  501    0  0.00000000000E+00  0.00000000000E+00 -0.12865993576E+04  0.12865993576E+04  0.50400001928E-02 0.  1.
    10030    2    1    2    0    0  0.00000000000E+00  0.00000000000E+00 -0.10743083306E+04  0.14988903846E+04  0.10452435104E+04 0.  0.
        2    1    3    3  502    0  0.14154851577E+03 -0.54718391882E+02  0.17999946972E+03  0.23543554072E+03  0.25500000920E-02 0. -1.
       -2    1    3    3    0  502 -0.14154851577E+03  0.54718391882E+02 -0.12543078003E+04  0.12634548439E+04  0.25500000920E-02 0.  1.
</event>
<event>
 5   0  0.2417750E-03  0.9978312E+03  0.7818609E-02  0.9310927E-01
        4   -1    0    0  501    0  0.00000000000E+00  0.00000000000E+00  0.84018258062E+03  0.84018354047E+03  0.12699999809E+01 0.  1.
       -4   -1    0    0    0  501  0.00000000000E+00  0.00000000000E+00 -0.29626258892E+03  0.29626531098E+03  0.12699999809E+01 0. -1.
    10030    2    1    2    0    0  0.00000000000E+00  0.00000000000E+00  0.54391999170E+03  0.11364488514E+04  0.99783116537E+03 0.  0.
        2    1    3    3  502    0 -0.30108707441E+03 -0.81692651784E+02 -0.17147258035E+03  0.35599151893E+03  0.25500000920E-02 0. -1.
       -2    1    3    3    0  502  0.30108707441E+03  0.81692651784E+02  0.71539257205E+03  0.78045733252E+03  0.25500000920E-02 0.  1.
</event>
<event>
 5   0  0.6376961E-03  0.1020474E+04  0.7818609E-02  0.9286370E-01
        2   -1    0    0  501    0  0.00000000000E+00  0.00000000000E+00  0.38183289545E+03  0.38183289546E+03  0.25500000920E-02 0. -1.
       -2   -1    0    0    0  501  0.00000000000E+00  0.00000000000E+00 -0.68182121079E+03  0.68182121079E+03  0.25500000920E-02 0.  1.
    10030    2    1    2    0    0  0.00000000000E+00  0.00000000000E+00 -0.29998831533E+03  0.10636541063E+04  0.10204739430E+04 0.  0.
        3    1    3    3  502    0 -0.17308060522E+03 -0.42261978416E+03  0.87180636617E+02  0.46493531966E+03  0.10100000352E+00 0. -1.
       -3    1    3    3    0  502  0.17308060522E+03  0.42261978416E+03 -0.38716895195E+03  0.59871878659E+03  0.10100000352E+00 0.  1.
</event>
<event>
 5   0  0.3643002E-03  0.1009878E+04  0.7818609E-02  0.9297777E-01
       -1   -1    0    0    0  501  0.00000000000E+00  0.00000000000E+00  0.31132693794E+03  0.31132693798E+03  0.50400001928E-02 0.  1.
        1   -1    0    0  501    0  0.00000000000E+00  0.00000000000E+00 -0.81895667904E+03  0.81895667906E+03  0.50400001928E-02 0. -1.
    10030    2    1    2    0    0  0.00000000000E+00  0.00000000000E+00 -0.50762974110E+03  0.11302836170E+04  0.10098777653E+04 0.  0.
        2    1    3    3  502    0 -0.18631075306E+03  0.22391311168E+03  0.20781009151E+03  0.35781812759E+03  0.25500000920E-02 0.  1.
       -2    1    3    3    0  502  0.18631075306E+03 -0.22391311168E+03 -0.71543983262E+03  0.77246548945E+03  0.25500000920E-02 0. -1.
</event>
<event>
 5   0  0.3643002E-03  0.1026451E+04  0.7818609E-02  0.9280001E-01
        1   -1    0    0  501    0  0.00000000000E+00  0.00000000000E+00  0.25379348434E+04  0.25379348434E+04  0.50400001928E-02 0. -1.
       -1   -1    0    0    0  501  0.00000000000E+00  0.00000000000E+00 -0.10378523256E+03  0.10378523268E+03  0.50400001928E-02 0.  1.
    10030    2    1    2    0    0  0.00000000000E+00  0.00000000000E+00  0.24341496108E+04  0.26417200761E+04  0.10264505017E+04 0.  0.
        2    1    3    3  502    0  0.18071068593E+03 -0.47731798731E+03  0.13559407104E+04  0.14488146959E+04  0.25500000920E-02 0. -1.
       -2    1    3    3    0  502 -0.18071068593E+03  0.47731798731E+03  0.10782089004E+04  0.11929053801E+04  0.25500000920E-02 0.  1.
</event>
<event>
 5   0  0.3640180E-03  0.9904250E+03  0.7818609E-02  0.9319109E-01
        1   -1    0    0  501    0  0.00000000000E+00  0.00000000000E+00  0.48388134958E+03  0.48388134961E+03  0.50400001928E-02 0.  1.
       -1   -1    0    0    0  501  0.00000000000E+00  0.00000000000E+00 -0.50680900650E+03  0.50680900653E+03  0.50400001928E-02 0. -1.
    10030    2    1    2    0    0  0.00000000000E+00  0.00000000000E+00 -0.22927656923E+02  0.99069035614E+03  0.99042501195E+03 0.  0.
        5    1    3    3  502    0 -0.15997226596E+03 -0.46671803752E+03  0.30932472966E+02  0.49436399576E+03  0.46999998093E+01 0. -1.
       -5    1    3    3    0  502  0.15997226596E+03  0.46671803752E+03 -0.53860129889E+02  0.49632636038E+03  0.46999998093E+01 0.  1.
</event>
<event>
 5   0  0.6199539E-03  0.9983933E+03  0.7818609E-02  0.9310309E-01
        2   -1    0    0  501    0  0.00000000000E+00  0.00000000000E+00  0.60456671364E+03  0.60456671364E+03  0.25500000920E-02 0.  1.
       -2   -1    0    0    0  501  0.00000000000E+00  0.00000000000E+00 -0.41219155297E+03  0.41219155297E+03  0.25500000920E-02 0. -1.
    10030    2    1    2    0    0  0.00000000000E+00  0.00000000000E+00  0.19237516067E+03  0.10167582666E+04  0.99839329439E+03 0.  0.
        2    1    3    3  502    0 -0.13009603790E+03 -0.27233989782E+03  0.50112369838E+03  0.58499483768E+03  0.25500000920E-02 0.  1.
       -2    1    3    3    0  502  0.13009603790E+03  0.27233989782E+03 -0.30874853771E+03  0.43176342894E+03  0.25500000920E-02 0. -1.
</event>
<event>
 5   0  0.6199539E-03  0.1002059E+04  0.7818609E-02  0.9306289E-01
        2   -1    0    0  501    0  0.00000000000E+00  0.00000000000E+00  0.12377656975E+04  0.12377656975E+04  0.25500000920E-02 0.  1.
       -2   -1    0    0    0  501  0.00000000000E+00  0.00000000000E+00 -0.20280946891E+03  0.20280946893E+03  0.25500000920E-02 0. -1.
    10030    2    1    2    0    0  0.00000000000E+00  0.00000000000E+00  0.10349562286E+04  0.14405751664E+04  0.10020590876E+04 0.  0.
        2    1    3    3  502    0 -0.21884638610E+03 -0.85486528262E+02 -0.11870333831E+03  0.26323405888E+03  0.25500000920E-02 0. -1.
       -2    1    3    3    0  502  0.21884638610E+03  0.85486528262E+02  0.11536595669E+04  0.11773411075E+04  0.25500000920E-02 0.  1.
</event>
<event>
 5   0  0.3466598E-03  0.1000507E+04  0.7818609E-02  0.9307989E-01
        1   -1    0    0  501    0  0.00000000000E+00  0.00000000000E+00  0.60750100707E+03  0.60750100709E+03  0.50400001928E-02 0. -1.
       -1   -1    0    0    0  501  0.00000000000E+00  0.00000000000E+00 -0.41193896674E+03  0.41193896677E+03  0.50400001928E-02 0.  1.
    10030    2    1    2    0    0  0.00000000000E+00  0.00000000000E+00  0.19556204033E+03  0.10194399739E+04  0.10005065460E+04 0.  0.
        3    1    3    3  502    0 -0.14858900229E+03 -0.27986048698E+03  0.49221477443E+03  0.58538532451E+03  0.10100000352E+00 0. -1.
       -3    1    3    3    0  502  0.14858900229E+03  0.27986048698E+03 -0.29665273410E+03  0.43405464935E+03  0.10100000352E+00 0.  1.
</event>
<event>
 5   0  0.6360455E-03  0.1009560E+04  0.7818609E-02  0.9298122E-01
       -2   -1    0    0    0  501  0.00000000000E+00  0.00000000000E+00  0.25829706337E+03  0.25829706338E+03  0.25500000920E-02 0.  1.
        2   -1    0    0  501    0  0.00000000000E+00  0.00000000000E+00 -0.98647123417E+03  0.98647123418E+03  0.25500000920E-02 0. -1.
    10030    2    1    2    0    0  0.00000000000E+00  0.00000000000E+00 -0.72817417081E+03  0.12447682976E+04  0.10095595533E+04 0.  0.
        4    1    3    3  502    0  0.14851401819E+03  0.78788602153E+02 -0.95093572632E+03  0.96568339839E+03  0.12699999809E+01 0. -1.
       -4    1    3    3    0  502 -0.14851401819E+03 -0.78788602153E+02  0.22276155552E+03  0.27908489917E+03  0.12699999809E+01 0.  1.
</event>
<event>
 5   0  0.3608845E-03  0.1005404E+04  0.7818609E-02  0.9302638E-01
        1   -1    0    0  501    0  0.00000000000E+00  0.00000000000E+00  0.54583097452E+03  0.54583097454E+03  0.50400001928E-02 0.  1.
       -1   -1    0    0    0  501  0.00000000000E+00  0.00000000000E+00 -0.46298053254E+03  0.46298053257E+03  0.50400001928E-02 0. -1.
    10030    2    1    2    0    0  0.00000000000E+00  0.00000000000E+00  0.82850441980E+02  0.10088115071E+04  0.10054036310E+04 0.  0.
        1    1    3    3  502    0 -0.30012018102E+03 -0.91381738979E+02 -0.35269921176E+03  0.47203758248E+03  0.50400001928E-02 0. -1.
       -1    1    3    3    0  502  0.30012018102E+03  0.91381738979E+02  0.43554965374E+03  0.53677392464E+03  0.50400001928E-02 0.  1.
</event>
<event>
 5   0  0.6199539E-03  0.9705872E+03  0.7818609E-02  0.9341406E-01
        2   -1    0    0  501    0  0.00000000000E+00  0.00000000000E+00  0.32120787398E+04  0.32120787398E+04  0.25500000920E-02 0. -1.
       -2   -1    0    0    0  501  0.00000000000E+00  0.00000000000E+00 -0.73320085829E+02  0.73320085873E+02  0.25500000920E-02 0.  1.
    10030    2    1    2    0    0  0.00000000000E+00  0.00000000000E+00  0.31387586540E+04  0.32853988257E+04  0.97058722219E+03 0.  0.
        2    1    3    3  502    0 -0.28994135688E+02 -0.10219678553E+03 -0.33480665559E+02  0.11138131733E+03  0.25500000920E-02 0.  1.
       -2    1    3    3    0  502  0.28994135688E+02  0.10219678553E+03  0.31722393196E+04  0.31740175084E+04  0.25500000920E-02 0. -1.
</event>
<event>
 5   0  0.3466598E-03  0.1001241E+04  0.7818609E-02  0.9307184E-01
       -1   -1    0    0    0  501  0.00000000000E+00  0.00000000000E+00  0.87052032747E+03  0.87052032748E+03  0.50400001928E-02 0.  1.
        1   -1    0    0  501    0  0.00000000000E+00  0.00000000000E+00 -0.28789800580E+03  0.28789800585E+03  0.50400001928E-02 0. -1.
    10030    2    1    2    0    0  0.00000000000E+00  0.00000000000E+00  0.58262232166E+03  0.11584183333E+04  0.10012413622E+04 0.  0.
        3    1    3    3  502    0 -0.27946464626E+03  0.12332538878E+03  0.75019922321E+03  0.81000526216E+03  0.10100000352E+00 0.  1.
       -3    1    3    3    0  502  0.27946464626E+03 -0.12332538878E+03 -0.16757690154E+03  0.34841307117E+03  0.10100000352E+00 0. -1.
</event>
<event>
 5   0  0.6606947E-03  0.9978859E+03  0.7818609E-02  0.9310866E-01
        2   -1    0    0  501    0  0.00000000000E+00  0.00000000000E+00  0.16107939376E+04  0.16107939376E+04  0.25500000920E-02 0.  1.
       -2   -1    0    0    0  501  0.00000000000E+00  0.00000000000E+00 -0.15454744647E+03  0.15454744650E+03  0.25500000920E-02 0. -1.
    10030    2    1    2    0    0  0.00000000000E+00  0.00000000000E+00  0.14562464911E+04  0.17653413841E+04  0.99788594513E+03 0.  0.
        1    1    3    3  502    0 -0.73854409684E+02 -0.81249814008E+02  0.15891554671E+04  0.15929441625E+04  0.50400001928E-02 0.  1.
       -1    1    3    3    0  502  0.73854409684E+02  0.81249814008E+02 -0.13290897597E+03  0.17239722163E+03  0.50400001928E-02 0. -1.
</event>
<event>
 5   0  0.2417750E-03  0.9754610E+03  0.7818609E-02  0.9335876E-01
       -4   -1    0    0    0  501  0.00000000000E+00  0.00000000000E+00  0.52665702059E+03  0.52665855185E+03  0.12699999809E+01 0.  1.
        4   -1    0    0  501    0  0.00000000000E+00  0.00000000000E+00 -0.45167805362E+03  0.45167983907E+03  0.12699999809E+01 0. -1.
    10030    2    1    2    0    0  0.00000000000E+00  0.00000000000E+00  0.74978966969E+02  0.97833839092E+03  0.97546099956E+03 0.  0.
        4    1    3    3  502    0 -0.11604983576E+03 -0.33835492247E+03  0.37002112241E+03  0.51465411868E+03  0.12699999809E+01 0.  1.
       -4    1    3    3    0  502  0.11604983576E+03  0.33835492247E+03 -0.29504215544E+03  0.46368427225E+03  0.12699999809E+01 0. -1.
</event>
<event>
 5   0  0.3608845E-03  0.1001520E+04  0.7818609E-02  0.9306879E-01
       -1   -1    0    0    0  501  0.00000000000E+00  0.00000000000E+00  0.65348294521E+03  0.65348294523E+03  0.50400001928E-02 0.  1.
        1   -1    0    0  501    0  0.00000000000E+00  0.00000000000E+00 -0.38372967441E+03  0.38372967445E+03  0.50400001928E-02 0. -1.
    10030    2    1    2    0    0  0.00000000000E+00  0.00000000000E+00  0.26975327080E+03  0.10372126197E+04  0.10015204398E+04 0.  0.
        1    1    3    3  502    0  0.44503571798E+02  0.48656647258E+03  0.21270887566E+02  0.48906027320E+03  0.50400001928E-02 0. -1.
       -1    1    3    3    0  502 -0.44503571798E+02 -0.48656647258E+03  0.24848238323E+03  0.54815234647E+03  0.50400001928E-02 0.  1.
</event>
<event>
 5   0  0.3569359E-03  0.9945809E+03  0.7818609E-02  0.9314508E-01
        1   -1    0    0  501    0  0.00000000000E+00  0.00000000000E+00  0.38814532468E+03  0.38814532471E+03  0.50400001928E-02 0.  1.
       -1   -1    0    0    0  501  0.00000000000E+00  0.00000000000E+00 -0.63712683420E+03  0.63712683422E+03  0.50400001928E-02 0. -1.
    10030    2    1    2    0    0  0.00000000000E+00  0.00000000000E+00 -0.24898150953E+03  0.10252721589E+04  0.99458092069E+03 0.  0.
        4    1    3    3  502    0  0.40321176697E+03 -0.24768702575E+03 -0.28207255964E+03  0.55090392407E+03  0.12699999809E+01 0. -1.
       -4    1    3    3    0  502 -0.40321176697E+03  0.24768702575E+03  0.33091050118E+02  0.47436823486E+03  0.12699999809E+01 0.  1.
</event>
<event>
 5   0  0.3569359E-03  0.1007703E+04  0.7818609E-02  0.9300136E-01
        1   -1    0    0  501    0  0.00000000000E+00  0.00000000000E+00  0.51709247857E+03  0.51709247860E+03  0.50400001928E-02 0. -1.
       -1   -1    0    0    0  501  0.00000000000E+00  0.00000000000E+00 -0.49094993479E+03  0.49094993482E+03  0.50400001928E-02 0.  1.
    10030    2    1    2    0    0  0.00000000000E+00  0.00000000000E+00  0.26142543781E+02  0.10080424134E+04  0.10077033664E+04 0.  0.
        4    1    3    3  502    0  0.21957057182E+03 -0.10926864803E+03  0.45334891885E+03  0.51543935490E+03  0.12699999809E+01 0. -1.
       -4    1    3    3    0  502 -0.21957057182E+03  0.10926864803E+03 -0.42720637507E+03  0.49260305851E+03  0.12699999809E+01 0.  1.
</event>
<event>
 5   0  0.6199539E-03  0.9619974E+03  0.7818609E-02  0.9351236E-01
        2   -1    0    0  501    0  0.00000000000E+00  0.00000000000E+00  0.11885744011E+04  0.11885744011E+04  0.25500000920E-02 0.  1.
       -2   -1    0    0    0  501  0.00000000000E+00  0.00000000000E+00 -0.19465315159E+03  0.19465315160E+03  0.25500000920E-02 0. -1.
    10030    2    1    2    0    0  0.00000000000E+00  0.00000000000E+00  0.99392124956E+03  0.13832275527E+04  0.96199740767E+03 0.  0.
        2    1    3    3  502    0 -0.37127044161E+02 -0.14961144741E+03  0.11520960006E+04  0.11623627649E+04  0.25500000920E-02 0.  1.
       -2    1    3    3    0  502  0.37127044161E+02  0.14961144741E+03 -0.15817475109E+03  0.22086478781E+03  0.25500000920E-02 0. -1.
</event>
<event>
 5   0  0.6199539E-03  0.1036213E+04  0.7818609E-02  0.9269695E-01
       -2   -1    0    0    0  501  0.00000000000E+00  0.00000000000E+00  0.15138054212E+03  0.15138054214E+03  0.25500000920E-02 0.  1.
        2   -1    0    0  501    0  0.00000000000E+00  0.00000000000E+00 -0.17732411006E+04  0.17732411006E+04  0.25500000920E-02 0. -1.
    10030    2    1    2    0    0  0.00000000000E+00  0.00000000000E+00 -0.16218605585E+04  0.19246216428E+04  0.10362127178E+04 0.  0.
        2    1    3    3  502    0 -0.43429984609E+03  0.13220704329E+03 -0.12746727293E+04  0.13531022229E+04  0.25500000920E-02 0. -1.
       -2    1    3    3    0  502  0.43429984609E+03 -0.13220704329E+03 -0.34718782919E+03  0.57151941993E+03  0.25500000920E-02 0.  1.
</event>
<event>
 5   0  0.6360455E-03  0.9986504E+03  0.7818609E-02  0.9310026E-01
        2   -1    0    0  501    0  0.00000000000E+00  0.00000000000E+00  0.91703888256E+03  0.91703888256E+03  0.25500000920E-02 0.  1.
       -2   -1    0    0    0  501  0.00000000000E+00  0.00000000000E+00 -0.27188120191E+03  0.27188120192E+03  0.25500000920E-02 0. -1.
    10030    2    1    2    0    0  0.00000000000E+00  0.00000000000E+00  0.64515768065E+03  0.11889200845E+04  0.99865035643E+03 0.  0.
        4    1    3    3  502    0 -0.15677280745E+02 -0.33040959757E+02 -0.27028266946E+03  0.27274863238E+03  0.12699999809E+01 0. -1.
       -4    1    3    3    0  502  0.15677280745E+02  0.33040959757E+02  0.91544035011E+03  0.91617145211E+03  0.12699999809E+01 0.  1.
</event>
<event>
 5   0  0.6022787E-03  0.1012667E+04  0.7818609E-02  0.9294760E-01
        2   -1    0    0  501    0  0.00000000000E+00  0.00000000000E+00  0.19644477252E+04  0.19644477252E+04  0.25500000920E-02 0. -1.
       -2   -1    0    0    0  501  0.00000000000E+00  0.00000000000E+00 -0.13050661180E+03  0.13050661183E+03  0.25500000920E-02 0.  1.
    10030    2    1    2    0    0  0.00000000000E+00  0.00000000000E+00  0.18339411134E+04  0.20949543370E+04  0.10126666119E+04 0.  0.
        5    1    3    3  502    0  0.40647003334E+02  0.49204849751E+03  0.68486983048E+03  0.84429418894E+03  0.46999998093E+01 0.  1.
       -5    1    3    3    0  502 -0.40647003334E+02 -0.49204849751E+03  0.11490712829E+04  0.12506601480E+04  0.46999998093E+01 0. -1.
</event>
<event>
 5   0  0.6199539E-03  0.9999111E+03  0.7818609E-02  0.9308642E-01
        2   -1    0    0  501    0  0.00000000000E+00  0.00000000000E+00  0.92492212543E+03  0.92492212543E+03  0.25500000920E-02 0. -1.
       -2   -1    0    0    0  501  0.00000000000E+00  0.00000000000E+00 -0.27024495480E+03  0.27024495481E+03  0.25500000920E-02 0.  1.
    10030    2    1    2    0    0  0.00000000000E+00  0.00000000000E+00  0.65467717063E+03  0.11951670802E+04  0.99991107202E+03 0.  0.
        2    1    3    3  502    0 -0.25862261613E+02 -0.22550015044E+02  0.92351307229E+03  0.92415028781E+03  0.25500000920E-02 0. -1.
       -2    1    3    3    0  502  0.25862261613E+02  0.22550015044E+02 -0.26883590166E+03  0.27101679244E+03  0.25500000920E-02 0.  1.
</event>
<event>
 5   0  0.6606947E-03  0.1001855E+04  0.7818609E-02  0.9306512E-01
       -2   -1    0    0    0  501  0.00000000000E+00  0.00000000000E+00  0.13652084972E+03  0.13652084974E+03  0.25500000920E-02 0. -1.
        2   -1    0    0  501    0  0.00000000000E+00  0.00000000000E+00 -0.18380230702E+04  0.18380230702E+04  0.25500000920E-02 0.  1.
    10030    2    1    2    0    0  0.00000000000E+00  0.00000000000E+00 -0.17015022204E+04  0.19745439199E+04  0.10018552218E+04 0.  0.
        1    1    3    3  502    0  0.27333945943E+03 -0.92676154170E+02 -0.43829379970E+02  0.29193208834E+03  0.50400001928E-02 0. -1.
       -1    1    3    3    0  502 -0.27333945943E+03  0.92676154170E+02 -0.16576728405E+04  0.16826118316E+04  0.50400001928E-02 0.  1.
</event>
<event>
 5   0  0.6360455E-03  0.9997806E+03  0.7818609E-02  0.9308785E-01
       -2   -1    0    0    0  501  0.00000000000E+00  0.00000000000E+00  0.37183247103E+03  0.37183247104E+03  0.25500000920E-02 0.  1.
        2   -1    0    0  501    0  0.00000000000E+00  0.00000000000E+00 -0.67205084676E+03  0.67205084676E+03  0.25500000920E-02 0. -1.
    10030    2    1    2    0    0  0.00000000000E+00  0.00000000000E+00 -0.30021837573E+03  0.10438833178E+04  0.99978062997E+03 0.  0.
        4    1    3    3  502    0  0.15778571345E+03 -0.47427969926E+03 -0.15757657095E+03  0.52408926063E+03  0.12699999809E+01 0.  1.
       -4    1    3    3    0  502 -0.15778571345E+03  0.47427969926E+03 -0.14264180478E+03  0.51979405717E+03  0.12699999809E+01 0. -1.
</event>
<event>
 5   0  0.6360455E-03  0.9658203E+03  0.7818609E-02  0.9346848E-01
        2   -1    0    0  501    0  0.00000000000E+00  0.00000000000E+00  0.50402368177E+03  0.50402368178E+03  0.25500000920E-02 0. -1.
       -2   -1    0    0    0  501  0.00000000000E+00  0.00000000000E+00 -0.46268102224E+03  0.46268102225E+03  0.25500000920E-02 0.  1.
    10030    2    1    2    0    0  0.00000000000E+00  0.00000000000E+00  0.41342659525E+02  0.96670470403E+03  0.96582025724E+03 0.  0.
        4    1    3    3  502    0 -0.28935382300E+03 -0.20319550158E+03  0.34988974714E+03  0.49743189966E+03  0.12699999809E+01 0. -1.
       -4    1    3    3    0  502  0.28935382300E+03  0.20319550158E+03 -0.30854708761E+03  0.46927280437E+03  0.12699999809E+01 0.  1.
</event>
<event>
 5   0  0.6022787E-03  0.1058814E+04  0.7818609E-02  0.9246291E-01
        2   -1    0    0  501    0  0.00000000000E+00  0.00000000000E+00  0.18976329858E+04  0.18976329858E+04  0.25500000920E-02 0.  1.
       -2   -1    0    0    0  501  0.00000000000E+00  0.00000000000E+00 -0.14769553534E+03  0.14769553536E+03  0.25500000920E-02 0. -1.
    10030    2    1    2    0    0  0.00000000000E+00  0.00000000000E+00  0.17499374505E+04  0.20453285212E+04  0.10588142797E+04 0.  0.
        5    1    3    3  502    0 -0.78592204165E+02 -0.21903863073E+03 -0.43551937113E+02  0.23679847451E+03  0.46999998093E+01 0. -1.
       -5    1    3    3    0  502  0.78592204165E+02  0.21903863073E+03  0.17934893876E+04  0.18085300467E+04  0.46999998093E+01 0.  1.
</event>
<event>
 5   0  0.3569359E-03  0.9998686E+03  0.7818609E-02  0.9308689E-01
       -1   -1    0    0    0  501  0.00000000000E+00  0.00000000000E+00  0.32077801590E+03  0.32077801594E+03  0.50400001928E-02 0. -1.
        1   -1    0    0  501    0  0.00000000000E+00  0.00000000000E+00 -0.77915038981E+03  0.77915038982E+03  0.50400001928E-02 0.  1.
    10030    2    1    2    0    0  0.00000000000E+00  0.00000000000E+00 -0.45837237391E+03  0.10999284058E+04  0.99986862369E+03 0.  0.
        4    1    3    3  502    0  0.74692625479E+02 -0.29861127342E+03  0.20417137492E+03  0.36937141762E+03  0.12699999809E+01 0. -1.
       -4    1    3    3    0  502 -0.74692625479E+02  0.29861127342E+03 -0.66254374883E+03  0.73055698814E+03  0.12699999809E+01 0.  1.
</event>
<event>
 5   0  0.6022787E-03  0.9873031E+03  0.7818609E-02  0.9322581E-01
       -2   -1    0    0    0  501  0.00000000000E+00  0.00000000000E+00  0.14009830975E+03  0.14009830977E+03  0.25500000920E-02 0. -1.
        2   -1    0    0  501    0  0.00000000000E+00  0.00000000000E+00 -0.17394348051E+04  0.17394348051E+04  0.25500000920E-02 0.  1.
    10030    2    1    2    0    0  0.00000000000E+00  0.00000000000E+00 -0.15993364953E+04  0.18795331148E+04  0.98730314722E+03 0.  0.
        5    1    3    3  502    0 -0.43933724965E+03  0.13232026580E+03 -0.11462465420E+04  0.12346777299E+04  0.46999998093E+01 0.  1.
       -5    1    3    3    0  502  0.43933724965E+03 -0.13232026580E+03 -0.45308995330E+03  0.64485538491E+03  0.46999998093E+01 0. -1.
</event>
<event>
 5   0  0.6376961E-03  0.9384932E+03  0.7818609E-02  0.9378702E-01
       -2   -1    0    0    0  501  0.00000000000E+00  0.00000000000E+00  0.38049557565E+03  0.38049557566E+03  0.25500000920E-02 0. -1.
        2   -1    0    0  501    0  0.00000000000E+00  0.00000000000E+00 -0.57869896139E+03  0.57869896140E+03  0.25500000920E-02 0.  1.
    10030    2    1    2    0    0  0.00000000000E+00  0.00000000000E+00 -0.19820338574E+03  0.95919453705E+03  0.93849324867E+03 0.  0.
        3    1    3    3  502    0 -0.45907447675E+02 -0.45990665359E+03 -0.18194994719E+03  0.49671663678E+03  0.10100000352E+00 0.  1.
       -3    1    3    3    0  502  0.45907447675E+02  0.45990665359E+03 -0.16253438548E+02  0.46247790027E+03  0.10100000352E+00 0. -1.
</event>
<event>
 5   0  0.2417750E-03  0.1008853E+04  0.7818609E-02  0.9298888E-01
       -4   -1    0    0    0  501  0.00000000000E+00  0.00000000000E+00  0.22990871559E+03  0.22991222326E+03  0.12699999809E+01 0.  1.
        4   -1    0    0  501    0  0.00000000000E+00  0.00000000000E+00 -0.11067134318E+04  0.11067141604E+04  0.12699999809E+01 0. -1.
    10030    2    1    2    0    0  0.00000000000E+00  0.00000000000E+00 -0.87680471617E+03  0.13366263837E+04  0.10088526054E+04 0.  0.
        1    1    3    3  502    0 -0.38361756893E+03 -0.29507531688E+03 -0.25003372787E+03  0.54474649785E+03  0.50400001928E-02 0.  1.
       -1    1    3    3    0  502  0.38361756893E+03  0.29507531688E+03 -0.62677098830E+03  0.79187988585E+03  0.50400001928E-02 0. -1.
</event>
<event>
 5   0  0.3608845E-03  0.9936949E+03  0.7818609E-02  0.9315487E-01
        1   -1    0    0  501    0  0.00000000000E+00  0.00000000000E+00  0.89033875723E+03  0.89033875725E+03  0.50400001928E-02 0. -1.
       -1   -1    0    0    0  501  0.00000000000E+00  0.00000000000E+00 -0.27726229629E+03  0.27726229634E+03  0.50400001928E-02 0.  1.
    10030    2    1    2    0    0  0.00000000000E+00  0.00000000000E+00  0.61307646094E+03  0.11676010536E+04  0.99369485928E+03 0.  0.
        1    1    3    3  502    0  0.67916514014E+02  0.12893713124E+03  0.86466154764E+03  0.87685633298E+03  0.50400001928E-02 0. -1.
       -1    1    3    3    0  502 -0.67916514014E+02 -0.12893713124E+03 -0.25158508670E+03  0.29074472061E+03  0.50400001928E-02 0.  1.
</event>
<event>
 5   0  0.3640180E-03  0.9944522E+03  0.7818609E-02  0.9314651E-01
        1   -1    0    0  501    0  0.00000000000E+00  0.00000000000E+00  0.33461566510E+03  0.33461566513E+03  0.50400001928E-02 0. -1.
       -1   -1    0    0    0  501  0.00000000000E+00  0.00000000000E+00 -0.73885893570E+03  0.73885893572E+03  0.50400001928E-02 0.  1.
    10030    2    1    2    0    0  0.00000000000E+00  0.00000000000E+00 -0.40424327060E+03  0.10734746009E+04  0.99445215915E+03 0.  0.
        5    1    3    3  502    0 -0.14232082449E+03  0.60141923878E+02  0.30801976080E+03  0.34463100721E+03  0.46999998093E+01 0. -1.
       -5    1    3    3    0  502  0.14232082449E+03 -0.60141923878E+02 -0.71226303140E+03  0.72884359364E+03  0.46999998093E+01 0.  1.
</event>
<event>
 5   0  0.3640180E-03  0.9974387E+03  0.7818609E-02  0.9311358E-01
       -1   -1    0    0    0  501  0.00000000000E+00  0.00000000000E+00  0.84874724799E+03  0.84874724800E+03  0.50400001928E-02 0.  1.
        1   -1    0    0  501    0  0.00000000000E+00  0.00000000000E+00 -0.29304484142E+03  0.29304484146E+03  0.50400001928E-02 0. -1.
    10030    2    1    2    0    0  0.00000000000E+00  0.00000000000E+00  0.55570240657E+03  0.11417920895E+04  0.99743872539E+03 0.  0.
        5    1    3    3  502    0  0.32702891465E+03 -0.27192856133E+03 -0.20229880135E+02  0.42582201861E+03  0.46999998093E+01 0. -1.
       -5    1    3    3    0  502 -0.32702891465E+03  0.27192856133E+03  0.57593228670E+03  0.71597007085E+03  0.46999998093E+01 0.  1.
</event>
<event>
 5   0  0.2417750E-03  0.9918615E+03  0.7818609E-02  0.9317516E-01
        3   -1    0    0  501    0  0.00000000000E+00  0.00000000000E+00  0.64261824734E+03  0.64261825528E+03  0.10100000352E+00 0. -1.
       -3   -1    0    0    0  501  0.00000000000E+00  0.00000000000E+00 -0.38272693299E+03  0.38272694632E+03  0.10100000352E+00 0.  1.
    10030    2    1    2    0    0  0.00000000000E+00  0.00000000000E+00  0.25989131435E+03  0.10253452016E+04  0.99186152620E+03 0.  0.
        3    1    3    3  502    0 -0.26724568617E+03  0.26398985874E+03  0.46466062041E+03  0.59751184478E+03  0.10100000352E+00 0. -1.
       -3    1    3    3    0  502  0.26724568617E+03 -0.26398985874E+03 -0.20476930606E+03  0.42783335681E+03  0.10100000352E+00 0.  1.
</event>
<event>
 5   0  0.6606947E-03  0.1057409E+04  0.7818609E-02  0.9247728E-01
       -2   -1    0    0    0  501  0.00000000000E+00  0.00000000000E+00  0.84555300317E+02  0.84555300356E+02  0.25500000920E-02 0. -1.
        2   -1    0    0  501    0  0.00000000000E+00  0.00000000000E+00 -0.33058627650E+04  0.33058627650E+04  0.25500000920E-02 0.  1.
    10030    2    1    2    0    0  0.00000000000E+00  0.00000000000E+00 -0.32213074646E+04  0.33904180653E+04  0.10574085662E+04 0.  0.
        1    1    3    3  502    0  0.51502811793E+03 -0.11903981861E+03 -0.15779901642E+04  0.16641746900E+04  0.50400001928E-02 0.  1.
       -1    1    3    3    0  502 -0.51502811793E+03  0.11903981861E+03 -0.16433173005E+04  0.17262433753E+04  0.50400001928E-02 0. -1.
</event>
<event>
 5   0  0.6606947E-03  0.9585915E+03  0.7818609E-02  0.9355164E-01
        2   -1    0    0  501    0  0.00000000000E+00  0.00000000000E+00  0.54200046200E+03  0.54200046200E+03  0.25500000920E-02 0. -1.
       -2   -1    0    0    0  501  0.00000000000E+00  0.00000000000E+00 -0.42384541351E+03  0.42384541352E+03  0.25500000920E-02 0.  1.
    10030    2    1    2    0    0  0.00000000000E+00  0.00000000000E+00  0.11815504849E+03  0.96584587552E+03  0.95859148743E+03 0.  0.
        1    1    3    3  502    0  0.18807198876E+03 -0.41986475605E+03  0.19450798793E+03  0.49949058422E+03  0.50400001928E-02 0.  1.
       -1    1    3    3    0  502 -0.18807198876E+03  0.41986475605E+03 -0.76352939441E+02  0.46635529130E+03  0.50400001928E-02 0. -1.
</event>
<event>
 5   0  0.3569359E-03  0.9857432E+03  0.7818609E-02  0.9324321E-01
        1   -1    0    0  501    0  0.00000000000E+00  0.00000000000E+00  0.66349678619E+03  0.66349678621E+03  0.50400001928E-02 0. -1.
       -1   -1    0    0    0  501  0.00000000000E+00  0.00000000000E+00 -0.36612449172E+03  0.36612449176E+03  0.50400001928E-02 0.  1.
    10030    2    1    2    0    0  0.00000000000E+00  0.00000000000E+00  0.29737229447E+03  0.10296212780E+04  0.98574321937E+03 0.  0.
        4    1    3    3  502    0  0.27787345268E+03 -0.18636844176E+03 -0.22932637630E+03  0.40563413509E+03  0.12699999809E+01 0.  1.
       -4    1    3    3    0  502 -0.27787345268E+03  0.18636844176E+03  0.52669867077E+03  0.62398714288E+03  0.12699999809E+01 0. -1.
</event>
<event>
 5   0  0.6199539E-03  0.9260663E+03  0.7818609E-02  0.9393571E-01
       -2   -1    0    0    0  501  0.00000000000E+00  0.00000000000E+00  0.38213787606E+03  0.38213787607E+03  0.25500000920E-02 0. -1.
        2   -1    0    0  501    0  0.00000000000E+00  0.00000000000E+00 -0.56105328468E+03  0.56105328468E+03  0.25500000920E-02 0.  1.
    10030    2    1    2    0    0  0.00000000000E+00  0.00000000000E+00 -0.17891540862E+03  0.94319116076E+03  0.92606632715E+03 0.  0.
        2    1    3    3  502    0 -0.10842414720E+03  0.53828541566E+02  0.36573690756E+03  0.38524900148E+03  0.25500000920E-02 0. -1.
       -2    1    3    3    0  502  0.10842414720E+03 -0.53828541566E+02 -0.54465231617E+03  0.55794215928E+03  0.25500000920E-02 0.  1.
</event>
<event>
 5   0  0.2417750E-03  0.1047348E+04  0.7818609E-02  0.9258087E-01
       -3   -1    0    0    0  501  0.00000000000E+00  0.00000000000E+00  0.17581815985E+04  0.17581816014E+04  0.10100000352E+00 0. -1.
        3   -1    0    0  501    0  0.00000000000E+00  0.00000000000E+00 -0.15597606486E+03  0.15597609756E+03  0.10100000352E+00 0.  1.
    10030    2    1    2    0    0  0.00000000000E+00  0.00000000000E+00  0.16022055337E+04  0.19141576990E+04  0.10473476617E+04 0.  0.
        2    1    3    3  502    0 -0.44119194133E+03  0.13637622733E+03  0.34976668093E+03  0.57929744999E+03  0.25500000920E-02 0.  1.
       -2    1    3    3    0  502  0.44119194133E+03 -0.13637622733E+03  0.12524388527E+04  0.13348602490E+04  0.25500000920E-02 0. -1.
</event>
<event>
 5   0  0.6022787E-03  0.9973114E+03  0.7818609E-02  0.9311499E-01
        2   -1    0    0  501    0  0.00000000000E+00  0.00000000000E+00  0.75101444939E+03  0.75101444940E+03  0.25500000920E-02 0. -1.
       -2   -1    0    0    0  501  0.00000000000E+00  0.00000000000E+00 -0.33109551657E+03  0.33109551658E+03  0.25500000920E-02 0.  1.
    10030    2    1    2    0    0  0.00000000000E+00  0.00000000000E+00  0.41991893282E+03  0.10821099660E+04  0.99731141994E+03 0.  0.
        5    1    3    3  502    0  0.40706853725E+03  0.28560762901E+03  0.24995733065E+03  0.55657638192E+03  0.46999998093E+01 0. -1.
       -5    1    3    3    0  502 -0.40706853725E+03 -0.28560762901E+03  0.16996160217E+03  0.52553358406E+03  0.46999998093E+01 0.  1.
</event>
<event>
 5   0  0.6022787E-03  0.1001886E+04  0.7818609E-02  0.9306478E-01
        2   -1    0    0  501    0  0.00000000000E+00  0.00000000000E+00  0.19426437237E+04  0.19426437237E+04  0.25500000920E-02 0.  1.
       -2   -1    0    0    0  501  0.00000000000E+00  0.00000000000E+00 -0.12917659244E+03  0.12917659246E+03  0.25500000920E-02 0. -1.
    10030    2    1    2    0    0  0.00000000000E+00  0.00000000000E+00  0.18134671312E+04  0.20718203161E+04  0.10018864139E+04 0.  0.
        5    1    3    3  502    0  0.29142652138E+03 -0.40714565710E+03  0.87571456029E+03  0.10087591807E+04  0.46999998093E+01 0. -1.
       -5    1    3    3    0  502 -0.29142652138E+03  0.40714565710E+03  0.93775257096E+03  0.10630611355E+04  0.46999998093E+01 0.  1.
</event>
<event>
 5   0  0.3608845E-03  0.1001307E+04  0.7818609E-02  0.9307112E-01
        1   -1    0    0  501    0  0.00000000000E+00  0.00000000000E+00  0.31510487868E+03  0.31510487872E+03  0.50400001928E-02 0. -1.
       -1   -1    0    0    0  501  0.00000000000E+00  0.00000000000E+00 -0.79546244519E+03  0.79546244520E+03  0.50400001928E-02 0.  1.
    10030    2    1    2    0    0  0.00000000000E+00  0.00000000000E+00 -0.48035756651E+03  0.11105673239E+04  0.10013073401E+04 0.  0.
        1    1    3    3  502    0  0.29406858998E+03  0.16553031997E+03 -0.65036851282E+03  0.73270445947E+03  0.50400001928E-02 0.  1.
       -1    1    3    3    0  502 -0.29406858998E+03 -0.16553031997E+03  0.17001094631E+03  0.37786286445E+03  0.50400001928E-02 0. -1.
</event>
<event>
 5   0  0.3569359E-03  0.9819825E+03  0.7818609E-02  0.9328530E-01
        1   -1    0    0  501    0  0.00000000000E+00  0.00000000000E+00  0.86091022207E+03  0.86091022208E+03  0.50400001928E-02 0. -1.
       -1   -1    0    0    0  501  0.00000000000E+00  0.00000000000E+00 -0.28002037290E+03  0.28002037295E+03  0.50400001928E-02 0.  1.
    10030    2    1    2    0    0  0.00000000000E+00  0.00000000000E+00  0.58088984917E+03  0.11409305950E+04  0.98198248753E+03 0.  0.
        4    1    3    3  502    0  0.58607266050E+02 -0.48745910279E+03  0.29558872169E+03  0.57308419435E+03  0.12699999809E+01 0.  1.
       -4    1    3    3    0  502 -0.58607266050E+02  0.48745910279E+03  0.28530112748E+03  0.56784640068E+03  0.12699999809E+01 0. -1.
</event>
<event>
 5   0  0.6376961E-03  0.1016836E+04  0.7818609E-02  0.9290270E-01
        2   -1    0    0  501    0  0.00000000000E+00  0.00000000000E+00  0.25908980969E+04  0.25908980969E+04  0.25500000920E-02 0. -1.
       -2   -1    0    0    0  501  0.00000000000E+00  0.00000000000E+00 -0.99767968066E+02  0.99767968098E+02  0.25500000920E-02 0.  1.
    10030    2    1    2    0    0  0.00000000000E+00  0.00000000000E+00  0.24911301289E+04  0.26906660650E+04  0.10168355593E+04 0.  0.
        3    1    3    3  502    0 -0.44085907865E+03  0.24954199597E+03  0.11314227981E+04  0.12396553929E+04  0.10100000352E+00 0.  1.
       -3    1    3    3    0  502  0.44085907865E+03 -0.24954199597E+03  0.13597073308E+04  0.14510106721E+04  0.10100000352E+00 0. -1.
</event>
<event>
 5   0  0.6606947E-03  0.8584169E+03  0.7818609E-02  0.9479109E-01
        2   -1    0    0  501    0  0.00000000000E+00  0.00000000000E+00  0.14154756996E+04  0.14154756996E+04  0.25500000920E-02 0.  1.
       -2   -1    0    0    0  501  0.00000000000E+00  0.00000000000E+00 -0.13014698160E+03  0.13014698163E+03  0.25500000920E-02 0. -1.
    10030    2    1    2    0    0  0.00000000000E+00  0.00000000000E+00  0.12853287180E+04  0.15456226812E+04  0.85841689139E+03 0.  0.
        1    1    3    3  502    0 -0.81735009352E+02 -0.48902709450E+02 -0.11087783355E+03  0.14617106671E+03  0.50400001928E-02 0. -1.
       -1    1    3    3    0  502  0.81735009352E+02  0.48902709450E+02  0.13962065516E+04  0.13994516145E+04  0.50400001928E-02 0.  1.
</event>
<event>
 5   0  0.6022787E-03  0.9987099E+03  0.7818609E-02  0.9309961E-01
        2   -1    0    0  501    0  0.00000000000E+00  0.00000000000E+00  0.10759278493E+04  0.10759278493E+04  0.25500000920E-02 0. -1.
       -2   -1    0    0    0  501  0.00000000000E+00  0.00000000000E+00 -0.23175843626E+03  0.23175843628E+03  0.25500000920E-02 0.  1.
    10030    2    1    2    0    0  0.00000000000E+00  0.00000000000E+00  0.84416941306E+03  0.13076862856E+04  0.99870987960E+03 0.  0.
        5    1    3    3  502    0  0.36449282565E+03  0.15932223372E+03  0.26890371296E+02  0.39872769677E+03  0.46999998093E+01 0.  1.
       -5    1    3    3    0  502 -0.36449282565E+03 -0.15932223372E+03  0.81727904176E+03  0.90895858883E+03  0.46999998093E+01 0. -1.
</event>
<event>
 5   0  0.2417750E-03  0.9937212E+03  0.7818609E-02  0.9315458E-01
        4   -1    0    0  501    0  0.00000000000E+00  0.00000000000E+00  0.27715191061E+03  0.27715482037E+03  0.12699999809E+01 0.  1.
       -4   -1    0    0    0  501  0.00000000000E+00  0.00000000000E+00 -0.89073247288E+03  0.89073337825E+03  0.12699999809E+01 0. -1.
    10030    2    1    2    0    0  0.00000000000E+00  0.00000000000E+00 -0.61358056227E+03  0.11678881986E+04  0.99372115711E+03 0.  0.
        1    1    3    3  502    0  0.30665401417E+03 -0.19623642158E+02 -0.76566966145E+03  0.82502836450E+03  0.50400001928E-02 0. -1.
       -1    1    3    3    0  502 -0.30665401417E+03  0.19623642158E+02  0.15208909918E+03  0.34285983412E+03  0.50400001928E-02 0.  1.
</event>
<event>
 5   0  0.6376961E-03  0.9831042E+03  0.7818609E-02  0.9327272E-01
       -2   -1    0    0    0  501  0.00000000000E+00  0.00000000000E+00  0.26068820402E+03  0.26068820403E+03  0.25500000920E-02 0. -1.
        2   -1    0    0  501    0  0.00000000000E+00  0.00000000000E+00 -0.92686764250E+03  0.92686764251E+03  0.25500000920E-02 0.  1.
    10030    2    1    2    0    0  0.00000000000E+00  0.00000000000E+00 -0.66617943849E+03  0.11875558465E+04  0.98310418796E+03 0.  0.
        3    1    3    3  502    0 -0.25143907076E+02 -0.92704551824E+02 -0.91542063725E+03  0.92044625226E+03  0.10100000352E+00 0.  1.
       -3    1    3    3    0  502  0.25143907076E+02  0.92704551824E+02  0.24924119876E+03  0.26710959428E+03  0.10100000352E+00 0. -1.
</event>
<event>
 5   0  0.6360455E-03  0.9542808E+03  0.7818609E-02  0.9360161E-01
        2   -1    0    0  501    0  0.00000000000E+00  0.00000000000E+00  0.58676077368E+03  0.58676077369E+03  0.25500000920E-02 0. -1.
       -2   -1    0    0    0  501  0.00000000000E+00  0.00000000000E+00 -0.38799960843E+03  0.38799960844E+03  0.25500000920E-02 0.  1.
    10030    2    1    2    0    0  0.00000000000E+00  0.00000000000E+00  0.19876116525E+03  0.97476038213E+03  0.95428077721E+03 0.  0.
        4    1    3    3  502    0  0.45484311069E+03  0.75937880769E+02 -0.25774502519E+02  0.46186010324E+03  0.12699999809E+01 0.  1.
       -4    1    3    3    0  502 -0.45484311069E+03 -0.75937880769E+02  0.22453566777E+03  0.51290027889E+03  0.12699999809E+01 0. -1.
</event>
<event>
 5   0  0.3640180E-03  0.9995901E+03  0.7818609E-02  0.9308994E-01
       -1   -1    0    0    0  501  0.00000000000E+00  0.00000000000E+00  0.17449987885E+04  0.17449987885E+04  0.50400001928E-02 0. -1.
        1   -1    0    0  501    0  0.00000000000E+00  0.00000000000E+00 -0.14314915024E+03  0.14314915033E+03  0.50400001928E-02 0.  1.
    10030    2    1    2    0    0  0.00000000000E+00  0.00000000000E+00  0.16018496383E+04  0.18881479389E+04  0.99959010367E+03 0.  0.
        5    1    3    3  502    0  0.48474344039E+03  0.25352018846E+02  0.10256516009E+04  0.11347256163E+04  0.46999998093E+01 0. -1.
       -5    1    3    3    0  502 -0.48474344039E+03 -0.25352018846E+02  0.57619803742E+03  0.75342232260E+03  0.46999998093E+01 0.  1.
</event>
<event>
 5   0  0.6376961E-03  0.9976739E+03  0.7818609E-02  0.9311100E-01
        2   -1    0    0  501    0  0.00000000000E+00  0.00000000000E+00  0.23257013764E+04  0.23257013764E+04  0.25500000920E-02 0. -1.
       -2   -1    0    0    0  501  0.00000000000E+00  0.00000000000E+00 -0.10699495927E+03  0.10699495930E+03  0.25500000920E-02 0.  1.
    10030    2    1    2    0    0  0.00000000000E+00  0.00000000000E+00  0.22187064171E+04  0.24326963357E+04  0.99767394288E+03 0.  0.
        3    1    3    3  502    0 -0.18391180749E+03  0.21620658257E+03  0.21095879634E+04  0.21285981831E+04  0.10100000352E+00 0. -1.
       -3    1    3    3    0  502  0.18391180749E+03 -0.21620658257E+03  0.10911845365E+03  0.30409815259E+03  0.10100000352E+00 0.  1.
</event>
<event>
 5   0  0.6360455E-03  0.1043768E+04  0.7818609E-02  0.9261802E-01
        2   -1    0    0  501    0  0.00000000000E+00  0.00000000000E+00  0.21802343957E+04  0.21802343957E+04  0.25500000920E-02 0.  1.
       -2   -1    0    0    0  501  0.00000000000E+00  0.00000000000E+00 -0.12492371573E+03  0.12492371576E+03  0.25500000920E-02 0. -1.
    10030    2    1    2    0    0  0.00000000000E+00  0.00000000000E+00  0.20553106800E+04  0.23051581115E+04  0.10437681388E+04 0.  0.
        4    1    3    3  502    0  0.14177726880E+03 -0.16203441827E+03 -0.22264428096E+02  0.21645614870E+03  0.12699999809E+01 0. -1.
       -4    1    3    3    0  502 -0.14177726880E+03  0.16203441827E+03  0.20775751081E+04  0.20887019628E+04  0.12699999809E+01 0.  1.
</event>
<event>
 5   0  0.6606947E-03  0.9967550E+03  0.7818609E-02  0.9312111E-01
        2   -1    0    0  501    0  0.00000000000E+00  0.00000000000E+00  0.53946573664E+03  0.53946573665E+03  0.25500000920E-02 0. -1.
       -2   -1    0    0    0  501  0.00000000000E+00  0.00000000000E+00 -0.46041871704E+03  0.46041871705E+03  0.25500000920E-02 0.  1.
    10030    2    1    2    0    0  0.00000000000E+00  0.00000000000E+00  0.79047019599E+02  0.99988445370E+03  0.99675497964E+03 0.  0.
        1    1    3    3  502    0 -0.38812180636E+03  0.21380171584E+03  0.26834143043E+03  0.51803169168E+03  0.50400001928E-02 0. -1.
       -1    1    3    3    0  502  0.38812180636E+03 -0.21380171584E+03 -0.18929441083E+03  0.48185276202E+03  0.50400001928E-02 0.  1.
</event>
<event>
 5   0  0.3569359E-03  0.9819430E+03  0.7818609E-02  0.9328574E-01
        1   -1    0    0  501    0  0.00000000000E+00  0.00000000000E+00  0.51830276055E+03  0.51830276058E+03  0.50400001928E-02 0.  1.
       -1   -1    0    0    0  501  0.00000000000E+00  0.00000000000E+00 -0.46508149541E+03  0.46508149544E+03  0.50400001928E-02 0. -1.
    10030    2    1    2    0    0  0.00000000000E+00  0.00000000000E+00  0.53221265142E+02  0.98338425602E+03  0.98194301867E+03 0.  0.
        4    1    3    3  502    0 -0.27217655432E+03  0.39556579690E+03 -0.76004551550E+02  0.48613854111E+03  0.12699999809E+01 0.  1.
       -4    1    3    3    0  502  0.27217655432E+03 -0.39556579690E+03  0.12922581669E+03  0.49724571491E+03  0.12699999809E+01 0. -1.
</event>
<event>
 5   0  0.6376961E-03  0.9962270E+03  0.7818609E-02  0.9312693E-01
       -2   -1    0    0    0  501  0.00000000000E+00  0.00000000000E+00  0.33436556311E+03  0.33436556312E+03  0.25500000920E-02 0.  1.
        2   -1    0    0  501    0  0.00000000000E+00  0.00000000000E+00 -0.74205321000E+03  0.74205321000E+03  0.25500000920E-02 0. -1.
    10030    2    1    2    0    0  0.00000000000E+00  0.00000000000E+00 -0.40768764689E+03  0.10764187731E+04  0.99622696093E+03 0.  0.
        3    1    3    3  502    0  0.30656648725E+03  0.35457252597E+03 -0.38597172716E+03  0.60718932109E+03  0.10100000352E+00 0. -1.
       -3    1    3    3    0  502 -0.30656648725E+03 -0.35457252597E+03 -0.21715919733E+02  0.46922945203E+03  0.10100000352E+00 0.  1.
</event>
<event>
 5   0  0.6022787E-03  0.1004873E+04  0.7818609E-02  0.9303217E-01
        2   -1    0    0  501    0  0.00000000000E+00  0.00000000000E+00  0.36382867242E+03  0.36382867243E+03  0.25500000920E-02 0. -1.
       -2   -1    0    0    0  501  0.00000000000E+00  0.00000000000E+00 -0.69384911809E+03  0.69384911809E+03  0.25500000920E-02 0.  1.
    10030    2    1    2    0    0  0.00000000000E+00  0.00000000000E+00 -0.33002044566E+03  0.10576777905E+04  0.10048725362E+04 0.  0.
        5    1    3    3  502    0  0.32072870058E+03  0.28811729055E+03  0.10650186020E+03  0.44412071412E+03  0.46999998093E+01 0. -1.
       -5    1    3    3    0  502 -0.32072870058E+03 -0.28811729055E+03 -0.43652230586E+03  0.61355707640E+03  0.46999998093E+01 0.  1.
</event>
<event>
 5   0  0.3466598E-03  0.1004812E+04  0.7818609E-02  0.9303283E-01
        1   -1    0    0  501    0  0.00000000000E+00  0.00000000000E+00  0.39877937290E+03  0.39877937293E+03  0.50400001928E-02 0.  1.
       -1   -1    0    0    0  501  0.00000000000E+00  0.00000000000E+00 -0.63296089303E+03  0.63296089305E+03  0.50400001928E-02 0. -1.
    10030    2    1    2    0    0  0.00000000000E+00  0.00000000000E+00 -0.23418152012E+03  0.10317402660E+04  0.10048119188E+04 0.  0.
        3    1    3    3  502    0  0.39547269085E+03 -0.13046480545E+03  0.17149654387E+03  0.45036739383E+03  0.10100000352E+00 0.  1.
       -3    1    3    3    0  502 -0.39547269085E+03  0.13046480545E+03 -0.40567806399E+03  0.58137287215E+03  0.10100000352E+00 0. -1.
</event>
<event>
 5   0  0.2417750E-03  0.1000575E+04  0.7818609E-02  0.9307915E-01
        3   -1    0    0  501    0  0.00000000000E+00  0.00000000000E+00  0.14197822531E+04  0.14197822567E+04  0.10100000352E+00 0. -1.
       -3   -1    0    0    0  501  0.00000000000E+00  0.00000000000E+00 -0.17628579764E+03  0.17628582657E+03  0.10100000352E+00 0.  1.
    10030    2    1    2    0    0  0.00000000000E+00  0.00000000000E+00  0.12434964555E+04  0.15960680833E+04  0.10005747807E+04 0.  0.
        1    1    3    3  502    0 -0.44577622269E+03 -0.55878768759E+01  0.98388552676E+03  0.10801751686E+04  0.50400001928E-02 0. -1.
       -1    1    3    3    0  502  0.44577622269E+03  0.55878768759E+01  0.25961092874E+03  0.51589291469E+03  0.50400001928E-02 0.  1.
</event>
<event>
 5   0  0.3569359E-03  0.1007455E+04  0.7818609E-02  0.9300405E-01
       -1   -1    0    0    0  501  0.00000000000E+00  0.00000000000E+00  0.59605673713E+03  0.59605673715E+03  0.50400001928E-02 0.  1.
        1   -1    0    0  501    0  0.00000000000E+00  0.00000000000E+00 -0.42570043192E+03  0.42570043195E+03  0.50400001928E-02 0. -1.
    10030    2    1    2    0    0  0.00000000000E+00  0.00000000000E+00  0.17035630520E+03  0.10217571691E+04  0.10074554292E+04 0.  0.
        4    1    3    3  502    0  0.27341516624E+03 -0.37917525861E+03 -0.10512961527E+03  0.47914880651E+03  0.12699999809E+01 0. -1.
       -4    1    3    3    0  502 -0.27341516624E+03  0.37917525861E+03  0.27548592047E+03  0.54260836259E+03  0.12699999809E+01 0.  1.
</event>
<event>
 5   0  0.6360455E-03  0.9971006E+03  0.7818609E-02  0.9311730E-01
        2   -1    0    0  501    0  0.00000000000E+00  0.00000000000E+00  0.20419808310E+04  0.20419808310E+04  0.25500000920E-02 0. -1.
       -2   -1    0    0    0  501  0.00000000000E+00  0.00000000000E+00 -0.12172123071E+03  0.12172123073E+03  0.25500000920E-02 0.  1.
    10030    2    1    2    0    0  0.00000000000E+00  0.00000000000E+00  0.19202596003E+04  0.21637020618E+04  0.99710063657E+03 0.  0.
        4    1    3    3  502    0 -0.34449748213E+03  0.46818022574E+02  0.17355203833E+04  0.17700008634E+04  0.12699999809E+01 0. -1.
       -4    1    3    3    0  502  0.34449748213E+03 -0.46818022574E+02  0.18473921700E+03  0.39370119841E+03  0.12699999809E+01 0.  1.
</event>
<event>
 5   0  0.3466598E-03  0.1003715E+04  0.7818609E-02  0.9304479E-01
        1   -1    0    0  501    0  0.00000000000E+00  0.00000000000E+00  0.38233307374E+03  0.38233307378E+03  0.50400001928E-02 0.  1.
       -1   -1    0    0    0  501  0.00000000000E+00  0.00000000000E+00 -0.65874780763E+03  0.65874780765E+03  0.50400001928E-02 0. -1.
    10030    2    1    2    0    0  0.00000000000E+00  0.00000000000E+00 -0.27641473389E+03  0.10410808814E+04  0.10037152468E+04 0.  0.
        3    1    3    3  502    0  0.30152172798E+03 -0.40118034634E+03 -0.13841791259E+03  0.52059634215E+03  0.10100000352E+00 0. -1.
       -3    1    3    3    0  502 -0.30152172798E+03  0.40118034634E+03 -0.13799682130E+03  0.52048453928E+03  0.10100000352E+00 0.  1.
</event>
<event>
 5   0  0.6022787E-03  0.9320935E+03  0.7818609E-02  0.9386329E-01
        2   -1    0    0  501    0  0.00000000000E+00  0.00000000000E+00  0.66785851565E+03  0.66785851565E+03  0.25500000920E-02 0.  1.
       -2   -1    0    0    0  501  0.00000000000E+00  0.00000000000E+00 -0.32521791636E+03  0.32521791637E+03  0.25500000920E-02 0. -1.
    10030    2    1    2    0    0  0.00000000000E+00  0.00000000000E+00  0.34264059929E+03  0.99307643203E+03  0.93209346075E+03 0.  0.
        5    1    3    3  502    0  0.21701099419E+03 -0.19687249743E+02 -0.26757320318E+03  0.34510703913E+03  0.46999998093E+01 0. -1.
       -5    1    3    3    0  502 -0.21701099419E+03  0.19687249743E+02  0.61021380247E+03  0.64796939289E+03  0.46999998093E+01 0.  1.
</event>
<event>
 5   0  0.6199539E-03  0.9423777E+03  0.7818609E-02  0.9374105E-01
        2   -1    0    0  501    0  0.00000000000E+00  0.00000000000E+00  0.27104179047E+03  0.27104179049E+03  0.25500000920E-02 0. -1.
       -2   -1    0    0    0  501  0.00000000000E+00  0.00000000000E+00 -0.81913168006E+03  0.81913168006E+03  0.25500000920E-02 0.  1.
    10030    2    1    2    0    0  0.00000000000E+00  0.00000000000E+00 -0.54808988958E+03  0.10901734706E+04  0.94237766783E+03 0.  0.
        2    1    3    3  502    0  0.44647491490E+03  0.14672342481E+03 -0.23479259473E+03  0.52535242987E+03  0.25500000920E-02 0.  1.
       -2    1    3    3    0  502 -0.44647491490E+03 -0.14672342481E+03 -0.31329729486E+03  0.56482104068E+03  0.25500000920E-02 0. -1.
</event>
<event>
 5   0  0.6022787E-03  0.9998259E+03  0.7818609E-02  0.9308736E-01
       -2   -1    0    0    0  501  0.00000000000E+00  0.00000000000E+00  0.47267005715E+03  0.47267005715E+03  0.25500000920E-02 0. -1.
        2   -1    0    0  501    0  0.00000000000E+00  0.00000000000E+00 -0.52872606793E+03  0.52872606794E+03  0.25500000920E-02 0.  1.
    10030    2    1    2    0    0  0.00000000000E+00  0.00000000000E+00 -0.56056010787E+02  0.10013961251E+04  0.99982594635E+03 0.  0.
        5    1    3    3  502    0 -0.11031823682E+03  0.81827174350E+02 -0.50943353960E+03  0.52764611351E+03  0.46999998093E+01 0.  1.
       -5    1    3    3    0  502  0.11031823682E+03 -0.81827174350E+02  0.45337752881E+03  0.47375001158E+03  0.46999998093E+01 0. -1.
</event>
<event>
 5   0  0.3466598E-03  0.9963714E+03  0.7818609E-02  0.9312534E-01
        1   -1    0    0  501    0  0.00000000000E+00  0.00000000000E+00  0.89227500646E+03  0.89227500647E+03  0.50400001928E-02 0. -1.
       -1   -1    0    0    0  501  0.00000000000E+00  0.00000000000E+00 -0.27815303927E+03  0.27815303931E+03  0.50400001928E-02 0.  1.
    10030    2    1    2    0    0  0.00000000000E+00  0.00000000000E+00  0.61412196719E+03  0.11704280458E+04  0.99637142662E+03 0.  0.
        3    1    3    3  502    0 -0.84729422314E+02 -0.48906711026E+03  0.25690181766E+03  0.55889557832E+03  0.10100000352E+00 0.  1.
       -3    1    3    3    0  502  0.84729422314E+02  0.48906711026E+03  0.35722014953E+03  0.61153246747E+03  0.10100000352E+00 0. -1.
</event>
<event>
 5   0  0.3569359E-03  0.1002978E+04  0.7818609E-02  0.9305285E-01
       -1   -1    0    0    0  501  0.00000000000E+00  0.00000000000E+00  0.35495545044E+03  0.35495545048E+03  0.50400001928E-02 0.  1.
        1   -1    0    0  501    0  0.00000000000E+00  0.00000000000E+00 -0.70851418452E+03  0.70851418453E+03  0.50400001928E-02 0. -1.
    10030    2    1    2    0    0  0.00000000000E+00  0.00000000000E+00 -0.35355873407E+03  0.10634696350E+04  0.10029775103E+04 0.  0.
        4    1    3    3  502    0 -0.25943912201E+03  0.41165653497E+03 -0.30542109685E+03  0.57450275901E+03  0.12699999809E+01 0. -1.
       -4    1    3    3    0  502  0.25943912201E+03 -0.41165653497E+03 -0.48137637222E+02  0.48896687600E+03  0.12699999809E+01 0.  1.
</event>
<event>
 5   0  0.6376961E-03  0.9888180E+03  0.7818609E-02  0.9320895E-01
        2   -1    0    0  501    0  0.00000000000E+00  0.00000000000E+00  0.69108346851E+03  0.69108346851E+03  0.25500000920E-02 0. -1.
       -2   -1    0    0    0  501  0.00000000000E+00  0.00000000000E+00 -0.35370586379E+03  0.35370586380E+03  0.25500000920E-02 0.  1.
    10030    2    1    2    0    0  0.00000000000E+00  0.00000000000E+00  0.33737760472E+03  0.10447893323E+04  0.98881803217E+03 0.  0.
        3    1    3    3  502    0  0.12484912373E+03 -0.43687279619E+03  0.37464566582E+03  0.58890111977E+03  0.10100000352E+00 0.  1.
       -3    1    3    3    0  502 -0.12484912373E+03  0.43687279619E+03 -0.37268061106E+02  0.45588821254E+03  0.10100000352E+00 0. -1.
</event>
<event>
 5   0  0.3643002E-03  0.9798394E+03  0.7818609E-02  0.9330937E-01
        1   -1    0    0  501    0  0.00000000000E+00  0.00000000000E+00  0.30491872249E+03  0.30491872254E+03  0.50400001928E-02 0.  1.
       -1   -1    0    0    0  501  0.00000000000E+00  0.00000000000E+00 -0.78716485726E+03  0.78716485728E+03  0.50400001928E-02 0. -1.
    10030    2    1    2    0    0  0.00000000000E+00  0.00000000000E+00 -0.48224613476E+03  0.10920835798E+04  0.97983938010E+03 0.  0.
        2    1    3    3  502    0  0.34279109559E+03 -0.15659115296E+03 -0.59002426056E+03  0.70011081442E+03  0.25500000920E-02 0. -1.
       -2    1    3    3    0  502 -0.34279109559E+03  0.15659115296E+03  0.10777812580E+03  0.39197276540E+03  0.25500000920E-02 0.  1.
</event>
<event>
 5   0  0.6360455E-03  0.9966873E+03  0.7818609E-02  0.9312186E-01
        2   -1    0    0  501    0  0.00000000000E+00  0.00000000000E+00  0.10955230519E+04  0.10955230519E+04  0.25500000920E-02 0.  1.
       -2   -1    0    0    0  501  0.00000000000E+00  0.00000000000E+00 -0.22669208602E+03  0.22669208603E+03  0.25500000920E-02 0. -1.
    10030    2    1    2    0    0  0.00000000000E+00  0.00000000000E+00  0.86883096587E+03  0.13222151379E+04  0.99668732494E+03 0.  0.
        4    1    3    3  502    0 -0.24381150660E+03  0.43202256572E+03  0.49744333943E+03  0.70252333547E+03  0.12699999809E+01 0.  1.
       -4    1    3    3    0  502  0.24381150660E+03 -0.43202256572E+03  0.37138762645E+03  0.61969180245E+03  0.12699999809E+01 0. -1.
</event>
<event>
 5   0  0.3569359E-03  0.9756026E+03  0.7818609E-02  0.9335716E-01
       -1   -1    0    0    0  501  0.00000000000E+00  0.00000000000E+00  0.83747078181E+03  0.83747078182E+03  0.50400001928E-02 0. -1.
        1   -1    0    0  501    0  0.00000000000E+00  0.00000000000E+00 -0.28412944387E+03  0.28412944391E+03  0.50400001928E-02 0.  1.
    10030    2    1    2    0    0  0.00000000000E+00  0.00000000000E+00  0.55334133794E+03  0.11216002257E+04  0.97560259844E+03 0.  0.
        4    1    3    3  502    0  0.19597517822E+03 -0.10565205331E+03  0.77564980136E+03  0.80697140847E+03  0.12699999809E+01 0. -1.
       -4    1    3    3    0  502 -0.19597517822E+03  0.10565205331E+03 -0.22230846342E+03  0.31462881726E+03  0.12699999809E+01 0.  1.
</event>
<event>
 5   0  0.3608845E-03  0.8807464E+03  0.7818609E-02  0.9449975E-01
       -1   -1    0    0    0  501  0.00000000000E+00  0.00000000000E+00  0.84019561696E+02  0.84019561847E+02  0.50400001928E-02 0.  1.
        1   -1    0    0  501    0  0.00000000000E+00  0.00000000000E+00 -0.23081356871E+04  0.23081356871E+04  0.50400001928E-02 0. -1.
    10030    2    1    2    0    0  0.00000000000E+00  0.00000000000E+00 -0.22241161254E+04  0.23921552490E+04  0.88074638564E+03 0.  0.
        1    1    3    3  502    0 -0.19851872457E+03  0.39818437060E+02 -0.49898892835E+02  0.20853079261E+03  0.50400001928E-02 0.  1.
       -1    1    3    3    0  502  0.19851872457E+03 -0.39818437060E+02 -0.21742172326E+04  0.21836244564E+04  0.50400001928E-02 0. -1.
</event>
<event>
 5   0  0.3640180E-03  0.1005674E+04  0.7818609E-02  0.9302343E-01
       -1   -1    0    0    0  501  0.00000000000E+00  0.00000000000E+00  0.16633898156E+03  0.16633898163E+03  0.50400001928E-02 0.  1.
        1   -1    0    0  501    0  0.00000000000E+00  0.00000000000E+00 -0.15200599654E+04  0.15200599655E+04  0.50400001928E-02 0. -1.
    10030    2    1    2    0    0  0.00000000000E+00  0.00000000000E+00 -0.13537209839E+04  0.16863989471E+04  0.10056743541E+04 0.  0.
        5    1    3    3  502    0 -0.22087474432E+03  0.27717547287E+03 -0.78771661116E+02  0.36309635090E+03  0.46999998093E+01 0.  1.
       -5    1    3    3    0  502  0.22087474432E+03 -0.27717547287E+03 -0.12749493228E+04  0.13233025962E+04  0.46999998093E+01 0. -1.
</event>
<event>
 5   0  0.3466598E-03  0.1010676E+04  0.7818609E-02  0.9296913E-01
        1   -1    0    0  501    0  0.00000000000E+00  0.00000000000E+00  0.88559122418E+03  0.88559122420E+03  0.50400001928E-02 0.  1.
       -1   -1    0    0    0  501  0.00000000000E+00  0.00000000000E+00 -0.28835700570E+03  0.28835700574E+03  0.50400001928E-02 0. -1.
    10030    2    1    2    0    0  0.00000000000E+00  0.00000000000E+00  0.59723421849E+03  0.11739482299E+04  0.10106758802E+04 0.  0.
        3    1    3    3  502    0 -0.30699445263E+03  0.38126319284E+03  0.15280142880E+03  0.51279187104E+03  0.10100000352E+00 0. -1.
       -3    1    3    3    0  502  0.30699445263E+03 -0.38126319284E+03  0.44443278969E+03  0.66115635890E+03  0.10100000352E+00 0.  1.
</event>
<event>
 5   0  0.6199539E-03  0.9964694E+03  0.7818609E-02  0.9312426E-01
       -2   -1    0    0    0  501  0.00000000000E+00  0.00000000000E+00  0.20907283769E+03  0.20907283770E+03  0.25500000920E-02 0. -1.
        2   -1    0    0  501    0  0.00000000000E+00  0.00000000000E+00 -0.11873269109E+04  0.11873269109E+04  0.25500000920E-02 0.  1.
    10030    2    1    2    0    0  0.00000000000E+00  0.00000000000E+00 -0.97825407326E+03  0.13963997486E+04  0.99646938045E+03 0.  0.
        2    1    3    3  502    0 -0.10325580203E+03 -0.21031171697E+03  0.12705964543E+03  0.26652754539E+03  0.25500000920E-02 0. -1.
       -2    1    3    3    0  502  0.10325580203E+03  0.21031171697E+03 -0.11053137187E+04  0.11298722033E+04  0.25500000920E-02 0.  1.
</event>
<event>
 5   0  0.3569359E-03  0.9922950E+03  0.7818609E-02  0.9317036E-01
       -1   -1    0    0    0  501  0.00000000000E+00  0.00000000000E+00  0.69406375247E+03  0.69406375249E+03  0.50400001928E-02 0. -1.
        1   -1    0    0  501    0  0.00000000000E+00  0.00000000000E+00 -0.35466817687E+03  0.35466817691E+03  0.50400001928E-02 0.  1.
    10030    2    1    2    0    0  0.00000000000E+00  0.00000000000E+00  0.33939557560E+03  0.10487319294E+04  0.99229496774E+03 0.  0.
        4    1    3    3  502    0  0.17582596335E+03 -0.72987613510E+02  0.65392514205E+03  0.68107390598E+03  0.12699999809E+01 0. -1.
       -4    1    3    3    0  502 -0.17582596335E+03  0.72987613510E+02 -0.31452956644E+03  0.36765802341E+03  0.12699999809E+01 0.  1.
</event>
<event>
 5   0  0.6022787E-03  0.9943309E+03  0.7818609E-02  0.9314785E-01
        2   -1    0    0  501    0  0.00000000000E+00  0.00000000000E+00  0.32258449970E+03  0.32258449971E+03  0.25500000920E-02 0. -1.
       -2   -1    0    0    0  501  0.00000000000E+00  0.00000000000E+00 -0.76622864612E+03  0.76622864612E+03  0.25500000920E-02 0.  1.
    10030    2    1    2    0    0  0.00000000000E+00  0.00000000000E+00 -0.44364414642E+03  0.10888131458E+04  0.99433089960E+03 0.  0.
        5    1    3    3  502    0 -0.23618009966E+03 -0.79422761752E+02  0.24924363620E+03  0.35246772156E+03  0.46999998093E+01 0. -1.
       -5    1    3    3    0  502  0.23618009966E+03  0.79422761752E+02 -0.69288778261E+03  0.73634542428E+03  0.46999998093E+01 0.  1.
</event>
<event>
 5   0  0.2417750E-03  0.9979277E+03  0.7818609E-02  0.9310821E-01
        3   -1    0    0  501    0  0.00000000000E+00  0.00000000000E+00  0.44096804418E+03  0.44096805575E+03  0.10100000352E+00 0.  1.
       -3   -1    0    0    0  501  0.00000000000E+00  0.00000000000E+00 -0.56458718097E+03  0.56458719001E+03  0.10100000352E+00 0. -1.
    10030    2    1    2    0    0  0.00000000000E+00  0.00000000000E+00 -0.12361913679E+03  0.10055552458E+04  0.99792768339E+03 0.  0.
        1    1    3    3  502    0  0.40110060104E+03  0.26480575846E+03 -0.19685308386E+03  0.51937935896E+03  0.50400001928E-02 0. -1.
       -1    1    3    3    0  502 -0.40110060104E+03 -0.26480575846E+03  0.73233947063E+02  0.48617588679E+03  0.50400001928E-02 0.  1.
</event>
<event>
 5   0  0.6360455E-03  0.1000798E+04  0.7818609E-02  0.9307670E-01
        2   -1    0    0  501    0  0.00000000000E+00  0.00000000000E+00  0.58062140259E+03  0.58062140260E+03  0.25500000920E-02 0.  1.
       -2   -1    0    0    0  501  0.00000000000E+00  0.00000000000E+00 -0.43126063103E+03  0.43126063104E+03  0.25500000920E-02 0. -1.
    10030    2    1    2    0    0  0.00000000000E+00  0.00000000000E+00  0.14936077156E+03  0.10118820336E+04  0.10007979866E+04 0.  0.
        4    1    3    3  502    0 -0.17576758964E+03 -0.25218092781E+03 -0.32454464656E+03  0.44701264684E+03  0.12699999809E+01 0. -1.
       -4    1    3    3    0  502  0.17576758964E+03  0.25218092781E+03  0.47390541812E+03  0.56486938680E+03  0.12699999809E+01 0.  1.
</event>
<event>
 5   0  0.3608845E-03  0.9961880E+03  0.7818609E-02  0.9312736E-01
       -1   -1    0    0    0  501  0.00000000000E+00  0.00000000000E+00  0.27409464821E+03  0.27409464826E+03  0.50400001928E-02 0.  1.
        1   -1    0    0  501    0  0.00000000000E+00  0.00000000000E+00 -0.90515322364E+03  0.90515322365E+03  0.50400001928E-02 0. -1.
    10030    2    1    2    0    0  0.00000000000E+00  0.00000000000E+00 -0.63105857543E+03  0.11792478719E+04  0.99618804339E+03 0.  0.
        1    1    3    3  502    0 -0.17720629087E+03 -0.12949264554E+03  0.21376811297E+03  0.30637757901E+03  0.50400001928E-02 0.  1.
       -1    1    3    3    0  502  0.17720629087E+03  0.12949264554E+03 -0.84482668840E+03  0.87287029290E+03  0.50400001928E-02 0. -1.
</event>
<event>
 5   0  0.6022787E-03  0.1001510E+04  0.7818609E-02  0.9306890E-01
       -2   -1    0    0    0  501  0.00000000000E+00  0.00000000000E+00  0.29954677130E+03  0.29954677131E+03  0.25500000920E-02 0. -1.
        2   -1    0    0  501    0  0.00000000000E+00  0.00000000000E+00 -0.83711623788E+03  0.83711623789E+03  0.25500000920E-02 0.  1.
    10030    2    1    2    0    0  0.00000000000E+00  0.00000000000E+00 -0.53756946658E+03  0.11366630092E+04  0.10015097928E+04 0.  0.
        5    1    3    3  502    0 -0.36958565467E+03 -0.27085720166E+03 -0.39603061528E+02  0.45994311856E+03  0.46999998093E+01 0.  1.
       -5    1    3    3    0  502  0.36958565467E+03  0.27085720166E+03 -0.49796640505E+03  0.67671989064E+03  0.46999998093E+01 0. -1.
</event>
<event>
 5   0  0.2417750E-03  0.1003790E+04  0.7818609E-02  0.9304398E-01
        3   -1    0    0  501    0  0.00000000000E+00  0.00000000000E+00  0.74472618760E+03  0.74472619445E+03  0.10100000352E+00 0. -1.
       -3   -1    0    0    0  501  0.00000000000E+00  0.00000000000E+00 -0.33824325180E+03  0.33824326688E+03  0.10100000352E+00 0.  1.
    10030    2    1    2    0    0  0.00000000000E+00  0.00000000000E+00  0.40648293580E+03  0.10829694613E+04  0.10037900563E+04 0.  0.
        1    1    3    3  502    0 -0.37142486317E+03  0.12652122283E+03  0.54087170390E+03  0.66821123076E+03  0.50400001928E-02 0. -1.
       -1    1    3    3    0  502  0.37142486317E+03 -0.12652122283E+03 -0.13438876810E+03  0.41475823057E+03  0.50400001928E-02 0.  1.
</event>
<event>
 5   0  0.6606947E-03  0.9971659E+03  0.7818609E-02  0.9311659E-01
       -2   -1    0    0    0  501  0.00000000000E+00  0.00000000000E+00  0.23794918846E+03  0.23794918847E+03  0.25500000920E-02 0. -1.
        2   -1    0    0  501    0  0.00000000000E+00  0.00000000000E+00 -0.10446976529E+04  0.10446976529E+04  0.25500000920E-02 0.  1.
    10030    2    1    2    0    0  0.00000000000E+00  0.00000000000E+00 -0.80674846444E+03  0.12826468414E+04  0.99716590135E+03 0.  0.
        1    1    3    3  502    0  0.28705134713E+02 -0.48360537376E+02  0.23385637561E+03  0.24052345161E+03  0.50400001928E-02 0. -1.
       -1    1    3    3    0  502 -0.28705134713E+02  0.48360537376E+02 -0.10406048401E+04  0.10421233898E+04  0.50400001928E-02 0.  1.
</event>
<event>
 5   0  0.6376961E-03  0.9581152E+03  0.7818609E-02  0.9355715E-01
        2   -1    0    0  501    0  0.00000000000E+00  0.00000000000E+00  0.14689195903E+04  0.14689195903E+04  0.25500000920E-02 0. -1.
       -2   -1    0    0    0  501  0.00000000000E+00  0.00000000000E+00 -0.15623468349E+03  0.15623468351E+03  0.25500000920E-02 0.  1.
    10030    2    1    2    0    0  0.00000000000E+00  0.00000000000E+00  0.13126849068E+04  0.16251542738E+04  0.95811520661E+03 0.  0.
        3    1    3    3  502    0 -0.30396100521E+03 -0.52040971037E+02  0.12781692332E+04  0.13148449165E+04  0.10100000352E+00 0. -1.
       -3    1    3    3    0  502  0.30396100521E+03  0.52040971037E+02  0.34515673615E+02  0.31030935739E+03  0.10100000352E+00 0.  1.
</event>
<event>
 5   0  0.3608845E-03  0.1108826E+04  0.7818609E-02  0.9196632E-01
       -1   -1    0    0    0  501  0.00000000000E+00  0.00000000000E+00  0.22002853755E+03  0.22002853761E+03  0.50400001928E-02 0. -1.
        1   -1    0    0  501    0  0.00000000000E+00  0.00000000000E+00 -0.13969733736E+04  0.13969733736E+04  0.50400001928E-02 0.  1.
    10030    2    1    2    0    0  0.00000000000E+00  0.00000000000E+00 -0.11769448361E+04  0.16170019112E+04  0.11088264219E+04 0.  0.
        1    1    3    3  502    0  0.54421779747E+03  0.10310591461E+03 -0.62329398236E+03  0.83384604646E+03  0.50400001928E-02 0. -1.
       -1    1    3    3    0  502 -0.54421779747E+03 -0.10310591461E+03 -0.55365085371E+03  0.78315586479E+03  0.50400001928E-02 0.  1.
</event>
<event>
 5   0  0.3643002E-03  0.1008502E+04  0.7818609E-02  0.9299269E-01
        1   -1    0    0  501    0  0.00000000000E+00  0.00000000000E+00  0.18755194123E+04  0.18755194123E+04  0.50400001928E-02 0.  1.
       -1   -1    0    0    0  501  0.00000000000E+00  0.00000000000E+00 -0.13557266823E+03  0.13557266832E+03  0.50400001928E-02 0. -1.
    10030    2    1    2    0    0  0.00000000000E+00  0.00000000000E+00  0.17399467441E+04  0.20110920807E+04  0.10085021986E+04 0.  0.
        2    1    3    3  502    0  0.30125651572E+03 -0.11036747594E+03  0.94223877506E+02  0.33438691229E+03  0.25500000920E-02 0. -1.
       -2    1    3    3    0  502 -0.30125651572E+03  0.11036747594E+03  0.16457228666E+04  0.16767051684E+04  0.25500000920E-02 0.  1.
</event>
<event>
 5   0  0.6606947E-03  0.1003708E+04  0.7818609E-02  0.9304487E-01
        2   -1    0    0  501    0  0.00000000000E+00  0.00000000000E+00  0.15314189672E+04  0.15314189672E+04  0.25500000920E-02 0. -1.
       -2   -1    0    0    0  501  0.00000000000E+00  0.00000000000E+00 -0.16446012106E+03  0.16446012108E+03  0.25500000920E-02 0.  1.
    10030    2    1    2    0    0  0.00000000000E+00  0.00000000000E+00  0.13669588461E+04  0.16958790883E+04  0.10037078235E+04 0.  0.
        1    1    3    3  502    0  0.48263656182E+02 -0.25140337237E+03 -0.45847657255E+02  0.26006738328E+03  0.50400001928E-02 0.  1.
       -1    1    3    3    0  502 -0.48263656182E+02  0.25140337237E+03  0.14128065034E+04  0.14358117050E+04  0.50400001928E-02 0. -1.
</event>
<event>
 5   0  0.6376961E-03  0.9979967E+03  0.7818609E-02  0.9310745E-01
       -2   -1    0    0    0  501  0.00000000000E+00  0.00000000000E+00  0.21215164519E+03  0.21215164520E+03  0.25500000920E-02 0. -1.
        2   -1    0    0  501    0  0.00000000000E+00  0.00000000000E+00 -0.11736857545E+04  0.11736857545E+04  0.25500000920E-02 0.  1.
    10030    2    1    2    0    0  0.00000000000E+00  0.00000000000E+00 -0.96153410936E+03  0.13858373997E+04  0.99799672098E+03 0.  0.
        3    1    3    3  502    0 -0.46214940285E+02  0.39227684986E+03 -0.57335174593E+02  0.39912940268E+03  0.10100000352E+00 0. -1.
       -3    1    3    3    0  502  0.46214940285E+02 -0.39227684986E+03 -0.90419893477E+03  0.98670799707E+03  0.10100000352E+00 0.  1.
</event>
<event>
 5   0  0.3640180E-03  0.9693366E+03  0.7818609E-02  0.9342830E-01
       -1   -1    0    0    0  501  0.00000000000E+00  0.00000000000E+00  0.72945900339E+03  0.72945900341E+03  0.50400001928E-02 0.  1.
        1   -1    0    0  501    0  0.00000000000E+00  0.00000000000E+00 -0.32202405443E+03  0.32202405447E+03  0.50400001928E-02 0. -1.
    10030    2    1    2    0    0  0.00000000000E+00  0.00000000000E+00  0.40743494896E+03  0.10514830579E+04  0.96933656867E+03 0.  0.
        5    1    3    3  502    0  0.25969953127E+03 -0.21768922044E+03  0.57956060505E+03  0.67137547479E+03  0.46999998093E+01 0.  1.
       -5    1    3    3    0  502 -0.25969953127E+03  0.21768922044E+03 -0.17212565609E+03  0.38010758308E+03  0.46999998093E+01 0. -1.
</event>
<event>
 5   0  0.6376961E-03  0.9989138E+03  0.7818609E-02  0.9309737E-01
       -2   -1    0    0    0  501  0.00000000000E+00  0.00000000000E+00  0.54345620925E+03  0.54345620925E+03  0.25500000920E-02 0. -1.
        2   -1    0    0  501    0  0.00000000000E+00  0.00000000000E+00 -0.45901989355E+03  0.45901989356E+03  0.25500000920E-02 0.  1.
    10030    2    1    2    0    0  0.00000000000E+00  0.00000000000E+00  0.84436315697E+02  0.10024761028E+04  0.99891383277E+03 0.  0.
        3    1    3    3  502    0  0.27695933505E+03  0.32452412890E+03  0.30282636892E+03  0.52318849703E+03  0.10100000352E+00 0. -1.
       -3    1    3    3    0  502 -0.27695933505E+03 -0.32452412890E+03 -0.21839005323E+03  0.47928760578E+03  0.10100000352E+00 0.  1.
</event>
<event>
 5   0  0.3569359E-03  0.9864592E+03  0.7818609E-02  0.9323522E-01
        1   -1    0    0  501    0  0.00000000000E+00  0.00000000000E+00  0.29415083165E+03  0.29415083169E+03  0.50400001928E-02 0.  1.
       -1   -1    0    0    0  501  0.00000000000E+00  0.00000000000E+00 -0.82704324637E+03  0.82704324638E+03  0.50400001928E-02 0. -1.
    10030    2    1    2    0    0  0.00000000000E+00  0.00000000000E+00 -0.53289241472E+03  0.11211940781E+04  0.98645924145E+03 0.  0.
        4    1    3    3  502    0 -0.14104147782E+02  0.49232681025E+03 -0.23660722678E+03  0.54641486779E+03  0.12699999809E+01 0. -1.
       -4    1    3    3    0  502  0.14104147782E+02 -0.49232681025E+03 -0.29628518795E+03  0.57477921028E+03  0.12699999809E+01 0.  1.
</event>
<event>
 5   0  0.3569359E-03  0.9603883E+03  0.7818609E-02  0.9353090E-01
        1   -1    0    0  501    0  0.00000000000E+00  0.00000000000E+00  0.17922346698E+04  0.17922346698E+04  0.50400001928E-02 0.  1.
       -1   -1    0    0    0  501  0.00000000000E+00  0.00000000000E+00 -0.12865860267E+03  0.12865860277E+03  0.50400001928E-02 0. -1.
    10030    2    1    2    0    0  0.00000000000E+00  0.00000000000E+00  0.16635760671E+04  0.19208932726E+04  0.96038827227E+03 0.  0.
        4    1    3    3  502    0  0.16170423809E+03  0.95015513969E+02 -0.52366564113E+02  0.19473078454E+03  0.12699999809E+01 0. -1.
       -4    1    3    3    0  502 -0.16170423809E+03 -0.95015513969E+02  0.17159426312E+04  0.17261624880E+04  0.12699999809E+01 0.  1.
</event>
<event>
 5   0  0.6376961E-03  0.9943968E+03  0.7818609E-02  0.9314712E-01
       -2   -1    0    0    0  501  0.00000000000E+00  0.00000000000E+00  0.83124101947E+03  0.83124101947E+03  0.25500000920E-02 0. -1.
        2   -1    0    0  501    0  0.00000000000E+00  0.00000000000E+00 -0.29739417397E+03  0.29739417398E+03  0.25500000920E-02 0.  1.
    10030    2    1    2    0    0  0.00000000000E+00  0.00000000000E+00  0.53384684550E+03  0.11286351935E+04  0.99439677466E+03 0.  0.
        3    1    3    3  502    0 -0.13780283141E+03  0.29119315610E+03 -0.16291329601E+03  0.36100391511E+03  0.10100000352E+00 0.  1.
       -3    1    3    3    0  502  0.13780283141E+03 -0.29119315610E+03  0.69676014151E+03  0.76763127835E+03  0.10100000352E+00 0. -1.
</event>
<event>
 5   0  0.3466598E-03  0.8456102E+03  0.7818609E-02  0.9496248E-01
        1   -1    0    0  501    0  0.00000000000E+00  0.00000000000E+00  0.39256869806E+03  0.39256869809E+03  0.50400001928E-02 0. -1.
       -1   -1    0    0    0  501  0.00000000000E+00  0.00000000000E+00 -0.45537035991E+03  0.45537035993E+03  0.50400001928E-02 0.  1.
    10030    2    1    2    0    0  0.00000000000E+00  0.00000000000E+00 -0.62801661848E+02  0.84793905803E+03  0.84561019234E+03 0.  0.
        3    1    3    3  502    0  0.29435801888E+03 -0.18519603856E+03  0.20971914214E+03  0.40611124678E+03  0.10100000352E+00 0. -1.
       -3    1    3    3    0  502 -0.29435801888E+03  0.18519603856E+03 -0.27252080399E+03  0.44182781124E+03  0.10100000352E+00 0.  1.
</event>
<event>
 5   0  0.3608845E-03  0.1003928E+04  0.7818609E-02  0.9304247E-01
        1   -1    0    0  501    0  0.00000000000E+00  0.00000000000E+00  0.66800193347E+03  0.66800193349E+03  0.50400001928E-02 0. -1.
       -1   -1    0    0    0  501  0.00000000000E+00  0.00000000000E+00 -0.37719608028E+03  0.37719608031E+03  0.50400001928E-02 0.  1.
    10030    2    1    2    0    0  0.00000000000E+00  0.00000000000E+00  0.29080585320E+03  0.10451980138E+04  0.10039277085E+04 0.  0.
        1    1    3    3  502    0 -0.18207578429E+03  0.26452553240E+03 -0.25625783930E+03  0.41084477452E+03  0.50400001928E-02 0.  1.
       -1    1    3    3    0  502  0.18207578429E+03 -0.26452553240E+03  0.54706369250E+03  0.63435323929E+03  0.50400001928E-02 0. -1.
</event>
<event>
 5   0  0.3569359E-03  0.1003564E+04  0.7818609E-02  0.9304645E-01
        1   -1    0    0  501    0  0.00000000000E+00  0.00000000000E+00  0.95246555725E+03  0.95246555727E+03  0.50400001928E-02 0. -1.
       -1   -1    0    0    0  501  0.00000000000E+00  0.00000000000E+00 -0.26435075633E+03  0.26435075638E+03  0.50400001928E-02 0.  1.
    10030    2    1    2    0    0  0.00000000000E+00  0.00000000000E+00  0.68811480092E+03  0.12168163136E+04  0.10035636312E+04 0.  0.
        4    1    3    3  502    0 -0.49023732480E+03 -0.13480210300E+02  0.47277066837E+03  0.68119605729E+03  0.12699999809E+01 0. -1.
       -4    1    3    3    0  502  0.49023732480E+03  0.13480210300E+02  0.21534413256E+03  0.53562025636E+03  0.12699999809E+01 0.  1.
</event>
<event>
 5   0  0.6199539E-03  0.1006244E+04  0.7818609E-02  0.9301723E-01
       -2   -1    0    0    0  501  0.00000000000E+00  0.00000000000E+00  0.31362326704E+03  0.31362326705E+03  0.25500000920E-02 0. -1.
        2   -1    0    0  501    0  0.00000000000E+00  0.00000000000E+00 -0.80711993404E+03  0.80711993405E+03  0.25500000920E-02 0.  1.
    10030    2    1    2    0    0  0.00000000000E+00  0.00000000000E+00 -0.49349666700E+03  0.11207432011E+04  0.10062436894E+04 0.  0.
        2    1    3    3  502    0  0.24073514889E+03  0.10494824205E+03 -0.72472353622E+03  0.77083834192E+03  0.25500000920E-02 0.  1.
       -2    1    3    3    0  502 -0.24073514889E+03 -0.10494824205E+03  0.23122686921E+03  0.34990485918E+03  0.25500000920E-02 0. -1.
</event>
<event>
 5   0  0.6199539E-03  0.1016152E+04  0.7818609E-02  0.9291005E-01
       -2   -1    0    0    0  501  0.00000000000E+00  0.00000000000E+00  0.24730449257E+03  0.24730449258E+03  0.25500000920E-02 0. -1.
        2   -1    0    0  501    0  0.00000000000E+00  0.00000000000E+00 -0.10438195793E+04  0.10438195794E+04  0.25500000920E-02 0.  1.
    10030    2    1    2    0    0  0.00000000000E+00  0.00000000000E+00 -0.79651508678E+03  0.12911240719E+04  0.10161520977E+04 0.  0.
        2    1    3    3  502    0 -0.63018717917E+02  0.28116226318E+03 -0.92996686665E+03  0.97358202023E+03  0.25500000920E-02 0.  1.
       -2    1    3    3    0  502  0.63018717917E+02 -0.28116226318E+03  0.13345177987E+03  0.31754205170E+03  0.25500000920E-02 0. -1.
</event>
<event>
 5   0  0.6199539E-03  0.9976810E+03  0.7818609E-02  0.9311092E-01
        2   -1    0    0  501    0  0.00000000000E+00  0.00000000000E+00  0.66471096098E+03  0.66471096099E+03  0.25500000920E-02 0. -1.
       -2   -1    0    0    0  501  0.00000000000E+00  0.00000000000E+00 -0.37436096598E+03  0.37436096599E+03  0.25500000920E-02 0.  1.
    10030    2    1    2    0    0  0.00000000000E+00  0.00000000000E+00  0.29034999501E+03  0.10390719270E+04  0.99768098600E+03 0.  0.
        2    1    3    3  502    0 -0.40604376090E+03 -0.87621071760E+02 -0.14249583746E+03  0.43915151336E+03  0.25500000920E-02 0.  1.
       -2    1    3    3    0  502  0.40604376090E+03  0.87621071760E+02  0.43284583247E+03  0.59992041362E+03  0.25500000920E-02 0. -1.
</event>
<event>
 5   0  0.3643002E-03  0.1074914E+04  0.7818609E-02  0.9229993E-01
       -1   -1    0    0    0  501  0.00000000000E+00  0.00000000000E+00  0.25238857546E+03  0.25238857551E+03  0.50400001928E-02 0. -1.
        1   -1    0    0  501    0  0.00000000000E+00  0.00000000000E+00 -0.11445057316E+04  0.11445057316E+04  0.50400001928E-02 0.  1.
    10030    2    1    2    0    0  0.00000000000E+00  0.00000000000E+00 -0.89211715618E+03  0.13968943072E+04  0.10749142687E+04 0.  0.
        2    1    3    3  502    0 -0.16170755071E+03 -0.35319329621E+03 -0.92875569982E+03  0.10067184246E+04  0.25500000920E-02 0.  1.
       -2    1    3    3    0  502  0.16170755071E+03  0.35319329621E+03  0.36638543647E+02  0.39017588256E+03  0.25500000920E-02 0. -1.
</event>
<event>
 5   0  0.3569359E-03  0.9995130E+03  0.7818609E-02  0.9309079E-01
        1   -1    0    0  501    0  0.00000000000E+00  0.00000000000E+00  0.31280237675E+03  0.31280237679E+03  0.50400001928E-02 0.  1.
       -1   -1    0    0    0  501  0.00000000000E+00  0.00000000000E+00 -0.79844846927E+03  0.79844846928E+03  0.50400001928E-02 0. -1.
    10030    2    1    2    0    0  0.00000000000E+00  0.00000000000E+00 -0.48564609251E+03  0.11112508461E+04  0.99951303930E+03 0.  0.
        4    1    3    3  502    0  0.11049998089E+03 -0.34699982670E+03 -0.62333520587E+03  0.72191932879E+03  0.12699999809E+01 0. -1.
       -4    1    3    3    0  502 -0.11049998089E+03  0.34699982670E+03  0.13768911336E+03  0.38933151728E+03  0.12699999809E+01 0.  1.
</event>
<event>
 5   0  0.3466598E-03  0.1002730E+04  0.7818609E-02  0.9305556E-01
       -1   -1    0    0    0  501  0.00000000000E+00  0.00000000000E+00  0.11919391234E+04  0.11919391234E+04  0.50400001928E-02 0.  1.
        1   -1    0    0  501    0  0.00000000000E+00  0.00000000000E+00 -0.21088890406E+03  0.21088890412E+03  0.50400001928E-02 0. -1.
    10030    2    1    2    0    0  0.00000000000E+00  0.00000000000E+00  0.98105021936E+03  0.14028280276E+04  0.10027297452E+04 0.  0.
        3    1    3    3  502    0  0.40492970962E+03 -0.14342862669E+03  0.85218150031E+03  0.95433388307E+03  0.10100000352E+00 0.  1.
       -3    1    3    3    0  502 -0.40492970962E+03  0.14342862669E+03  0.12886871905E+03  0.44849414449E+03  0.10100000352E+00 0. -1.
</event>
<event>
 5   0  0.6022787E-03  0.1002359E+04  0.7818609E-02  0.9305962E-01
       -2   -1    0    0    0  501  0.00000000000E+00  0.00000000000E+00  0.25470417130E+03  0.25470417131E+03  0.25500000920E-02 0.  1.
        2   -1    0    0  501    0  0.00000000000E+00  0.00000000000E+00 -0.98616627640E+03  0.98616627641E+03  0.25500000920E-02 0. -1.
    10030    2    1    2    0    0  0.00000000000E+00  0.00000000000E+00 -0.73146210511E+03  0.12408704477E+04  0.10023585470E+04 0.  0.
        5    1    3    3  502    0 -0.95666392285E+02 -0.48593708100E+03 -0.27087083358E+03  0.56451749644E+03  0.46999998093E+01 0.  1.
       -5    1    3    3    0  502  0.95666392285E+02  0.48593708100E+03 -0.46059127152E+03  0.67635295128E+03  0.46999998093E+01 0. -1.
</event>
<event>
 5   0  0.3569359E-03  0.9998985E+03  0.7818609E-02  0.9308656E-01
       -1   -1    0    0    0  501  0.00000000000E+00  0.00000000000E+00  0.15584107680E+03  0.15584107688E+03  0.50400001928E-02 0. -1.
        1   -1    0    0  501    0  0.00000000000E+00  0.00000000000E+00 -0.16038728120E+04  0.16038728120E+04  0.50400001928E-02 0.  1.
    10030    2    1    2    0    0  0.00000000000E+00  0.00000000000E+00 -0.14480317352E+04  0.17597138889E+04  0.99989852715E+03 0.  0.
        4    1    3    3  502    0 -0.16525529622E+03 -0.45738655537E+03 -0.92801070646E+03  0.10477200285E+04  0.12699999809E+01 0. -1.
       -4    1    3    3    0  502  0.16525529622E+03  0.45738655537E+03 -0.52002102877E+03  0.71199386039E+03  0.12699999809E+01 0.  1.
</event>
<event>
 5   0  0.6022787E-03  0.1000122E+04  0.7818609E-02  0.9308411E-01
        2   -1    0    0  501    0  0.00000000000E+00  0.00000000000E+00  0.52947447472E+03  0.52947447472E+03  0.25500000920E-02 0.  1.
       -2   -1    0    0    0  501  0.00000000000E+00  0.00000000000E+00 -0.47228129055E+03  0.47228129056E+03  0.25500000920E-02 0. -1.
    10030    2    1    2    0    0  0.00000000000E+00  0.00000000000E+00  0.57193184163E+02  0.10017557653E+04  0.10001217691E+04 0.  0.
        5    1    3    3  502    0  0.44504485734E+03 -0.17395937116E+03 -0.11899410678E+03  0.49245149538E+03  0.46999998093E+01 0.  1.
       -5    1    3    3    0  502 -0.44504485734E+03  0.17395937116E+03  0.17618729094E+03  0.50930426990E+03  0.46999998093E+01 0. -1.
</event>
<event>
 5   0  0.3569359E-03  0.1006289E+04  0.7818609E-02  0.9301674E-01
        1   -1    0    0  501    0  0.00000000000E+00  0.00000000000E+00  0.11102287829E+04  0.11102287829E+04  0.50400001928E-02 0. -1.
       -1   -1    0    0    0  501  0.00000000000E+00  0.00000000000E+00 -0.22801984701E+03  0.22801984706E+03  0.50400001928E-02 0.  1.
    10030    2    1    2    0    0  0.00000000000E+00  0.00000000000E+00  0.88220893585E+03  0.13382486299E+04  0.10062886211E+04 0.  0.
        4    1    3    3  502    0 -0.22059459373E+03 -0.30291011672E+03  0.88762937901E+03  0.96348536106E+03  0.12699999809E+01 0. -1.
       -4    1    3    3    0  502  0.22059459373E+03  0.30291011672E+03 -0.54204431622E+01  0.37476326887E+03  0.12699999809E+01 0.  1.
</event>
<event>
 5   0  0.3640180E-03  0.9897981E+03  0.7818609E-02  0.9319805E-01
       -1   -1    0    0    0  501  0.00000000000E+00  0.00000000000E+00  0.29833050495E+03  0.29833050500E+03  0.50400001928E-02 0.  1.
        1   -1    0    0  501    0  0.00000000000E+00  0.00000000000E+00 -0.82098569604E+03  0.82098569605E+03  0.50400001928E-02 0. -1.
    10030    2    1    2    0    0  0.00000000000E+00  0.00000000000E+00 -0.52265519108E+03  0.11193162010E+04  0.98979811536E+03 0.  0.
        5    1    3    3  502    0  0.28826846354E+03  0.39910370831E+03 -0.31810171404E+03  0.58616829284E+03  0.46999998093E+01 0. -1.
       -5    1    3    3    0  502 -0.28826846354E+03 -0.39910370831E+03 -0.20455347704E+03  0.53314790821E+03  0.46999998093E+01 0.  1.
</event>
<event>
 5   0  0.3466598E-03  0.9993295E+03  0.7818609E-02  0.9309281E-01
       -1   -1    0    0    0  501  0.00000000000E+00  0.00000000000E+00  0.24890035149E+03  0.24890035154E+03  0.50400001928E-02 0.  1.
        1   -1    0    0  501    0  0.00000000000E+00  0.00000000000E+00 -0.10030714955E+04  0.10030714955E+04  0.50400001928E-02 0. -1.
    10030    2    1    2    0    0  0.00000000000E+00  0.00000000000E+00 -0.75417114399E+03  0.12519718470E+04  0.99932947087E+03 0.  0.
        3    1    3    3  502    0  0.22825024910E+03  0.37468158642E+03 -0.77507963668E+02  0.44552436752E+03  0.10100000352E+00 0.  1.
       -3    1    3    3    0  502 -0.22825024910E+03 -0.37468158642E+03 -0.67666318032E+03  0.80644747952E+03  0.10100000352E+00 0. -1.
</event>
<event>
 5   0  0.3608845E-03  0.1003092E+04  0.7818609E-02  0.9305160E-01
        1   -1    0    0  501    0  0.00000000000E+00  0.00000000000E+00  0.14008771585E+04  0.14008771585E+04  0.50400001928E-02 0.  1.
       -1   -1    0    0    0  501  0.00000000000E+00  0.00000000000E+00 -0.17956502289E+03  0.17956502296E+03  0.50400001928E-02 0. -1.
    10030    2    1    2    0    0  0.00000000000E+00  0.00000000000E+00  0.12213121356E+04  0.15804421815E+04  0.10030922971E+04 0.  0.
        1    1    3    3  502    0 -0.32372513666E+03 -0.37310619270E+03  0.74748907876E+03  0.89596100251E+03  0.50400001928E-02 0.  1.
       -1    1    3    3    0  502  0.32372513666E+03  0.37310619270E+03  0.47382305687E+03  0.68448117898E+03  0.50400001928E-02 0. -1.
</event>
<event>
 5   0  0.6360455E-03  0.1001024E+04  0.7818609E-02  0.9307422E-01
        2   -1    0    0  501    0  0.00000000000E+00  0.00000000000E+00  0.29851302327E+03  0.29851302328E+03  0.25500000920E-02 0. -1.
       -2   -1    0    0    0  501  0.00000000000E+00  0.00000000000E+00 -0.83920046664E+03  0.83920046664E+03  0.25500000920E-02 0.  1.
    10030    2    1    2    0    0  0.00000000000E+00  0.00000000000E+00 -0.54068744337E+03  0.11377134899E+04  0.10010240126E+04 0.  0.
        4    1    3    3  502    0 -0.76536898548E+02 -0.48729407311E+03 -0.17392273852E+03  0.52303359587E+03  0.12699999809E+01 0. -1.
       -4    1    3    3    0  502  0.76536898548E+02  0.48729407311E+03 -0.36676470485E+03  0.61467989406E+03  0.12699999809E+01 0.  1.
</event>
<event>
 5   0  0.6199539E-03  0.9909107E+03  0.7818609E-02  0.9318570E-01
        2   -1    0    0  501    0  0.00000000000E+00  0.00000000000E+00  0.20445256066E+03  0.20445256068E+03  0.25500000920E-02 0.  1.
       -2   -1    0    0    0  501  0.00000000000E+00  0.00000000000E+00 -0.12006502122E+04  0.12006502122E+04  0.25500000920E-02 0. -1.
    10030    2    1    2    0    0  0.00000000000E+00  0.00000000000E+00 -0.99619765150E+03  0.14051027728E+04  0.99091071313E+03 0.  0.
        2    1    3    3  502    0  0.90358669805E+02 -0.47406713227E+03 -0.65708894817E+03  0.81527309592E+03  0.25500000920E-02 0.  1.
       -2    1    3    3    0  502 -0.90358669805E+02  0.47406713227E+03 -0.33910870332E+03  0.58982967693E+03  0.25500000920E-02 0. -1.
</event>
<event>
 5   0  0.3466598E-03  0.9942724E+03  0.7818609E-02  0.9314849E-01
       -1   -1    0    0    0  501  0.00000000000E+00  0.00000000000E+00  0.26586034330E+03  0.26586034334E+03  0.50400001928E-02 0.  1.
        1   -1    0    0  501    0  0.00000000000E+00  0.00000000000E+00 -0.92960241994E+03  0.92960241995E+03  0.50400001928E-02 0. -1.
    10030    2    1    2    0    0  0.00000000000E+00  0.00000000000E+00 -0.66374207664E+03  0.11954627633E+04  0.99427243456E+03 0.  0.
        3    1    3    3  502    0 -0.25854299701E+03  0.35155306106E+03 -0.45544301906E+02  0.43875771182E+03  0.10100000352E+00 0.  1.
       -3    1    3    3    0  502  0.25854299701E+03 -0.35155306106E+03 -0.61819777474E+03  0.75670505148E+03  0.10100000352E+00 0. -1.
</event>
<event>
 5   0  0.6376961E-03  0.9970047E+03  0.7818609E-02  0.9311836E-01
        2   -1    0    0  501    0  0.00000000000E+00  0.00000000000E+00  0.20986233183E+04  0.20986233183E+04  0.25500000920E-02 0.  1.
       -2   -1    0    0    0  501  0.00000000000E+00  0.00000000000E+00 -0.11841313629E+03  0.11841313632E+03  0.25500000920E-02 0. -1.
    10030    2    1    2    0    0  0.00000000000E+00  0.00000000000E+00  0.19802101820E+04  0.22170364546E+04  0.99700465203E+03 0.  0.
        3    1    3    3  502    0 -0.46496305171E+03 -0.10913616476E+03  0.67247256161E+03  0.82481555407E+03  0.10100000352E+00 0. -1.
       -3    1    3    3    0  502  0.46496305171E+03  0.10913616476E+03  0.13077376204E+04  0.13922209006E+04  0.10100000352E+00 0.  1.
</event>
<event>
 5   0  0.3608845E-03  0.1166928E+04  0.7818609E-02  0.9142307E-01
        1   -1    0    0  501    0  0.00000000000E+00  0.00000000000E+00  0.41530880871E+03  0.41530880874E+03  0.50400001928E-02 0.  1.
       -1   -1    0    0    0  501  0.00000000000E+00  0.00000000000E+00 -0.81970445969E+03  0.81970445970E+03  0.50400001928E-02 0. -1.
    10030    2    1    2    0    0  0.00000000000E+00  0.00000000000E+00 -0.40439565098E+03  0.12350132684E+04  0.11669284171E+04 0.  0.
        1    1    3    3  502    0 -0.40921828254E+03  0.24841187687E+03 -0.55521973286E+03  0.73310095834E+03  0.50400001928E-02 0.  1.
       -1    1    3    3    0  502  0.40921828254E+03 -0.24841187687E+03  0.15082408188E+03  0.50191231010E+03  0.50400001928E-02 0. -1.
</event>
<event>
 5   0  0.3569359E-03  0.1013170E+04  0.7818609E-02  0.9294217E-01
       -1   -1    0    0    0  501  0.00000000000E+00  0.00000000000E+00  0.71133365318E+03  0.71133365319E+03  0.50400001928E-02 0.  1.
        1   -1    0    0  501    0  0.00000000000E+00  0.00000000000E+00 -0.36077049707E+03  0.36077049711E+03  0.50400001928E-02 0. -1.
    10030    2    1    2    0    0  0.00000000000E+00  0.00000000000E+00  0.35056315611E+03  0.10721041503E+04  0.10131696712E+04 0.  0.
        4    1    3    3  502    0  0.19521670885E+03 -0.46744727273E+03  0.17863891938E+03  0.53714987910E+03  0.12699999809E+01 0.  1.
       -4    1    3    3    0  502 -0.19521670885E+03  0.46744727273E+03  0.17192423672E+03  0.53495427120E+03  0.12699999809E+01 0. -1.
</event>
<event>
 5   0  0.3640180E-03  0.1003239E+04  0.7818609E-02  0.9305000E-01
        1   -1    0    0  501    0  0.00000000000E+00  0.00000000000E+00  0.10627876117E+04  0.10627876117E+04  0.50400001928E-02 0.  1.
       -1   -1    0    0    0  501  0.00000000000E+00  0.00000000000E+00 -0.23675667061E+03  0.23675667066E+03  0.50400001928E-02 0. -1.
    10030    2    1    2    0    0  0.00000000000E+00  0.00000000000E+00  0.82603094107E+03  0.12995442824E+04  0.10032388680E+04 0.  0.
        5    1    3    3  502    0 -0.16327183548E+02  0.18947721773E+03  0.10142468120E+04  0.10319335631E+04  0.46999998093E+01 0.  1.
       -5    1    3    3    0  502  0.16327183548E+02 -0.18947721773E+03 -0.18821587097E+03  0.26761071923E+03  0.46999998093E+01 0. -1.
</event>
<event>
 5   0  0.6376961E-03  0.1053195E+04  0.7818609E-02  0.9252052E-01
       -2   -1    0    0    0  501  0.00000000000E+00  0.00000000000E+00  0.14849604792E+04  0.14849604792E+04  0.25500000920E-02 0. -1.
        2   -1    0    0  501    0  0.00000000000E+00  0.00000000000E+00 -0.18674230267E+03  0.18674230269E+03  0.25500000920E-02 0.  1.
    10030    2    1    2    0    0  0.00000000000E+00  0.00000000000E+00  0.12982181766E+04  0.16717027819E+04  0.10531950233E+04 0.  0.
        3    1    3    3  502    0  0.33505541279E+03  0.20720886133E+03  0.94456481570E+02  0.40511687075E+03  0.10100000352E+00 0.  1.
       -3    1    3    3    0  502 -0.33505541279E+03 -0.20720886133E+03  0.12037616950E+04  0.12665859112E+04  0.10100000352E+00 0. -1.
</event>
<event>
 5   0  0.3608845E-03  0.1003120E+04  0.7818609E-02  0.9305130E-01
        1   -1    0    0  501    0  0.00000000000E+00  0.00000000000E+00  0.16237457445E+03  0.16237457453E+03  0.50400001928E-02 0.  1.
       -1   -1    0    0    0  501  0.00000000000E+00  0.00000000000E+00 -0.15492709964E+04  0.15492709965E+04  0.50400001928E-02 0. -1.
    10030    2    1    2    0    0  0.00000000000E+00  0.00000000000E+00 -0.13868964220E+04  0.17116455710E+04  0.10031195718E+04 0.  0.
        1    1    3    3  502    0 -0.33772413810E+01 -0.21448894712E+03  0.80149038343E+02  0.22899952526E+03  0.50400001928E-02 0.  1.
       -1    1    3    3    0  502  0.33772413810E+01  0.21448894712E+03 -0.14670454603E+04  0.14826460457E+04  0.50400001928E-02 0. -1.
</event>
<event>
 5   0  0.6606947E-03  0.1009245E+04  0.7818609E-02  0.9298462E-01
        2   -1    0    0  501    0  0.00000000000E+00  0.00000000000E+00  0.26665609281E+03  0.26665609282E+03  0.25500000920E-02 0.  1.
       -2   -1    0    0    0  501  0.00000000000E+00  0.00000000000E+00 -0.95495307595E+03  0.95495307596E+03  0.25500000920E-02 0. -1.
    10030    2    1    2    0    0  0.00000000000E+00  0.00000000000E+00 -0.68829698314E+03  0.12216091688E+04  0.10092453737E+04 0.  0.
        1    1    3    3  502    0  0.22802914849E+03 -0.34030662920E+02 -0.88747493128E+03  0.91693354844E+03  0.50400001928E-02 0. -1.
       -1    1    3    3    0  502 -0.22802914849E+03  0.34030662920E+02  0.19917794814E+03  0.30467562034E+03  0.50400001928E-02 0.  1.
</event>
<event>
 5   0  0.3569359E-03  0.1011412E+04  0.7818609E-02  0.9296116E-01
       -1   -1    0    0    0  501  0.00000000000E+00  0.00000000000E+00  0.67268125927E+03  0.67268125928E+03  0.50400001928E-02 0.  1.
        1   -1    0    0  501    0  0.00000000000E+00  0.00000000000E+00 -0.38017772259E+03  0.38017772262E+03  0.50400001928E-02 0. -1.
    10030    2    1    2    0    0  0.00000000000E+00  0.00000000000E+00  0.29250353667E+03  0.10528589819E+04  0.10114117445E+04 0.  0.
        4    1    3    3  502    0  0.31492134226E+03 -0.33866171241E+03  0.35925768499E+03  0.58560644155E+03  0.12699999809E+01 0.  1.
       -4    1    3    3    0  502 -0.31492134226E+03  0.33866171241E+03 -0.66754148312E+02  0.46725254036E+03  0.12699999809E+01 0. -1.
</event>
<event>
 5   0  0.3640180E-03  0.1013666E+04  0.7818609E-02  0.9293682E-01
        1   -1    0    0  501    0  0.00000000000E+00  0.00000000000E+00  0.10435543877E+04  0.10435543877E+04  0.50400001928E-02 0. -1.
       -1   -1    0    0    0  501  0.00000000000E+00  0.00000000000E+00 -0.24615821943E+03  0.24615821948E+03  0.50400001928E-02 0.  1.
    10030    2    1    2    0    0  0.00000000000E+00  0.00000000000E+00  0.79739616827E+03  0.12897126072E+04  0.10136656056E+04 0.  0.
        5    1    3    3  502    0  0.48449728689E+03 -0.14481452275E+03  0.35557895579E+03  0.61819685441E+03  0.46999998093E+01 0.  1.
       -5    1    3    3    0  502 -0.48449728689E+03  0.14481452275E+03  0.44181721248E+03  0.67151575279E+03  0.46999998093E+01 0. -1.
</event>
<event>
 5   0  0.3643002E-03  0.1001094E+04  0.7818609E-02  0.9307346E-01
        1   -1    0    0  501    0  0.00000000000E+00  0.00000000000E+00  0.55207414335E+03  0.55207414337E+03  0.50400001928E-02 0. -1.
       -1   -1    0    0    0  501  0.00000000000E+00  0.00000000000E+00 -0.45382899490E+03  0.45382899493E+03  0.50400001928E-02 0.  1.
    10030    2    1    2    0    0  0.00000000000E+00  0.00000000000E+00  0.98245148447E+02  0.10059031383E+04  0.10010939089E+04 0.  0.
        2    1    3    3  502    0 -0.41722667093E+03 -0.25855720824E+03 -0.49416522020E+02  0.49332739385E+03  0.25500000920E-02 0.  1.
       -2    1    3    3    0  502  0.41722667093E+03  0.25855720824E+03  0.14766167047E+03  0.51257574445E+03  0.25500000920E-02 0. -1.
</event>
<event>
 5   0  0.3643002E-03  0.1013586E+04  0.7818609E-02  0.9293768E-01
        1   -1    0    0  501    0  0.00000000000E+00  0.00000000000E+00  0.10079838480E+04  0.10079838481E+04  0.50400001928E-02 0. -1.
       -1   -1    0    0    0  501  0.00000000000E+00  0.00000000000E+00 -0.25480488065E+03  0.25480488070E+03  0.50400001928E-02 0.  1.
    10030    2    1    2    0    0  0.00000000000E+00  0.00000000000E+00  0.75317896740E+03  0.12627887288E+04  0.10135861170E+04 0.  0.
        2    1    3    3  502    0  0.32925223466E+03 -0.99098718090E+02 -0.87252284917E+02  0.35474011781E+03  0.25500000920E-02 0.  1.
       -2    1    3    3    0  502 -0.32925223466E+03  0.99098718090E+02  0.84043125232E+03  0.90804861094E+03  0.25500000920E-02 0. -1.
</event>
<event>
 5   0  0.3640180E-03  0.9714153E+03  0.7818609E-02  0.9340464E-01
        1   -1    0    0  501    0  0.00000000000E+00  0.00000000000E+00  0.96215372907E+03  0.96215372908E+03  0.50400001928E-02 0.  1.
       -1   -1    0    0    0  501  0.00000000000E+00  0.00000000000E+00 -0.24519148152E+03  0.24519148158E+03  0.50400001928E-02 0. -1.
    10030    2    1    2    0    0  0.00000000000E+00  0.00000000000E+00  0.71696224754E+03  0.12073452107E+04  0.97141525276E+03 0.  0.
        5    1    3    3  502    0  0.20983521573E+03  0.24640764435E+03 -0.91607341166E+02  0.33639491659E+03  0.46999998093E+01 0. -1.
       -5    1    3    3    0  502 -0.20983521573E+03 -0.24640764435E+03  0.80856958871E+03  0.87095029407E+03  0.46999998093E+01 0.  1.
</event>
<event>
 5   0  0.6199539E-03  0.1004945E+04  0.7818609E-02  0.9303137E-01
       -2   -1    0    0    0  501  0.00000000000E+00  0.00000000000E+00  0.34468193348E+03  0.34468193349E+03  0.25500000920E-02 0.  1.
        2   -1    0    0  501    0  0.00000000000E+00  0.00000000000E+00 -0.73249793736E+03  0.73249793736E+03  0.25500000920E-02 0. -1.
    10030    2    1    2    0    0  0.00000000000E+00  0.00000000000E+00 -0.38781600388E+03  0.10771798708E+04  0.10049453822E+04 0.  0.
        2    1    3    3  502    0 -0.34556003105E+03  0.20139213388E+03  0.13210586287E+03  0.42121548601E+03  0.25500000920E-02 0.  1.
       -2    1    3    3    0  502  0.34556003105E+03 -0.20139213388E+03 -0.51992186674E+03  0.65596438484E+03  0.25500000920E-02 0. -1.
</event>
<event>
 5   0  0.3569359E-03  0.9928966E+03  0.7818609E-02  0.9316370E-01
        1   -1    0    0  501    0  0.00000000000E+00  0.00000000000E+00  0.10352069259E+04  0.10352069259E+04  0.50400001928E-02 0.  1.
       -1   -1    0    0    0  501  0.00000000000E+00  0.00000000000E+00 -0.23807888222E+03  0.23807888227E+03  0.50400001928E-02 0. -1.
    10030    2    1    2    0    0  0.00000000000E+00  0.00000000000E+00  0.79712804371E+03  0.12732858082E+04  0.99289658642E+03 0.  0.
        4    1    3    3  502    0 -0.81956127667E+02  0.46232638867E+03  0.60533130162E+03  0.76608752381E+03  0.12699999809E+01 0.  1.
       -4    1    3    3    0  502  0.81956127667E+02 -0.46232638867E+03  0.19179674209E+03  0.50719828440E+03  0.12699999809E+01 0. -1.
</event>
<event>
 5   0  0.3608845E-03  0.9939461E+03  0.7818609E-02  0.9315210E-01
        1   -1    0    0  501    0  0.00000000000E+00  0.00000000000E+00  0.62956434896E+03  0.62956434898E+03  0.50400001928E-02 0. -1.
       -1   -1    0    0    0  501  0.00000000000E+00  0.00000000000E+00 -0.39230652033E+03  0.39230652036E+03  0.50400001928E-02 0.  1.
    10030    2    1    2    0    0  0.00000000000E+00  0.00000000000E+00  0.23725782863E+03  0.10218708693E+04  0.99394607316E+03 0.  0.
        1    1    3    3  502    0  0.22708114673E+03  0.41267559188E+03 -0.44301283149E+02  0.47310632531E+03  0.50400001928E-02 0.  1.
       -1    1    3    3    0  502 -0.22708114673E+03 -0.41267559188E+03  0.28155911178E+03  0.54876454403E+03  0.50400001928E-02 0. -1.
</event>
<event>
 5   0  0.3608845E-03  0.9910441E+03  0.7818609E-02  0.9318422E-01
        1   -1    0    0  501    0  0.00000000000E+00  0.00000000000E+00  0.14147742374E+04  0.14147742374E+04  0.50400001928E-02 0.  1.
       -1   -1    0    0    0  501  0.00000000000E+00  0.00000000000E+00 -0.17355567910E+03  0.17355567918E+03  0.50400001928E-02 0. -1.
    10030    2    1    2    0    0  0.00000000000E+00  0.00000000000E+00  0.12412185583E+04  0.15883299166E+04  0.99104410319E+03 0.  0.
        1    1    3    3  502    0 -0.11747383291E+03  0.37168085705E+03  0.13029464726E+03  0.41100298788E+03  0.50400001928E-02 0. -1.
       -1    1    3    3    0  502  0.11747383291E+03 -0.37168085705E+03  0.11109239111E+04  0.11773269287E+04  0.50400001928E-02 0.  1.
</event>
<event>
 5   0  0.2417750E-03  0.1003328E+04  0.7818609E-02  0.9304902E-01
        3   -1    0    0  501    0  0.00000000000E+00  0.00000000000E+00  0.83864218142E+03  0.83864218750E+03  0.10100000352E+00 0. -1.
       -3   -1    0    0    0  501  0.00000000000E+00  0.00000000000E+00 -0.30008824059E+03  0.30008825759E+03  0.10100000352E+00 0.  1.
    10030    2    1    2    0    0  0.00000000000E+00  0.00000000000E+00  0.53855394082E+03  0.11387304451E+04  0.10033278026E+04 0.  0.
        3    1    3    3  502    0  0.24751702647E+02  0.35322459421E+03  0.67260311498E+03  0.76011526838E+03  0.10100000352E+00 0. -1.
       -3    1    3    3    0  502 -0.24751702647E+02 -0.35322459421E+03 -0.13404917416E+03  0.37861517671E+03  0.10100000352E+00 0.  1.
</event>
<event>
 5   0  0.6360455E-03  0.1093541E+04  0.7818609E-02  0.9211511E-01
        2   -1    0    0  501    0  0.00000000000E+00  0.00000000000E+00  0.57149708547E+03  0.57149708547E+03  0.25500000920E-02 0. -1.
       -2   -1    0    0    0  501  0.00000000000E+00  0.00000000000E+00 -0.52311341778E+03  0.52311341779E+03  0.25500000920E-02 0.  1.
    10030    2    1    2    0    0  0.00000000000E+00  0.00000000000E+00  0.48383667686E+02  0.10946105033E+04  0.10935406598E+04 0.  0.
        4    1    3    3  502    0 -0.40748410478E+03 -0.10010298556E+03 -0.32671107776E+03  0.53179473916E+03  0.12699999809E+01 0.  1.
       -4    1    3    3    0  502  0.40748410478E+03  0.10010298556E+03  0.37509474545E+03  0.56281576411E+03  0.12699999809E+01 0. -1.
</event>
<event>
 5   0  0.3466598E-03  0.9999965E+03  0.7818609E-02  0.9308549E-01
       -1   -1    0    0    0  501  0.00000000000E+00  0.00000000000E+00  0.26068048443E+03  0.26068048448E+03  0.50400001928E-02 0. -1.
        1   -1    0    0  501    0  0.00000000000E+00  0.00000000000E+00 -0.95902172618E+03  0.95902172620E+03  0.50400001928E-02 0.  1.
    10030    2    1    2    0    0  0.00000000000E+00  0.00000000000E+00 -0.69834124175E+03  0.12197022107E+04  0.99999649639E+03 0.  0.
        3    1    3    3  502    0 -0.37127868307E+03 -0.32904675126E+03 -0.42513212501E+03  0.65334291068E+03  0.10100000352E+00 0. -1.
       -3    1    3    3    0  502  0.37127868307E+03  0.32904675126E+03 -0.27320911674E+03  0.56635929999E+03  0.10100000352E+00 0.  1.
</event>
<event>
 5   0  0.6360455E-03  0.1004258E+04  0.7818609E-02  0.9303887E-01
        2   -1    0    0  501    0  0.00000000000E+00  0.00000000000E+00  0.15859016178E+04  0.15859016178E+04  0.25500000920E-02 0.  1.
       -2   -1    0    0    0  501  0.00000000000E+00  0.00000000000E+00 -0.15898423102E+03  0.15898423104E+03  0.25500000920E-02 0. -1.
    10030    2    1    2    0    0  0.00000000000E+00  0.00000000000E+00  0.14269173868E+04  0.17448858488E+04  0.10042576347E+04 0.  0.
        4    1    3    3  502    0  0.21190794761E+02 -0.12779909323E+03  0.15563645124E+04  0.15617470238E+04  0.12699999809E+01 0.  1.
       -4    1    3    3    0  502 -0.21190794761E+02  0.12779909323E+03 -0.12944712560E+03  0.18313882505E+03  0.12699999809E+01 0. -1.
</event>
<event>
 5   0  0.6376961E-03  0.1003331E+04  0.7818609E-02  0.9304899E-01
       -2   -1    0    0    0  501  0.00000000000E+00  0.00000000000E+00  0.18027263674E+03  0.18027263676E+03  0.25500000920E-02 0.  1.
        2   -1    0    0  501    0  0.00000000000E+00  0.00000000000E+00 -0.13960418690E+04  0.13960418690E+04  0.25500000920E-02 0. -1.
    10030    2    1    2    0    0  0.00000000000E+00  0.00000000000E+00 -0.12157692323E+04  0.15763145058E+04  0.10033307505E+04 0.  0.
        3    1    3    3  502    0  0.12691299476E+02  0.33369970003E+03 -0.19721552220E+02  0.33452280745E+03  0.10100000352E+00 0.  1.
       -3    1    3    3    0  502 -0.12691299476E+02 -0.33369970003E+03 -0.11960476801E+04  0.12417916983E+04  0.10100000352E+00 0. -1.
</event>
<event>
 5   0  0.6606947E-03  0.9973819E+03  0.7818609E-02  0.9311421E-01
        2   -1    0    0  501    0  0.00000000000E+00  0.00000000000E+00  0.64436309963E+03  0.64436309963E+03  0.25500000920E-02 0. -1.
       -2   -1    0    0    0  501  0.00000000000E+00  0.00000000000E+00 -0.38595115888E+03  0.38595115888E+03  0.25500000920E-02 0.  1.
    10030    2    1    2    0    0  0.00000000000E+00  0.00000000000E+00  0.25841194075E+03  0.10303142585E+04  0.99738194298E+03 0.  0.
        1    1    3    3  502    0 -0.38470031851E+03 -0.24221730226E+03  0.34098521789E+03  0.56827324010E+03  0.50400001928E-02 0. -1.
       -1    1    3    3    0  502  0.38470031851E+03  0.24221730226E+03 -0.82573277133E+02  0.46204101841E+03  0.50400001928E-02 0.  1.
</event>
<event>
 5   0  0.6360455E-03  0.1003357E+04  0.7818609E-02  0.9304871E-01
        2   -1    0    0  501    0  0.00000000000E+00  0.00000000000E+00  0.16328191328E+03  0.16328191330E+03  0.25500000920E-02 0.  1.
       -2   -1    0    0    0  501  0.00000000000E+00  0.00000000000E+00 -0.15413904895E+04  0.15413904895E+04  0.25500000920E-02 0. -1.
    10030    2    1    2    0    0  0.00000000000E+00  0.00000000000E+00 -0.13781085763E+04  0.17046724028E+04  0.10033567427E+04 0.  0.
        4    1    3    3  502    0 -0.40642175717E+03 -0.13537773462E+03 -0.24545145951E+03  0.49371429755E+03  0.12699999809E+01 0.  1.
       -4    1    3    3    0  502  0.40642175717E+03  0.13537773462E+03 -0.11326571167E+04  0.12109581053E+04  0.12699999809E+01 0. -1.
</event>
<event>
 5   0  0.3466598E-03  0.9971871E+03  0.7818609E-02  0.9311635E-01
       -1   -1    0    0    0  501  0.00000000000E+00  0.00000000000E+00  0.24102885611E+03  0.24102885616E+03  0.50400001928E-02 0.  1.
        1   -1    0    0  501    0  0.00000000000E+00  0.00000000000E+00 -0.10313931587E+04  0.10313931587E+04  0.50400001928E-02 0. -1.
    10030    2    1    2    0    0  0.00000000000E+00  0.00000000000E+00 -0.79036430255E+03  0.12724220148E+04  0.99718707025E+03 0.  0.
        3    1    3    3  502    0 -0.17832589902E+03  0.33098671923E+03  0.22686079286E+02  0.37665236354E+03  0.10100000352E+00 0.  1.
       -3    1    3    3    0  502  0.17832589902E+03 -0.33098671923E+03 -0.81305038184E+03  0.89576965129E+03  0.10100000352E+00 0. -1.
</event>
<event>
 5   0  0.6376961E-03  0.1007819E+04  0.7818609E-02  0.9300011E-01
        2   -1    0    0  501    0  0.00000000000E+00  0.00000000000E+00  0.16186104361E+04  0.16186104361E+04  0.25500000920E-02 0. -1.
       -2   -1    0    0    0  501  0.00000000000E+00  0.00000000000E+00 -0.15687822774E+03  0.15687822776E+03  0.25500000920E-02 0.  1.
    10030    2    1    2    0    0  0.00000000000E+00  0.00000000000E+00  0.14617322084E+04  0.17754886639E+04  0.10078189056E+04 0.  0.
        3    1    3    3  502    0  0.11335953840E+03  0.16717933334E+03 -0.82438106383E+02  0.21816362214E+03  0.10100000352E+00 0.  1.
       -3    1    3    3    0  502 -0.11335953840E+03 -0.16717933334E+03  0.15441703148E+04  0.15573250418E+04  0.10100000352E+00 0. -1.
</event>
<event>
 5   0  0.3608845E-03  0.9910328E+03  0.7818609E-02  0.9318435E-01
       -1   -1    0    0    0  501  0.00000000000E+00  0.00000000000E+00  0.48911180378E+03  0.48911180380E+03  0.50400001928E-02 0. -1.
        1   -1    0    0  501    0  0.00000000000E+00  0.00000000000E+00 -0.50200490120E+03  0.50200490122E+03  0.50400001928E-02 0.  1.
    10030    2    1    2    0    0  0.00000000000E+00  0.00000000000E+00 -0.12893097422E+02  0.99111670503E+03  0.99103284054E+03 0.  0.
        1    1    3    3  502    0  0.27253685402E+03  0.34909408460E+03  0.21581875688E+03  0.49266697936E+03  0.50400001928E-02 0. -1.
       -1    1    3    3    0  502 -0.27253685402E+03 -0.34909408460E+03 -0.22871185430E+03  0.49844972567E+03  0.50400001928E-02 0.  1.
</event>
<event>
 5   0  0.6360455E-03  0.9886611E+03  0.7818609E-02  0.9321069E-01
        2   -1    0    0  501    0  0.00000000000E+00  0.00000000000E+00  0.85524713984E+03  0.85524713985E+03  0.25500000920E-02 0. -1.
       -2   -1    0    0    0  501  0.00000000000E+00  0.00000000000E+00 -0.28572171681E+03  0.28572171683E+03  0.25500000920E-02 0.  1.
    10030    2    1    2    0    0  0.00000000000E+00  0.00000000000E+00  0.56952542303E+03  0.11409688567E+04  0.98866107662E+03 0.  0.
        4    1    3    3  502    0  0.28185730878E+03  0.12666658202E+03 -0.16051860571E+03  0.34821803686E+03  0.12699999809E+01 0.  1.
       -4    1    3    3    0  502 -0.28185730878E+03 -0.12666658202E+03  0.73004402874E+03  0.79275081981E+03  0.12699999809E+01 0. -1.
</event>
<event>
 5   0  0.6199539E-03  0.9941198E+03  0.7818609E-02  0.9315018E-01
        2   -1    0    0  501    0  0.00000000000E+00  0.00000000000E+00  0.12498366500E+04  0.12498366500E+04  0.25500000920E-02 0.  1.
       -2   -1    0    0    0  501  0.00000000000E+00  0.00000000000E+00 -0.19768068801E+03  0.19768068803E+03  0.25500000920E-02 0. -1.
    10030    2    1    2    0    0  0.00000000000E+00  0.00000000000E+00  0.10521559620E+04  0.14475173380E+04  0.99411984968E+03 0.  0.
        2    1    3    3  502    0 -0.44539110169E+03 -0.65540504069E+02  0.83289216053E+03  0.94677248704E+03  0.25500000920E-02 0.  1.
       -2    1    3    3    0  502  0.44539110169E+03  0.65540504069E+02  0.21926380145E+03  0.50074485097E+03  0.25500000920E-02 0. -1.
</event>
<event>
 5   0  0.6606947E-03  0.9525834E+03  0.7818609E-02  0.9362136E-01
       -2   -1    0    0    0  501  0.00000000000E+00  0.00000000000E+00  0.28572697858E+03  0.28572697860E+03  0.25500000920E-02 0.  1.
        2   -1    0    0  501    0  0.00000000000E+00  0.00000000000E+00 -0.79395292651E+03  0.79395292651E+03  0.25500000920E-02 0. -1.
    10030    2    1    2    0    0  0.00000000000E+00  0.00000000000E+00 -0.50822594792E+03  0.10796799051E+04  0.95258337344E+03 0.  0.
        1    1    3    3  502    0 -0.46046988439E+03 -0.11151892833E+02 -0.11670726796E+03  0.47516046296E+03  0.50400001928E-02 0.  1.
       -1    1    3    3    0  502  0.46046988439E+03  0.11151892833E+02 -0.39151867996E+03  0.60451944214E+03  0.50400001928E-02 0. -1.
</event>
<event>
 5   0  0.6376961E-03  0.9990125E+03  0.7818609E-02  0.9309629E-01
       -2   -1    0    0    0  501  0.00000000000E+00  0.00000000000E+00  0.15826236321E+03  0.15826236323E+03  0.25500000920E-02 0. -1.
        2   -1    0    0  501    0  0.00000000000E+00  0.00000000000E+00 -0.15765369932E+04  0.15765369932E+04  0.25500000920E-02 0.  1.
    10030    2    1    2    0    0  0.00000000000E+00  0.00000000000E+00 -0.14182746300E+04  0.17347993565E+04  0.99901245290E+03 0.  0.
        3    1    3    3  502    0 -0.10107388743E+03  0.12117347507E+01 -0.15585911342E+04  0.15618654657E+04  0.10100000352E+00 0.  1.
       -3    1    3    3    0  502  0.10107388743E+03 -0.12117347507E+01  0.14031650421E+03  0.17293389077E+03  0.10100000352E+00 0. -1.
</event>
<event>
 5   0  0.2417750E-03  0.1000438E+04  0.7818609E-02  0.9308065E-01
       -3   -1    0    0    0  501  0.00000000000E+00  0.00000000000E+00  0.48437032954E+03  0.48437034007E+03  0.10100000352E+00 0.  1.
        3   -1    0    0  501    0  0.00000000000E+00  0.00000000000E+00 -0.51658570964E+03  0.51658571952E+03  0.10100000352E+00 0. -1.
    10030    2    1    2    0    0  0.00000000000E+00  0.00000000000E+00 -0.32215380109E+02  0.10009560596E+04  0.10004375055E+04 0.  0.
        3    1    3    3  502    0  0.14421480184E+03  0.30436979731E+02 -0.49436640962E+03  0.51587060002E+03  0.10100000352E+00 0. -1.
       -3    1    3    3    0  502 -0.14421480184E+03 -0.30436979731E+02  0.46215102951E+03  0.48508545956E+03  0.10100000352E+00 0.  1.
</event>
<event>
 5   0  0.6199539E-03  0.1003360E+04  0.7818609E-02  0.9304867E-01
       -2   -1    0    0    0  501  0.00000000000E+00  0.00000000000E+00  0.36296769525E+03  0.36296769526E+03  0.25500000920E-02 0. -1.
        2   -1    0    0  501    0  0.00000000000E+00  0.00000000000E+00 -0.69340266212E+03  0.69340266213E+03  0.25500000920E-02 0.  1.
    10030    2    1    2    0    0  0.00000000000E+00  0.00000000000E+00 -0.33043496687E+03  0.10563703574E+04  0.10033598879E+04 0.  0.
        2    1    3    3  502    0 -0.24519169495E+03 -0.22939799516E+02 -0.62538807185E+03  0.67212754897E+03  0.25500000920E-02 0.  1.
       -2    1    3    3    0  502  0.24519169495E+03  0.22939799516E+02  0.29495310497E+03  0.38424280841E+03  0.25500000920E-02 0. -1.
</event>
<event>
 5   0  0.3643002E-03  0.9801980E+03  0.7818609E-02  0.9330534E-01
       -1   -1    0    0    0  501  0.00000000000E+00  0.00000000000E+00  0.24836628536E+03  0.24836628541E+03  0.50400001928E-02 0.  1.
        1   -1    0    0  501    0  0.00000000000E+00  0.00000000000E+00 -0.96710802644E+03  0.96710802646E+03  0.50400001928E-02 0. -1.
    10030    2    1    2    0    0  0.00000000000E+00  0.00000000000E+00 -0.71874174108E+03  0.12154743119E+04  0.98019799655E+03 0.  0.
        2    1    3    3  502    0 -0.21567444069E+02  0.31191814874E+03 -0.82737139934E+03  0.88447810522E+03  0.25500000920E-02 0. -1.
       -2    1    3    3    0  502  0.21567444069E+02 -0.31191814874E+03  0.10862965826E+03  0.33099620665E+03  0.25500000920E-02 0.  1.
</event>
<event>
 5   0  0.3643002E-03  0.1000089E+04  0.7818609E-02  0.9308448E-01
       -1   -1    0    0    0  501  0.00000000000E+00  0.00000000000E+00  0.43139775459E+03  0.43139775462E+03  0.50400001928E-02 0.  1.
        1   -1    0    0  501    0  0.00000000000E+00  0.00000000000E+00 -0.57961431731E+03  0.57961431733E+03  0.50400001928E-02 0. -1.
    10030    2    1    2    0    0  0.00000000000E+00  0.00000000000E+00 -0.14821656272E+03  0.10110120719E+04  0.10000886262E+04 0.  0.
        2    1    3    3  502    0 -0.33541037753E+03  0.12460486826E+03  0.27901754769E+03  0.45373702347E+03  0.25500000920E-02 0.  1.
       -2    1    3    3    0  502  0.33541037753E+03 -0.12460486826E+03 -0.42723411041E+03  0.55727504847E+03  0.25500000920E-02 0. -1.
</event>
<event>
 5   0  0.3569359E-03  0.9785822E+03  0.7818609E-02  0.9332353E-01
       -1   -1    0    0    0  501  0.00000000000E+00  0.00000000000E+00  0.60301365791E+03  0.60301365793E+03  0.50400001928E-02 0.  1.
        1   -1    0    0  501    0  0.00000000000E+00  0.00000000000E+00 -0.39701548473E+03  0.39701548476E+03  0.50400001928E-02 0. -1.
    10030    2    1    2    0    0  0.00000000000E+00  0.00000000000E+00  0.20599817318E+03  0.10000291427E+04  0.97858215746E+03 0.  0.
        4    1    3    3  502    0  0.55470786975E+01  0.16655208485E+03 -0.36711997177E+03  0.40317372635E+03  0.12699999809E+01 0. -1.
       -4    1    3    3    0  502 -0.55470786975E+01 -0.16655208485E+03  0.57311814495E+03  0.59685541635E+03  0.12699999809E+01 0.  1.
</event>
<event>
 5   0  0.3640180E-03  0.1024094E+04  0.7818609E-02  0.9282506E-01
       -1   -1    0    0    0  501  0.00000000000E+00  0.00000000000E+00  0.25225191747E+03  0.25225191752E+03  0.50400001928E-02 0.  1.
        1   -1    0    0  501    0  0.00000000000E+00  0.00000000000E+00 -0.10394067919E+04  0.10394067920E+04  0.50400001928E-02 0. -1.
    10030    2    1    2    0    0  0.00000000000E+00  0.00000000000E+00 -0.78715487447E+03  0.12916587095E+04  0.10240944416E+04 0.  0.
        5    1    3    3  502    0 -0.26405335485E+03 -0.13488438605E+03  0.13292092005E+03  0.32497389556E+03  0.46999998093E+01 0.  1.
       -5    1    3    3    0  502  0.26405335485E+03  0.13488438605E+03 -0.92007579452E+03  0.96668481392E+03  0.46999998093E+01 0. -1.
</event>
<event>
 5   0  0.3640180E-03  0.9985728E+03  0.7818609E-02  0.9310112E-01
       -1   -1    0    0    0  501  0.00000000000E+00  0.00000000000E+00  0.34513495933E+03  0.34513495937E+03  0.50400001928E-02 0.  1.
        1   -1    0    0  501    0  0.00000000000E+00  0.00000000000E+00 -0.72228817355E+03  0.72228817357E+03  0.50400001928E-02 0. -1.
    10030    2    1    2    0    0  0.00000000000E+00  0.00000000000E+00 -0.37715321422E+03  0.10674231329E+04  0.99857278039E+03 0.  0.
        5    1    3    3  502    0  0.36975001973E+03 -0.33424211098E+03 -0.21940875839E+03  0.54460550777E+03  0.46999998093E+01 0. -1.
       -5    1    3    3    0  502 -0.36975001973E+03  0.33424211098E+03 -0.15774445583E+03  0.52281762517E+03  0.46999998093E+01 0.  1.
</event>
<event>
 5   0  0.6376961E-03  0.1001955E+04  0.7818609E-02  0.9306404E-01
       -2   -1    0    0    0  501  0.00000000000E+00  0.00000000000E+00  0.14273826966E+03  0.14273826968E+03  0.25500000920E-02 0. -1.
        2   -1    0    0  501    0  0.00000000000E+00  0.00000000000E+00 -0.17583106759E+04  0.17583106759E+04  0.25500000920E-02 0.  1.
    10030    2    1    2    0    0  0.00000000000E+00  0.00000000000E+00 -0.16155724062E+04  0.19010489456E+04  0.10019545367E+04 0.  0.
        3    1    3    3  502    0  0.25245389352E+03  0.26886283282E+03 -0.16448417015E+03  0.40382575903E+03  0.10100000352E+00 0. -1.
       -3    1    3    3    0  502 -0.25245389352E+03 -0.26886283282E+03 -0.14510882361E+04  0.14972231865E+04  0.10100000352E+00 0.  1.
</event>
<event>
 5   0  0.6376961E-03  0.1007487E+04  0.7818609E-02  0.9300371E-01
        2   -1    0    0  501    0  0.00000000000E+00  0.00000000000E+00  0.10722677085E+04  0.10722677085E+04  0.25500000920E-02 0.  1.
       -2   -1    0    0    0  501  0.00000000000E+00  0.00000000000E+00 -0.23665505565E+03  0.23665505566E+03  0.25500000920E-02 0. -1.
    10030    2    1    2    0    0  0.00000000000E+00  0.00000000000E+00  0.83561265286E+03  0.13089227642E+04  0.10074871200E+04 0.  0.
        3    1    3    3  502    0  0.21856055504E+03 -0.27460006640E+02  0.10063788920E+04  0.10302044713E+04  0.10100000352E+00 0.  1.
       -3    1    3    3    0  502 -0.21856055504E+03  0.27460006640E+02 -0.17076623912E+03  0.27871829291E+03  0.10100000352E+00 0. -1.
</event>
<event>
 5   0  0.3640180E-03  0.9972852E+03  0.7818609E-02  0.9311527E-01
       -1   -1    0    0    0  501  0.00000000000E+00  0.00000000000E+00  0.33480932140E+03  0.33480932143E+03  0.50400001928E-02 0. -1.
        1   -1    0    0  501    0  0.00000000000E+00  0.00000000000E+00 -0.74264488728E+03  0.74264488730E+03  0.50400001928E-02 0.  1.
    10030    2    1    2    0    0  0.00000000000E+00  0.00000000000E+00 -0.40783556589E+03  0.10774542087E+04  0.99728517642E+03 0.  0.
        5    1    3    3  502    0  0.34311276131E+03 -0.10413889858E+03  0.17041896597E+03  0.39703399241E+03  0.46999998093E+01 0. -1.
       -5    1    3    3    0  502 -0.34311276131E+03  0.10413889858E+03 -0.57825453186E+03  0.68042021632E+03  0.46999998093E+01 0.  1.
</event>
<event>
 5   0  0.6606947E-03  0.1003984E+04  0.7818609E-02  0.9304186E-01
        2   -1    0    0  501    0  0.00000000000E+00  0.00000000000E+00  0.57026666069E+03  0.57026666069E+03  0.25500000920E-02 0. -1.
       -2   -1    0    0    0  501  0.00000000000E+00  0.00000000000E+00 -0.44189136740E+03  0.44189136741E+03  0.25500000920E-02 0.  1.
    10030    2    1    2    0    0  0.00000000000E+00  0.00000000000E+00  0.12837529328E+03  0.10121580281E+04  0.10039838933E+04 0.  0.
        1    1    3    3  502    0  0.88512942924E+02 -0.80995483231E+02  0.55559970232E+03  0.56840640268E+03  0.50400001928E-02 0. -1.
       -1    1    3    3    0  502 -0.88512942924E+02  0.80995483231E+02 -0.42722440903E+03  0.44375162542E+03  0.50400001928E-02 0.  1.
</event>
<event>
 5   0  0.3643002E-03  0.8937286E+03  0.7818609E-02  0.9433455E-01
       -1   -1    0    0    0  501  0.00000000000E+00  0.00000000000E+00  0.10813263318E+03  0.10813263329E+03  0.50400001928E-02 0.  1.
        1   -1    0    0  501    0  0.00000000000E+00  0.00000000000E+00 -0.18466923183E+04  0.18466923183E+04  0.50400001928E-02 0. -1.
    10030    2    1    2    0    0  0.00000000000E+00  0.00000000000E+00 -0.17385596851E+04  0.19548249516E+04  0.89372860124E+03 0.  0.
        2    1    3    3  502    0 -0.25163980120E+03 -0.17766458998E+03 -0.16119760186E+03  0.34766645357E+03  0.25500000920E-02 0.  1.
       -2    1    3    3    0  502  0.25163980120E+03  0.17766458998E+03 -0.15773620833E+04  0.16071584981E+04  0.25500000920E-02 0. -1.
</event>
<event>
 5   0  0.6376961E-03  0.9975751E+03  0.7818609E-02  0.9311208E-01
       -2   -1    0    0    0  501  0.00000000000E+00  0.00000000000E+00  0.19145411268E+03  0.19145411270E+03  0.25500000920E-02 0.  1.
        2   -1    0    0  501    0  0.00000000000E+00  0.00000000000E+00 -0.12994708394E+04  0.12994708394E+04  0.25500000920E-02 0. -1.
    10030    2    1    2    0    0  0.00000000000E+00  0.00000000000E+00 -0.11080167267E+04  0.14909249521E+04  0.99757513305E+03 0.  0.
        3    1    3    3  502    0 -0.37116569917E+03 -0.41132203012E+02 -0.10481895206E+04  0.11127250854E+04  0.10100000352E+00 0. -1.
       -3    1    3    3    0  502  0.37116569917E+03  0.41132203012E+02 -0.59827206085E+02  0.37819986668E+03  0.10100000352E+00 0.  1.
</event>
<event>
 5   0  0.6360455E-03  0.1003984E+04  0.7818609E-02  0.9304186E-01
       -2   -1    0    0    0  501  0.00000000000E+00  0.00000000000E+00  0.45742550123E+03  0.45742550124E+03  0.25500000920E-02 0. -1.
        2   -1    0    0  501    0  0.00000000000E+00  0.00000000000E+00 -0.55090022523E+03  0.55090022524E+03  0.25500000920E-02 0.  1.
    10030    2    1    2    0    0  0.00000000000E+00  0.00000000000E+00 -0.93474724002E+02  0.10083257265E+04  0.10039836884E+04 0.  0.
        4    1    3    3  502    0  0.33526008197E+03  0.21982971458E+03 -0.35015280101E+03  0.53229035585E+03  0.12699999809E+01 0.  1.
       -4    1    3    3    0  502 -0.33526008197E+03 -0.21982971458E+03  0.25667807701E+03  0.47603537063E+03  0.12699999809E+01 0. -1.
</event>
<event>
 5   0  0.6022787E-03  0.1001758E+04  0.7818609E-02  0.9306619E-01
        2   -1    0    0  501    0  0.00000000000E+00  0.00000000000E+00  0.68906898314E+03  0.68906898314E+03  0.25500000920E-02 0.  1.
       -2   -1    0    0    0  501  0.00000000000E+00  0.00000000000E+00 -0.36408515893E+03  0.36408515894E+03  0.25500000920E-02 0. -1.
    10030    2    1    2    0    0  0.00000000000E+00  0.00000000000E+00  0.32498382421E+03  0.10531541421E+04  0.10017580352E+04 0.  0.
        5    1    3    3  502    0 -0.11337504120E+03  0.35856764046E+03  0.51027091051E+03  0.63389521600E+03  0.46999998093E+01 0.  1.
       -5    1    3    3    0  502  0.11337504120E+03 -0.35856764046E+03 -0.18528708630E+03  0.41925892609E+03  0.46999998093E+01 0. -1.
</event>
<event>
 5   0  0.3608845E-03  0.1013760E+04  0.7818609E-02  0.9293580E-01
       -1   -1    0    0    0  501  0.00000000000E+00  0.00000000000E+00  0.28411847109E+03  0.28411847113E+03  0.50400001928E-02 0.  1.
        1   -1    0    0  501    0  0.00000000000E+00  0.00000000000E+00 -0.90429724261E+03  0.90429724263E+03  0.50400001928E-02 0. -1.
    10030    2    1    2    0    0  0.00000000000E+00  0.00000000000E+00 -0.62017877152E+03  0.11884157138E+04  0.10137604254E+04 0.  0.
        1    1    3    3  502    0 -0.39687077661E+03  0.31539408618E+02 -0.67787002032E+03  0.78613542859E+03  0.50400001928E-02 0.  1.
       -1    1    3    3    0  502  0.39687077661E+03 -0.31539408618E+02  0.57691248792E+02  0.40228028517E+03  0.50400001928E-02 0. -1.
</event>
<event>
 5   0  0.3466598E-03  0.1017526E+04  0.7818609E-02  0.9289529E-01
       -1   -1    0    0    0  501  0.00000000000E+00  0.00000000000E+00  0.81039103516E+03  0.81039103517E+03  0.50400001928E-02 0. -1.
        1   -1    0    0  501    0  0.00000000000E+00  0.00000000000E+00 -0.31940081959E+03  0.31940081962E+03  0.50400001928E-02 0.  1.
    10030    2    1    2    0    0  0.00000000000E+00  0.00000000000E+00  0.49099021557E+03  0.11297918548E+04  0.10175255493E+04 0.  0.
        3    1    3    3  502    0  0.20067483803E+02 -0.46658603928E+03  0.46959070479E+03  0.66228443752E+03  0.10100000352E+00 0. -1.
       -3    1    3    3    0  502 -0.20067483803E+02  0.46658603928E+03  0.21399510788E+02  0.46750741728E+03  0.10100000352E+00 0.  1.
</event>
<event>
 5   0  0.3569359E-03  0.1001502E+04  0.7818609E-02  0.9306899E-01
        1   -1    0    0  501    0  0.00000000000E+00  0.00000000000E+00  0.11554392003E+04  0.11554392003E+04  0.50400001928E-02 0. -1.
       -1   -1    0    0    0  501  0.00000000000E+00  0.00000000000E+00 -0.21701846607E+03  0.21701846613E+03  0.50400001928E-02 0.  1.
    10030    2    1    2    0    0  0.00000000000E+00  0.00000000000E+00  0.93842073426E+03  0.13724576665E+04  0.10015021577E+04 0.  0.
        4    1    3    3  502    0  0.22480839723E+03  0.42695511122E+03  0.28575825925E+03  0.56079307957E+03  0.12699999809E+01 0. -1.
       -4    1    3    3    0  502 -0.22480839723E+03 -0.42695511122E+03  0.65266247501E+03  0.81166458691E+03  0.12699999809E+01 0.  1.
</event>
<event>
 5   0  0.3640180E-03  0.9955060E+03  0.7818609E-02  0.9313488E-01
        1   -1    0    0  501    0  0.00000000000E+00  0.00000000000E+00  0.66981078150E+03  0.66981078152E+03  0.50400001928E-02 0. -1.
       -1   -1    0    0    0  501  0.00000000000E+00  0.00000000000E+00 -0.36989256258E+03  0.36989256261E+03  0.50400001928E-02 0.  1.
    10030    2    1    2    0    0  0.00000000000E+00  0.00000000000E+00  0.29991821893E+03  0.10397033441E+04  0.99550595466E+03 0.  0.
        5    1    3    3  502    0 -0.19731612801E+03 -0.33066288358E+03  0.47934066804E+03  0.61486678475E+03  0.46999998093E+01 0. -1.
       -5    1    3    3    0  502  0.19731612801E+03  0.33066288358E+03 -0.17942244911E+03  0.42483655939E+03  0.46999998093E+01 0.  1.
</event>
<event>
 5   0  0.6376961E-03  0.9888253E+03  0.7818609E-02  0.9320887E-01
       -2   -1    0    0    0  501  0.00000000000E+00  0.00000000000E+00  0.47442146818E+03  0.47442146819E+03  0.25500000920E-02 0.  1.
        2   -1    0    0  501    0  0.00000000000E+00  0.00000000000E+00 -0.51524619827E+03  0.51524619828E+03  0.25500000920E-02 0. -1.
    10030    2    1    2    0    0  0.00000000000E+00  0.00000000000E+00 -0.40824730085E+02  0.98966766647E+03  0.98882527853E+03 0.  0.
        3    1    3    3  502    0  0.23877373353E+03 -0.20260505544E+03 -0.40333749840E+03  0.51062985824E+03  0.10100000352E+00 0. -1.
       -3    1    3    3    0  502 -0.23877373353E+03  0.20260505544E+03  0.36251276831E+03  0.47903780822E+03  0.10100000352E+00 0.  1.
</event>
<event>
 5   0  0.3643002E-03  0.9966490E+03  0.7818609E-02  0.9312228E-01
        1   -1    0    0  501    0  0.00000000000E+00  0.00000000000E+00  0.85973272600E+03  0.85973272601E+03  0.50400001928E-02 0. -1.
       -1   -1    0    0    0  501  0.00000000000E+00  0.00000000000E+00 -0.28884243388E+03  0.28884243392E+03  0.50400001928E-02 0.  1.
    10030    2    1    2    0    0  0.00000000000E+00  0.00000000000E+00  0.57089029212E+03  0.11485751599E+04  0.99664897149E+03 0.  0.
        2    1    3    3  502    0 -0.26427382407E+03  0.27729196711E+03 -0.81883740539E+02  0.39170963236E+03  0.25500000920E-02 0.  1.
       -2    1    3    3    0  502  0.26427382407E+03 -0.27729196711E+03  0.65277403266E+03  0.75686552757E+03  0.25500000920E-02 0. -1.
</event>
<event>
 5   0  0.3569359E-03  0.1000640E+04  0.7818609E-02  0.9307843E-01
        1   -1    0    0  501    0  0.00000000000E+00  0.00000000000E+00  0.97946506970E+03  0.97946506972E+03  0.50400001928E-02 0.  1.
       -1   -1    0    0    0  501  0.00000000000E+00  0.00000000000E+00 -0.25556841786E+03  0.25556841791E+03  0.50400001928E-02 0. -1.
    10030    2    1    2    0    0  0.00000000000E+00  0.00000000000E+00  0.72389665184E+03  0.12350334876E+04  0.10006404714E+04 0.  0.
        4    1    3    3  502    0  0.80125357235E+02 -0.17710635372E+03 -0.20705240688E+03  0.28400536173E+03  0.12699999809E+01 0. -1.
       -4    1    3    3    0  502 -0.80125357235E+02  0.17710635372E+03  0.93094905872E+03  0.95102812589E+03  0.12699999809E+01 0.  1.
</event>
<event>
 5   0  0.3466598E-03  0.9972656E+03  0.7818609E-02  0.9311549E-01
        1   -1    0    0  501    0  0.00000000000E+00  0.00000000000E+00  0.91774183545E+03  0.91774183547E+03  0.50400001928E-02 0. -1.
       -1   -1    0    0    0  501  0.00000000000E+00  0.00000000000E+00 -0.27092007445E+03  0.27092007449E+03  0.50400001928E-02 0.  1.
    10030    2    1    2    0    0  0.00000000000E+00  0.00000000000E+00  0.64682176101E+03  0.11886619100E+04  0.99726563446E+03 0.  0.
        3    1    3    3  502    0  0.27932554608E+03 -0.32888659269E+03  0.62126125608E+03  0.75640908908E+03  0.10100000352E+00 0. -1.
       -3    1    3    3    0  502 -0.27932554608E+03  0.32888659269E+03  0.25560504927E+02  0.43225282088E+03  0.10100000352E+00 0.  1.
</event>
<event>
 5   0  0.3569359E-03  0.1015364E+04  0.7818609E-02  0.9291853E-01
       -1   -1    0    0    0  501  0.00000000000E+00  0.00000000000E+00  0.80790655425E+03  0.80790655427E+03  0.50400001928E-02 0. -1.
        1   -1    0    0  501    0  0.00000000000E+00  0.00000000000E+00 -0.31902315039E+03  0.31902315043E+03  0.50400001928E-02 0.  1.
    10030    2    1    2    0    0  0.00000000000E+00  0.00000000000E+00  0.48888340386E+03  0.11269297047E+04  0.10153637657E+04 0.  0.
        4    1    3    3  502    0  0.49235320643E+03 -0.42916444555E+02  0.37332991538E+03  0.61937899522E+03  0.12699999809E+01 0. -1.
       -4    1    3    3    0  502 -0.49235320643E+03  0.42916444555E+02  0.11555348848E+03  0.50755070948E+03  0.12699999809E+01 0.  1.
</event>
<event>
 5   0  0.6199539E-03  0.1001742E+04  0.7818609E-02  0.9306636E-01
       -2   -1    0    0    0  501  0.00000000000E+00  0.00000000000E+00  0.21832069377E+03  0.21832069378E+03  0.25500000920E-02 0.  1.
        2   -1    0    0  501    0  0.00000000000E+00  0.00000000000E+00 -0.11490979479E+04  0.11490979479E+04  0.25500000920E-02 0. -1.
    10030    2    1    2    0    0  0.00000000000E+00  0.00000000000E+00 -0.93077725411E+03  0.13674186417E+04  0.10017422048E+04 0.  0.
        2    1    3    3  502    0 -0.35723716878E+03 -0.21574510064E+03 -0.87325353957E+02  0.42636845646E+03  0.25500000920E-02 0.  1.
       -2    1    3    3    0  502  0.35723716878E+03  0.21574510064E+03 -0.84345190015E+03  0.94105018521E+03  0.25500000920E-02 0. -1.
</event>
<event>
 5   0  0.6022787E-03  0.9996913E+03  0.7818609E-02  0.9308883E-01
        2   -1    0    0  501    0  0.00000000000E+00  0.00000000000E+00  0.17252379566E+04  0.17252379566E+04  0.25500000920E-02 0.  1.
       -2   -1    0    0    0  501  0.00000000000E+00  0.00000000000E+00 -0.14481809451E+03  0.14481809453E+03  0.25500000920E-02 0. -1.
    10030    2    1    2    0    0  0.00000000000E+00  0.00000000000E+00  0.15804198621E+04  0.18700560511E+04  0.99969129929E+03 0.  0.
        5    1    3    3  502    0  0.15863058733E+02 -0.17395135012E+03 -0.85823692216E+02  0.19467538361E+03  0.46999998093E+01 0. -1.
       -5    1    3    3    0  502 -0.15863058733E+02  0.17395135012E+03  0.16662435543E+04  0.16753806675E+04  0.46999998093E+01 0.  1.
</event>
<event>
 5   0  0.6376961E-03  0.9916536E+03  0.7818609E-02  0.9317747E-01
       -2   -1    0    0    0  501  0.00000000000E+00  0.00000000000E+00  0.17129901733E+03  0.17129901735E+03  0.25500000920E-02 0.  1.
        2   -1    0    0  501    0  0.00000000000E+00  0.00000000000E+00 -0.14351759269E+04  0.14351759269E+04  0.25500000920E-02 0. -1.
    10030    2    1    2    0    0  0.00000000000E+00  0.00000000000E+00 -0.12638769096E+04  0.16064749443E+04  0.99165362098E+03 0.  0.
        3    1    3    3  502    0  0.47365622171E+03  0.92034680237E+02 -0.44706278375E+03  0.65778852342E+03  0.10100000352E+00 0.  1.
       -3    1    3    3    0  502 -0.47365622171E+03 -0.92034680237E+02 -0.81681412586E+03  0.94868642087E+03  0.10100000352E+00 0. -1.
</event>
<event>
 5   0  0.6022787E-03  0.9935740E+03  0.7818609E-02  0.9315621E-01
       -2   -1    0    0    0  501  0.00000000000E+00  0.00000000000E+00  0.13428865868E+03  0.13428865871E+03  0.25500000920E-02 0.  1.
        2   -1    0    0  501    0  0.00000000000E+00  0.00000000000E+00 -0.18378119557E+04  0.18378119557E+04  0.25500000920E-02 0. -1.
    10030    2    1    2    0    0  0.00000000000E+00  0.00000000000E+00 -0.17035232970E+04  0.19721006144E+04  0.99357395793E+03 0.  0.
        5    1    3    3  502    0  0.32957284566E+01 -0.22804042893E+03  0.24191513711E+02  0.22939184463E+03  0.46999998093E+01 0.  1.
       -5    1    3    3    0  502 -0.32957284566E+01  0.22804042893E+03 -0.17277148107E+04  0.17427087698E+04  0.46999998093E+01 0. -1.
</event>
<event>
 5   0  0.3569359E-03  0.1002320E+04  0.7818609E-02  0.9306004E-01
        1   -1    0    0  501    0  0.00000000000E+00  0.00000000000E+00  0.16751940448E+04  0.16751940448E+04  0.50400001928E-02 0.  1.
       -1   -1    0    0    0  501  0.00000000000E+00  0.00000000000E+00 -0.14992958260E+03  0.14992958268E+03  0.50400001928E-02 0. -1.
    10030    2    1    2    0    0  0.00000000000E+00  0.00000000000E+00  0.15252644622E+04  0.18251236275E+04  0.10023195977E+04 0.  0.
        4    1    3    3  502    0  0.23615623634E+03 -0.68479353147E+02 -0.32541090067E+02  0.24803170203E+03  0.12699999809E+01 0. -1.
       -4    1    3    3    0  502 -0.23615623634E+03  0.68479353147E+02  0.15578055523E+04  0.15770919255E+04  0.12699999809E+01 0.  1.
</event>
<event>
 5   0  0.3466598E-03  0.9944857E+03  0.7818609E-02  0.9314614E-01
       -1   -1    0    0    0  501  0.00000000000E+00  0.00000000000E+00  0.31847031679E+03  0.31847031683E+03  0.50400001928E-02 0.  1.
        1   -1    0    0  501    0  0.00000000000E+00  0.00000000000E+00 -0.77636890640E+03  0.77636890642E+03  0.50400001928E-02 0. -1.
    10030    2    1    2    0    0  0.00000000000E+00  0.00000000000E+00 -0.45789858961E+03  0.10948392233E+04  0.99448569945E+03 0.  0.
        3    1    3    3  502    0  0.17218874160E+02  0.22431757858E+03 -0.71713252027E+03  0.75159425724E+03  0.10100000352E+00 0. -1.
       -3    1    3    3    0  502 -0.17218874160E+02 -0.22431757858E+03  0.25923393066E+03  0.34324496601E+03  0.10100000352E+00 0.  1.
</event>
<event>
 5   0  0.3466598E-03  0.1000429E+04  0.7818609E-02  0.9308075E-01
        1   -1    0    0  501    0  0.00000000000E+00  0.00000000000E+00  0.73465008818E+03  0.73465008820E+03  0.50400001928E-02 0. -1.
       -1   -1    0    0    0  501  0.00000000000E+00  0.00000000000E+00 -0.34058994030E+03  0.34058994034E+03  0.50400001928E-02 0.  1.
    10030    2    1    2    0    0  0.00000000000E+00  0.00000000000E+00  0.39406014788E+03  0.10752400285E+04  0.10004287675E+04 0.  0.
        3    1    3    3  502    0 -0.33835504676E+03  0.35332176927E+03  0.84850671806E+02  0.49650786199E+03  0.10100000352E+00 0.  1.
       -3    1    3    3    0  502  0.33835504676E+03 -0.35332176927E+03  0.30920947607E+03  0.57873216655E+03  0.10100000352E+00 0. -1.
</event>
<event>
 5   0  0.3640180E-03  0.9810962E+03  0.7818609E-02  0.9329525E-01
        1   -1    0    0  501    0  0.00000000000E+00  0.00000000000E+00  0.97274358989E+03  0.97274358991E+03  0.50400001928E-02 0.  1.
       -1   -1    0    0    0  501  0.00000000000E+00  0.00000000000E+00 -0.24738013295E+03  0.24738013300E+03  0.50400001928E-02 0. -1.
    10030    2    1    2    0    0  0.00000000000E+00  0.00000000000E+00  0.72536345694E+03  0.12201237229E+04  0.98109620044E+03 0.  0.
        5    1    3    3  502    0  0.27115253747E+03 -0.64953941369E+02  0.86458073894E+03  0.90844078356E+03  0.46999998093E+01 0.  1.
       -5    1    3    3    0  502 -0.27115253747E+03  0.64953941369E+02 -0.13921728200E+03  0.31168293935E+03  0.46999998093E+01 0. -1.
</event>
<event>
 5   0  0.6199539E-03  0.9727330E+03  0.7818609E-02  0.9338967E-01
        2   -1    0    0  501    0  0.00000000000E+00  0.00000000000E+00  0.55776780070E+03  0.55776780070E+03  0.25500000920E-02 0. -1.
       -2   -1    0    0    0  501  0.00000000000E+00  0.00000000000E+00 -0.42410544045E+03  0.42410544046E+03  0.25500000920E-02 0.  1.
    10030    2    1    2    0    0  0.00000000000E+00  0.00000000000E+00  0.13366236025E+03  0.98187324116E+03  0.97273297218E+03 0.  0.
        2    1    3    3  502    0 -0.43654688161E+03  0.87225586894E+02  0.26455666260E+03  0.51785298163E+03  0.25500000920E-02 0. -1.
       -2    1    3    3    0  502  0.43654688161E+03 -0.87225586894E+02 -0.13089430236E+03  0.46402025953E+03  0.25500000920E-02 0.  1.
</event>
<event>
 5   0  0.6376961E-03  0.9990843E+03  0.7818609E-02  0.9309550E-01
       -2   -1    0    0    0  501  0.00000000000E+00  0.00000000000E+00  0.49061821222E+03  0.49061821223E+03  0.25500000920E-02 0. -1.
        2   -1    0    0  501    0  0.00000000000E+00  0.00000000000E+00 -0.50862844891E+03  0.50862844891E+03  0.25500000920E-02 0.  1.
    10030    2    1    2    0    0  0.00000000000E+00  0.00000000000E+00 -0.18010236682E+02  0.99924666114E+03  0.99908434137E+03 0.  0.
        3    1    3    3  502    0  0.30525116203E+03  0.19237771340E+03 -0.35453905235E+03  0.50585117018E+03  0.10100000352E+00 0.  1.
       -3    1    3    3    0  502 -0.30525116203E+03 -0.19237771340E+03  0.33652881566E+03  0.49339549096E+03  0.10100000352E+00 0. -1.
</event>
<event>
 5   0  0.6376961E-03  0.1004078E+04  0.7818609E-02  0.9304083E-01
        2   -1    0    0  501    0  0.00000000000E+00  0.00000000000E+00  0.70522603512E+03  0.70522603512E+03  0.25500000920E-02 0. -1.
       -2   -1    0    0    0  501  0.00000000000E+00  0.00000000000E+00 -0.35739363664E+03  0.35739363665E+03  0.25500000920E-02 0.  1.
    10030    2    1    2    0    0  0.00000000000E+00  0.00000000000E+00  0.34783239848E+03  0.10626196718E+04  0.10040782785E+04 0.  0.
        3    1    3    3  502    0 -0.62635115290E+02 -0.46469028196E+03  0.36377206670E+03  0.59345626842E+03  0.10100000352E+00 0. -1.
       -3    1    3    3    0  502  0.62635115290E+02  0.46469028196E+03 -0.15939668218E+02  0.46916340335E+03  0.10100000352E+00 0.  1.
</event>
<event>
 5   0  0.3643002E-03  0.9676967E+03  0.7818609E-02  0.9344702E-01
       -1   -1    0    0    0  501  0.00000000000E+00  0.00000000000E+00  0.22719665648E+03  0.22719665653E+03  0.50400001928E-02 0.  1.
        1   -1    0    0  501    0  0.00000000000E+00  0.00000000000E+00 -0.10304255056E+04  0.10304255056E+04  0.50400001928E-02 0. -1.
    10030    2    1    2    0    0  0.00000000000E+00  0.00000000000E+00 -0.80322884913E+03  0.12576221622E+04  0.96769670800E+03 0.  0.
        2    1    3    3  502    0 -0.24735615855E+03 -0.38066189445E+03 -0.61916000950E+03  0.76775495077E+03  0.25500000920E-02 0. -1.
       -2    1    3    3    0  502  0.24735615855E+03  0.38066189445E+03 -0.18406883963E+03  0.48986721138E+03  0.25500000920E-02 0.  1.
</event>
<event>
 5   0  0.6360455E-03  0.1007602E+04  0.7818609E-02  0.9300246E-01
       -2   -1    0    0    0  501  0.00000000000E+00  0.00000000000E+00  0.22268064999E+03  0.22268065001E+03  0.25500000920E-02 0. -1.
        2   -1    0    0  501    0  0.00000000000E+00  0.00000000000E+00 -0.11398186063E+04  0.11398186063E+04  0.25500000920E-02 0.  1.
    10030    2    1    2    0    0  0.00000000000E+00  0.00000000000E+00 -0.91713795627E+03  0.13624992563E+04  0.10076021995E+04 0.  0.
        4    1    3    3  502    0  0.86484590020E+02 -0.29258890741E+02  0.21139845516E+03  0.23027502414E+03  0.12699999809E+01 0. -1.
       -4    1    3    3    0  502 -0.86484590020E+02  0.29258890741E+02 -0.11285364114E+04  0.11322242321E+04  0.12699999809E+01 0.  1.
</event>
<event>
 5   0  0.6376961E-03  0.9593285E+03  0.7818609E-02  0.9354313E-01
        2   -1    0    0  501    0  0.00000000000E+00  0.00000000000E+00  0.99146986288E+03  0.99146986288E+03  0.25500000920E-02 0.  1.
       -2   -1    0    0    0  501  0.00000000000E+00  0.00000000000E+00 -0.23205725582E+03  0.23205725584E+03  0.25500000920E-02 0. -1.
    10030    2    1    2    0    0  0.00000000000E+00  0.00000000000E+00  0.75941260705E+03  0.12235271187E+04  0.95932846434E+03 0.  0.
        3    1    3    3  502    0 -0.20087676904E+03  0.39831362712E+02 -0.17349927664E+03  0.26840272538E+03  0.10100000352E+00 0. -1.
       -3    1    3    3    0  502  0.20087676904E+03 -0.39831362712E+02  0.93291188370E+03  0.95512439333E+03  0.10100000352E+00 0.  1.
</event>
<event>
 5   0  0.6376961E-03  0.1009150E+04  0.7818609E-02  0.9298566E-01
        2   -1    0    0  501    0  0.00000000000E+00  0.00000000000E+00  0.42743641389E+03  0.42743641390E+03  0.25500000920E-02 0. -1.
       -2   -1    0    0    0  501  0.00000000000E+00  0.00000000000E+00 -0.59563408602E+03  0.59563408602E+03  0.25500000920E-02 0.  1.
    10030    2    1    2    0    0  0.00000000000E+00  0.00000000000E+00 -0.16819767213E+03  0.10230704999E+04  0.10091495384E+04 0.  0.
        3    1    3    3  502    0 -0.23066618904E+03  0.12251895292E+03  0.35357163513E+03  0.43958013599E+03  0.10100000352E+00 0. -1.
       -3    1    3    3    0  502  0.23066618904E+03 -0.12251895292E+03 -0.52176930726E+03  0.58349036392E+03  0.10100000352E+00 0.  1.
</event>
<event>
 5   0  0.2417750E-03  0.9946456E+03  0.7818609E-02  0.9314437E-01
       -3   -1    0    0    0  501  0.00000000000E+00  0.00000000000E+00  0.37271881135E+03  0.37271882504E+03  0.10100000352E+00 0. -1.
        3   -1    0    0  501    0  0.00000000000E+00  0.00000000000E+00 -0.66358329234E+03  0.66358330003E+03  0.10100000352E+00 0.  1.
    10030    2    1    2    0    0  0.00000000000E+00  0.00000000000E+00 -0.29086448099E+03  0.10363021251E+04  0.99464563947E+03 0.  0.
        3    1    3    3  502    0 -0.42261546981E+03 -0.17624192566E+03  0.56770277741E+02  0.46139779618E+03  0.10100000352E+00 0. -1.
       -3    1    3    3    0  502  0.42261546981E+03  0.17624192566E+03 -0.34763475873E+03  0.57490432888E+03  0.10100000352E+00 0.  1.
</event>
<event>
 5   0  0.6376961E-03  0.8369816E+03  0.7818609E-02  0.9507978E-01
       -2   -1    0    0    0  501  0.00000000000E+00  0.00000000000E+00  0.52073014974E+03  0.52073014974E+03  0.25500000920E-02 0.  1.
        2   -1    0    0  501    0  0.00000000000E+00  0.00000000000E+00 -0.33632498652E+03  0.33632498653E+03  0.25500000920E-02 0. -1.
    10030    2    1    2    0    0  0.00000000000E+00  0.00000000000E+00  0.18440516321E+03  0.85705513628E+03  0.83698162608E+03 0.  0.
        3    1    3    3  502    0 -0.75707336149E+02  0.39021591894E+03  0.22624071816E+03  0.45736739816E+03  0.10100000352E+00 0.  1.
       -3    1    3    3    0  502  0.75707336149E+02 -0.39021591894E+03 -0.41835554950E+02  0.39968773812E+03  0.10100000352E+00 0. -1.
</event>
<event>
 5   0  0.6022787E-03  0.1004048E+04  0.7818609E-02  0.9304117E-01
        2   -1    0    0  501    0  0.00000000000E+00  0.00000000000E+00  0.18944525913E+04  0.18944525913E+04  0.25500000920E-02 0. -1.
       -2   -1    0    0    0  501  0.00000000000E+00  0.00000000000E+00 -0.13303469423E+03  0.13303469425E+03  0.25500000920E-02 0.  1.
    10030    2    1    2    0    0  0.00000000000E+00  0.00000000000E+00  0.17614178971E+04  0.20274872856E+04  0.10040476508E+04 0.  0.
        5    1    3    3  502    0 -0.22160280135E+03 -0.41632015250E+03  0.53343651888E+03  0.71204415637E+03  0.46999998093E+01 0.  1.
       -5    1    3    3    0  502  0.22160280135E+03  0.41632015250E+03  0.12279813782E+04  0.13154431292E+04  0.46999998093E+01 0. -1.
</event>
<event>
 5   0  0.3466598E-03  0.1023722E+04  0.7818609E-02  0.9282903E-01
       -1   -1    0    0    0  501  0.00000000000E+00  0.00000000000E+00  0.78126942871E+03  0.78126942873E+03  0.50400001928E-02 0.  1.
        1   -1    0    0  501    0  0.00000000000E+00  0.00000000000E+00 -0.33535365594E+03  0.33535365598E+03  0.50400001928E-02 0. -1.
    10030    2    1    2    0    0  0.00000000000E+00  0.00000000000E+00  0.44591577277E+03  0.11166230847E+04  0.10237217576E+04 0.  0.
        3    1    3    3  502    0 -0.42514649413E+03 -0.27589124132E+03  0.14478818262E+03  0.52709500712E+03  0.10100000352E+00 0.  1.
       -3    1    3    3    0  502  0.42514649413E+03  0.27589124132E+03  0.30112759015E+03  0.58952807758E+03  0.10100000352E+00 0. -1.
</event>
<event>
 5   0  0.2417750E-03  0.9815770E+03  0.7818609E-02  0.9328985E-01
       -3   -1    0    0    0  501  0.00000000000E+00  0.00000000000E+00  0.24460010345E+03  0.24460012430E+03  0.10100000352E+00 0.  1.
        3   -1    0    0  501    0  0.00000000000E+00  0.00000000000E+00 -0.98476389313E+03  0.98476389831E+03  0.10100000352E+00 0. -1.
    10030    2    1    2    0    0  0.00000000000E+00  0.00000000000E+00 -0.74016378969E+03  0.12293640226E+04  0.98157702934E+03 0.  0.
        3    1    3    3  502    0  0.14600961552E+03  0.44272195279E+03 -0.56228852090E+03  0.73040394731E+03  0.10100000352E+00 0. -1.
       -3    1    3    3    0  502 -0.14600961552E+03 -0.44272195279E+03 -0.17787526878E+03  0.49896007531E+03  0.10100000352E+00 0.  1.
</event>
<event>
 5   0  0.3643002E-03  0.1010647E+04  0.7818609E-02  0.9296944E-01
       -1   -1    0    0    0  501  0.00000000000E+00  0.00000000000E+00  0.26152683634E+03  0.26152683638E+03  0.50400001928E-02 0.  1.
        1   -1    0    0  501    0  0.00000000000E+00  0.00000000000E+00 -0.97638782603E+03  0.97638782605E+03  0.50400001928E-02 0. -1.
    10030    2    1    2    0    0  0.00000000000E+00  0.00000000000E+00 -0.71486098970E+03  0.12379146624E+04  0.10106465638E+04 0.  0.
        2    1    3    3  502    0  0.48599936648E+03 -0.67646556837E+02 -0.20952891217E+03  0.53354831638E+03  0.25500000920E-02 0.  1.
       -2    1    3    3    0  502 -0.48599936648E+03  0.67646556837E+02 -0.50533207753E+03  0.70436634605E+03  0.25500000920E-02 0. -1.
</event>
<event>
 5   0  0.3569359E-03  0.1008401E+04  0.7818609E-02  0.9299379E-01
        1   -1    0    0  501    0  0.00000000000E+00  0.00000000000E+00  0.62285728363E+03  0.62285728365E+03  0.50400001928E-02 0.  1.
       -1   -1    0    0    0  501  0.00000000000E+00  0.00000000000E+00 -0.40814804072E+03  0.40814804075E+03  0.50400001928E-02 0. -1.
    10030    2    1    2    0    0  0.00000000000E+00  0.00000000000E+00  0.21470924291E+03  0.10310053244E+04  0.10084006743E+04 0.  0.
        4    1    3    3  502    0 -0.36488084615E+03 -0.14388673027E+03  0.43127661665E+03  0.58296016674E+03  0.12699999809E+01 0.  1.
       -4    1    3    3    0  502  0.36488084615E+03  0.14388673027E+03 -0.21656737374E+03  0.44804515766E+03  0.12699999809E+01 0. -1.
</event>
<event>
 5   0  0.6376961E-03  0.9997224E+03  0.7818609E-02  0.9308849E-01
        2   -1    0    0  501    0  0.00000000000E+00  0.00000000000E+00  0.44500316063E+03  0.44500316064E+03  0.25500000920E-02 0. -1.
       -2   -1    0    0    0  501  0.00000000000E+00  0.00000000000E+00 -0.56148195063E+03  0.56148195063E+03  0.25500000920E-02 0.  1.
    10030    2    1    2    0    0  0.00000000000E+00  0.00000000000E+00 -0.11647878999E+03  0.10064851113E+04  0.99972244683E+03 0.  0.
        3    1    3    3  502    0 -0.21980977977E+03 -0.34846065034E+03 -0.34320901742E+03  0.53622159967E+03  0.10100000352E+00 0.  1.
       -3    1    3    3    0  502  0.21980977977E+03  0.34846065034E+03  0.22673022743E+03  0.47026351160E+03  0.10100000352E+00 0. -1.
</event>
<event>
 5   0  0.6376961E-03  0.1010467E+04  0.7818609E-02  0.9297138E-01
        2   -1    0    0  501    0  0.00000000000E+00  0.00000000000E+00  0.93492532985E+03  0.93492532985E+03  0.25500000920E-02 0.  1.
       -2   -1    0    0    0  501  0.00000000000E+00  0.00000000000E+00 -0.27302822948E+03  0.27302822949E+03  0.25500000920E-02 0. -1.
    10030    2    1    2    0    0  0.00000000000E+00  0.00000000000E+00  0.66189710037E+03  0.12079535593E+04  0.10104672335E+04 0.  0.
        3    1    3    3  502    0  0.29415472403E+03  0.35919188412E+03  0.92713145606E+02  0.47343589730E+03  0.10100000352E+00 0. -1.
       -3    1    3    3    0  502 -0.29415472403E+03 -0.35919188412E+03  0.56918395477E+03  0.73451766204E+03  0.10100000352E+00 0.  1.
</event>
<event>
 5   0  0.6606947E-03  0.1013000E+04  0.7818609E-02  0.9294401E-01
        2   -1    0    0  501    0  0.00000000000E+00  0.00000000000E+00  0.13178124160E+04  0.13178124160E+04  0.25500000920E-02 0. -1.
       -2   -1    0    0    0  501  0.00000000000E+00  0.00000000000E+00 -0.19467278206E+03  0.19467278208E+03  0.25500000920E-02 0.  1.
    10030    2    1    2    0    0  0.00000000000E+00  0.00000000000E+00  0.11231396340E+04  0.15124851981E+04  0.10129999196E+04 0.  0.
        1    1    3    3  502    0 -0.34770989733E+03 -0.86492369515E+02  0.27059050088E+02  0.35932616785E+03  0.50400001928E-02 0.  1.
       -1    1    3    3    0  502  0.34770989733E+03  0.86492369515E+02  0.10960805839E+04  0.11531590302E+04  0.50400001928E-02 0. -1.
</event>
<event>
 5   0  0.3608845E-03  0.9933490E+03  0.7818609E-02  0.9315870E-01
       -1   -1    0    0    0  501  0.00000000000E+00  0.00000000000E+00  0.28850725221E+03  0.28850725226E+03  0.50400001928E-02 0.  1.
        1   -1    0    0  501    0  0.00000000000E+00  0.00000000000E+00 -0.85504105110E+03  0.85504105111E+03  0.50400001928E-02 0. -1.
    10030    2    1    2    0    0  0.00000000000E+00  0.00000000000E+00 -0.56653379888E+03  0.11435483034E+04  0.99334897033E+03 0.  0.
        1    1    3    3  502    0 -0.99021584323E+02 -0.15514520359E+03 -0.81433342111E+03  0.83487378035E+03  0.50400001928E-02 0. -1.
       -1    1    3    3    0  502  0.99021584323E+02  0.15514520359E+03  0.24779962222E+03  0.30867452302E+03  0.50400001928E-02 0.  1.
</event>
<event>
 5   0  0.6199539E-03  0.1000199E+04  0.7818609E-02  0.9308327E-01
       -2   -1    0    0    0  501  0.00000000000E+00  0.00000000000E+00  0.36814630922E+03  0.36814630923E+03  0.25500000920E-02 0.  1.
        2   -1    0    0  501    0  0.00000000000E+00  0.00000000000E+00 -0.67934784165E+03  0.67934784165E+03  0.25500000920E-02 0. -1.
    10030    2    1    2    0    0  0.00000000000E+00  0.00000000000E+00 -0.31120153243E+03  0.10474941509E+04  0.10001987814E+04 0.  0.
        2    1    3    3  502    0 -0.16599997508E+03  0.38581782064E+03  0.12869063467E+03  0.43928653737E+03  0.25500000920E-02 0.  1.
       -2    1    3    3    0  502  0.16599997508E+03 -0.38581782064E+03 -0.43989216710E+03  0.60820761351E+03  0.25500000920E-02 0. -1.
</event>
<event>
 5   0  0.6376961E-03  0.9882810E+03  0.7818609E-02  0.9321492E-01
        2   -1    0    0  501    0  0.00000000000E+00  0.00000000000E+00  0.83917748147E+03  0.83917748147E+03  0.25500000920E-02 0.  1.
       -2   -1    0    0    0  501  0.00000000000E+00  0.00000000000E+00 -0.29096921567E+03  0.29096921568E+03  0.25500000920E-02 0. -1.
    10030    2    1    2    0    0  0.00000000000E+00  0.00000000000E+00  0.54820826580E+03  0.11301466972E+04  0.98828095924E+03 0.  0.
        3    1    3    3  502    0 -0.48172782419E+03  0.70384426530E+02  0.17734659724E+03  0.51813848520E+03  0.10100000352E+00 0.  1.
       -3    1    3    3    0  502  0.48172782419E+03 -0.70384426530E+02  0.37086166856E+03  0.61200821195E+03  0.10100000352E+00 0. -1.
</event>
<event>
 5   0  0.3608845E-03  0.1003845E+04  0.7818609E-02  0.9304338E-01
       -1   -1    0    0    0  501  0.00000000000E+00  0.00000000000E+00  0.20904944000E+03  0.20904944006E+03  0.50400001928E-02 0. -1.
        1   -1    0    0  501    0  0.00000000000E+00  0.00000000000E+00 -0.12051031551E+04  0.12051031551E+04  0.50400001928E-02 0.  1.
    10030    2    1    2    0    0  0.00000000000E+00  0.00000000000E+00 -0.99605371509E+03  0.14141525952E+04  0.10038448880E+04 0.  0.
        1    1    3    3  502    0 -0.51154660208E+02  0.17312245705E+03 -0.11577877340E+04  0.11717766944E+04  0.50400001928E-02 0.  1.
       -1    1    3    3    0  502  0.51154660208E+02 -0.17312245705E+03  0.16173401892E+03  0.24237590081E+03  0.50400001928E-02 0. -1.
</event>
<event>
 5   0  0.6360455E-03  0.9944971E+03  0.7818609E-02  0.9314601E-01
       -2   -1    0    0    0  501  0.00000000000E+00  0.00000000000E+00  0.34930825442E+03  0.34930825443E+03  0.25500000920E-02 0.  1.
        2   -1    0    0  501    0  0.00000000000E+00  0.00000000000E+00 -0.70784507654E+03  0.70784507655E+03  0.25500000920E-02 0. -1.
    10030    2    1    2    0    0  0.00000000000E+00  0.00000000000E+00 -0.35853682212E+03  0.10571533310E+04  0.99449711532E+03 0.  0.
        4    1    3    3  502    0  0.50402879508E+02  0.11689121882E+03 -0.69022960574E+03  0.70187073514E+03  0.12699999809E+01 0. -1.
       -4    1    3    3    0  502 -0.50402879508E+02 -0.11689121882E+03  0.33169278362E+03  0.35528259584E+03  0.12699999809E+01 0.  1.
</event>
<event>
 5   0  0.3640180E-03  0.1005479E+04  0.7818609E-02  0.9302555E-01
       -1   -1    0    0    0  501  0.00000000000E+00  0.00000000000E+00  0.21519298805E+03  0.21519298811E+03  0.50400001928E-02 0. -1.
        1   -1    0    0  501    0  0.00000000000E+00  0.00000000000E+00 -0.11745142092E+04  0.11745142093E+04  0.50400001928E-02 0.  1.
    10030    2    1    2    0    0  0.00000000000E+00  0.00000000000E+00 -0.95932122120E+03  0.13897071974E+04  0.10054794324E+04 0.  0.
        5    1    3    3  502    0  0.90709762641E+02  0.45398411250E+03 -0.20883537476E+03  0.50790170229E+03  0.46999998093E+01 0. -1.
       -5    1    3    3    0  502 -0.90709762641E+02 -0.45398411250E+03 -0.75048584644E+03  0.88180549508E+03  0.46999998093E+01 0.  1.
</event>
<event>
 5   0  0.6022787E-03  0.9990752E+03  0.7818609E-02  0.9309560E-01
        2   -1    0    0  501    0  0.00000000000E+00  0.00000000000E+00  0.14162213890E+04  0.14162213890E+04  0.25500000920E-02 0. -1.
       -2   -1    0    0    0  501  0.00000000000E+00  0.00000000000E+00 -0.17619973596E+03  0.17619973598E+03  0.25500000920E-02 0.  1.
    10030    2    1    2    0    0  0.00000000000E+00  0.00000000000E+00  0.12400216530E+04  0.15924211249E+04  0.99907524204E+03 0.  0.
        5    1    3    3  502    0 -0.32380712773E+03 -0.35722786053E+03  0.82815268247E+03  0.95829106006E+03  0.46999998093E+01 0. -1.
       -5    1    3    3    0  502  0.32380712773E+03  0.35722786053E+03  0.41186897052E+03  0.63413006488E+03  0.46999998093E+01 0.  1.
</event>
<event>
 5   0  0.6360455E-03  0.9993688E+03  0.7818609E-02  0.9309237E-01
        2   -1    0    0  501    0  0.00000000000E+00  0.00000000000E+00  0.47107435482E+03  0.47107435483E+03  0.25500000920E-02 0. -1.
       -2   -1    0    0    0  501  0.00000000000E+00  0.00000000000E+00 -0.53003205395E+03  0.53003205395E+03  0.25500000920E-02 0.  1.
    10030    2    1    2    0    0  0.00000000000E+00  0.00000000000E+00 -0.58957699122E+02  0.10011064088E+04  0.99936881651E+03 0.  0.
        4    1    3    3  502    0 -0.12361844058E+03  0.37025838942E+03 -0.34196689651E+03  0.51895641916E+03  0.12699999809E+01 0.  1.
       -4    1    3    3    0  502  0.12361844058E+03 -0.37025838942E+03  0.28300919738E+03  0.48214998962E+03  0.12699999809E+01 0. -1.
</event>
<event>
 5   0  0.6376961E-03  0.9993688E+03  0.7818609E-02  0.9309237E-01
       -2   -1    0    0    0  501  0.00000000000E+00  0.00000000000E+00  0.22040594286E+03  0.22040594288E+03  0.25500000920E-02 0.  1.
        2   -1    0    0  501    0  0.00000000000E+00  0.00000000000E+00 -0.11328391431E+04  0.11328391431E+04  0.25500000920E-02 0. -1.
    10030    2    1    2    0    0  0.00000000000E+00  0.00000000000E+00 -0.91243320027E+03  0.13532450860E+04  0.99936875970E+03 0.  0.
        3    1    3    3  502    0 -0.47757635260E+03  0.13891652446E+03 -0.52126268503E+03  0.72048023591E+03  0.10100000352E+00 0. -1.
       -3    1    3    3    0  502  0.47757635260E+03 -0.13891652446E+03 -0.39117051524E+03  0.63276485011E+03  0.10100000352E+00 0.  1.
</event>
<event>
 5   0  0.6022787E-03  0.9978328E+03  0.7818609E-02  0.9310925E-01
        2   -1    0    0  501    0  0.00000000000E+00  0.00000000000E+00  0.14259368328E+04  0.14259368328E+04  0.25500000920E-02 0.  1.
       -2   -1    0    0    0  501  0.00000000000E+00  0.00000000000E+00 -0.17456423331E+03  0.17456423333E+03  0.25500000920E-02 0. -1.
    10030    2    1    2    0    0  0.00000000000E+00  0.00000000000E+00  0.12513725995E+04  0.16005010661E+04  0.99783279156E+03 0.  0.
        5    1    3    3  502    0  0.12401271558E+03 -0.11412095957E+03  0.13788603284E+04  0.13891294548E+04  0.46999998093E+01 0.  1.
       -5    1    3    3    0  502 -0.12401271558E+03  0.11412095957E+03 -0.12748772892E+03  0.21137161129E+03  0.46999998093E+01 0. -1.
</event>
<event>
 5   0  0.6360455E-03  0.9464548E+03  0.7818609E-02  0.9369304E-01
        2   -1    0    0  501    0  0.00000000000E+00  0.00000000000E+00  0.40078326244E+03  0.40078326245E+03  0.25500000920E-02 0.  1.
       -2   -1    0    0    0  501  0.00000000000E+00  0.00000000000E+00 -0.55876628904E+03  0.55876628905E+03  0.25500000920E-02 0. -1.
    10030    2    1    2    0    0  0.00000000000E+00  0.00000000000E+00 -0.15798302660E+03  0.95954955150E+03  0.94645480880E+03 0.  0.
        4    1    3    3  502    0 -0.23784036703E+03 -0.95321563829E+01  0.33567053352E+03  0.41150361136E+03  0.12699999809E+01 0.  1.
       -4    1    3    3    0  502  0.23784036703E+03  0.95321563829E+01 -0.49365356011E+03  0.54804594014E+03  0.12699999809E+01 0. -1.
</event>
<event>
 5   0  0.6376961E-03  0.1018827E+04  0.7818609E-02  0.9288133E-01
        2   -1    0    0  501    0  0.00000000000E+00  0.00000000000E+00  0.53558570472E+03  0.53558570472E+03  0.25500000920E-02 0.  1.
       -2   -1    0    0    0  501  0.00000000000E+00  0.00000000000E+00 -0.48452025556E+03  0.48452025556E+03  0.25500000920E-02 0. -1.
    10030    2    1    2    0    0  0.00000000000E+00  0.00000000000E+00  0.51065449159E+02  0.10201059603E+04  0.10188270168E+04 0.  0.
        3    1    3    3  502    0  0.49438031833E+03  0.64490972648E+02  0.13021600286E+03  0.51529331677E+03  0.10100000352E+00 0.  1.
       -3    1    3    3    0  502 -0.49438031833E+03 -0.64490972648E+02 -0.79150553699E+02  0.50481264352E+03  0.10100000352E+00 0. -1.
</event>
<event>
 5   0  0.2417750E-03  0.1011287E+04  0.7818609E-02  0.9296252E-01
        3   -1    0    0  501    0  0.00000000000E+00  0.00000000000E+00  0.12602310426E+04  0.12602310467E+04  0.10100000352E+00 0.  1.
       -3   -1    0    0    0  501  0.00000000000E+00  0.00000000000E+00 -0.20287960137E+03  0.20287962651E+03  0.10100000352E+00 0. -1.
    10030    2    1    2    0    0  0.00000000000E+00  0.00000000000E+00  0.10573514412E+04  0.14631106732E+04  0.10112866911E+04 0.  0.
        3    1    3    3  502    0 -0.18644367652E+03  0.68535460602E+02 -0.14406487183E+03  0.24538347820E+03  0.10100000352E+00 0. -1.
       -3    1    3    3    0  502  0.18644367652E+03 -0.68535460602E+02  0.12014163131E+04  0.12177271950E+04  0.10100000352E+00 0.  1.
</event>
<event>
 5   0  0.3640180E-03  0.1037567E+04  0.7818609E-02  0.9268275E-01
       -1   -1    0    0    0  501  0.00000000000E+00  0.00000000000E+00  0.22436676323E+03  0.22436676328E+03  0.50400001928E-02 0.  1.
        1   -1    0    0  501    0  0.00000000000E+00  0.00000000000E+00 -0.11995373985E+04  0.11995373985E+04  0.50400001928E-02 0. -1.
    10030    2    1    2    0    0  0.00000000000E+00  0.00000000000E+00 -0.97517063526E+03  0.14239041618E+04  0.10375670070E+04 0.  0.
        5    1    3    3  502    0  0.17149157389E+03  0.12568033001E+03  0.16179735983E+03  0.26721785291E+03  0.46999998093E+01 0.  1.
       -5    1    3    3    0  502 -0.17149157389E+03 -0.12568033001E+03 -0.11369679951E+04  0.11566863089E+04  0.46999998093E+01 0. -1.
</event>
<event>
 5   0  0.6606947E-03  0.1064248E+04  0.7818609E-02  0.9240756E-01
        2   -1    0    0  501    0  0.00000000000E+00  0.00000000000E+00  0.14356403061E+04  0.14356403061E+04  0.25500000920E-02 0. -1.
       -2   -1    0    0    0  501  0.00000000000E+00  0.00000000000E+00 -0.19723319431E+03  0.19723319433E+03  0.25500000920E-02 0.  1.
    10030    2    1    2    0    0  0.00000000000E+00  0.00000000000E+00  0.12384071118E+04  0.16328735004E+04  0.10642479476E+04 0.  0.
        1    1    3    3  502    0 -0.21070835697E+03 -0.40436272314E+03  0.10400844584E+04  0.11356420670E+04  0.50400001928E-02 0. -1.
       -1    1    3    3    0  502  0.21070835697E+03  0.40436272314E+03  0.19832265335E+03  0.49723143346E+03  0.50400001928E-02 0.  1.
</event>
<event>
 5   0  0.3608845E-03  0.1010026E+04  0.7818609E-02  0.9297616E-01
       -1   -1    0    0    0  501  0.00000000000E+00  0.00000000000E+00  0.65219347627E+03  0.65219347629E+03  0.50400001928E-02 0.  1.
        1   -1    0    0  501    0  0.00000000000E+00  0.00000000000E+00 -0.39104694663E+03  0.39104694666E+03  0.50400001928E-02 0. -1.
    10030    2    1    2    0    0  0.00000000000E+00  0.00000000000E+00  0.26114652964E+03  0.10432404229E+04  0.10100262720E+04 0.  0.
        1    1    3    3  502    0  0.33275159051E+03  0.36085350833E+01 -0.26178910320E+03  0.42340309055E+03  0.50400001928E-02 0. -1.
       -1    1    3    3    0  502 -0.33275159051E+03 -0.36085350833E+01  0.52293563284E+03  0.61983733239E+03  0.50400001928E-02 0.  1.
</event>
<event>
 5   0  0.6360455E-03  0.1005972E+04  0.7818609E-02  0.9302019E-01
        2   -1    0    0  501    0  0.00000000000E+00  0.00000000000E+00  0.12775454551E+04  0.12775454551E+04  0.25500000920E-02 0.  1.
       -2   -1    0    0    0  501  0.00000000000E+00  0.00000000000E+00 -0.19803191210E+03  0.19803191212E+03  0.25500000920E-02 0. -1.
    10030    2    1    2    0    0  0.00000000000E+00  0.00000000000E+00  0.10795135430E+04  0.14755773673E+04  0.10059717079E+04 0.  0.
        4    1    3    3  502    0 -0.34644627128E+01 -0.39550737270E+03  0.83967850322E+02  0.40433933416E+03  0.12699999809E+01 0. -1.
       -4    1    3    3    0  502  0.34644627128E+01  0.39550737270E+03  0.99554569271E+03  0.10712380331E+04  0.12699999809E+01 0.  1.
</event>
<event>
 5   0  0.6360455E-03  0.9991608E+03  0.7818609E-02  0.9309466E-01
       -2   -1    0    0    0  501  0.00000000000E+00  0.00000000000E+00  0.35429549299E+03  0.35429549300E+03  0.25500000920E-02 0.  1.
        2   -1    0    0  501    0  0.00000000000E+00  0.00000000000E+00 -0.70444188115E+03  0.70444188115E+03  0.25500000920E-02 0. -1.
    10030    2    1    2    0    0  0.00000000000E+00  0.00000000000E+00 -0.35014638815E+03  0.10587373742E+04  0.99916081503E+03 0.  0.
        4    1    3    3  502    0  0.19086264420E+02 -0.17091400991E+02 -0.70374358544E+03  0.70421094029E+03  0.12699999809E+01 0. -1.
       -4    1    3    3    0  502 -0.19086264420E+02  0.17091400991E+02  0.35359719729E+03  0.35452643386E+03  0.12699999809E+01 0.  1.
</event>
<event>
 5   0  0.2417750E-03  0.9999503E+03  0.7818609E-02  0.9308599E-01
        3   -1    0    0  501    0  0.00000000000E+00  0.00000000000E+00  0.97088864241E+03  0.97088864766E+03  0.10100000352E+00 0.  1.
       -3   -1    0    0    0  501  0.00000000000E+00  0.00000000000E+00 -0.25747047376E+03  0.25747049357E+03  0.10100000352E+00 0. -1.
    10030    2    1    2    0    0  0.00000000000E+00  0.00000000000E+00  0.71341816865E+03  0.12283591412E+04  0.99995034700E+03 0.  0.
        2    1    3    3  502    0  0.16635330833E+03  0.26747290232E+03 -0.12025973321E+03  0.33716105959E+03  0.25500000920E-02 0. -1.
       -2    1    3    3    0  502 -0.16635330833E+03 -0.26747290232E+03  0.83367790186E+03  0.89119808164E+03  0.25500000920E-02 0.  1.
</event>
<event>
 5   0  0.6360455E-03  0.9544885E+03  0.7818609E-02  0.9359920E-01
        2   -1    0    0  501    0  0.00000000000E+00  0.00000000000E+00  0.43080659836E+03  0.43080659837E+03  0.25500000920E-02 0. -1.
       -2   -1    0    0    0  501  0.00000000000E+00  0.00000000000E+00 -0.52868750233E+03  0.52868750234E+03  0.25500000920E-02 0.  1.
    10030    2    1    2    0    0  0.00000000000E+00  0.00000000000E+00 -0.97880903965E+02  0.95949410071E+03  0.95448847973E+03 0.  0.
        4    1    3    3  502    0 -0.10878577133E+03  0.62281560963E+02  0.41396020973E+03  0.43252514958E+03  0.12699999809E+01 0. -1.
       -4    1    3    3    0  502  0.10878577133E+03 -0.62281560963E+02 -0.51184111370E+03  0.52696895113E+03  0.12699999809E+01 0.  1.
</event>
<event>
 5   0  0.6606947E-03  0.1011561E+04  0.7818609E-02  0.9295955E-01
       -2   -1    0    0    0  501  0.00000000000E+00  0.00000000000E+00  0.11156100882E+04  0.11156100882E+04  0.25500000920E-02 0. -1.
        2   -1    0    0  501    0  0.00000000000E+00  0.00000000000E+00 -0.22930419163E+03  0.22930419165E+03  0.25500000920E-02 0.  1.
    10030    2    1    2    0    0  0.00000000000E+00  0.00000000000E+00  0.88630589654E+03  0.13449142798E+04  0.10115613070E+04 0.  0.
        1    1    3    3  502    0 -0.30296934591E+02  0.49407263659E+03  0.58124885773E+03  0.76346310266E+03  0.50400001928E-02 0. -1.
       -1    1    3    3    0  502  0.30296934591E+02 -0.49407263659E+03  0.30505703881E+03  0.58145117717E+03  0.50400001928E-02 0.  1.
</event>
<event>
 5   0  0.3569359E-03  0.9961551E+03  0.7818609E-02  0.9312772E-01
        1   -1    0    0  501    0  0.00000000000E+00  0.00000000000E+00  0.63214655213E+03  0.63214655215E+03  0.50400001928E-02 0.  1.
       -1   -1    0    0    0  501  0.00000000000E+00  0.00000000000E+00 -0.39244257938E+03  0.39244257941E+03  0.50400001928E-02 0. -1.
    10030    2    1    2    0    0  0.00000000000E+00  0.00000000000E+00  0.23970397275E+03  0.10245891316E+04  0.99615505518E+03 0.  0.
        4    1    3    3  502    0  0.80905886090E+02 -0.19748183168E+03  0.58273644732E+03  0.62058699325E+03  0.12699999809E+01 0.  1.
       -4    1    3    3    0  502 -0.80905886090E+02  0.19748183168E+03 -0.34303247458E+03  0.40400213831E+03  0.12699999809E+01 0. -1.
</event>
<event>
 5   0  0.2417750E-03  0.1006440E+04  0.7818609E-02  0.9301510E-01
       -3   -1    0    0    0  501  0.00000000000E+00  0.00000000000E+00  0.20605027784E+03  0.20605030260E+03  0.10100000352E+00 0. -1.
        3   -1    0    0  501    0  0.00000000000E+00  0.00000000000E+00 -0.12289734480E+04  0.12289734521E+04  0.10100000352E+00 0.  1.
    10030    2    1    2    0    0  0.00000000000E+00  0.00000000000E+00 -0.10229231701E+04  0.14350237547E+04  0.10064399459E+04 0.  0.
        4    1    3    3  502    0 -0.23812513729E+03  0.44284647630E+03 -0.54040812085E+03  0.73814573938E+03  0.12699999809E+01 0.  1.
       -4    1    3    3    0  502  0.23812513729E+03 -0.44284647630E+03 -0.48251504927E+03  0.69687801533E+03  0.12699999809E+01 0. -1.
</event>
<event>
 5   0  0.3640180E-03  0.1009858E+04  0.7818609E-02  0.9297798E-01
        1   -1    0    0  501    0  0.00000000000E+00  0.00000000000E+00  0.12431516215E+04  0.12431516215E+04  0.50400001928E-02 0.  1.
       -1   -1    0    0    0  501  0.00000000000E+00  0.00000000000E+00 -0.20508621621E+03  0.20508621628E+03  0.50400001928E-02 0. -1.
    10030    2    1    2    0    0  0.00000000000E+00  0.00000000000E+00  0.10380654053E+04  0.14482378378E+04  0.10098579351E+04 0.  0.
        5    1    3    3  502    0  0.32646725616E+03 -0.37957838523E+03  0.42531499960E+03  0.65694410627E+03  0.46999998093E+01 0.  1.
       -5    1    3    3    0  502 -0.32646725616E+03  0.37957838523E+03  0.61275040567E+03  0.79129373151E+03  0.46999998093E+01 0. -1.
</event>
<event>
 5   0  0.6360455E-03  0.9946704E+03  0.7818609E-02  0.9314410E-01
        2   -1    0    0  501    0  0.00000000000E+00  0.00000000000E+00  0.13198481964E+04  0.13198481964E+04  0.25500000920E-02 0.  1.
       -2   -1    0    0    0  501  0.00000000000E+00  0.00000000000E+00 -0.18740209470E+03  0.18740209472E+03  0.25500000920E-02 0. -1.
    10030    2    1    2    0    0  0.00000000000E+00  0.00000000000E+00  0.11324461017E+04  0.15072502911E+04  0.99467043124E+03 0.  0.
        4    1    3    3  502    0 -0.98258887552E+01 -0.12921544768E+03 -0.16136640996E+03  0.20696355034E+03  0.12699999809E+01 0. -1.
       -4    1    3    3    0  502  0.98258887552E+01  0.12921544768E+03  0.12938125116E+04  0.13002867407E+04  0.12699999809E+01 0.  1.
</event>
<event>
 5   0  0.6606947E-03  0.1019368E+04  0.7818609E-02  0.9287553E-01
       -2   -1    0    0    0  501  0.00000000000E+00  0.00000000000E+00  0.35764718776E+03  0.35764718777E+03  0.25500000920E-02 0. -1.
        2   -1    0    0  501    0  0.00000000000E+00  0.00000000000E+00 -0.72635261027E+03  0.72635261028E+03  0.25500000920E-02 0.  1.
    10030    2    1    2    0    0  0.00000000000E+00  0.00000000000E+00 -0.36870542252E+03  0.10839997980E+04  0.10193683699E+04 0.  0.
        1    1    3    3  502    0 -0.21015193898E+03  0.45282622184E+03 -0.75062237799E+02  0.50482646941E+03  0.50400001928E-02 0. -1.
       -1    1    3    3    0  502  0.21015193898E+03 -0.45282622184E+03 -0.29364318472E+03  0.57917332863E+03  0.50400001928E-02 0.  1.
</event>
<event>
 5   0  0.6199539E-03  0.9930759E+03  0.7818609E-02  0.9316172E-01
        2   -1    0    0  501    0  0.00000000000E+00  0.00000000000E+00  0.47084518938E+03  0.47084518939E+03  0.25500000920E-02 0.  1.
       -2   -1    0    0    0  501  0.00000000000E+00  0.00000000000E+00 -0.52363269567E+03  0.52363269568E+03  0.25500000920E-02 0. -1.
    10030    2    1    2    0    0  0.00000000000E+00  0.00000000000E+00 -0.52787506288E+02  0.99447788507E+03  0.99307589996E+03 0.  0.
        2    1    3    3  502    0 -0.31207741270E+03 -0.30856499488E+03 -0.25898285708E+03  0.50958491721E+03  0.25500000920E-02 0. -1.
       -2    1    3    3    0  502  0.31207741270E+03  0.30856499488E+03  0.20619535079E+03  0.48489296786E+03  0.25500000920E-02 0.  1.
</event>
<event>
 5   0  0.6022787E-03  0.9962311E+03  0.7818609E-02  0.9312688E-01
        2   -1    0    0  501    0  0.00000000000E+00  0.00000000000E+00  0.12644030830E+04  0.12644030830E+04  0.25500000920E-02 0.  1.
       -2   -1    0    0    0  501  0.00000000000E+00  0.00000000000E+00 -0.19623416764E+03  0.19623416766E+03  0.25500000920E-02 0. -1.
    10030    2    1    2    0    0  0.00000000000E+00  0.00000000000E+00  0.10681689153E+04  0.14606372506E+04  0.99623107071E+03 0.  0.
        5    1    3    3  502    0 -0.61428813293E+02  0.23182326395E+03 -0.10597840267E+03  0.26223851098E+03  0.46999998093E+01 0. -1.
       -5    1    3    3    0  502  0.61428813293E+02 -0.23182326395E+03  0.11741473180E+04  0.11983987396E+04  0.46999998093E+01 0.  1.
</event>
<event>
 5   0  0.6199539E-03  0.9967836E+03  0.7818609E-02  0.9312080E-01
        2   -1    0    0  501    0  0.00000000000E+00  0.00000000000E+00  0.14491283992E+04  0.14491283992E+04  0.25500000920E-02 0. -1.
       -2   -1    0    0    0  501  0.00000000000E+00  0.00000000000E+00 -0.17140949300E+03  0.17140949302E+03  0.25500000920E-02 0.  1.
    10030    2    1    2    0    0  0.00000000000E+00  0.00000000000E+00  0.12777189062E+04  0.16205378922E+04  0.99678355568E+03 0.  0.
        2    1    3    3  502    0  0.34038052484E+03 -0.91398122086E+02  0.12117707437E+04  0.12619829054E+04  0.25500000920E-02 0. -1.
       -2    1    3    3    0  502 -0.34038052484E+03  0.91398122086E+02  0.65948162558E+02  0.35855498681E+03  0.25500000920E-02 0.  1.
</event>
<event>
 5   0  0.3466598E-03  0.9990922E+03  0.7818609E-02  0.9309541E-01
       -1   -1    0    0    0  501  0.00000000000E+00  0.00000000000E+00  0.23662082686E+03  0.23662082692E+03  0.50400001928E-02 0. -1.
        1   -1    0    0  501    0  0.00000000000E+00  0.00000000000E+00 -0.10546253085E+04  0.10546253085E+04  0.50400001928E-02 0.  1.
    10030    2    1    2    0    0  0.00000000000E+00  0.00000000000E+00 -0.81800448165E+03  0.12912461354E+04  0.99909221310E+03 0.  0.
        3    1    3    3  502    0  0.12718000712E+03  0.25668344161E+03  0.11991975195E+03  0.31055096283E+03  0.10100000352E+00 0. -1.
       -3    1    3    3    0  502 -0.12718000712E+03 -0.25668344161E+03 -0.93792423359E+03  0.98069517261E+03  0.10100000352E+00 0.  1.
</event>
<event>
 5   0  0.6606947E-03  0.9983278E+03  0.7818609E-02  0.9310381E-01
        2   -1    0    0  501    0  0.00000000000E+00  0.00000000000E+00  0.26557474300E+03  0.26557474302E+03  0.25500000920E-02 0. -1.
       -2   -1    0    0    0  501  0.00000000000E+00  0.00000000000E+00 -0.93820896251E+03  0.93820896251E+03  0.25500000920E-02 0.  1.
    10030    2    1    2    0    0  0.00000000000E+00  0.00000000000E+00 -0.67263421950E+03  0.12037837055E+04  0.99832781011E+03 0.  0.
        1    1    3    3  502    0  0.42226578157E+03  0.12872410861E+02 -0.15722760378E+02  0.42275441389E+03  0.50400001928E-02 0. -1.
       -1    1    3    3    0  502 -0.42226578157E+03 -0.12872410861E+02 -0.65691145913E+03  0.78102929164E+03  0.50400001928E-02 0.  1.
</event>
<event>
 5   0  0.3643002E-03  0.1002341E+04  0.7818609E-02  0.9305980E-01
       -1   -1    0    0    0  501  0.00000000000E+00  0.00000000000E+00  0.49093726817E+03  0.49093726820E+03  0.50400001928E-02 0. -1.
        1   -1    0    0  501    0  0.00000000000E+00  0.00000000000E+00 -0.51161750873E+03  0.51161750876E+03  0.50400001928E-02 0.  1.
    10030    2    1    2    0    0  0.00000000000E+00  0.00000000000E+00 -0.20680240563E+02  0.10025547770E+04  0.10023414630E+04 0.  0.
        2    1    3    3  502    0  0.51519070460E+02  0.12606479035E+03 -0.49275548009E+03  0.51122843147E+03  0.25500000920E-02 0.  1.
       -2    1    3    3    0  502 -0.51519070460E+02 -0.12606479035E+03  0.47207523952E+03  0.49132634548E+03  0.25500000920E-02 0. -1.
</event>
<event>
 5   0  0.3569359E-03  0.1004486E+04  0.7818609E-02  0.9303638E-01
       -1   -1    0    0    0  501  0.00000000000E+00  0.00000000000E+00  0.14612514197E+03  0.14612514205E+03  0.50400001928E-02 0.  1.
        1   -1    0    0  501    0  0.00000000000E+00  0.00000000000E+00 -0.17262476260E+04  0.17262476260E+04  0.50400001928E-02 0. -1.
    10030    2    1    2    0    0  0.00000000000E+00  0.00000000000E+00 -0.15801224840E+04  0.18723727680E+04  0.10044862956E+04 0.  0.
        4    1    3    3  502    0 -0.51953212263E+02 -0.43261693828E+03 -0.12556536020E+04  0.13291065167E+04  0.12699999809E+01 0. -1.
       -4    1    3    3    0  502  0.51953212263E+02  0.43261693828E+03 -0.32446888194E+03  0.54326625130E+03  0.12699999809E+01 0.  1.
</event>
<event>
 5   0  0.6376961E-03  0.9981204E+03  0.7818609E-02  0.9310609E-01
       -2   -1    0    0    0  501  0.00000000000E+00  0.00000000000E+00  0.20821559085E+03  0.20821559087E+03  0.25500000920E-02 0. -1.
        2   -1    0    0  501    0  0.00000000000E+00  0.00000000000E+00 -0.11961692628E+04  0.11961692628E+04  0.25500000920E-02 0.  1.
    10030    2    1    2    0    0  0.00000000000E+00  0.00000000000E+00 -0.98795367193E+03  0.14043848537E+04  0.99812041322E+03 0.  0.
        3    1    3    3  502    0 -0.67223866809E+02  0.42431857093E+03 -0.85130632199E+03  0.95356581418E+03  0.10100000352E+00 0.  1.
       -3    1    3    3    0  502  0.67223866809E+02 -0.42431857093E+03 -0.13664734994E+03  0.45081903947E+03  0.10100000352E+00 0. -1.
</event>
<event>
 5   0  0.6022787E-03  0.1009650E+04  0.7818609E-02  0.9298023E-01
        2   -1    0    0  501    0  0.00000000000E+00  0.00000000000E+00  0.22169959125E+03  0.22169959127E+03  0.25500000920E-02 0. -1.
       -2   -1    0    0    0  501  0.00000000000E+00  0.00000000000E+00 -0.11495215166E+04  0.11495215166E+04  0.25500000920E-02 0.  1.
    10030    2    1    2    0    0  0.00000000000E+00  0.00000000000E+00 -0.92782192539E+03  0.13712211079E+04  0.10096503363E+04 0.  0.
        5    1    3    3  502    0 -0.46103987023E+03 -0.33251658917E+02 -0.18836781654E+03  0.49916726562E+03  0.46999998093E+01 0. -1.
       -5    1    3    3    0  502  0.46103987023E+03  0.33251658917E+02 -0.73945410885E+03  0.87205384229E+03  0.46999998093E+01 0.  1.
</event>
<event>
 5   0  0.2417750E-03  0.1030772E+04  0.7818609E-02  0.9275424E-01
       -3   -1    0    0    0  501  0.00000000000E+00  0.00000000000E+00  0.80644987655E+03  0.80644988287E+03  0.10100000352E+00 0.  1.
        3   -1    0    0  501    0  0.00000000000E+00  0.00000000000E+00 -0.32937291995E+03  0.32937293544E+03  0.10100000352E+00 0. -1.
    10030    2    1    2    0    0  0.00000000000E+00  0.00000000000E+00  0.47707695659E+03  0.11358228183E+04  0.10307720660E+04 0.  0.
        3    1    3    3  502    0  0.16778773577E+03 -0.26793649352E+03 -0.20998282500E+03  0.37952007303E+03  0.10100000352E+00 0. -1.
       -3    1    3    3    0  502 -0.16778773577E+03  0.26793649352E+03  0.68705978159E+03  0.75630274528E+03  0.10100000352E+00 0.  1.
</event>
<event>
 5   0  0.2417750E-03  0.1017064E+04  0.7818609E-02  0.9290024E-01
        3   -1    0    0  501    0  0.00000000000E+00  0.00000000000E+00  0.67365515091E+03  0.67365515848E+03  0.10100000352E+00 0.  1.
       -3   -1    0    0    0  501  0.00000000000E+00  0.00000000000E+00 -0.38388331890E+03  0.38388333219E+03  0.10100000352E+00 0. -1.
    10030    2    1    2    0    0  0.00000000000E+00  0.00000000000E+00  0.28977183201E+03  0.10575384907E+04  0.10170643758E+04 0.  0.
        4    1    3    3  502    0 -0.29019203429E+03 -0.37388104048E+03  0.33831273542E+03  0.58176934350E+03  0.12699999809E+01 0. -1.
       -4    1    3    3    0  502  0.29019203429E+03  0.37388104048E+03 -0.48540903411E+02  0.47576914717E+03  0.12699999809E+01 0.  1.
</event>
<event>
 5   0  0.6022787E-03  0.1002974E+04  0.7818609E-02  0.9305289E-01
       -2   -1    0    0    0  501  0.00000000000E+00  0.00000000000E+00  0.17676651986E+03  0.17676651988E+03  0.25500000920E-02 0. -1.
        2   -1    0    0  501    0  0.00000000000E+00  0.00000000000E+00 -0.14227184094E+04  0.14227184094E+04  0.25500000920E-02 0.  1.
    10030    2    1    2    0    0  0.00000000000E+00  0.00000000000E+00 -0.12459518895E+04  0.15994849292E+04  0.10029735430E+04 0.  0.
        5    1    3    3  502    0 -0.37294019646E+03  0.32272074162E+03 -0.47826829653E+03  0.68701944709E+03  0.46999998093E+01 0.  1.
       -5    1    3    3    0  502  0.37294019646E+03 -0.32272074162E+03 -0.76768359298E+03  0.91246548216E+03  0.46999998093E+01 0. -1.
</event>
<event>
 5   0  0.6606947E-03  0.9980439E+03  0.7818609E-02  0.9310693E-01
        2   -1    0    0  501    0  0.00000000000E+00  0.00000000000E+00  0.58491581740E+03  0.58491581740E+03  0.25500000920E-02 0.  1.
       -2   -1    0    0    0  501  0.00000000000E+00  0.00000000000E+00 -0.42574141567E+03  0.42574141568E+03  0.25500000920E-02 0. -1.
    10030    2    1    2    0    0  0.00000000000E+00  0.00000000000E+00  0.15917440173E+03  0.10106572331E+04  0.99804386307E+03 0.  0.
        1    1    3    3  502    0 -0.41277276732E+03 -0.15976994163E+02  0.36310103118E+03  0.54998089117E+03  0.50400001928E-02 0.  1.
       -1    1    3    3    0  502  0.41277276732E+03  0.15976994163E+02 -0.20392662945E+03  0.46067634192E+03  0.50400001928E-02 0. -1.
</event>
<event>
 5   0  0.3569359E-03  0.1043763E+04  0.7818609E-02  0.9261808E-01
        1   -1    0    0  501    0  0.00000000000E+00  0.00000000000E+00  0.14012964386E+04  0.14012964386E+04  0.50400001928E-02 0. -1.
       -1   -1    0    0    0  501  0.00000000000E+00  0.00000000000E+00 -0.19436290655E+03  0.19436290661E+03  0.50400001928E-02 0.  1.
    10030    2    1    2    0    0  0.00000000000E+00  0.00000000000E+00  0.12069335321E+04  0.15956593452E+04  0.10437625186E+04 0.  0.
        4    1    3    3  502    0 -0.15024821160E+03  0.30659370471E+03  0.73856680524E-01  0.34143204772E+03  0.12699999809E+01 0.  1.
       -4    1    3    3    0  502  0.15024821160E+03 -0.30659370471E+03  0.12068596754E+04  0.12542272975E+04  0.12699999809E+01 0. -1.
</event>
<event>
 5   0  0.3640180E-03  0.9985667E+03  0.7818609E-02  0.9310118E-01
        1   -1    0    0  501    0  0.00000000000E+00  0.00000000000E+00  0.74786781780E+03  0.74786781782E+03  0.50400001928E-02 0. -1.
       -1   -1    0    0    0  501  0.00000000000E+00  0.00000000000E+00 -0.33332612192E+03  0.33332612195E+03  0.50400001928E-02 0.  1.
    10030    2    1    2    0    0  0.00000000000E+00  0.00000000000E+00  0.41454169588E+03  0.10811939398E+04  0.99856673176E+03 0.  0.
        5    1    3    3  502    0 -0.28996799125E+03  0.28562655184E+03 -0.10578657259E+03  0.42056729783E+03  0.46999998093E+01 0.  1.
       -5    1    3    3    0  502  0.28996799125E+03 -0.28562655184E+03  0.52032826848E+03  0.66062664194E+03  0.46999998093E+01 0. -1.
</event>
<event>
 5   0  0.6022787E-03  0.9818226E+03  0.7818609E-02  0.9328709E-01
       -2   -1    0    0    0  501  0.00000000000E+00  0.00000000000E+00  0.82999081482E+03  0.82999081483E+03  0.25500000920E-02 0.  1.
        2   -1    0    0  501    0  0.00000000000E+00  0.00000000000E+00 -0.29035733146E+03  0.29035733147E+03  0.25500000920E-02 0. -1.
    10030    2    1    2    0    0  0.00000000000E+00  0.00000000000E+00  0.53963348336E+03  0.11203481463E+04  0.98182262784E+03 0.  0.
        5    1    3    3  502    0 -0.29048588851E+03 -0.21232834459E+03  0.65085620715E+03  0.74370778517E+03  0.46999998093E+01 0.  1.
       -5    1    3    3    0  502  0.29048588851E+03  0.21232834459E+03 -0.11122272379E+03  0.37664036112E+03  0.46999998093E+01 0. -1.
</event>
<event>
 5   0  0.6199539E-03  0.1004492E+04  0.7818609E-02  0.9303631E-01
        2   -1    0    0  501    0  0.00000000000E+00  0.00000000000E+00  0.85642385552E+03  0.85642385553E+03  0.25500000920E-02 0. -1.
       -2   -1    0    0    0  501  0.00000000000E+00  0.00000000000E+00 -0.29454015402E+03  0.29454015403E+03  0.25500000920E-02 0.  1.
    10030    2    1    2    0    0  0.00000000000E+00  0.00000000000E+00  0.56188370151E+03  0.11509640096E+04  0.10044923381E+04 0.  0.
        2    1    3    3  502    0 -0.54804227362E+02 -0.25438715500E+03 -0.21127259554E+03  0.33519015141E+03  0.25500000920E-02 0.  1.
       -2    1    3    3    0  502  0.54804227362E+02  0.25438715500E+03  0.77315629705E+03  0.81577385815E+03  0.25500000920E-02 0. -1.
</event>
<event>
 5   0  0.6376961E-03  0.1007230E+04  0.7818609E-02  0.9300650E-01
        2   -1    0    0  501    0  0.00000000000E+00  0.00000000000E+00  0.83454977448E+03  0.83454977448E+03  0.25500000920E-02 0. -1.
       -2   -1    0    0    0  501  0.00000000000E+00  0.00000000000E+00 -0.30391003530E+03  0.30391003531E+03  0.25500000920E-02 0.  1.
    10030    2    1    2    0    0  0.00000000000E+00  0.00000000000E+00  0.53063973918E+03  0.11384598098E+04  0.10072299666E+04 0.  0.
        3    1    3    3  502    0 -0.33509138380E+03  0.35816231341E+03  0.39449729956E+03  0.62943991597E+03  0.10100000352E+00 0.  1.
       -3    1    3    3    0  502  0.33509138380E+03 -0.35816231341E+03  0.13614243961E+03  0.50901989383E+03  0.10100000352E+00 0. -1.
</event>
<event>
 5   0  0.3608845E-03  0.9952986E+03  0.7818609E-02  0.9313716E-01
        1   -1    0    0  501    0  0.00000000000E+00  0.00000000000E+00  0.10500827693E+04  0.10500827693E+04  0.50400001928E-02 0.  1.
       -1   -1    0    0    0  501  0.00000000000E+00  0.00000000000E+00 -0.23584314639E+03  0.23584314645E+03  0.50400001928E-02 0. -1.
    10030    2    1    2    0    0  0.00000000000E+00  0.00000000000E+00  0.81423962287E+03  0.12859259157E+04  0.99529859704E+03 0.  0.
        1    1    3    3  502    0  0.78885498860E+00 -0.73661473781E+02 -0.22875979735E+03  0.24032827532E+03  0.50400001928E-02 0. -1.
       -1    1    3    3    0  502 -0.78885498860E+00  0.73661473781E+02  0.10429994202E+04  0.10455976404E+04  0.50400001928E-02 0.  1.
</event>
<event>
 5   0  0.6376961E-03  0.9977201E+03  0.7818609E-02  0.9311049E-01
       -2   -1    0    0    0  501  0.00000000000E+00  0.00000000000E+00  0.13434788882E+03  0.13434788885E+03  0.25500000920E-02 0.  1.
        2   -1    0    0  501    0  0.00000000000E+00  0.00000000000E+00 -0.18523652240E+04  0.18523652240E+04  0.25500000920E-02 0. -1.
    10030    2    1    2    0    0  0.00000000000E+00  0.00000000000E+00 -0.17180173352E+04  0.19867131128E+04  0.99772011546E+03 0.  0.
        3    1    3    3  502    0 -0.48776584011E+02  0.20778333552E+03  0.38841690524E+02  0.21693721855E+03  0.10100000352E+00 0.  1.
       -3    1    3    3    0  502  0.48776584011E+02 -0.20778333552E+03 -0.17568590257E+04  0.17697758943E+04  0.10100000352E+00 0. -1.
</event>
<event>
 5   0  0.6022787E-03  0.1015345E+04  0.7818609E-02  0.9291873E-01
       -2   -1    0    0    0  501  0.00000000000E+00  0.00000000000E+00  0.19032573949E+03  0.19032573951E+03  0.25500000920E-02 0.  1.
        2   -1    0    0  501    0  0.00000000000E+00  0.00000000000E+00 -0.13541581935E+04  0.13541581935E+04  0.25500000920E-02 0. -1.
    10030    2    1    2    0    0  0.00000000000E+00  0.00000000000E+00 -0.11638324540E+04  0.15444839330E+04  0.10153445909E+04 0.  0.
        5    1    3    3  502    0  0.37373860691E+03 -0.13238832214E+03 -0.99683173101E+02  0.40885943689E+03  0.46999998093E+01 0.  1.
       -5    1    3    3    0  502 -0.37373860691E+03  0.13238832214E+03 -0.10641492809E+04  0.11356244961E+04  0.46999998093E+01 0. -1.
</event>
<event>
 5   0  0.3608845E-03  0.1114283E+04  0.7818609E-02  0.9191381E-01
        1   -1    0    0  501    0  0.00000000000E+00  0.00000000000E+00  0.28036406895E+03  0.28036406899E+03  0.50400001928E-02 0.  1.
       -1   -1    0    0    0  501  0.00000000000E+00  0.00000000000E+00 -0.11071557265E+04  0.11071557265E+04  0.50400001928E-02 0. -1.
    10030    2    1    2    0    0  0.00000000000E+00  0.00000000000E+00 -0.82679165755E+03  0.13875197955E+04  0.11142830600E+04 0.  0.
        1    1    3    3  502    0  0.11335613611E+03 -0.80660141972E+02 -0.10851776026E+04  0.10940594597E+04  0.50400001928E-02 0. -1.
       -1    1    3    3    0  502 -0.11335613611E+03  0.80660141972E+02  0.25838594503E+03  0.29346033584E+03  0.50400001928E-02 0.  1.
</event>
<event>
 5   0  0.3643002E-03  0.9874663E+03  0.7818609E-02  0.9322399E-01
       -1   -1    0    0    0  501  0.00000000000E+00  0.00000000000E+00  0.57393378146E+03  0.57393378148E+03  0.50400001928E-02 0.  1.
        1   -1    0    0  501    0  0.00000000000E+00  0.00000000000E+00 -0.42473961499E+03  0.42473961502E+03  0.50400001928E-02 0. -1.
    10030    2    1    2    0    0  0.00000000000E+00  0.00000000000E+00  0.14919416647E+03  0.99867339650E+03  0.98746627971E+03 0.  0.
        2    1    3    3  502    0  0.11961220071E+03 -0.26015063233E+03 -0.33219547122E+03  0.43856500221E+03  0.25500000920E-02 0. -1.
       -2    1    3    3    0  502 -0.11961220071E+03  0.26015063233E+03  0.48138963769E+03  0.56010839428E+03  0.25500000920E-02 0.  1.
</event>
<event>
 5   0  0.6360455E-03  0.1007121E+04  0.7818609E-02  0.9300769E-01
       -2   -1    0    0    0  501  0.00000000000E+00  0.00000000000E+00  0.14795443213E+03  0.14795443215E+03  0.25500000920E-02 0. -1.
        2   -1    0    0  501    0  0.00000000000E+00  0.00000000000E+00 -0.17138593670E+04  0.17138593670E+04  0.25500000920E-02 0.  1.
    10030    2    1    2    0    0  0.00000000000E+00  0.00000000000E+00 -0.15659049348E+04  0.18618137991E+04  0.10071208257E+04 0.  0.
        4    1    3    3  502    0 -0.36022204157E+03  0.17168373363E+03 -0.13507506251E+04  0.14084616032E+04  0.12699999809E+01 0.  1.
       -4    1    3    3    0  502  0.36022204157E+03 -0.17168373363E+03 -0.21515430973E+03  0.45335219589E+03  0.12699999809E+01 0. -1.
</event>
<event>
 5   0  0.6360455E-03  0.1003137E+04  0.7818609E-02  0.9305111E-01
        2   -1    0    0  501    0  0.00000000000E+00  0.00000000000E+00  0.67228191244E+03  0.67228191245E+03  0.25500000920E-02 0.  1.
       -2   -1    0    0    0  501  0.00000000000E+00  0.00000000000E+00 -0.37420428109E+03  0.37420428110E+03  0.25500000920E-02 0. -1.
    10030    2    1    2    0    0  0.00000000000E+00  0.00000000000E+00  0.29807763135E+03  0.10464861935E+04  0.10031366203E+04 0.  0.
        4    1    3    3  502    0 -0.29550574859E+03 -0.53014690148E+02 -0.27011382108E+03  0.40385305999E+03  0.12699999809E+01 0. -1.
       -4    1    3    3    0  502  0.29550574859E+03  0.53014690148E+02  0.56819145244E+03  0.64263313356E+03  0.12699999809E+01 0.  1.
</event>
<event>
 5   0  0.6199539E-03  0.1007173E+04  0.7818609E-02  0.9300713E-01
       -2   -1    0    0    0  501  0.00000000000E+00  0.00000000000E+00  0.78225080576E+03  0.78225080577E+03  0.25500000920E-02 0.  1.
        2   -1    0    0  501    0  0.00000000000E+00  0.00000000000E+00 -0.32419178819E+03  0.32419178820E+03  0.25500000920E-02 0. -1.
    10030    2    1    2    0    0  0.00000000000E+00  0.00000000000E+00  0.45805901757E+03  0.11064425940E+04  0.10071728502E+04 0.  0.
        2    1    3    3  502    0  0.48036609337E+02  0.38911709797E+03  0.57621646019E+03  0.69695411669E+03  0.25500000920E-02 0.  1.
       -2    1    3    3    0  502 -0.48036609337E+02 -0.38911709797E+03 -0.11815744262E+03  0.40948847728E+03  0.25500000920E-02 0. -1.
</event>
<event>
 5   0  0.6606947E-03  0.1004397E+04  0.7818609E-02  0.9303735E-01
       -2   -1    0    0    0  501  0.00000000000E+00  0.00000000000E+00  0.35421977464E+03  0.35421977465E+03  0.25500000920E-02 0. -1.
        2   -1    0    0  501    0  0.00000000000E+00  0.00000000000E+00 -0.71199693535E+03  0.71199693535E+03  0.25500000920E-02 0.  1.
    10030    2    1    2    0    0  0.00000000000E+00  0.00000000000E+00 -0.35777716071E+03  0.10662167100E+04  0.10043971206E+04 0.  0.
        1    1    3    3  502    0 -0.41608096114E+03 -0.73127688844E+02 -0.46713844971E+03  0.62983280029E+03  0.50400001928E-02 0.  1.
       -1    1    3    3    0  502  0.41608096114E+03  0.73127688844E+02  0.10936128900E+03  0.43638390971E+03  0.50400001928E-02 0. -1.
</event>
<event>
 5   0  0.6360455E-03  0.9958127E+03  0.7818609E-02  0.9313149E-01
        2   -1    0    0  501    0  0.00000000000E+00  0.00000000000E+00  0.59333644188E+03  0.59333644188E+03  0.25500000920E-02 0. -1.
       -2   -1    0    0    0  501  0.00000000000E+00  0.00000000000E+00 -0.41782488235E+03  0.41782488236E+03  0.25500000920E-02 0.  1.
    10030    2    1    2    0    0  0.00000000000E+00  0.00000000000E+00  0.17551155953E+03  0.10111613242E+04  0.99581269128E+03 0.  0.
        4    1    3    3  502    0 -0.11522727082E+03 -0.19213905436E+01  0.57960592659E+03  0.59095317811E+03  0.12699999809E+01 0. -1.
       -4    1    3    3    0  502  0.11522727082E+03  0.19213905436E+01 -0.40409436706E+03  0.42020814613E+03  0.12699999809E+01 0.  1.
</event>
<event>
 5   0  0.6022787E-03  0.1000974E+04  0.7818609E-02  0.9307477E-01
       -2   -1    0    0    0  501  0.00000000000E+00  0.00000000000E+00  0.40873149212E+03  0.40873149213E+03  0.25500000920E-02 0. -1.
        2   -1    0    0  501    0  0.00000000000E+00  0.00000000000E+00 -0.61284051070E+03  0.61284051070E+03  0.25500000920E-02 0.  1.
    10030    2    1    2    0    0  0.00000000000E+00  0.00000000000E+00 -0.20410901857E+03  0.10215720028E+04  0.10009739585E+04 0.  0.
        5    1    3    3  502    0  0.12624561577E+03  0.12561701816E+03  0.37527445458E+03  0.41541617327E+03  0.46999998093E+01 0. -1.
       -5    1    3    3    0  502 -0.12624561577E+03 -0.12561701816E+03 -0.57938347316E+03  0.60615582957E+03  0.46999998093E+01 0.  1.
</event>
<event>
 5   0  0.3608845E-03  0.1008065E+04  0.7818609E-02  0.9299743E-01
        1   -1    0    0  501    0  0.00000000000E+00  0.00000000000E+00  0.43831712676E+03  0.43831712679E+03  0.50400001928E-02 0. -1.
       -1   -1    0    0    0  501  0.00000000000E+00  0.00000000000E+00 -0.57960087188E+03  0.57960087190E+03  0.50400001928E-02 0.  1.
    10030    2    1    2    0    0  0.00000000000E+00  0.00000000000E+00 -0.14128374513E+03  0.10179179987E+04  0.10080654520E+04 0.  0.
        1    1    3    3  502    0  0.32916538929E+03 -0.69478331690E+02  0.30835553878E+03  0.45635537731E+03  0.50400001928E-02 0. -1.
       -1    1    3    3    0  502 -0.32916538929E+03  0.69478331690E+02 -0.44963928390E+03  0.56156262138E+03  0.50400001928E-02 0.  1.
</event>
<event>
 5   0  0.3466598E-03  0.1014409E+04  0.7818609E-02  0.9292881E-01
        1   -1    0    0  501    0  0.00000000000E+00  0.00000000000E+00  0.43292939750E+03  0.43292939753E+03  0.50400001928E-02 0.  1.
       -1   -1    0    0    0  501  0.00000000000E+00  0.00000000000E+00 -0.59422242439E+03  0.59422242441E+03  0.50400001928E-02 0. -1.
    10030    2    1    2    0    0  0.00000000000E+00  0.00000000000E+00 -0.16129302689E+03  0.10271518219E+04  0.10144089041E+04 0.  0.
        3    1    3    3  502    0 -0.24820831819E+03  0.27516608004E+03 -0.43130973788E+03  0.56864034417E+03  0.10100000352E+00 0. -1.
       -3    1    3    3    0  502  0.24820831819E+03 -0.27516608004E+03  0.27001671100E+03  0.45851147777E+03  0.10100000352E+00 0.  1.
</event>
<event>
 5   0  0.3569359E-03  0.1004546E+04  0.7818609E-02  0.9303573E-01
        1   -1    0    0  501    0  0.00000000000E+00  0.00000000000E+00  0.93554520704E+03  0.93554520705E+03  0.50400001928E-02 0. -1.
       -1   -1    0    0    0  501  0.00000000000E+00  0.00000000000E+00 -0.26965881171E+03  0.26965881176E+03  0.50400001928E-02 0.  1.
    10030    2    1    2    0    0  0.00000000000E+00  0.00000000000E+00  0.66588639533E+03  0.12052040188E+04  0.10045456861E+04 0.  0.
        4    1    3    3  502    0  0.33509235017E+03  0.42230926684E+02  0.77896329066E+03  0.84903224639E+03  0.12699999809E+01 0. -1.
       -4    1    3    3    0  502 -0.33509235017E+03 -0.42230926684E+02 -0.11307689533E+03  0.35617177242E+03  0.12699999809E+01 0.  1.
</event>
<event>
 5   0  0.3608845E-03  0.9979547E+03  0.7818609E-02  0.9310791E-01
       -1   -1    0    0    0  501  0.00000000000E+00  0.00000000000E+00  0.59189978058E+03  0.59189978060E+03  0.50400001928E-02 0.  1.
        1   -1    0    0  501    0  0.00000000000E+00  0.00000000000E+00 -0.42064286529E+03  0.42064286532E+03  0.50400001928E-02 0. -1.
    10030    2    1    2    0    0  0.00000000000E+00  0.00000000000E+00  0.17125691529E+03  0.10125426459E+04  0.99795474786E+03 0.  0.
        1    1    3    3  502    0 -0.30224517280E+03 -0.15393092508E+03 -0.28568775768E+03  0.44346856607E+03  0.50400001928E-02 0. -1.
       -1    1    3    3    0  502  0.30224517280E+03  0.15393092508E+03  0.45694467297E+03  0.56907407985E+03  0.50400001928E-02 0.  1.
</event>
<event>
 5   0  0.6606947E-03  0.1010663E+04  0.7818609E-02  0.9296926E-01
       -2   -1    0    0    0  501  0.00000000000E+00  0.00000000000E+00  0.35807942762E+03  0.35807942763E+03  0.25500000920E-02 0. -1.
        2   -1    0    0  501    0  0.00000000000E+00  0.00000000000E+00 -0.71313802143E+03  0.71313802144E+03  0.25500000920E-02 0.  1.
    10030    2    1    2    0    0  0.00000000000E+00  0.00000000000E+00 -0.35505859381E+03  0.10712174491E+04  0.10106632565E+04 0.  0.
        1    1    3    3  502    0  0.25622394632E+03 -0.10127873965E+03 -0.62652818485E+03  0.68443090243E+03  0.50400001928E-02 0.  1.
       -1    1    3    3    0  502 -0.25622394632E+03  0.10127873965E+03  0.27146959104E+03  0.38678654663E+03  0.50400001928E-02 0. -1.
</event>
<event>
 5   0  0.6360455E-03  0.1006269E+04  0.7818609E-02  0.9301695E-01
       -2   -1    0    0    0  501  0.00000000000E+00  0.00000000000E+00  0.17634555479E+03  0.17634555481E+03  0.25500000920E-02 0. -1.
        2   -1    0    0  501    0  0.00000000000E+00  0.00000000000E+00 -0.14355021725E+04  0.14355021725E+04  0.25500000920E-02 0.  1.
    10030    2    1    2    0    0  0.00000000000E+00  0.00000000000E+00 -0.12591566177E+04  0.16118477273E+04  0.10062692026E+04 0.  0.
        4    1    3    3  502    0 -0.35822466107E+03 -0.88180974246E+02 -0.11775785358E+04  0.12340152402E+04  0.12699999809E+01 0.  1.
       -4    1    3    3    0  502  0.35822466107E+03  0.88180974246E+02 -0.81578081916E+02  0.37783248718E+03  0.12699999809E+01 0. -1.
</event>
<event>
 5   0  0.6199539E-03  0.1015259E+04  0.7818609E-02  0.9291966E-01
        2   -1    0    0  501    0  0.00000000000E+00  0.00000000000E+00  0.15292555002E+04  0.15292555002E+04  0.25500000920E-02 0. -1.
       -2   -1    0    0    0  501  0.00000000000E+00  0.00000000000E+00 -0.16850523298E+03  0.16850523299E+03  0.25500000920E-02 0.  1.
    10030    2    1    2    0    0  0.00000000000E+00  0.00000000000E+00  0.13607502672E+04  0.16977607332E+04  0.10152586948E+04 0.  0.
        2    1    3    3  502    0  0.29065082868E+03 -0.40690519940E+03  0.53423006708E+03  0.73174552277E+03  0.25500000920E-02 0.  1.
       -2    1    3    3    0  502 -0.29065082868E+03  0.40690519940E+03  0.82652020011E+03  0.96601521039E+03  0.25500000920E-02 0. -1.
</event>
<event>
 5   0  0.3640180E-03  0.1013179E+04  0.7818609E-02  0.9294207E-01
       -1   -1    0    0    0  501  0.00000000000E+00  0.00000000000E+00  0.58950578835E+03  0.58950578837E+03  0.50400001928E-02 0.  1.
        1   -1    0    0  501    0  0.00000000000E+00  0.00000000000E+00 -0.43533604013E+03  0.43533604016E+03  0.50400001928E-02 0. -1.
    10030    2    1    2    0    0  0.00000000000E+00  0.00000000000E+00  0.15416974821E+03  0.10248418285E+04  0.10131793831E+04 0.  0.
        5    1    3    3  502    0 -0.37273083354E+03 -0.45769296340E+02  0.42098056056E+03  0.56415407924E+03  0.46999998093E+01 0.  1.
       -5    1    3    3    0  502  0.37273083354E+03  0.45769296340E+02 -0.26681081234E+03  0.46068774929E+03  0.46999998093E+01 0. -1.
</event>
<event>
 5   0  0.3466598E-03  0.9618203E+03  0.7818609E-02  0.9351440E-01
       -1   -1    0    0    0  501  0.00000000000E+00  0.00000000000E+00  0.17297078555E+03  0.17297078563E+03  0.50400001928E-02 0.  1.
        1   -1    0    0  501    0  0.00000000000E+00  0.00000000000E+00 -0.13370729229E+04  0.13370729230E+04  0.50400001928E-02 0. -1.
    10030    2    1    2    0    0  0.00000000000E+00  0.00000000000E+00 -0.11641021374E+04  0.15100437086E+04  0.96182026156E+03 0.  0.
        3    1    3    3  502    0 -0.14046000308E+03 -0.42730928577E+03 -0.84918999313E+03  0.96096092158E+03  0.10100000352E+00 0.  1.
       -3    1    3    3    0  502  0.14046000308E+03  0.42730928577E+03 -0.31491214426E+03  0.54908278700E+03  0.10100000352E+00 0. -1.
</event>
<event>
 5   0  0.6606947E-03  0.9871760E+03  0.7818609E-02  0.9322723E-01
       -2   -1    0    0    0  501  0.00000000000E+00  0.00000000000E+00  0.76615048781E+03  0.76615048781E+03  0.25500000920E-02 0.  1.
        2   -1    0    0  501    0  0.00000000000E+00  0.00000000000E+00 -0.31799122920E+03  0.31799122921E+03  0.25500000920E-02 0. -1.
    10030    2    1    2    0    0  0.00000000000E+00  0.00000000000E+00  0.44815925861E+03  0.10841417170E+04  0.98717604382E+03 0.  0.
        1    1    3    3  502    0 -0.18639892446E+03  0.45640426356E+03  0.19763714336E+03  0.53114014280E+03  0.50400001928E-02 0. -1.
       -1    1    3    3    0  502  0.18639892446E+03 -0.45640426356E+03  0.25052211526E+03  0.55300157422E+03  0.50400001928E-02 0.  1.
</event>
<event>
 5   0  0.3569359E-03  0.1002478E+04  0.7818609E-02  0.9305831E-01
       -1   -1    0    0    0  501  0.00000000000E+00  0.00000000000E+00  0.20873556982E+03  0.20873556988E+03  0.50400001928E-02 0. -1.
        1   -1    0    0  501    0  0.00000000000E+00  0.00000000000E+00 -0.12036317459E+04  0.12036317459E+04  0.50400001928E-02 0.  1.
    10030    2    1    2    0    0  0.00000000000E+00  0.00000000000E+00 -0.99489617608E+03  0.14123673158E+04  0.10024784454E+04 0.  0.
        4    1    3    3  502    0  0.30322323207E+03  0.39862967642E+03 -0.52524253044E+03  0.72576254800E+03  0.12699999809E+01 0.  1.
       -4    1    3    3    0  502 -0.30322323207E+03 -0.39862967642E+03 -0.46965364564E+03  0.68660476779E+03  0.12699999809E+01 0. -1.
</event>
<event>
 5   0  0.3466598E-03  0.1006193E+04  0.7818609E-02  0.9301778E-01
       -1   -1    0    0    0  501  0.00000000000E+00  0.00000000000E+00  0.38170006812E+03  0.38170006815E+03  0.50400001928E-02 0. -1.
        1   -1    0    0  501    0  0.00000000000E+00  0.00000000000E+00 -0.66310203916E+03  0.66310203917E+03  0.50400001928E-02 0.  1.
    10030    2    1    2    0    0  0.00000000000E+00  0.00000000000E+00 -0.28140197104E+03  0.10448021073E+04  0.10061930104E+04 0.  0.
        3    1    3    3  502    0  0.42127931675E+03 -0.11128966773E+03 -0.40183526545E+03  0.59273370380E+03  0.10100000352E+00 0.  1.
       -3    1    3    3    0  502 -0.42127931675E+03  0.11128966773E+03  0.12043329441E+03  0.45206840352E+03  0.10100000352E+00 0. -1.
</event>
<event>
 5   0  0.3608845E-03  0.9988222E+03  0.7818609E-02  0.9309838E-01
       -1   -1    0    0    0  501  0.00000000000E+00  0.00000000000E+00  0.10088037186E+04  0.10088037186E+04  0.50400001928E-02 0. -1.
        1   -1    0    0  501    0  0.00000000000E+00  0.00000000000E+00 -0.24723485987E+03  0.24723485992E+03  0.50400001928E-02 0.  1.
    10030    2    1    2    0    0  0.00000000000E+00  0.00000000000E+00  0.76156885874E+03  0.12560385785E+04  0.99882219848E+03 0.  0.
        1    1    3    3  502    0  0.29357487218E+03  0.28430343462E+03  0.19815385490E+02  0.40915436945E+03  0.50400001928E-02 0.  1.
       -1    1    3    3    0  502 -0.29357487218E+03 -0.28430343462E+03  0.74175347325E+03  0.84688420909E+03  0.50400001928E-02 0. -1.
</event>
<event>
 5   0  0.2417750E-03  0.9976456E+03  0.7818609E-02  0.9311131E-01
       -3   -1    0    0    0  501  0.00000000000E+00  0.00000000000E+00  0.11504710901E+04  0.11504710945E+04  0.10100000352E+00 0. -1.
        3   -1    0    0  501    0  0.00000000000E+00  0.00000000000E+00 -0.21628023075E+03  0.21628025433E+03  0.10100000352E+00 0.  1.
    10030    2    1    2    0    0  0.00000000000E+00  0.00000000000E+00  0.93419085934E+03  0.13667513489E+04  0.99764557230E+03 0.  0.
        3    1    3    3  502    0 -0.37780061852E+03 -0.17944763560E+03  0.94700033534E+02  0.42883897657E+03  0.10100000352E+00 0.  1.
       -3    1    3    3    0  502  0.37780061852E+03  0.17944763560E+03  0.83949082581E+03  0.93791237229E+03  0.10100000352E+00 0. -1.
</event>
<event>
 5   0  0.3640180E-03  0.1004608E+04  0.7818609E-02  0.9303505E-01
       -1   -1    0    0    0  501  0.00000000000E+00  0.00000000000E+00  0.53772353201E+03  0.53772353203E+03  0.50400001928E-02 0. -1.
        1   -1    0    0  501    0  0.00000000000E+00  0.00000000000E+00 -0.46921768047E+03  0.46921768050E+03  0.50400001928E-02 0.  1.
    10030    2    1    2    0    0  0.00000000000E+00  0.00000000000E+00  0.68505851537E+02  0.10069412125E+04  0.10046081593E+04 0.  0.
        5    1    3    3  502    0 -0.18223298012E+03  0.44810529280E+03 -0.10126493331E+03  0.49425083631E+03  0.46999998093E+01 0.  1.
       -5    1    3    3    0  502  0.18223298012E+03 -0.44810529280E+03  0.16977078485E+03  0.51269037622E+03  0.46999998093E+01 0. -1.
</event>
<event>
 5   0  0.3466598E-03  0.9828275E+03  0.7818609E-02  0.9327582E-01
       -1   -1    0    0    0  501  0.00000000000E+00  0.00000000000E+00  0.61200017645E+03  0.61200017647E+03  0.50400001928E-02 0.  1.
        1   -1    0    0  501    0  0.00000000000E+00  0.00000000000E+00 -0.39458727504E+03  0.39458727507E+03  0.50400001928E-02 0. -1.
    10030    2    1    2    0    0  0.00000000000E+00  0.00000000000E+00  0.21741290141E+03  0.10065874515E+04  0.98282751687E+03 0.  0.
        3    1    3    3  502    0  0.12973937034E+03  0.12182692662E+03 -0.36042093065E+03  0.40196686644E+03  0.10100000352E+00 0. -1.
       -3    1    3    3    0  502 -0.12973937034E+03 -0.12182692662E+03  0.57783383206E+03  0.60462058511E+03  0.10100000352E+00 0.  1.
</event>
<event>
 5   0  0.6360455E-03  0.9976173E+03  0.7818609E-02  0.9311162E-01
        2   -1    0    0  501    0  0.00000000000E+00  0.00000000000E+00  0.12716274648E+04  0.12716274648E+04  0.25500000920E-02 0.  1.
       -2   -1    0    0    0  501  0.00000000000E+00  0.00000000000E+00 -0.19566269969E+03  0.19566269971E+03  0.25500000920E-02 0. -1.
    10030    2    1    2    0    0  0.00000000000E+00  0.00000000000E+00  0.10759647651E+04  0.14672901645E+04  0.99761728689E+03 0.  0.
        4    1    3    3  502    0  0.45233291898E+03 -0.50172255337E+02  0.83827717706E+03  0.95385143669E+03  0.12699999809E+01 0.  1.
       -4    1    3    3    0  502 -0.45233291898E+03  0.50172255337E+02  0.23768758804E+03  0.51343872781E+03  0.12699999809E+01 0. -1.
</event>
<event>
 5   0  0.6606947E-03  0.9957105E+03  0.7818609E-02  0.9313262E-01
        2   -1    0    0  501    0  0.00000000000E+00  0.00000000000E+00  0.10994536973E+04  0.10994536973E+04  0.25500000920E-02 0. -1.
       -2   -1    0    0    0  501  0.00000000000E+00  0.00000000000E+00 -0.22543909921E+03  0.22543909923E+03  0.25500000920E-02 0.  1.
    10030    2    1    2    0    0  0.00000000000E+00  0.00000000000E+00  0.87401459811E+03  0.13248927966E+04  0.99571050243E+03 0.  0.
        1    1    3    3  502    0 -0.42173159680E+03 -0.17161843625E+03  0.70494880516E+03  0.83920393548E+03  0.50400001928E-02 0. -1.
       -1    1    3    3    0  502  0.42173159680E+03  0.17161843625E+03  0.16906579295E+03  0.48568886108E+03  0.50400001928E-02 0.  1.
</event>
<event>
 5   0  0.3569359E-03  0.1012627E+04  0.7818609E-02  0.9294803E-01
       -1   -1    0    0    0  501  0.00000000000E+00  0.00000000000E+00  0.31802818294E+03  0.31802818298E+03  0.50400001928E-02 0.  1.
        1   -1    0    0  501    0  0.00000000000E+00  0.00000000000E+00 -0.80607077986E+03  0.80607077987E+03  0.50400001928E-02 0. -1.
    10030    2    1    2    0    0  0.00000000000E+00  0.00000000000E+00 -0.48804259692E+03  0.11240989628E+04  0.10126267337E+04 0.  0.
        4    1    3    3  502    0  0.65043987195E+02 -0.48937752581E+03 -0.36877858996E+03  0.61621452787E+03  0.12699999809E+01 0.  1.
       -4    1    3    3    0  502 -0.65043987195E+02  0.48937752581E+03 -0.11926400696E+03  0.50788443498E+03  0.12699999809E+01 0. -1.
</event>
<event>
 5   0  0.6022787E-03  0.1011849E+04  0.7818609E-02  0.9295643E-01
       -2   -1    0    0    0  501  0.00000000000E+00  0.00000000000E+00  0.44942346428E+03  0.44942346429E+03  0.25500000920E-02 0. -1.
        2   -1    0    0  501    0  0.00000000000E+00  0.00000000000E+00 -0.56952928477E+03  0.56952928478E+03  0.25500000920E-02 0.  1.
    10030    2    1    2    0    0  0.00000000000E+00  0.00000000000E+00 -0.12010582049E+03  0.10189527491E+04  0.10118494437E+04 0.  0.
        5    1    3    3  502    0 -0.40259125333E+03 -0.25365052184E+03  0.11296542520E+03  0.48908238751E+03  0.46999998093E+01 0.  1.
       -5    1    3    3    0  502  0.40259125333E+03  0.25365052184E+03 -0.23307124569E+03  0.52987036155E+03  0.46999998093E+01 0. -1.
</event>
<event>
 5   0  0.3569359E-03  0.1005053E+04  0.7818609E-02  0.9303021E-01
        1   -1    0    0  501    0  0.00000000000E+00  0.00000000000E+00  0.24868531832E+04  0.24868531832E+04  0.50400001928E-02 0. -1.
       -1   -1    0    0    0  501  0.00000000000E+00  0.00000000000E+00 -0.10154707988E+03  0.10154708001E+03  0.50400001928E-02 0.  1.
    10030    2    1    2    0    0  0.00000000000E+00  0.00000000000E+00  0.23853061033E+04  0.25884002632E+04  0.10050525937E+04 0.  0.
        4    1    3    3  502    0  0.32441835507E+02 -0.13780936704E+02  0.24836615719E+04  0.24839119959E+04  0.12699999809E+01 0. -1.
       -4    1    3    3    0  502 -0.32441835507E+02  0.13780936704E+02 -0.98355468563E+02  0.10448826730E+03  0.12699999809E+01 0.  1.
</event>
<event>
 5   0  0.3608845E-03  0.9996335E+03  0.7818609E-02  0.9308947E-01
        1   -1    0    0  501    0  0.00000000000E+00  0.00000000000E+00  0.13552425632E+04  0.13552425632E+04  0.50400001928E-02 0. -1.
       -1   -1    0    0    0  501  0.00000000000E+00  0.00000000000E+00 -0.18433363595E+03  0.18433363602E+03  0.50400001928E-02 0.  1.
    10030    2    1    2    0    0  0.00000000000E+00  0.00000000000E+00  0.11709089273E+04  0.15395761993E+04  0.99963351152E+03 0.  0.
        1    1    3    3  502    0  0.30046111443E+03 -0.23781684603E+03  0.10797005839E+04  0.11456819299E+04  0.50400001928E-02 0. -1.
       -1    1    3    3    0  502 -0.30046111443E+03  0.23781684603E+03  0.91208343404E+02  0.39389426941E+03  0.50400001928E-02 0.  1.
</event>
<event>
 5   0  0.3608845E-03  0.9946427E+03  0.7818609E-02  0.9314440E-01
       -1   -1    0    0    0  501  0.00000000000E+00  0.00000000000E+00  0.13890964390E+04  0.13890964390E+04  0.50400001928E-02 0.  1.
        1   -1    0    0  501    0  0.00000000000E+00  0.00000000000E+00 -0.17804992923E+03  0.17804992930E+03  0.50400001928E-02 0. -1.
    10030    2    1    2    0    0  0.00000000000E+00  0.00000000000E+00  0.12110465098E+04  0.15671463683E+04  0.99464269508E+03 0.  0.
        1    1    3    3  502    0  0.26041305822E+03 -0.28333421605E+03  0.10918754644E+03  0.40001894855E+03  0.50400001928E-02 0. -1.
       -1    1    3    3    0  502 -0.26041305822E+03  0.28333421605E+03  0.11018589633E+04  0.11671274198E+04  0.50400001928E-02 0.  1.
</event>
<event>
 5   0  0.3466598E-03  0.1004351E+04  0.7818609E-02  0.9303786E-01
        1   -1    0    0  501    0  0.00000000000E+00  0.00000000000E+00  0.93501833080E+03  0.93501833081E+03  0.50400001928E-02 0. -1.
       -1   -1    0    0    0  501  0.00000000000E+00  0.00000000000E+00 -0.26970605321E+03  0.26970605326E+03  0.50400001928E-02 0.  1.
    10030    2    1    2    0    0  0.00000000000E+00  0.00000000000E+00  0.66531227758E+03  0.12047243841E+04  0.10043507430E+04 0.  0.
        3    1    3    3  502    0 -0.29910364306E+03  0.30868333857E+03  0.64413914116E+03  0.77437951689E+03  0.10100000352E+00 0.  1.
       -3    1    3    3    0  502  0.29910364306E+03 -0.30868333857E+03  0.21173136422E+02  0.43034486718E+03  0.10100000352E+00 0. -1.
</event>
<event>
 5   0  0.6022787E-03  0.1004272E+04  0.7818609E-02  0.9303872E-01
       -2   -1    0    0    0  501  0.00000000000E+00  0.00000000000E+00  0.23529761053E+03  0.23529761055E+03  0.25500000920E-02 0. -1.
        2   -1    0    0  501    0  0.00000000000E+00  0.00000000000E+00 -0.10715810542E+04  0.10715810542E+04  0.25500000920E-02 0.  1.
    10030    2    1    2    0    0  0.00000000000E+00  0.00000000000E+00 -0.83628344369E+03  0.13068786648E+04  0.10042717990E+04 0.  0.
        5    1    3    3  502    0  0.25195536270E+02  0.27468524732E+03  0.12784148314E+03  0.30405975556E+03  0.46999998093E+01 0. -1.
       -5    1    3    3    0  502 -0.25195536270E+02 -0.27468524732E+03 -0.96412492682E+03  0.10028189092E+04  0.46999998093E+01 0.  1.
</event>
<event>
 5   0  0.6606947E-03  0.9701893E+03  0.7818609E-02  0.9341859E-01
       -2   -1    0    0    0  501  0.00000000000E+00  0.00000000000E+00  0.30036292820E+03  0.30036292821E+03  0.25500000920E-02 0.  1.
        2   -1    0    0  501    0  0.00000000000E+00  0.00000000000E+00 -0.78344164789E+03  0.78344164789E+03  0.25500000920E-02 0. -1.
    10030    2    1    2    0    0  0.00000000000E+00  0.00000000000E+00 -0.48307871969E+03  0.10838045761E+04  0.97018931646E+03 0.  0.
        1    1    3    3  502    0 -0.17736624714E+03  0.45172865292E+02  0.26031055411E+03  0.31821526988E+03  0.50400001928E-02 0.  1.
       -1    1    3    3    0  502  0.17736624714E+03 -0.45172865292E+02 -0.74338927379E+03  0.76558930622E+03  0.50400001928E-02 0. -1.
</event>
<event>
 5   0  0.3569359E-03  0.1006046E+04  0.7818609E-02  0.9301939E-01
        1   -1    0    0  501    0  0.00000000000E+00  0.00000000000E+00  0.37721159840E+03  0.37721159843E+03  0.50400001928E-02 0.  1.
       -1   -1    0    0    0  501  0.00000000000E+00  0.00000000000E+00 -0.67079568231E+03  0.67079568233E+03  0.50400001928E-02 0. -1.
    10030    2    1    2    0    0  0.00000000000E+00  0.00000000000E+00 -0.29358408391E+03  0.10480072808E+04  0.10060455488E+04 0.  0.
        4    1    3    3  502    0  0.11876722261E+03  0.32814122610E+03  0.23060020333E+03  0.41828266054E+03  0.12699999809E+01 0.  1.
       -4    1    3    3    0  502 -0.11876722261E+03 -0.32814122610E+03 -0.52418428724E+03  0.62972462023E+03  0.12699999809E+01 0. -1.
</event>
<event>
 5   0  0.3466598E-03  0.9792738E+03  0.7818609E-02  0.9331574E-01
        1   -1    0    0  501    0  0.00000000000E+00  0.00000000000E+00  0.47184832171E+03  0.47184832174E+03  0.50400001928E-02 0.  1.
       -1   -1    0    0    0  501  0.00000000000E+00  0.00000000000E+00 -0.50809611457E+03  0.50809611460E+03  0.50400001928E-02 0. -1.
    10030    2    1    2    0    0  0.00000000000E+00  0.00000000000E+00 -0.36247792860E+02  0.97994443633E+03  0.97927381044E+03 0.  0.
        3    1    3    3  502    0 -0.31304759278E+03  0.22035546398E+02  0.35797910739E+03  0.47606030309E+03  0.10100000352E+00 0.  1.
       -3    1    3    3    0  502  0.31304759278E+03 -0.22035546398E+02 -0.39422690025E+03  0.50388413324E+03  0.10100000352E+00 0. -1.
</event>
<event>
 5   0  0.6022787E-03  0.1014325E+04  0.7818609E-02  0.9292971E-01
        2   -1    0    0  501    0  0.00000000000E+00  0.00000000000E+00  0.33621313315E+03  0.33621313316E+03  0.25500000920E-02 0. -1.
       -2   -1    0    0    0  501  0.00000000000E+00  0.00000000000E+00 -0.76503208432E+03  0.76503208433E+03  0.25500000920E-02 0.  1.
    10030    2    1    2    0    0  0.00000000000E+00  0.00000000000E+00 -0.42881895117E+03  0.11012452175E+04  0.10143250643E+04 0.  0.
        5    1    3    3  502    0  0.27998498945E+03 -0.33980258715E+03 -0.48763831799E+03  0.65701644707E+03  0.46999998093E+01 0.  1.
       -5    1    3    3    0  502 -0.27998498945E+03  0.33980258715E+03  0.58819366823E+02  0.44422877042E+03  0.46999998093E+01 0. -1.
</event>
<event>
 5   0  0.3466598E-03  0.9882543E+03  0.7818609E-02  0.9321522E-01
        1   -1    0    0  501    0  0.00000000000E+00  0.00000000000E+00  0.10203230755E+04  0.10203230755E+04  0.50400001928E-02 0. -1.
       -1   -1    0    0    0  501  0.00000000000E+00  0.00000000000E+00 -0.23929835757E+03  0.23929835762E+03  0.50400001928E-02 0.  1.
    10030    2    1    2    0    0  0.00000000000E+00  0.00000000000E+00  0.78102471793E+03  0.12596214331E+04  0.98825429155E+03 0.  0.
        3    1    3    3  502    0 -0.80381366273E+02  0.45726942980E+03  0.17493988806E+03  0.49614561381E+03  0.10100000352E+00 0.  1.
       -3    1    3    3    0  502  0.80381366273E+02 -0.45726942980E+03  0.60608482987E+03  0.76347581931E+03  0.10100000352E+00 0. -1.
</event>
<event>
 5   0  0.3608845E-03  0.1004105E+04  0.7818609E-02  0.9304054E-01
        1   -1    0    0  501    0  0.00000000000E+00  0.00000000000E+00  0.71297110818E+03  0.71297110819E+03  0.50400001928E-02 0. -1.
       -1   -1    0    0    0  501  0.00000000000E+00  0.00000000000E+00 -0.35352983406E+03  0.35352983410E+03  0.50400001928E-02 0.  1.
    10030    2    1    2    0    0  0.00000000000E+00  0.00000000000E+00  0.35944127412E+03  0.10665009423E+04  0.10041046909E+04 0.  0.
        1    1    3    3  502    0  0.31991575162E+03 -0.32878495764E+02 -0.22976127056E+03  0.39524337451E+03  0.50400001928E-02 0.  1.
       -1    1    3    3    0  502 -0.31991575162E+03  0.32878495764E+02  0.58920254468E+03  0.67125756778E+03  0.50400001928E-02 0. -1.
</event>
<event>
 5   0  0.6360455E-03  0.1000002E+04  0.7818609E-02  0.9308543E-01
       -2   -1    0    0    0  501  0.00000000000E+00  0.00000000000E+00  0.90565682185E+03  0.90565682185E+03  0.25500000920E-02 0.  1.
        2   -1    0    0  501    0  0.00000000000E+00  0.00000000000E+00 -0.27604361453E+03  0.27604361454E+03  0.25500000920E-02 0. -1.
    10030    2    1    2    0    0  0.00000000000E+00  0.00000000000E+00  0.62961320732E+03  0.11817004364E+04  0.10000015653E+04 0.  0.
        4    1    3    3  502    0  0.48164532495E+03  0.90557860396E+02  0.19772761573E+03  0.52847021491E+03  0.12699999809E+01 0. -1.
       -4    1    3    3    0  502 -0.48164532495E+03 -0.90557860396E+02  0.43188559159E+03  0.65323022148E+03  0.12699999809E+01 0.  1.
</event>
<event>
 5   0  0.6199539E-03  0.1000884E+04  0.7818609E-02  0.9307576E-01
       -2   -1    0    0    0  501  0.00000000000E+00  0.00000000000E+00  0.22112349023E+03  0.22112349025E+03  0.25500000920E-02 0. -1.
        2   -1    0    0  501    0  0.00000000000E+00  0.00000000000E+00 -0.11325888470E+04  0.11325888470E+04  0.25500000920E-02 0.  1.
    10030    2    1    2    0    0  0.00000000000E+00  0.00000000000E+00 -0.91146535676E+03  0.13537123372E+04  0.10008836073E+04 0.  0.
        2    1    3    3  502    0  0.49626641402E+03 -0.34872999086E+02 -0.38232800133E+03  0.62743221176E+03  0.25500000920E-02 0.  1.
       -2    1    3    3    0  502 -0.49626641402E+03  0.34872999086E+02 -0.52913735543E+03  0.72628012548E+03  0.25500000920E-02 0. -1.
</event>
<event>
 5   0  0.3643002E-03  0.9963780E+03  0.7818609E-02  0.9312526E-01
       -1   -1    0    0    0  501  0.00000000000E+00  0.00000000000E+00  0.15773760351E+03  0.15773760359E+03  0.50400001928E-02 0. -1.
        1   -1    0    0  501    0  0.00000000000E+00  0.00000000000E+00 -0.15734503673E+04  0.15734503673E+04  0.50400001928E-02 0.  1.
    10030    2    1    2    0    0  0.00000000000E+00  0.00000000000E+00 -0.14157127638E+04  0.17311879709E+04  0.99637802114E+03 0.  0.
        2    1    3    3  502    0  0.60344133724E+02 -0.26113337447E+03 -0.14375161874E+04  0.14622875376E+04  0.25500000920E-02 0.  1.
       -2    1    3    3    0  502 -0.60344133724E+02  0.26113337447E+03  0.21803423560E+02  0.26890043329E+03  0.25500000920E-02 0. -1.
</event>
<event>
 5   0  0.6199539E-03  0.1002967E+04  0.7818609E-02  0.9305297E-01
        2   -1    0    0  501    0  0.00000000000E+00  0.00000000000E+00  0.66759140464E+03  0.66759140464E+03  0.25500000920E-02 0.  1.
       -2   -1    0    0    0  501  0.00000000000E+00  0.00000000000E+00 -0.37670599408E+03  0.37670599409E+03  0.25500000920E-02 0. -1.
    10030    2    1    2    0    0  0.00000000000E+00  0.00000000000E+00  0.29088541056E+03  0.10442973987E+04  0.10029669660E+04 0.  0.
        2    1    3    3  502    0 -0.31184802859E+02 -0.29252435261E+03  0.56831001230E+03  0.63993691790E+03  0.25500000920E-02 0.  1.
       -2    1    3    3    0  502  0.31184802859E+02  0.29252435261E+03 -0.27742460174E+03  0.40436048083E+03  0.25500000920E-02 0. -1.
</event>
<event>
 5   0  0.3643002E-03  0.1006315E+04  0.7818609E-02  0.9301646E-01
        1   -1    0    0  501    0  0.00000000000E+00  0.00000000000E+00  0.56259265117E+03  0.56259265119E+03  0.50400001928E-02 0. -1.
       -1   -1    0    0    0  501  0.00000000000E+00  0.00000000000E+00 -0.45000122230E+03  0.45000122233E+03  0.50400001928E-02 0.  1.
    10030    2    1    2    0    0  0.00000000000E+00  0.00000000000E+00  0.11259142887E+03  0.10125938735E+04  0.10063148229E+04 0.  0.
        2    1    3    3  502    0 -0.23866351236E+03 -0.19740304566E+03 -0.34271243324E+03  0.46193078104E+03  0.25500000920E-02 0.  1.
       -2    1    3    3    0  502  0.23866351236E+03  0.19740304566E+03  0.45530386210E+03  0.55066309248E+03  0.25500000920E-02 0. -1.
</event>
<event>
 5   0  0.2417750E-03  0.9912286E+03  0.7818609E-02  0.9318218E-01
        3   -1    0    0  501    0  0.00000000000E+00  0.00000000000E+00  0.12856377483E+04  0.12856377523E+04  0.10100000352E+00 0. -1.
       -3   -1    0    0    0  501  0.00000000000E+00  0.00000000000E+00 -0.19105967184E+03  0.19105969854E+03  0.10100000352E+00 0.  1.
    10030    2    1    2    0    0  0.00000000000E+00  0.00000000000E+00  0.10945780765E+04  0.14766974508E+04  0.99122862941E+03 0.  0.
        2    1    3    3  502    0  0.42080090865E+03  0.71803931310E+02  0.17216302635E+03  0.46029264270E+03  0.25500000920E-02 0.  1.
       -2    1    3    3    0  502 -0.42080090865E+03 -0.71803931310E+02  0.92241505014E+03  0.10164048081E+04  0.25500000920E-02 0. -1.
</event>
<event>
 5   0  0.3608845E-03  0.9863831E+03  0.7818609E-02  0.9323607E-01
        1   -1    0    0  501    0  0.00000000000E+00  0.00000000000E+00  0.13137652100E+04  0.13137652100E+04  0.50400001928E-02 0. -1.
       -1   -1    0    0    0  501  0.00000000000E+00  0.00000000000E+00 -0.18514565388E+03  0.18514565395E+03  0.50400001928E-02 0.  1.
    10030    2    1    2    0    0  0.00000000000E+00  0.00000000000E+00  0.11286195561E+04  0.14989108640E+04  0.98638312823E+03 0.  0.
        1    1    3    3  502    0 -0.42443670222E+03 -0.13407364406E+03  0.88708028364E+03  0.99248863261E+03  0.50400001928E-02 0. -1.
       -1    1    3    3    0  502  0.42443670222E+03  0.13407364406E+03  0.24153927247E+03  0.50642223134E+03  0.50400001928E-02 0.  1.
</event>
<event>
 5   0  0.6199539E-03  0.1021902E+04  0.7818609E-02  0.9284844E-01
        2   -1    0    0  501    0  0.00000000000E+00  0.00000000000E+00  0.25616408111E+04  0.25616408111E+04  0.25500000920E-02 0.  1.
       -2   -1    0    0    0  501  0.00000000000E+00  0.00000000000E+00 -0.10191541288E+03  0.10191541291E+03  0.25500000920E-02 0. -1.
    10030    2    1    2    0    0  0.00000000000E+00  0.00000000000E+00  0.24597253983E+04  0.26635562241E+04  0.10219015236E+04 0.  0.
        2    1    3    3  502    0  0.46320153668E+02  0.22213035448E+03  0.36613678778E+02  0.22984345215E+03  0.25500000920E-02 0. -1.
       -2    1    3    3    0  502 -0.46320153668E+02 -0.22213035448E+03  0.24231117195E+04  0.24337127719E+04  0.25500000920E-02 0.  1.
</event>
<event>
 5   0  0.6360455E-03  0.9952159E+03  0.7818609E-02  0.9313808E-01
        2   -1    0    0  501    0  0.00000000000E+00  0.00000000000E+00  0.66615117813E+03  0.66615117813E+03  0.25500000920E-02 0. -1.
       -2   -1    0    0    0  501  0.00000000000E+00  0.00000000000E+00 -0.37170789240E+03  0.37170789241E+03  0.25500000920E-02 0.  1.
    10030    2    1    2    0    0  0.00000000000E+00  0.00000000000E+00  0.29444328572E+03  0.10378590705E+04  0.99521585689E+03 0.  0.
        4    1    3    3  502    0  0.60596483915E+02 -0.43541041213E+03  0.39035936311E+03  0.58790833140E+03  0.12699999809E+01 0. -1.
       -4    1    3    3    0  502 -0.60596483915E+02  0.43541041213E+03 -0.95916077390E+02  0.44995073915E+03  0.12699999809E+01 0.  1.
</event>
<event>
 5   0  0.6606947E-03  0.1026710E+04  0.7818609E-02  0.9279725E-01
        2   -1    0    0  501    0  0.00000000000E+00  0.00000000000E+00  0.77161360206E+03  0.77161360207E+03  0.25500000920E-02 0.  1.
       -2   -1    0    0    0  501  0.00000000000E+00  0.00000000000E+00 -0.34153535654E+03  0.34153535655E+03  0.25500000920E-02 0. -1.
    10030    2    1    2    0    0  0.00000000000E+00  0.00000000000E+00  0.43007824552E+03  0.11131489586E+04  0.10267099429E+04 0.  0.
        1    1    3    3  502    0 -0.33503850386E+03 -0.85699676796E+02 -0.19629372166E+03  0.39765117737E+03  0.50400001928E-02 0. -1.
       -1    1    3    3    0  502  0.33503850386E+03  0.85699676796E+02  0.62637196718E+03  0.71549778125E+03  0.50400001928E-02 0.  1.
</event>
<event>
 5   0  0.6606947E-03  0.1008823E+04  0.7818609E-02  0.9298920E-01
        2   -1    0    0  501    0  0.00000000000E+00  0.00000000000E+00  0.52132868307E+03  0.52132868307E+03  0.25500000920E-02 0.  1.
       -2   -1    0    0    0  501  0.00000000000E+00  0.00000000000E+00 -0.48804367002E+03  0.48804367003E+03  0.25500000920E-02 0. -1.
    10030    2    1    2    0    0  0.00000000000E+00  0.00000000000E+00  0.33285013048E+02  0.10093723531E+04  0.10088234013E+04 0.  0.
        1    1    3    3  502    0 -0.27637965310E+02  0.24279774867E+02  0.51998463561E+03  0.52128436183E+03  0.50400001928E-02 0.  1.
       -1    1    3    3    0  502  0.27637965310E+02 -0.24279774867E+02 -0.48669962256E+03  0.48808799127E+03  0.50400001928E-02 0. -1.
</event>
<event>
 5   0  0.3643002E-03  0.8285460E+03  0.7818609E-02  0.9519593E-01
        1   -1    0    0  501    0  0.00000000000E+00  0.00000000000E+00  0.51813984651E+03  0.51813984654E+03  0.50400001928E-02 0. -1.
       -1   -1    0    0    0  501  0.00000000000E+00  0.00000000000E+00 -0.33122738179E+03  0.33122738183E+03  0.50400001928E-02 0.  1.
    10030    2    1    2    0    0  0.00000000000E+00  0.00000000000E+00  0.18691246472E+03  0.84936722837E+03  0.82854596683E+03 0.  0.
        2    1    3    3  502    0  0.48637996420E+02 -0.10401502342E+02 -0.32815547174E+03  0.33190338893E+03  0.25500000920E-02 0.  1.
       -2    1    3    3    0  502 -0.48637996420E+02  0.10401502342E+02  0.51506793646E+03  0.51746383943E+03  0.25500000920E-02 0. -1.
</event>
<event>
 5   0  0.2417750E-03  0.1087356E+04  0.7818609E-02  0.9217604E-01
       -4   -1    0    0    0  501  0.00000000000E+00  0.00000000000E+00  0.35382693463E+03  0.35382921385E+03  0.12699999809E+01 0.  1.
        4   -1    0    0  501    0  0.00000000000E+00  0.00000000000E+00 -0.83539055002E+03  0.83539151538E+03  0.12699999809E+01 0. -1.
    10030    2    1    2    0    0  0.00000000000E+00  0.00000000000E+00 -0.48156361539E+03  0.11892207292E+04  0.10873557041E+04 0.  0.
        1    1    3    3  502    0  0.41041909162E+03 -0.18701000362E+03  0.91252800521E+02  0.46015611030E+03  0.50400001928E-02 0.  1.
       -1    1    3    3    0  502 -0.41041909162E+03  0.18701000362E+03 -0.57281641591E+03  0.72906461893E+03  0.50400001928E-02 0. -1.
</event>
<event>
 5   0  0.6606947E-03  0.9972354E+03  0.7818609E-02  0.9311582E-01
       -2   -1    0    0    0  501  0.00000000000E+00  0.00000000000E+00  0.28721938493E+03  0.28721938494E+03  0.25500000920E-02 0. -1.
        2   -1    0    0  501    0  0.00000000000E+00  0.00000000000E+00 -0.86560880117E+03  0.86560880117E+03  0.25500000920E-02 0.  1.
    10030    2    1    2    0    0  0.00000000000E+00  0.00000000000E+00 -0.57838941624E+03  0.11528281861E+04  0.99723543353E+03 0.  0.
        1    1    3    3  502    0  0.49674652998E+02 -0.43322778656E+03 -0.96716655125E+01  0.43617362064E+03  0.50400001928E-02 0.  1.
       -1    1    3    3    0  502 -0.49674652998E+02  0.43322778656E+03 -0.56871775072E+03  0.71665456547E+03  0.50400001928E-02 0. -1.
</event>
<event>
 5   0  0.6022787E-03  0.9963943E+03  0.7818609E-02  0.9312508E-01
       -2   -1    0    0    0  501  0.00000000000E+00  0.00000000000E+00  0.22242207104E+03  0.22242207106E+03  0.25500000920E-02 0.  1.
        2   -1    0    0  501    0  0.00000000000E+00  0.00000000000E+00 -0.11158983396E+04  0.11158983396E+04  0.25500000920E-02 0. -1.
    10030    2    1    2    0    0  0.00000000000E+00  0.00000000000E+00 -0.89347626859E+03  0.13383204107E+04  0.99639433918E+03 0.  0.
        5    1    3    3  502    0  0.43388636841E+03 -0.17847570391E+03 -0.67176259365E+03  0.81938881479E+03  0.46999998093E+01 0. -1.
       -5    1    3    3    0  502 -0.43388636841E+03  0.17847570391E+03 -0.22171367494E+03  0.51893159591E+03  0.46999998093E+01 0.  1.
</event>
<event>
 5   0  0.6360455E-03  0.9913820E+03  0.7818609E-02  0.9318048E-01
       -2   -1    0    0    0  501  0.00000000000E+00  0.00000000000E+00  0.75153550190E+03  0.75153550190E+03  0.25500000920E-02 0. -1.
        2   -1    0    0  501    0  0.00000000000E+00  0.00000000000E+00 -0.32694338002E+03  0.32694338003E+03  0.25500000920E-02 0.  1.
    10030    2    1    2    0    0  0.00000000000E+00  0.00000000000E+00  0.42459212188E+03  0.10784788819E+04  0.99138197927E+03 0.  0.
        4    1    3    3  502    0 -0.61284390393E+02 -0.47808864714E+03  0.86445814673E+02  0.48969278410E+03  0.12699999809E+01 0.  1.
       -4    1    3    3    0  502  0.61284390393E+02  0.47808864714E+03  0.33814630720E+03  0.58878609783E+03  0.12699999809E+01 0. -1.
</event>
<event>
 5   0  0.3608845E-03  0.1027539E+04  0.7818609E-02  0.9278846E-01
       -1   -1    0    0    0  501  0.00000000000E+00  0.00000000000E+00  0.39858061458E+03  0.39858061462E+03  0.50400001928E-02 0. -1.
        1   -1    0    0  501    0  0.00000000000E+00  0.00000000000E+00 -0.66224707241E+03  0.66224707243E+03  0.50400001928E-02 0.  1.
    10030    2    1    2    0    0  0.00000000000E+00  0.00000000000E+00 -0.26366645783E+03  0.10608276871E+04  0.10275385057E+04 0.  0.
        1    1    3    3  502    0 -0.36611012676E+03 -0.34470498242E+03 -0.24060641054E+03  0.55744918570E+03  0.50400001928E-02 0. -1.
       -1    1    3    3    0  502  0.36611012676E+03  0.34470498242E+03 -0.23060047292E+02  0.50337850135E+03  0.50400001928E-02 0.  1.
</event>
<event>
 5   0  0.6376961E-03  0.9927108E+03  0.7818609E-02  0.9316576E-01
        2   -1    0    0  501    0  0.00000000000E+00  0.00000000000E+00  0.39740436859E+03  0.39740436860E+03  0.25500000920E-02 0.  1.
       -2   -1    0    0    0  501  0.00000000000E+00  0.00000000000E+00 -0.61994458879E+03  0.61994458879E+03  0.25500000920E-02 0. -1.
    10030    2    1    2    0    0  0.00000000000E+00  0.00000000000E+00 -0.22254022020E+03  0.10173489574E+04  0.99271080960E+03 0.  0.
        3    1    3    3  502    0  0.22758464582E+03 -0.89916969042E+02  0.33129138277E+03  0.41186626814E+03  0.10100000352E+00 0.  1.
       -3    1    3    3    0  502 -0.22758464582E+03  0.89916969042E+02 -0.55383160297E+03  0.60548268925E+03  0.10100000352E+00 0. -1.
</event>
<event>
 5   0  0.6606947E-03  0.1002979E+04  0.7818609E-02  0.9305284E-01
       -2   -1    0    0    0  501  0.00000000000E+00  0.00000000000E+00  0.20609045039E+03  0.20609045040E+03  0.25500000920E-02 0. -1.
        2   -1    0    0  501    0  0.00000000000E+00  0.00000000000E+00 -0.12202974061E+04  0.12202974061E+04  0.25500000920E-02 0.  1.
    10030    2    1    2    0    0  0.00000000000E+00  0.00000000000E+00 -0.10142069557E+04  0.14263878565E+04  0.10029788473E+04 0.  0.
        1    1    3    3  502    0  0.37848641264E+03  0.23278386040E+03 -0.17646823867E+03  0.47810179826E+03  0.50400001928E-02 0.  1.
       -1    1    3    3    0  502 -0.37848641264E+03 -0.23278386040E+03 -0.83773871706E+03  0.94828605826E+03  0.50400001928E-02 0. -1.
</event>
<event>
 5   0  0.3569359E-03  0.9731466E+03  0.7818609E-02  0.9338497E-01
       -1   -1    0    0    0  501  0.00000000000E+00  0.00000000000E+00  0.55750175181E+03  0.55750175184E+03  0.50400001928E-02 0. -1.
        1   -1    0    0  501    0  0.00000000000E+00  0.00000000000E+00 -0.42466879974E+03  0.42466879977E+03  0.50400001928E-02 0.  1.
    10030    2    1    2    0    0  0.00000000000E+00  0.00000000000E+00  0.13283295208E+03  0.98217055160E+03  0.97314664839E+03 0.  0.
        4    1    3    3  502    0 -0.33608456695E+03  0.34772253212E+03  0.12176235675E+02  0.48374959338E+03  0.12699999809E+01 0.  1.
       -4    1    3    3    0  502  0.33608456695E+03 -0.34772253212E+03  0.12065671640E+03  0.49842095822E+03  0.12699999809E+01 0. -1.
</event>
<event>
 5   0  0.6376961E-03  0.1019255E+04  0.7818609E-02  0.9287675E-01
       -2   -1    0    0    0  501  0.00000000000E+00  0.00000000000E+00  0.27144365617E+03  0.27144365618E+03  0.25500000920E-02 0. -1.
        2   -1    0    0  501    0  0.00000000000E+00  0.00000000000E+00 -0.95681009197E+03  0.95681009197E+03  0.25500000920E-02 0.  1.
    10030    2    1    2    0    0  0.00000000000E+00  0.00000000000E+00 -0.68536643580E+03  0.12282537482E+04  0.10192546878E+04 0.  0.
        3    1    3    3  502    0 -0.15762713475E+03 -0.28022232749E+03  0.13380607594E+03  0.34824552056E+03  0.10100000352E+00 0. -1.
       -3    1    3    3    0  502  0.15762713475E+03  0.28022232749E+03 -0.81917251174E+03  0.88000822759E+03  0.10100000352E+00 0.  1.
</event>
<event>
 5   0  0.6606947E-03  0.9978859E+03  0.7818609E-02  0.9310867E-01
       -2   -1    0    0    0  501  0.00000000000E+00  0.00000000000E+00  0.25927529601E+03  0.25927529603E+03  0.25500000920E-02 0.  1.
        2   -1    0    0  501    0  0.00000000000E+00  0.00000000000E+00 -0.96015335338E+03  0.96015335338E+03  0.25500000920E-02 0. -1.
    10030    2    1    2    0    0  0.00000000000E+00  0.00000000000E+00 -0.70087805737E+03  0.12194286494E+04  0.99788585505E+03 0.  0.
        1    1    3    3  502    0 -0.42725631026E+03 -0.63389033874E+02 -0.65564355796E+03  0.78513349145E+03  0.50400001928E-02 0. -1.
       -1    1    3    3    0  502  0.42725631026E+03  0.63389033874E+02 -0.45234499407E+02  0.43429515796E+03  0.50400001928E-02 0.  1.
</event>
<event>
 5   0  0.3643002E-03  0.1004582E+04  0.7818609E-02  0.9303533E-01
       -1   -1    0    0    0  501  0.00000000000E+00  0.00000000000E+00  0.17921159947E+03  0.17921159954E+03  0.50400001928E-02 0. -1.
        1   -1    0    0  501    0  0.00000000000E+00  0.00000000000E+00 -0.14078133482E+04  0.14078133482E+04  0.50400001928E-02 0.  1.
    10030    2    1    2    0    0  0.00000000000E+00  0.00000000000E+00 -0.12286017487E+04  0.15870249478E+04  0.10045824644E+04 0.  0.
        2    1    3    3  502    0  0.15859862085E+03 -0.82685464856E+02 -0.13558012847E+04  0.13675480000E+04  0.25500000920E-02 0.  1.
       -2    1    3    3    0  502 -0.15859862085E+03  0.82685464856E+02  0.12719953599E+03  0.21947694776E+03  0.25500000920E-02 0. -1.
</event>
<event>
 5   0  0.6022787E-03  0.9946571E+03  0.7818609E-02  0.9314424E-01
       -2   -1    0    0    0  501  0.00000000000E+00  0.00000000000E+00  0.83404662675E+03  0.83404662676E+03  0.25500000920E-02 0.  1.
        2   -1    0    0  501    0  0.00000000000E+00  0.00000000000E+00 -0.29654897858E+03  0.29654897860E+03  0.25500000920E-02 0. -1.
    10030    2    1    2    0    0  0.00000000000E+00  0.00000000000E+00  0.53749764817E+03  0.11305956054E+04  0.99465707711E+03 0.  0.
        5    1    3    3  502    0  0.75916261614E+02 -0.14202122768E+03  0.80356357797E+03  0.81955464841E+03  0.46999998093E+01 0.  1.
       -5    1    3    3    0  502 -0.75916261614E+02  0.14202122768E+03 -0.26606592981E+03  0.31104095694E+03  0.46999998093E+01 0. -1.
</event>
<event>
 5   0  0.3608845E-03  0.1008930E+04  0.7818609E-02  0.9298804E-01
       -1   -1    0    0    0  501  0.00000000000E+00  0.00000000000E+00  0.57698931642E+03  0.57698931645E+03  0.50400001928E-02 0. -1.
        1   -1    0    0  501    0  0.00000000000E+00  0.00000000000E+00 -0.44105655314E+03  0.44105655316E+03  0.50400001928E-02 0.  1.
    10030    2    1    2    0    0  0.00000000000E+00  0.00000000000E+00  0.13593276329E+03  0.10180458696E+04  0.10089299661E+04 0.  0.
        1    1    3    3  502    0 -0.54044942222E+02 -0.50052970824E+03  0.35518807215E+02  0.50469043017E+03  0.50400001928E-02 0.  1.
       -1    1    3    3    0  502  0.54044942222E+02  0.50052970824E+03  0.10041395607E+03  0.51335543945E+03  0.50400001928E-02 0. -1.
</event>
<event>
 5   0  0.6606947E-03  0.9974388E+03  0.7818609E-02  0.9311358E-01
        2   -1    0    0  501    0  0.00000000000E+00  0.00000000000E+00  0.31771355803E+03  0.31771355804E+03  0.25500000920E-02 0. -1.
       -2   -1    0    0    0  501  0.00000000000E+00  0.00000000000E+00 -0.78284683216E+03  0.78284683216E+03  0.25500000920E-02 0.  1.
    10030    2    1    2    0    0  0.00000000000E+00  0.00000000000E+00 -0.46513327413E+03  0.11005603902E+04  0.99743882508E+03 0.  0.
        1    1    3    3  502    0 -0.23049900044E+03 -0.10468609330E+03  0.24154563444E+03  0.34990464541E+03  0.50400001928E-02 0. -1.
       -1    1    3    3    0  502  0.23049900044E+03  0.10468609330E+03 -0.70667890858E+03  0.75065574479E+03  0.50400001928E-02 0.  1.
</event>
<event>
 5   0  0.6199539E-03  0.9803371E+03  0.7818609E-02  0.9330378E-01
        2   -1    0    0  501    0  0.00000000000E+00  0.00000000000E+00  0.34608170615E+03  0.34608170615E+03  0.25500000920E-02 0.  1.
       -2   -1    0    0    0  501  0.00000000000E+00  0.00000000000E+00 -0.69424419825E+03  0.69424419825E+03  0.25500000920E-02 0. -1.
    10030    2    1    2    0    0  0.00000000000E+00  0.00000000000E+00 -0.34816249210E+03  0.10403259044E+04  0.98033711879E+03 0.  0.
        2    1    3    3  502    0  0.15504798068E+03  0.95194850067E+02 -0.65708483307E+03  0.68180819418E+03  0.25500000920E-02 0. -1.
       -2    1    3    3    0  502 -0.15504798068E+03 -0.95194850067E+02  0.30892234097E+03  0.35851771023E+03  0.25500000920E-02 0.  1.
</event>
<event>
 5   0  0.3640180E-03  0.9822156E+03  0.7818609E-02  0.9328268E-01
        1   -1    0    0  501    0  0.00000000000E+00  0.00000000000E+00  0.44836869365E+03  0.44836869368E+03  0.50400001928E-02 0. -1.
       -1   -1    0    0    0  501  0.00000000000E+00  0.00000000000E+00 -0.53792082599E+03  0.53792082601E+03  0.50400001928E-02 0.  1.
    10030    2    1    2    0    0  0.00000000000E+00  0.00000000000E+00 -0.89552132339E+02  0.98628951969E+03  0.98221557320E+03 0.  0.
        5    1    3    3  502    0 -0.38135591117E+03 -0.22280166043E+03  0.17080454881E+03  0.47357068613E+03  0.46999998093E+01 0.  1.
       -5    1    3    3    0  502  0.38135591117E+03  0.22280166043E+03 -0.26035668114E+03  0.51271883356E+03  0.46999998093E+01 0. -1.
</event>
<event>
 5   0  0.3466598E-03  0.1006309E+04  0.7818609E-02  0.9301652E-01
        1   -1    0    0  501    0  0.00000000000E+00  0.00000000000E+00  0.71967153423E+03  0.71967153425E+03  0.50400001928E-02 0.  1.
       -1   -1    0    0    0  501  0.00000000000E+00  0.00000000000E+00 -0.35177758841E+03  0.35177758844E+03  0.50400001928E-02 0. -1.
    10030    2    1    2    0    0  0.00000000000E+00  0.00000000000E+00  0.36789394582E+03  0.10714491227E+04  0.10063087335E+04 0.  0.
        3    1    3    3  502    0  0.27714941623E+03 -0.41733941208E+03  0.13423045435E+03  0.51865384301E+03  0.10100000352E+00 0. -1.
       -3    1    3    3    0  502 -0.27714941623E+03  0.41733941208E+03  0.23366349147E+03  0.55279527968E+03  0.10100000352E+00 0.  1.
</event>
<event>
 5   0  0.6376961E-03  0.1008761E+04  0.7818609E-02  0.9298987E-01
       -2   -1    0    0    0  501  0.00000000000E+00  0.00000000000E+00  0.59084610072E+03  0.59084610073E+03  0.25500000920E-02 0. -1.
        2   -1    0    0  501    0  0.00000000000E+00  0.00000000000E+00 -0.43056865557E+03  0.43056865557E+03  0.25500000920E-02 0.  1.
    10030    2    1    2    0    0  0.00000000000E+00  0.00000000000E+00  0.16027744516E+03  0.10214147563E+04  0.10087612428E+04 0.  0.
        3    1    3    3  502    0  0.36797387528E+03  0.25493683452E+03 -0.15516002808E+03  0.47378497971E+03  0.10100000352E+00 0.  1.
       -3    1    3    3    0  502 -0.36797387528E+03 -0.25493683452E+03  0.31543747323E+03  0.54762977659E+03  0.10100000352E+00 0. -1.
</event>
<event>
 5   0  0.6022787E-03  0.9274306E+03  0.7818609E-02  0.9391927E-01
       -2   -1    0    0    0  501  0.00000000000E+00  0.00000000000E+00  0.15991527826E+03  0.15991527828E+03  0.25500000920E-02 0. -1.
        2   -1    0    0  501    0  0.00000000000E+00  0.00000000000E+00 -0.13446612382E+04  0.13446612382E+04  0.25500000920E-02 0.  1.
    10030    2    1    2    0    0  0.00000000000E+00  0.00000000000E+00 -0.11847459599E+04  0.15045765165E+04  0.92743059275E+03 0.  0.
        5    1    3    3  502    0 -0.42955807719E+03  0.17141272053E+03 -0.64635761254E+03  0.79479727964E+03  0.46999998093E+01 0.  1.
       -5    1    3    3    0  502  0.42955807719E+03 -0.17141272053E+03 -0.53838834740E+03  0.70977923685E+03  0.46999998093E+01 0. -1.
</event>
<event>
 5   0  0.3640180E-03  0.1011700E+04  0.7818609E-02  0.9295805E-01
        1   -1    0    0  501    0  0.00000000000E+00  0.00000000000E+00  0.87033115219E+03  0.87033115221E+03  0.50400001928E-02 0.  1.
       -1   -1    0    0    0  501  0.00000000000E+00  0.00000000000E+00 -0.29400773284E+03  0.29400773288E+03  0.50400001928E-02 0. -1.
    10030    2    1    2    0    0  0.00000000000E+00  0.00000000000E+00  0.57632341935E+03  0.11643388851E+04  0.10116997359E+04 0.  0.
        5    1    3    3  502    0 -0.21741447099E+03 -0.45121829002E+03  0.20682331901E+03  0.54190863872E+03  0.46999998093E+01 0.  1.
       -5    1    3    3    0  502  0.21741447099E+03  0.45121829002E+03  0.36950010034E+03  0.62243024637E+03  0.46999998093E+01 0. -1.
</event>
<event>
 5   0  0.6606947E-03  0.1002141E+04  0.7818609E-02  0.9306200E-01
        2   -1    0    0  501    0  0.00000000000E+00  0.00000000000E+00  0.65899887052E+03  0.65899887052E+03  0.25500000920E-02 0. -1.
       -2   -1    0    0    0  501  0.00000000000E+00  0.00000000000E+00 -0.38098934081E+03  0.38098934082E+03  0.25500000920E-02 0.  1.
    10030    2    1    2    0    0  0.00000000000E+00  0.00000000000E+00  0.27800952971E+03  0.10399882113E+04  0.10021407991E+04 0.  0.
        1    1    3    3  502    0 -0.78283158566E+02  0.49245506355E+03  0.19017520960E+03  0.53367298311E+03  0.50400001928E-02 0.  1.
       -1    1    3    3    0  502  0.78283158566E+02 -0.49245506355E+03  0.87834320109E+02  0.50631522823E+03  0.50400001928E-02 0. -1.
</event>
<event>
 5   0  0.3608845E-03  0.9945795E+03  0.7818609E-02  0.9314510E-01
        1   -1    0    0  501    0  0.00000000000E+00  0.00000000000E+00  0.10368976561E+04  0.10368976561E+04  0.50400001928E-02 0.  1.
       -1   -1    0    0    0  501  0.00000000000E+00  0.00000000000E+00 -0.23849711351E+03  0.23849711357E+03  0.50400001928E-02 0. -1.
    10030    2    1    2    0    0  0.00000000000E+00  0.00000000000E+00  0.79840054255E+03  0.12753947696E+04  0.99457950517E+03 0.  0.
        1    1    3    3  502    0 -0.15371697709E+03  0.21141444847E+02 -0.20666055483E+03  0.25842688460E+03  0.50400001928E-02 0. -1.
       -1    1    3    3    0  502  0.15371697709E+03 -0.21141444847E+02  0.10050610974E+04  0.10169678851E+04  0.50400001928E-02 0.  1.
</event>
<event>
 5   0  0.6376961E-03  0.1003214E+04  0.7818609E-02  0.9305027E-01
        2   -1    0    0  501    0  0.00000000000E+00  0.00000000000E+00  0.10049849852E+04  0.10049849852E+04  0.25500000920E-02 0.  1.
       -2   -1    0    0    0  501  0.00000000000E+00  0.00000000000E+00 -0.25036147073E+03  0.25036147074E+03  0.25500000920E-02 0. -1.
    10030    2    1    2    0    0  0.00000000000E+00  0.00000000000E+00  0.75462351446E+03  0.12553464559E+04  0.10032138734E+04 0.  0.
        3    1    3    3  502    0 -0.17360299678E+02 -0.24436765054E+03  0.92503278504E+03  0.95692350385E+03  0.10100000352E+00 0.  1.
       -3    1    3    3    0  502  0.17360299678E+02  0.24436765054E+03 -0.17040927057E+03  0.29842295209E+03  0.10100000352E+00 0. -1.
</event>
<event>
 5   0  0.6360455E-03  0.1002328E+04  0.7818609E-02  0.9305996E-01
       -2   -1    0    0    0  501  0.00000000000E+00  0.00000000000E+00  0.83683919595E+02  0.83683919633E+02  0.25500000920E-02 0.  1.
        2   -1    0    0  501    0  0.00000000000E+00  0.00000000000E+00 -0.30013554333E+04  0.30013554333E+04  0.25500000920E-02 0. -1.
    10030    2    1    2    0    0  0.00000000000E+00  0.00000000000E+00 -0.29176715137E+04  0.30850393529E+04  0.10023276646E+04 0.  0.
        4    1    3    3  502    0  0.25129469659E+03 -0.37055224564E+03 -0.21519085962E+04  0.21979923136E+04  0.12699999809E+01 0.  1.
       -4    1    3    3    0  502 -0.25129469659E+03  0.37055224564E+03 -0.76576291747E+03  0.88704703931E+03  0.12699999809E+01 0. -1.
</event>
<event>
 5   0  0.6199539E-03  0.9918671E+03  0.7818609E-02  0.9317510E-01
        2   -1    0    0  501    0  0.00000000000E+00  0.00000000000E+00  0.13685084974E+04  0.13685084974E+04  0.25500000920E-02 0. -1.
       -2   -1    0    0    0  501  0.00000000000E+00  0.00000000000E+00 -0.17972128809E+03  0.17972128811E+03  0.25500000920E-02 0.  1.
    10030    2    1    2    0    0  0.00000000000E+00  0.00000000000E+00  0.11887872093E+04  0.15482297855E+04  0.99186714824E+03 0.  0.
        2    1    3    3  502    0 -0.17409886032E+03  0.46140769425E+03  0.67613951497E+03  0.83688237954E+03  0.25500000920E-02 0.  1.
       -2    1    3    3    0  502  0.17409886032E+03 -0.46140769425E+03  0.51264769437E+03  0.71134740601E+03  0.25500000920E-02 0. -1.
</event>
<event>
 5   0  0.6199539E-03  0.9053792E+03  0.7818609E-02  0.9418882E-01
        2   -1    0    0  501    0  0.00000000000E+00  0.00000000000E+00  0.59539212457E+03  0.59539212457E+03  0.25500000920E-02 0. -1.
       -2   -1    0    0    0  501  0.00000000000E+00  0.00000000000E+00 -0.34418978944E+03  0.34418978945E+03  0.25500000920E-02 0.  1.
    10030    2    1    2    0    0  0.00000000000E+00  0.00000000000E+00  0.25120233513E+03  0.93958191402E+03  0.90537923545E+03 0.  0.
        2    1    3    3  502    0 -0.20462600513E+03  0.39919802535E+03  0.62501032736E+02  0.45292079276E+03  0.25500000920E-02 0.  1.
       -2    1    3    3    0  502  0.20462600513E+03 -0.39919802535E+03  0.18870130239E+03  0.48666112126E+03  0.25500000920E-02 0. -1.
</event>
<event>
 5   0  0.6606947E-03  0.1010316E+04  0.7818609E-02  0.9297302E-01
        2   -1    0    0  501    0  0.00000000000E+00  0.00000000000E+00  0.11516684208E+04  0.11516684208E+04  0.25500000920E-02 0. -1.
       -2   -1    0    0    0  501  0.00000000000E+00  0.00000000000E+00 -0.22157812084E+03  0.22157812086E+03  0.25500000920E-02 0.  1.
    10030    2    1    2    0    0  0.00000000000E+00  0.00000000000E+00  0.93009029997E+03  0.13732465417E+04  0.10103158408E+04 0.  0.
        1    1    3    3  502    0  0.41221958396E+03  0.29083054709E+03  0.42967572378E+03  0.66266780528E+03  0.50400001928E-02 0.  1.
       -1    1    3    3    0  502 -0.41221958396E+03 -0.29083054709E+03  0.50041457619E+03  0.71057873639E+03  0.50400001928E-02 0. -1.
</event>
<event>
 5   0  0.3640180E-03  0.1015621E+04  0.7818609E-02  0.9291576E-01
        1   -1    0    0  501    0  0.00000000000E+00  0.00000000000E+00  0.19478489233E+04  0.19478489233E+04  0.50400001928E-02 0.  1.
       -1   -1    0    0    0  501  0.00000000000E+00  0.00000000000E+00 -0.13238793184E+03  0.13238793194E+03  0.50400001928E-02 0. -1.
    10030    2    1    2    0    0  0.00000000000E+00  0.00000000000E+00  0.18154609914E+04  0.20802368552E+04  0.10156213676E+04 0.  0.
        5    1    3    3  502    0 -0.48734120171E+03 -0.26596008990E+01  0.11998549832E+04  0.12950608446E+04  0.46999998093E+01 0.  1.
       -5    1    3    3    0  502  0.48734120171E+03  0.26596008990E+01  0.61560600822E+03  0.78517601066E+03  0.46999998093E+01 0. -1.
</event>
<event>
 5   0  0.3608845E-03  0.1007141E+04  0.7818609E-02  0.9300747E-01
       -1   -1    0    0    0  501  0.00000000000E+00  0.00000000000E+00  0.34382585956E+03  0.34382585960E+03  0.50400001928E-02 0.  1.
        1   -1    0    0  501    0  0.00000000000E+00  0.00000000000E+00 -0.73753443045E+03  0.73753443046E+03  0.50400001928E-02 0. -1.
    10030    2    1    2    0    0  0.00000000000E+00  0.00000000000E+00 -0.39370857088E+03  0.10813602901E+04  0.10071413198E+04 0.  0.
        1    1    3    3  502    0  0.40126374538E+03 -0.74856301051E+02 -0.51348870475E+03  0.65596242963E+03  0.50400001928E-02 0. -1.
       -1    1    3    3    0  502 -0.40126374538E+03  0.74856301051E+02  0.11978013387E+03  0.42539786043E+03  0.50400001928E-02 0.  1.
</event>
<event>
 5   0  0.6606947E-03  0.1079904E+04  0.7818609E-02  0.9225003E-01
        2   -1    0    0  501    0  0.00000000000E+00  0.00000000000E+00  0.95449047266E+03  0.95449047267E+03  0.25500000920E-02 0. -1.
       -2   -1    0    0    0  501  0.00000000000E+00  0.00000000000E+00 -0.30544927157E+03  0.30544927158E+03  0.25500000920E-02 0.  1.
    10030    2    1    2    0    0  0.00000000000E+00  0.00000000000E+00  0.64904120110E+03  0.12599397442E+04  0.10799044765E+04 0.  0.
        1    1    3    3  502    0  0.35448041095E+02 -0.23444591239E+03 -0.24145835833E+03  0.33841333940E+03  0.50400001928E-02 0.  1.
       -1    1    3    3    0  502 -0.35448041095E+02  0.23444591239E+03  0.89049955943E+03  0.92152640484E+03  0.50400001928E-02 0. -1.
</event>
<event>
 5   0  0.3643002E-03  0.1002371E+04  0.7818609E-02  0.9305948E-01
        1   -1    0    0  501    0  0.00000000000E+00  0.00000000000E+00  0.11809966953E+04  0.11809966953E+04  0.50400001928E-02 0.  1.
       -1   -1    0    0    0  501  0.00000000000E+00  0.00000000000E+00 -0.21269064070E+03  0.21269064076E+03  0.50400001928E-02 0. -1.
    10030    2    1    2    0    0  0.00000000000E+00  0.00000000000E+00  0.96830605459E+03  0.13936873361E+04  0.10023710767E+04 0.  0.
        2    1    3    3  502    0  0.51940386681E+02 -0.46848978386E+03  0.24735165730E+03  0.53231881775E+03  0.25500000920E-02 0. -1.
       -2    1    3    3    0  502 -0.51940386681E+02  0.46848978386E+03  0.72095439729E+03  0.86136851831E+03  0.25500000920E-02 0.  1.
</event>
<event>
 5   0  0.3466598E-03  0.9987091E+03  0.7818609E-02  0.9309962E-01
        1   -1    0    0  501    0  0.00000000000E+00  0.00000000000E+00  0.69009433485E+03  0.69009433486E+03  0.50400001928E-02 0. -1.
       -1   -1    0    0    0  501  0.00000000000E+00  0.00000000000E+00 -0.36133458113E+03  0.36133458116E+03  0.50400001928E-02 0.  1.
    10030    2    1    2    0    0  0.00000000000E+00  0.00000000000E+00  0.32875975372E+03  0.10514289160E+04  0.99870906163E+03 0.  0.
        3    1    3    3  502    0  0.41784976714E+03 -0.24138420389E+03  0.29957267740E+03  0.56798640919E+03  0.10100000352E+00 0. -1.
       -3    1    3    3    0  502 -0.41784976714E+03  0.24138420389E+03  0.29187076324E+02  0.48344250683E+03  0.10100000352E+00 0.  1.
</event>
<event>
 5   0  0.3569359E-03  0.9922649E+03  0.7818609E-02  0.9317069E-01
        1   -1    0    0  501    0  0.00000000000E+00  0.00000000000E+00  0.16457850911E+04  0.16457850911E+04  0.50400001928E-02 0. -1.
       -1   -1    0    0    0  501  0.00000000000E+00  0.00000000000E+00 -0.14956229606E+03  0.14956229614E+03  0.50400001928E-02 0.  1.
    10030    2    1    2    0    0  0.00000000000E+00  0.00000000000E+00  0.14962227950E+04  0.17953473872E+04  0.99226487819E+03 0.  0.
        4    1    3    3  502    0  0.34343066727E+03 -0.46484377682E+02  0.13904672691E+04  0.14330060222E+04  0.12699999809E+01 0. -1.
       -4    1    3    3    0  502 -0.34343066727E+03  0.46484377682E+02  0.10575552594E+03  0.36234136496E+03  0.12699999809E+01 0.  1.
</event>
<event>
 5   0  0.6606947E-03  0.9994529E+03  0.7818609E-02  0.9309145E-01
       -2   -1    0    0    0  501  0.00000000000E+00  0.00000000000E+00  0.33635767192E+03  0.33635767193E+03  0.25500000920E-02 0.  1.
        2   -1    0    0  501    0  0.00000000000E+00  0.00000000000E+00 -0.74244339985E+03  0.74244339986E+03  0.25500000920E-02 0. -1.
    10030    2    1    2    0    0  0.00000000000E+00  0.00000000000E+00 -0.40608572793E+03  0.10788010718E+04  0.99945291738E+03 0.  0.
        1    1    3    3  502    0  0.73917600010E+02 -0.26470150628E+03 -0.65354609697E+03  0.70898039459E+03  0.50400001928E-02 0. -1.
       -1    1    3    3    0  502 -0.73917600010E+02  0.26470150628E+03  0.24746036904E+03  0.36982067720E+03  0.50400001928E-02 0.  1.
</event>
<event>
 5   0  0.3643002E-03  0.9929272E+03  0.7818609E-02  0.9316336E-01
        1   -1    0    0  501    0  0.00000000000E+00  0.00000000000E+00  0.52971775077E+03  0.52971775080E+03  0.50400001928E-02 0. -1.
       -1   -1    0    0    0  501  0.00000000000E+00  0.00000000000E+00 -0.46529700336E+03  0.46529700339E+03  0.50400001928E-02 0.  1.
    10030    2    1    2    0    0  0.00000000000E+00  0.00000000000E+00  0.64420747415E+02  0.99501475418E+03  0.99292715158E+03 0.  0.
        2    1    3    3  502    0 -0.16042108927E+03 -0.34011241337E+03  0.35702872035E+03  0.51853725688E+03  0.25500000920E-02 0. -1.
       -2    1    3    3    0  502  0.16042108927E+03  0.34011241337E+03 -0.29260797293E+03  0.47647749731E+03  0.25500000920E-02 0.  1.
</event>
<event>
 5   0  0.3466598E-03  0.9317871E+03  0.7818609E-02  0.9386696E-01
        1   -1    0    0  501    0  0.00000000000E+00  0.00000000000E+00  0.73012513446E+03  0.73012513448E+03  0.50400001928E-02 0.  1.
       -1   -1    0    0    0  501  0.00000000000E+00  0.00000000000E+00 -0.29728711314E+03  0.29728711318E+03  0.50400001928E-02 0. -1.
    10030    2    1    2    0    0  0.00000000000E+00  0.00000000000E+00  0.43283802132E+03  0.10274122477E+04  0.93178708616E+03 0.  0.
        3    1    3    3  502    0  0.60554763341E+02  0.19865617625E+03 -0.24342426586E+03  0.31997896671E+03  0.10100000352E+00 0. -1.
       -3    1    3    3    0  502 -0.60554763341E+02 -0.19865617625E+03  0.67626228718E+03  0.70743328095E+03  0.10100000352E+00 0.  1.
</event>
<event>
 5   0  0.3640180E-03  0.1004908E+04  0.7818609E-02  0.9303178E-01
       -1   -1    0    0    0  501  0.00000000000E+00  0.00000000000E+00  0.47635471289E+03  0.47635471292E+03  0.50400001928E-02 0.  1.
        1   -1    0    0  501    0  0.00000000000E+00  0.00000000000E+00 -0.52998353834E+03  0.52998353837E+03  0.50400001928E-02 0. -1.
    10030    2    1    2    0    0  0.00000000000E+00  0.00000000000E+00 -0.53628825451E+02  0.10063382513E+04  0.10049082670E+04 0.  0.
        5    1    3    3  502    0 -0.39043500212E+03  0.30389380995E+03 -0.11438670787E+03  0.50783594550E+03  0.46999998093E+01 0. -1.
       -5    1    3    3    0  502  0.39043500212E+03 -0.30389380995E+03  0.60757882423E+02  0.49850230579E+03  0.46999998093E+01 0.  1.
</event>
<event>
 5   0  0.6606947E-03  0.1001421E+04  0.7818609E-02  0.9306988E-01
        2   -1    0    0  501    0  0.00000000000E+00  0.00000000000E+00  0.10193926116E+04  0.10193926116E+04  0.25500000920E-02 0. -1.
       -2   -1    0    0    0  501  0.00000000000E+00  0.00000000000E+00 -0.24594131556E+03  0.24594131557E+03  0.25500000920E-02 0.  1.
    10030    2    1    2    0    0  0.00000000000E+00  0.00000000000E+00  0.77345129600E+03  0.12653339271E+04  0.10014205110E+04 0.  0.
        1    1    3    3  502    0 -0.53488292007E+02 -0.87160181888E+02  0.10060568472E+04  0.10112409576E+04  0.50400001928E-02 0. -1.
       -1    1    3    3    0  502  0.53488292007E+02  0.87160181888E+02 -0.23260555116E+03  0.25409296949E+03  0.50400001928E-02 0.  1.
</event>
<event>
 5   0  0.2417750E-03  0.9966198E+03  0.7818609E-02  0.9312260E-01
        3   -1    0    0  501    0  0.00000000000E+00  0.00000000000E+00  0.58935877676E+03  0.58935878541E+03  0.10100000352E+00 0.  1.
       -3   -1    0    0    0  501  0.00000000000E+00  0.00000000000E+00 -0.42132698184E+03  0.42132699394E+03  0.10100000352E+00 0. -1.
    10030    2    1    2    0    0  0.00000000000E+00  0.00000000000E+00  0.16803179492E+03  0.10106857794E+04  0.99661981742E+03 0.  0.
        1    1    3    3  502    0  0.24679314412E+03  0.28863359818E+03  0.41120950877E+03  0.55974053820E+03  0.50400001928E-02 0. -1.
       -1    1    3    3    0  502 -0.24679314412E+03 -0.28863359818E+03 -0.24317771385E+03  0.45094524115E+03  0.50400001928E-02 0.  1.
</event>
<event>
 5   0  0.3640180E-03  0.9973951E+03  0.7818609E-02  0.9311406E-01
        1   -1    0    0  501    0  0.00000000000E+00  0.00000000000E+00  0.46423324598E+03  0.46423324601E+03  0.50400001928E-02 0. -1.
       -1   -1    0    0    0  501  0.00000000000E+00  0.00000000000E+00 -0.53572044942E+03  0.53572044944E+03  0.50400001928E-02 0.  1.
    10030    2    1    2    0    0  0.00000000000E+00  0.00000000000E+00 -0.71487203436E+02  0.99995369545E+03  0.99739509362E+03 0.  0.
        5    1    3    3  502    0  0.10955736150E+03 -0.42419711172E+03  0.20305041936E+03  0.48290534047E+03  0.46999998093E+01 0. -1.
       -5    1    3    3    0  502 -0.10955736150E+03  0.42419711172E+03 -0.27453762280E+03  0.51704835498E+03  0.46999998093E+01 0.  1.
</event>
<event>
 5   0  0.6199539E-03  0.9935151E+03  0.7818609E-02  0.9315686E-01
        2   -1    0    0  501    0  0.00000000000E+00  0.00000000000E+00  0.70177179735E+03  0.70177179736E+03  0.25500000920E-02 0.  1.
       -2   -1    0    0    0  501  0.00000000000E+00  0.00000000000E+00 -0.35163575913E+03  0.35163575914E+03  0.25500000920E-02 0. -1.
    10030    2    1    2    0    0  0.00000000000E+00  0.00000000000E+00  0.35013603822E+03  0.10534075565E+04  0.99351509038E+03 0.  0.
        2    1    3    3  502    0 -0.40481665183E+03 -0.16995066496E+03  0.42147456998E+03  0.60860542494E+03  0.25500000920E-02 0.  1.
       -2    1    3    3    0  502  0.40481665183E+03  0.16995066496E+03 -0.71338531754E+02  0.44480213156E+03  0.25500000920E-02 0. -1.
</event>
<event>
 5   0  0.3643002E-03  0.1021219E+04  0.7818609E-02  0.9285574E-01
        1   -1    0    0  501    0  0.00000000000E+00  0.00000000000E+00  0.60936573997E+03  0.60936573999E+03  0.50400001928E-02 0. -1.
       -1   -1    0    0    0  501  0.00000000000E+00  0.00000000000E+00 -0.42785774197E+03  0.42785774200E+03  0.50400001928E-02 0.  1.
    10030    2    1    2    0    0  0.00000000000E+00  0.00000000000E+00  0.18150799800E+03  0.10372234820E+04  0.10212185850E+04 0.  0.
        2    1    3    3  502    0 -0.95819490635E+02 -0.39527504172E+03 -0.22278804725E+03  0.46374373030E+03  0.25500000920E-02 0.  1.
       -2    1    3    3    0  502  0.95819490635E+02  0.39527504172E+03  0.40429604525E+03  0.57347975169E+03  0.25500000920E-02 0. -1.
</event>
<event>
 5   0  0.6022787E-03  0.1001839E+04  0.7818609E-02  0.9306530E-01
        2   -1    0    0  501    0  0.00000000000E+00  0.00000000000E+00  0.84435163498E+03  0.84435163499E+03  0.25500000920E-02 0. -1.
       -2   -1    0    0    0  501  0.00000000000E+00  0.00000000000E+00 -0.29717507025E+03  0.29717507026E+03  0.25500000920E-02 0.  1.
    10030    2    1    2    0    0  0.00000000000E+00  0.00000000000E+00  0.54717656474E+03  0.11415267052E+04  0.10018388223E+04 0.  0.
        5    1    3    3  502    0 -0.28533349530E+03  0.88686737427E+02 -0.18448248763E+03  0.35119285183E+03  0.46999998093E+01 0.  1.
       -5    1    3    3    0  502  0.28533349530E+03 -0.88686737427E+02  0.73165905237E+03  0.79033385341E+03  0.46999998093E+01 0. -1.
</event>
<event>
 5   0  0.6360455E-03  0.9922175E+03  0.7818609E-02  0.9317122E-01
        2   -1    0    0  501    0  0.00000000000E+00  0.00000000000E+00  0.13637983701E+04  0.13637983701E+04  0.25500000920E-02 0. -1.
       -2   -1    0    0    0  501  0.00000000000E+00  0.00000000000E+00 -0.18046940876E+03  0.18046940878E+03  0.25500000920E-02 0.  1.
    10030    2    1    2    0    0  0.00000000000E+00  0.00000000000E+00  0.11833289613E+04  0.15442677788E+04  0.99221748731E+03 0.  0.
        4    1    3    3  502    0  0.28144622859E+03  0.40507984543E+03  0.50900600402E+03  0.70879502382E+03  0.12699999809E+01 0.  1.
       -4    1    3    3    0  502 -0.28144622859E+03 -0.40507984543E+03  0.67432295729E+03  0.83547275502E+03  0.12699999809E+01 0. -1.
</event>
<event>
 5   0  0.6360455E-03  0.1003076E+04  0.7818609E-02  0.9305178E-01
        2   -1    0    0  501    0  0.00000000000E+00  0.00000000000E+00  0.26722120550E+03  0.26722120551E+03  0.25500000920E-02 0.  1.
       -2   -1    0    0    0  501  0.00000000000E+00  0.00000000000E+00 -0.94131880225E+03  0.94131880225E+03  0.25500000920E-02 0. -1.
    10030    2    1    2    0    0  0.00000000000E+00  0.00000000000E+00 -0.67409759675E+03  0.12085400078E+04  0.10030759594E+04 0.  0.
        4    1    3    3  502    0 -0.30847236196E+03 -0.22251209988E+03 -0.73092430459E+03  0.82396528120E+03  0.12699999809E+01 0. -1.
       -4    1    3    3    0  502  0.30847236196E+03  0.22251209988E+03  0.56826707846E+02  0.38457472656E+03  0.12699999809E+01 0.  1.
</event>
<event>
 5   0  0.3640180E-03  0.1007815E+04  0.7818609E-02  0.9300015E-01
        1   -1    0    0  501    0  0.00000000000E+00  0.00000000000E+00  0.70180527299E+03  0.70180527301E+03  0.50400001928E-02 0. -1.
       -1   -1    0    0    0  501  0.00000000000E+00  0.00000000000E+00 -0.36181370042E+03  0.36181370046E+03  0.50400001928E-02 0.  1.
    10030    2    1    2    0    0  0.00000000000E+00  0.00000000000E+00  0.33999157257E+03  0.10636189735E+04  0.10078149886E+04 0.  0.
        5    1    3    3  502    0 -0.16349948118E+03  0.47595471384E+03  0.14338655401E+03  0.52330370134E+03  0.46999998093E+01 0.  1.
       -5    1    3    3    0  502  0.16349948118E+03 -0.47595471384E+03  0.19660501856E+03  0.54031527212E+03  0.46999998093E+01 0. -1.
</event>
<event>
 5   0  0.3640180E-03  0.1014223E+04  0.7818609E-02  0.9293081E-01
        1   -1    0    0  501    0  0.00000000000E+00  0.00000000000E+00  0.17678422699E+04  0.17678422699E+04  0.50400001928E-02 0.  1.
       -1   -1    0    0    0  501  0.00000000000E+00  0.00000000000E+00 -0.14546670246E+03  0.14546670254E+03  0.50400001928E-02 0. -1.
    10030    2    1    2    0    0  0.00000000000E+00  0.00000000000E+00  0.16223755675E+04  0.19133089725E+04  0.10142232211E+04 0.  0.
        5    1    3    3  502    0 -0.12096535237E+03  0.23510077326E+03 -0.51035735559E+01  0.26448653372E+03  0.46999998093E+01 0. -1.
       -5    1    3    3    0  502  0.12096535237E+03 -0.23510077326E+03  0.16274791410E+04  0.16488224387E+04  0.46999998093E+01 0.  1.
</event>
<event>
 5   0  0.3640180E-03  0.1018703E+04  0.7818609E-02  0.9288266E-01
        1   -1    0    0  501    0  0.00000000000E+00  0.00000000000E+00  0.62123805476E+03  0.62123805478E+03  0.50400001928E-02 0.  1.
       -1   -1    0    0    0  501  0.00000000000E+00  0.00000000000E+00 -0.41761594204E+03  0.41761594207E+03  0.50400001928E-02 0. -1.
    10030    2    1    2    0    0  0.00000000000E+00  0.00000000000E+00  0.20362211272E+03  0.10388539968E+04  0.10187029312E+04 0.  0.
        5    1    3    3  502    0 -0.43208451965E+02 -0.41561523132E+02 -0.41398298929E+03  0.41832802434E+03  0.46999998093E+01 0. -1.
       -5    1    3    3    0  502  0.43208451965E+02  0.41561523132E+02  0.61760510201E+03  0.62052597251E+03  0.46999998093E+01 0.  1.
</event>
<event>
 5   0  0.6606947E-03  0.1017004E+04  0.7818609E-02  0.9290089E-01
        2   -1    0    0  501    0  0.00000000000E+00  0.00000000000E+00  0.12687134917E+04  0.12687134917E+04  0.25500000920E-02 0.  1.
       -2   -1    0    0    0  501  0.00000000000E+00  0.00000000000E+00 -0.20380841523E+03  0.20380841524E+03  0.25500000920E-02 0. -1.
    10030    2    1    2    0    0  0.00000000000E+00  0.00000000000E+00  0.10649050765E+04  0.14725219069E+04  0.10170043975E+04 0.  0.
        1    1    3    3  502    0 -0.13681181802E+03 -0.30318151780E+03  0.10893545358E+04  0.11390038679E+04  0.50400001928E-02 0.  1.
       -1    1    3    3    0  502  0.13681181802E+03  0.30318151780E+03 -0.24449459363E+02  0.33351803906E+03  0.50400001928E-02 0. -1.
</event>
<event>
 5   0  0.6022787E-03  0.1007732E+04  0.7818609E-02  0.9300105E-01
        2   -1    0    0  501    0  0.00000000000E+00  0.00000000000E+00  0.11795177818E+04  0.11795177818E+04  0.25500000920E-02 0.  1.
       -2   -1    0    0    0  501  0.00000000000E+00  0.00000000000E+00 -0.21524138571E+03  0.21524138573E+03  0.25500000920E-02 0. -1.
    10030    2    1    2    0    0  0.00000000000E+00  0.00000000000E+00  0.96427639607E+03  0.13947591675E+04  0.10077321903E+04 0.  0.
        5    1    3    3  502    0  0.28259593203E+02 -0.39457296674E+03  0.50249041361E+02  0.39879002852E+03  0.46999998093E+01 0. -1.
       -5    1    3    3    0  502 -0.28259593203E+02  0.39457296674E+03  0.91402735471E+03  0.99596913900E+03  0.46999998093E+01 0.  1.
</event>
<event>
 5   0  0.3466598E-03  0.1002302E+04  0.7818609E-02  0.9306024E-01
       -1   -1    0    0    0  501  0.00000000000E+00  0.00000000000E+00  0.19029377039E+04  0.19029377039E+04  0.50400001928E-02 0.  1.
        1   -1    0    0  501    0  0.00000000000E+00  0.00000000000E+00 -0.13198126390E+03  0.13198126400E+03  0.50400001928E-02 0. -1.
    10030    2    1    2    0    0  0.00000000000E+00  0.00000000000E+00  0.17709564400E+04  0.20349189679E+04  0.10023015981E+04 0.  0.
        3    1    3    3  502    0 -0.19674392254E+03 -0.40985909890E+03  0.45739244704E+03  0.64490349109E+03  0.10100000352E+00 0. -1.
       -3    1    3    3    0  502  0.19674392254E+03  0.40985909890E+03  0.13135639930E+04  0.13900154768E+04  0.10100000352E+00 0.  1.
</event>
<event>
 5   0  0.6360455E-03  0.1032715E+04  0.7818609E-02  0.9273374E-01
        2   -1    0    0  501    0  0.00000000000E+00  0.00000000000E+00  0.14332265608E+04  0.14332265608E+04  0.25500000920E-02 0.  1.
       -2   -1    0    0    0  501  0.00000000000E+00  0.00000000000E+00 -0.18603123411E+03  0.18603123413E+03  0.25500000920E-02 0. -1.
    10030    2    1    2    0    0  0.00000000000E+00  0.00000000000E+00  0.12471953267E+04  0.16192577949E+04  0.10327146864E+04 0.  0.
        4    1    3    3  502    0  0.45939587569E+03 -0.20964357642E+03  0.45451712156E+03  0.67939857700E+03  0.12699999809E+01 0.  1.
       -4    1    3    3    0  502 -0.45939587569E+03  0.20964357642E+03  0.79267820514E+03  0.93985921794E+03  0.12699999809E+01 0. -1.
</event>
<event>
 5   0  0.6606947E-03  0.1002987E+04  0.7818609E-02  0.9305275E-01
        2   -1    0    0  501    0  0.00000000000E+00  0.00000000000E+00  0.42504398735E+03  0.42504398736E+03  0.25500000920E-02 0.  1.
       -2   -1    0    0    0  501  0.00000000000E+00  0.00000000000E+00 -0.59169319442E+03  0.59169319443E+03  0.25500000920E-02 0. -1.
    10030    2    1    2    0    0  0.00000000000E+00  0.00000000000E+00 -0.16664920707E+03  0.10167371818E+04  0.10029868088E+04 0.  0.
        1    1    3    3  502    0 -0.16479943690E+03 -0.10301506153E+02 -0.56334642600E+03  0.58704699228E+03  0.50400001928E-02 0. -1.
       -1    1    3    3    0  502  0.16479943690E+03  0.10301506153E+02  0.39669721893E+03  0.42969018951E+03  0.50400001928E-02 0.  1.
</event>
<event>
 5   0  0.3608845E-03  0.1063646E+04  0.7818609E-02  0.9241368E-01
        1   -1    0    0  501    0  0.00000000000E+00  0.00000000000E+00  0.13742186091E+04  0.13742186091E+04  0.50400001928E-02 0. -1.
       -1   -1    0    0    0  501  0.00000000000E+00  0.00000000000E+00 -0.20581572942E+03  0.20581572948E+03  0.50400001928E-02 0.  1.
    10030    2    1    2    0    0  0.00000000000E+00  0.00000000000E+00  0.11684028797E+04  0.15800343386E+04  0.10636461921E+04 0.  0.
        1    1    3    3  502    0  0.52565835187E+03  0.31411182968E+02  0.47371023793E+03  0.70831119916E+03  0.50400001928E-02 0. -1.
       -1    1    3    3    0  502 -0.52565835187E+03 -0.31411182968E+02  0.69469264178E+03  0.87172313946E+03  0.50400001928E-02 0.  1.
</event>
<event>
 5   0  0.6376961E-03  0.1021611E+04  0.7818609E-02  0.9285155E-01
        2   -1    0    0  501    0  0.00000000000E+00  0.00000000000E+00  0.15927946466E+04  0.15927946466E+04  0.25500000920E-02 0. -1.
       -2   -1    0    0    0  501  0.00000000000E+00  0.00000000000E+00 -0.16381414135E+03  0.16381414137E+03  0.25500000920E-02 0.  1.
    10030    2    1    2    0    0  0.00000000000E+00  0.00000000000E+00  0.14289805052E+04  0.17566087879E+04  0.10216110559E+04 0.  0.
        3    1    3    3  502    0  0.16826720384E+03  0.12795946479E+03 -0.85071961634E+02  0.22786997471E+03  0.10100000352E+00 0.  1.
       -3    1    3    3    0  502 -0.16826720384E+03 -0.12795946479E+03  0.15140524668E+04  0.15287388132E+04  0.10100000352E+00 0. -1.
</event>
<event>
 5   0  0.3466598E-03  0.1012778E+04  0.7818609E-02  0.9294640E-01
       -1   -1    0    0    0  501  0.00000000000E+00  0.00000000000E+00  0.29807785527E+03  0.29807785532E+03  0.50400001928E-02 0.  1.
        1   -1    0    0  501    0  0.00000000000E+00  0.00000000000E+00 -0.86027810278E+03  0.86027810280E+03  0.50400001928E-02 0. -1.
    10030    2    1    2    0    0  0.00000000000E+00  0.00000000000E+00 -0.56220024751E+03  0.11583559581E+04  0.10127780642E+04 0.  0.
        3    1    3    3  502    0 -0.31490764071E+02  0.30474144492E+03 -0.74225738948E+03  0.80299754602E+03  0.10100000352E+00 0. -1.
       -3    1    3    3    0  502  0.31490764071E+02 -0.30474144492E+03  0.18005714197E+03  0.35535841210E+03  0.10100000352E+00 0.  1.
</event>
<event>
 5   0  0.3640180E-03  0.9308039E+03  0.7818609E-02  0.9387874E-01
       -1   -1    0    0    0  501  0.00000000000E+00  0.00000000000E+00  0.25065261803E+03  0.25065261808E+03  0.50400001928E-02 0. -1.
        1   -1    0    0  501    0  0.00000000000E+00  0.00000000000E+00 -0.86414013764E+03  0.86414013766E+03  0.50400001928E-02 0.  1.
    10030    2    1    2    0    0  0.00000000000E+00  0.00000000000E+00 -0.61348751961E+03  0.11147927557E+04  0.93080392754E+03 0.  0.
        5    1    3    3  502    0 -0.42405170300E+03  0.91027335380E+02 -0.50883052191E+03  0.66860781676E+03  0.46999998093E+01 0.  1.
       -5    1    3    3    0  502  0.42405170300E+03 -0.91027335380E+02 -0.10465699770E+03  0.44618493897E+03  0.46999998093E+01 0. -1.
</event>
<event>
 5   0  0.3608845E-03  0.1007245E+04  0.7818609E-02  0.9300635E-01
       -1   -1    0    0    0  501  0.00000000000E+00  0.00000000000E+00  0.38843303974E+03  0.38843303978E+03  0.50400001928E-02 0.  1.
        1   -1    0    0  501    0  0.00000000000E+00  0.00000000000E+00 -0.65297069088E+03  0.65297069090E+03  0.50400001928E-02 0. -1.
    10030    2    1    2    0    0  0.00000000000E+00  0.00000000000E+00 -0.26453765114E+03  0.10414037307E+04  0.10072445390E+04 0.  0.
        1    1    3    3  502    0 -0.38805727638E+03 -0.18602703516E+03 -0.40275309254E+03  0.58941035038E+03  0.50400001928E-02 0. -1.
       -1    1    3    3    0  502  0.38805727638E+03  0.18602703516E+03  0.13821544140E+03  0.45199338029E+03  0.50400001928E-02 0.  1.
</event>
<event>
 5   0  0.3608845E-03  0.9899511E+03  0.7818609E-02  0.9319635E-01
        1   -1    0    0  501    0  0.00000000000E+00  0.00000000000E+00  0.11770457251E+04  0.11770457251E+04  0.50400001928E-02 0. -1.
       -1   -1    0    0    0  501  0.00000000000E+00  0.00000000000E+00 -0.20814890370E+03  0.20814890376E+03  0.50400001928E-02 0.  1.
    10030    2    1    2    0    0  0.00000000000E+00  0.00000000000E+00  0.96889682140E+03  0.13851946289E+04  0.98995106411E+03 0.  0.
        1    1    3    3  502    0 -0.13634555487E+03 -0.11172844366E+03  0.11316361792E+04  0.11452832826E+04  0.50400001928E-02 0. -1.
       -1    1    3    3    0  502  0.13634555487E+03  0.11172844366E+03 -0.16273935777E+03  0.23991134623E+03  0.50400001928E-02 0.  1.
</event>
<event>
 5   0  0.6376961E-03  0.9958740E+03  0.7818609E-02  0.9313082E-01
        2   -1    0    0  501    0  0.00000000000E+00  0.00000000000E+00  0.10073293012E+04  0.10073293012E+04  0.25500000920E-02 0. -1.
       -2   -1    0    0    0  501  0.00000000000E+00  0.00000000000E+00 -0.24613723079E+03  0.24613723080E+03  0.25500000920E-02 0.  1.
    10030    2    1    2    0    0  0.00000000000E+00  0.00000000000E+00  0.76119207039E+03  0.12534665320E+04  0.99587397736E+03 0.  0.
        3    1    3    3  502    0  0.43233772764E+03  0.15593186467E+03  0.13943676234E+03  0.48028458028E+03  0.10100000352E+00 0. -1.
       -3    1    3    3    0  502 -0.43233772764E+03 -0.15593186467E+03  0.62175530805E+03  0.77318195171E+03  0.10100000352E+00 0.  1.
</event>
<event>
 5   0  0.3608845E-03  0.1002409E+04  0.7818609E-02  0.9305907E-01
        1   -1    0    0  501    0  0.00000000000E+00  0.00000000000E+00  0.45843730296E+03  0.45843730299E+03  0.50400001928E-02 0. -1.
       -1   -1    0    0    0  501  0.00000000000E+00  0.00000000000E+00 -0.54796120678E+03  0.54796120681E+03  0.50400001928E-02 0.  1.
    10030    2    1    2    0    0  0.00000000000E+00  0.00000000000E+00 -0.89523903825E+02  0.10063985098E+04  0.10024088144E+04 0.  0.
        1    1    3    3  502    0  0.36718998753E+03 -0.33490831299E+03 -0.10993404844E+03  0.50899662090E+03  0.50400001928E-02 0. -1.
       -1    1    3    3    0  502 -0.36718998753E+03  0.33490831299E+03  0.20410144619E+02  0.49740188890E+03  0.50400001928E-02 0.  1.
</event>
<event>
 5   0  0.3643002E-03  0.9936096E+03  0.7818609E-02  0.9315582E-01
        1   -1    0    0  501    0  0.00000000000E+00  0.00000000000E+00  0.96872193566E+03  0.96872193567E+03  0.50400001928E-02 0.  1.
       -1   -1    0    0    0  501  0.00000000000E+00  0.00000000000E+00 -0.25478417688E+03  0.25478417693E+03  0.50400001928E-02 0. -1.
    10030    2    1    2    0    0  0.00000000000E+00  0.00000000000E+00  0.71393775878E+03  0.12235061126E+04  0.99360962363E+03 0.  0.
        2    1    3    3  502    0 -0.40694865990E+03 -0.26770690573E+03  0.47724606234E+03  0.68193694957E+03  0.25500000920E-02 0.  1.
       -2    1    3    3    0  502  0.40694865990E+03  0.26770690573E+03  0.23669169644E+03  0.54156916303E+03  0.25500000920E-02 0. -1.
</event>
<event>
 5   0  0.3640180E-03  0.1004536E+04  0.7818609E-02  0.9303584E-01
       -1   -1    0    0    0  501  0.00000000000E+00  0.00000000000E+00  0.12100779670E+04  0.12100779670E+04  0.50400001928E-02 0.  1.
        1   -1    0    0  501    0  0.00000000000E+00  0.00000000000E+00 -0.20847659176E+03  0.20847659182E+03  0.50400001928E-02 0. -1.
    10030    2    1    2    0    0  0.00000000000E+00  0.00000000000E+00  0.10016013753E+04  0.14185545589E+04  0.10045355750E+04 0.  0.
        5    1    3    3  502    0 -0.12180248241E+03 -0.46182820020E+03  0.72016034842E+03  0.86416095066E+03  0.46999998093E+01 0. -1.
       -5    1    3    3    0  502  0.12180248241E+03  0.46182820020E+03  0.28144102683E+03  0.55439360819E+03  0.46999998093E+01 0.  1.
</event>
<event>
 5   0  0.6606947E-03  0.1014759E+04  0.7818609E-02  0.9292504E-01
        2   -1    0    0  501    0  0.00000000000E+00  0.00000000000E+00  0.12142630612E+04  0.12142630612E+04  0.25500000920E-02 0.  1.
       -2   -1    0    0    0  501  0.00000000000E+00  0.00000000000E+00 -0.21200828296E+03  0.21200828298E+03  0.25500000920E-02 0. -1.
    10030    2    1    2    0    0  0.00000000000E+00  0.00000000000E+00  0.10022547782E+04  0.14262713442E+04  0.10147587431E+04 0.  0.
        1    1    3    3  502    0  0.38943470973E+03 -0.18958638098E+03  0.87254701350E+03  0.97413586311E+03  0.50400001928E-02 0.  1.
       -1    1    3    3    0  502 -0.38943470973E+03  0.18958638098E+03  0.12970776474E+03  0.45213548108E+03  0.50400001928E-02 0. -1.
</event>
<event>
 5   0  0.6376961E-03  0.1050173E+04  0.7818609E-02  0.9255165E-01
       -2   -1    0    0    0  501  0.00000000000E+00  0.00000000000E+00  0.27458873903E+03  0.27458873904E+03  0.25500000920E-02 0. -1.
        2   -1    0    0  501    0  0.00000000000E+00  0.00000000000E+00 -0.10041049278E+04  0.10041049278E+04  0.25500000920E-02 0.  1.
    10030    2    1    2    0    0  0.00000000000E+00  0.00000000000E+00 -0.72951618881E+03  0.12786936669E+04  0.10501731400E+04 0.  0.
        3    1    3    3  502    0 -0.21723811809E+03 -0.42855190846E+03 -0.10684823149E+03  0.49220492985E+03  0.10100000352E+00 0. -1.
       -3    1    3    3    0  502  0.21723811809E+03  0.42855190846E+03 -0.62266795731E+03  0.78648873702E+03  0.10100000352E+00 0.  1.
</event>
<event>
 5   0  0.3569359E-03  0.1006795E+04  0.7818609E-02  0.9301124E-01
        1   -1    0    0  501    0  0.00000000000E+00  0.00000000000E+00  0.18409865762E+04  0.18409865762E+04  0.50400001928E-02 0. -1.
       -1   -1    0    0    0  501  0.00000000000E+00  0.00000000000E+00 -0.13764845112E+03  0.13764845121E+03  0.50400001928E-02 0.  1.
    10030    2    1    2    0    0  0.00000000000E+00  0.00000000000E+00  0.17033381251E+04  0.19786350274E+04  0.10067948169E+04 0.  0.
        4    1    3    3  502    0  0.32408800639E+03 -0.36623387570E+03  0.10862470205E+04  0.11912575247E+04  0.12699999809E+01 0. -1.
       -4    1    3    3    0  502 -0.32408800639E+03  0.36623387570E+03  0.61709110456E+03  0.78737750274E+03  0.12699999809E+01 0.  1.
</event>
<event>
 5   0  0.3643002E-03  0.1001325E+04  0.7818609E-02  0.9307093E-01
        1   -1    0    0  501    0  0.00000000000E+00  0.00000000000E+00  0.67317620734E+03  0.67317620736E+03  0.50400001928E-02 0.  1.
       -1   -1    0    0    0  501  0.00000000000E+00  0.00000000000E+00 -0.37235823063E+03  0.37235823066E+03  0.50400001928E-02 0. -1.
    10030    2    1    2    0    0  0.00000000000E+00  0.00000000000E+00  0.30081797671E+03  0.10455344380E+04  0.10013245258E+04 0.  0.
        2    1    3    3  502    0 -0.47893401012E+03  0.14544983168E+03  0.16228030127E+03  0.52618279692E+03  0.25500000920E-02 0. -1.
       -2    1    3    3    0  502  0.47893401012E+03 -0.14544983168E+03  0.13853767544E+03  0.51935164110E+03  0.25500000920E-02 0.  1.
</event>
<event>
 5   0  0.3569359E-03  0.1001053E+04  0.7818609E-02  0.9307390E-01
       -1   -1    0    0    0  501  0.00000000000E+00  0.00000000000E+00  0.12512773297E+04  0.12512773297E+04  0.50400001928E-02 0.  1.
        1   -1    0    0  501    0  0.00000000000E+00  0.00000000000E+00 -0.20021700172E+03  0.20021700179E+03  0.50400001928E-02 0. -1.
    10030    2    1    2    0    0  0.00000000000E+00  0.00000000000E+00  0.10510603280E+04  0.14514943315E+04  0.10010534358E+04 0.  0.
        4    1    3    3  502    0 -0.37313681573E+03  0.28992837466E+03  0.76482231010E+03  0.89902409568E+03  0.12699999809E+01 0.  1.
       -4    1    3    3    0  502  0.37313681573E+03 -0.28992837466E+03  0.28623801787E+03  0.55247023581E+03  0.12699999809E+01 0. -1.
</event>
<event>
 5   0  0.3608845E-03  0.1008324E+04  0.7818609E-02  0.9299462E-01
        1   -1    0    0  501    0  0.00000000000E+00  0.00000000000E+00  0.10253979388E+04  0.10253979388E+04  0.50400001928E-02 0. -1.
       -1   -1    0    0    0  501  0.00000000000E+00  0.00000000000E+00 -0.24788372718E+03  0.24788372723E+03  0.50400001928E-02 0.  1.
    10030    2    1    2    0    0  0.00000000000E+00  0.00000000000E+00  0.77751421164E+03  0.12732816661E+04  0.10083242791E+04 0.  0.
        1    1    3    3  502    0 -0.28279265238E+03  0.33985857770E+03  0.69471230250E+03  0.82346871243E+03  0.50400001928E-02 0. -1.
       -1    1    3    3    0  502  0.28279265238E+03 -0.33985857770E+03  0.82801909141E+02  0.44981295363E+03  0.50400001928E-02 0.  1.
</event>
<event>
 5   0  0.2417750E-03  0.1004452E+04  0.7818609E-02  0.9303676E-01
       -3   -1    0    0    0  501  0.00000000000E+00  0.00000000000E+00  0.15844484419E+03  0.15844487638E+03  0.10100000352E+00 0. -1.
        3   -1    0    0  501    0  0.00000000000E+00  0.00000000000E+00 -0.15919150479E+04  0.15919150511E+04  0.10100000352E+00 0.  1.
    10030    2    1    2    0    0  0.00000000000E+00  0.00000000000E+00 -0.14334702037E+04  0.17503599275E+04  0.10044516170E+04 0.  0.
        4    1    3    3  502    0 -0.31415017896E+03  0.23829771689E+03 -0.17469603493E+03  0.43127306238E+03  0.12699999809E+01 0. -1.
       -4    1    3    3    0  502  0.31415017896E+03 -0.23829771689E+03 -0.12587741688E+04  0.13190868651E+04  0.12699999809E+01 0.  1.
</event>
<event>
 5   0  0.3569359E-03  0.1001460E+04  0.7818609E-02  0.9306945E-01
       -1   -1    0    0    0  501  0.00000000000E+00  0.00000000000E+00  0.25072344536E+03  0.25072344541E+03  0.50400001928E-02 0.  1.
        1   -1    0    0  501    0  0.00000000000E+00  0.00000000000E+00 -0.10000289710E+04  0.10000289710E+04  0.50400001928E-02 0. -1.
    10030    2    1    2    0    0  0.00000000000E+00  0.00000000000E+00 -0.74930552559E+03  0.12507524164E+04  0.10014603519E+04 0.  0.
        4    1    3    3  502    0  0.48098882162E+03  0.95565768852E+02 -0.50107267263E+03  0.70111232970E+03  0.12699999809E+01 0. -1.
       -4    1    3    3    0  502 -0.48098882162E+03 -0.95565768852E+02 -0.24823285296E+03  0.54964008668E+03  0.12699999809E+01 0.  1.
</event>
<event>
 5   0  0.6360455E-03  0.9891802E+03  0.7818609E-02  0.9320492E-01
       -2   -1    0    0    0  501  0.00000000000E+00  0.00000000000E+00  0.45987218554E+03  0.45987218555E+03  0.25500000920E-02 0. -1.
        2   -1    0    0  501    0  0.00000000000E+00  0.00000000000E+00 -0.53192906971E+03  0.53192906971E+03  0.25500000920E-02 0.  1.
    10030    2    1    2    0    0  0.00000000000E+00  0.00000000000E+00 -0.72056884166E+02  0.99180125526E+03  0.98918023402E+03 0.  0.
        4    1    3    3  502    0 -0.47988505220E+03  0.74236130976E+02  0.58119800438E+02  0.48906051831E+03  0.12699999809E+01 0. -1.
       -4    1    3    3    0  502  0.47988505220E+03 -0.74236130976E+02 -0.13017668460E+03  0.50274073695E+03  0.12699999809E+01 0.  1.
</event>
<event>
 5   0  0.2417750E-03  0.1013179E+04  0.7818609E-02  0.9294208E-01
        3   -1    0    0  501    0  0.00000000000E+00  0.00000000000E+00  0.73284283566E+03  0.73284284262E+03  0.10100000352E+00 0.  1.
       -3   -1    0    0    0  501  0.00000000000E+00  0.00000000000E+00 -0.35018798229E+03  0.35018799686E+03  0.10100000352E+00 0. -1.
    10030    2    1    2    0    0  0.00000000000E+00  0.00000000000E+00  0.38265485337E+03  0.10830308395E+04  0.10131786923E+04 0.  0.
        3    1    3    3  502    0  0.32012622404E+03 -0.34546551206E+03  0.39075212292E+03  0.61197585828E+03  0.10100000352E+00 0.  1.
       -3    1    3    3    0  502 -0.32012622404E+03  0.34546551206E+03 -0.80972695536E+01  0.47105498121E+03  0.10100000352E+00 0. -1.
</event>
<event>
 5   0  0.6360455E-03  0.9985492E+03  0.7818609E-02  0.9310137E-01
       -2   -1    0    0    0  501  0.00000000000E+00  0.00000000000E+00  0.20674964321E+03  0.20674964323E+03  0.25500000920E-02 0. -1.
        2   -1    0    0  501    0  0.00000000000E+00  0.00000000000E+00 -0.12056859645E+04  0.12056859645E+04  0.25500000920E-02 0.  1.
    10030    2    1    2    0    0  0.00000000000E+00  0.00000000000E+00 -0.99893632132E+03  0.14124356078E+04  0.99854923365E+03 0.  0.
        4    1    3    3  502    0  0.36528625043E+03 -0.33949332384E+03 -0.46529229902E+03  0.68204713776E+03  0.12699999809E+01 0.  1.
       -4    1    3    3    0  502 -0.36528625043E+03  0.33949332384E+03 -0.53364402230E+03  0.73038847001E+03  0.12699999809E+01 0. -1.
</event>
<event>
 5   0  0.3608845E-03  0.1019363E+04  0.7818609E-02  0.9287559E-01
       -1   -1    0    0    0  501  0.00000000000E+00  0.00000000000E+00  0.75848651419E+03  0.75848651421E+03  0.50400001928E-02 0. -1.
        1   -1    0    0  501    0  0.00000000000E+00  0.00000000000E+00 -0.34249181955E+03  0.34249181958E+03  0.50400001928E-02 0.  1.
    10030    2    1    2    0    0  0.00000000000E+00  0.00000000000E+00  0.41599469465E+03  0.11009783338E+04  0.10193633825E+04 0.  0.
        1    1    3    3  502    0 -0.17723644360E+03  0.32945681740E+02  0.72290308122E+03  0.74504163625E+03  0.50400001928E-02 0. -1.
       -1    1    3    3    0  502  0.17723644360E+03 -0.32945681740E+02 -0.30690838657E+03  0.35593669755E+03  0.50400001928E-02 0.  1.
</event>
<event>
 5   0  0.3569359E-03  0.1005647E+04  0.7818609E-02  0.9302373E-01
       -1   -1    0    0    0  501  0.00000000000E+00  0.00000000000E+00  0.11437476978E+03  0.11437476989E+03  0.50400001928E-02 0.  1.
        1   -1    0    0  501    0  0.00000000000E+00  0.00000000000E+00 -0.22105510710E+04  0.22105510710E+04  0.50400001928E-02 0. -1.
    10030    2    1    2    0    0  0.00000000000E+00  0.00000000000E+00 -0.20961763012E+04  0.23249258409E+04  0.10056465979E+04 0.  0.
        4    1    3    3  502    0  0.35452383636E+03 -0.28290140427E+03 -0.15498724295E+04  0.16148766255E+04  0.12699999809E+01 0. -1.
       -4    1    3    3    0  502 -0.35452383636E+03  0.28290140427E+03 -0.54630387175E+03  0.71004921539E+03  0.12699999809E+01 0.  1.
</event>
<event>
 5   0  0.6360455E-03  0.1000256E+04  0.7818609E-02  0.9308264E-01
       -2   -1    0    0    0  501  0.00000000000E+00  0.00000000000E+00  0.10550726114E+04  0.10550726114E+04  0.25500000920E-02 0. -1.
        2   -1    0    0  501    0  0.00000000000E+00  0.00000000000E+00 -0.23707194440E+03  0.23707194441E+03  0.25500000920E-02 0.  1.
    10030    2    1    2    0    0  0.00000000000E+00  0.00000000000E+00  0.81800066702E+03  0.12921445558E+04  0.10002561981E+04 0.  0.
        4    1    3    3  502    0 -0.95139697128E+01 -0.49466740376E+03  0.31459936686E+03  0.58631112091E+03  0.12699999809E+01 0.  1.
       -4    1    3    3    0  502  0.95139697128E+01  0.49466740376E+03  0.50340130015E+03  0.70583343493E+03  0.12699999809E+01 0. -1.
</event>
<event>
 5   0  0.6360455E-03  0.1130548E+04  0.7818609E-02  0.9175919E-01
        2   -1    0    0  501    0  0.00000000000E+00  0.00000000000E+00  0.95389364981E+03  0.95389364981E+03  0.25500000920E-02 0.  1.
       -2   -1    0    0    0  501  0.00000000000E+00  0.00000000000E+00 -0.33497937801E+03  0.33497937802E+03  0.25500000920E-02 0. -1.
    10030    2    1    2    0    0  0.00000000000E+00  0.00000000000E+00  0.61891427180E+03  0.12888730278E+04  0.11305480114E+04 0.  0.
        4    1    3    3  502    0 -0.37518040559E+03 -0.18983820332E+03  0.74016733947E+03  0.85126269946E+03  0.12699999809E+01 0.  1.
       -4    1    3    3    0  502  0.37518040559E+03  0.18983820332E+03 -0.12125306767E+03  0.43761032837E+03  0.12699999809E+01 0. -1.
</event>
<event>
 5   0  0.6022787E-03  0.8225584E+03  0.7818609E-02  0.9527927E-01
       -2   -1    0    0    0  501  0.00000000000E+00  0.00000000000E+00  0.58531994023E+03  0.58531994023E+03  0.25500000920E-02 0. -1.
        2   -1    0    0  501    0  0.00000000000E+00  0.00000000000E+00 -0.28898820842E+03  0.28898820843E+03  0.25500000920E-02 0.  1.
    10030    2    1    2    0    0  0.00000000000E+00  0.00000000000E+00  0.29633173181E+03  0.87430814866E+03  0.82255835266E+03 0.  0.
        5    1    3    3  502    0 -0.75224865325E+02 -0.15492430523E+03 -0.24878369847E+03  0.30261483661E+03  0.46999998093E+01 0.  1.
       -5    1    3    3    0  502  0.75224865325E+02  0.15492430523E+03  0.54511543028E+03  0.57169331205E+03  0.46999998093E+01 0. -1.
</event>
<event>
 5   0  0.6606947E-03  0.9836623E+03  0.7818609E-02  0.9326647E-01
        2   -1    0    0  501    0  0.00000000000E+00  0.00000000000E+00  0.40000329183E+03  0.40000329184E+03  0.25500000920E-02 0.  1.
       -2   -1    0    0    0  501  0.00000000000E+00  0.00000000000E+00 -0.60473973968E+03  0.60473973968E+03  0.25500000920E-02 0. -1.
    10030    2    1    2    0    0  0.00000000000E+00  0.00000000000E+00 -0.20473644785E+03  0.10047430315E+04  0.98366231315E+03 0.  0.
        1    1    3    3  502    0  0.33050366756E+03 -0.33191331322E+03 -0.25557864558E+03  0.53359119733E+03  0.50400001928E-02 0. -1.
       -1    1    3    3    0  502 -0.33050366756E+03  0.33191331322E+03  0.50842197731E+02  0.47115183419E+03  0.50400001928E-02 0.  1.
</event>
<event>
 5   0  0.3640180E-03  0.9908748E+03  0.7818609E-02  0.9318610E-01
        1   -1    0    0  501    0  0.00000000000E+00  0.00000000000E+00  0.57132735367E+03  0.57132735369E+03  0.50400001928E-02 0.  1.
       -1   -1    0    0    0  501  0.00000000000E+00  0.00000000000E+00 -0.42962800100E+03  0.42962800103E+03  0.50400001928E-02 0. -1.
    10030    2    1    2    0    0  0.00000000000E+00  0.00000000000E+00  0.14169935266E+03  0.10009553547E+04  0.99087482338E+03 0.  0.
        5    1    3    3  502    0  0.42920965261E+03  0.11760030334E+03  0.29074606898E+03  0.53160711420E+03  0.46999998093E+01 0.  1.
       -5    1    3    3    0  502 -0.42920965261E+03 -0.11760030334E+03 -0.14904671631E+03  0.46934824052E+03  0.46999998093E+01 0. -1.
</event>
<event>
 5   0  0.6022787E-03  0.1011940E+04  0.7818609E-02  0.9295546E-01
       -2   -1    0    0    0  501  0.00000000000E+00  0.00000000000E+00  0.64433935487E+03  0.64433935488E+03  0.25500000920E-02 0. -1.
        2   -1    0    0  501    0  0.00000000000E+00  0.00000000000E+00 -0.39731467456E+03  0.39731467457E+03  0.25500000920E-02 0.  1.
    10030    2    1    2    0    0  0.00000000000E+00  0.00000000000E+00  0.24702468031E+03  0.10416540294E+04  0.10119396842E+04 0.  0.
        5    1    3    3  502    0  0.36609820501E+03 -0.27700069115E+03 -0.95396600825E+02  0.46891351021E+03  0.46999998093E+01 0. -1.
       -5    1    3    3    0  502 -0.36609820501E+03  0.27700069115E+03  0.34242128113E+03  0.57274051924E+03  0.46999998093E+01 0.  1.
</event>
<event>
 5   0  0.3643002E-03  0.9791651E+03  0.7818609E-02  0.9331696E-01
        1   -1    0    0  501    0  0.00000000000E+00  0.00000000000E+00  0.78609809160E+03  0.78609809162E+03  0.50400001928E-02 0. -1.
       -1   -1    0    0    0  501  0.00000000000E+00  0.00000000000E+00 -0.30491240169E+03  0.30491240173E+03  0.50400001928E-02 0.  1.
    10030    2    1    2    0    0  0.00000000000E+00  0.00000000000E+00  0.48118568991E+03  0.10910104933E+04  0.97916506699E+03 0.  0.
        2    1    3    3  502    0 -0.38929270921E+03 -0.15763547956E+03  0.52091142450E+03  0.66913860301E+03  0.25500000920E-02 0. -1.
       -2    1    3    3    0  502  0.38929270921E+03  0.15763547956E+03 -0.39725734586E+02  0.42187189034E+03  0.25500000920E-02 0.  1.
</event>
<event>
 5   0  0.6022787E-03  0.9926254E+03  0.7818609E-02  0.9316670E-01
        2   -1    0    0  501    0  0.00000000000E+00  0.00000000000E+00  0.20740896400E+03  0.20740896402E+03  0.25500000920E-02 0.  1.
       -2   -1    0    0    0  501  0.00000000000E+00  0.00000000000E+00 -0.11876356523E+04  0.11876356523E+04  0.25500000920E-02 0. -1.
    10030    2    1    2    0    0  0.00000000000E+00  0.00000000000E+00 -0.98022668826E+03  0.13950446163E+04  0.99262536793E+03 0.  0.
        5    1    3    3  502    0  0.44285520237E+03 -0.97114524383E+02 -0.77382580598E+03  0.89687258243E+03  0.46999998093E+01 0. -1.
       -5    1    3    3    0  502 -0.44285520237E+03  0.97114524383E+02 -0.20640088228E+03  0.49817203386E+03  0.46999998093E+01 0.  1.
</event>
<event>
 5   0  0.3466598E-03  0.9991964E+03  0.7818609E-02  0.9309427E-01
        1   -1    0    0  501    0  0.00000000000E+00  0.00000000000E+00  0.12764580865E+04  0.12764580866E+04  0.50400001928E-02 0.  1.
       -1   -1    0    0    0  501  0.00000000000E+00  0.00000000000E+00 -0.19553980695E+03  0.19553980702E+03  0.50400001928E-02 0. -1.
    10030    2    1    2    0    0  0.00000000000E+00  0.00000000000E+00  0.10809182796E+04  0.14719978936E+04  0.99919641288E+03 0.  0.
        3    1    3    3  502    0 -0.47047831040E+03 -0.16482111821E+03  0.49198908535E+03  0.70040639051E+03  0.10100000352E+00 0.  1.
       -3    1    3    3    0  502  0.47047831040E+03  0.16482111821E+03  0.58892919424E+03  0.77159150306E+03  0.10100000352E+00 0. -1.
</event>
<event>
 5   0  0.3569359E-03  0.9988416E+03  0.7818609E-02  0.9309816E-01
        1   -1    0    0  501    0  0.00000000000E+00  0.00000000000E+00  0.22917721210E+04  0.22917721210E+04  0.50400001928E-02 0. -1.
       -1   -1    0    0    0  501  0.00000000000E+00  0.00000000000E+00 -0.10883330939E+03  0.10883330951E+03  0.50400001928E-02 0.  1.
    10030    2    1    2    0    0  0.00000000000E+00  0.00000000000E+00  0.21829388116E+04  0.24006054305E+04  0.99884161795E+03 0.  0.
        4    1    3    3  502    0 -0.46714528498E+03  0.17582490412E+03  0.10512230468E+04  0.11637055561E+04  0.12699999809E+01 0.  1.
       -4    1    3    3    0  502  0.46714528498E+03 -0.17582490412E+03  0.11317157648E+04  0.12368998744E+04  0.12699999809E+01 0. -1.
</event>
<event>
 5   0  0.3466598E-03  0.9785794E+03  0.7818609E-02  0.9332356E-01
       -1   -1    0    0    0  501  0.00000000000E+00  0.00000000000E+00  0.45281216839E+03  0.45281216841E+03  0.50400001928E-02 0. -1.
        1   -1    0    0  501    0  0.00000000000E+00  0.00000000000E+00 -0.52870574683E+03  0.52870574685E+03  0.50400001928E-02 0.  1.
    10030    2    1    2    0    0  0.00000000000E+00  0.00000000000E+00 -0.75893578443E+02  0.98151791527E+03  0.97857936967E+03 0.  0.
        3    1    3    3  502    0  0.28397969413E+02  0.39359484433E+03 -0.32809220154E+03  0.51319377341E+03  0.10100000352E+00 0.  1.
       -3    1    3    3    0  502 -0.28397969413E+02 -0.39359484433E+03  0.25219862310E+03  0.46832414186E+03  0.10100000352E+00 0. -1.
</event>
<event>
 5   0  0.3466598E-03  0.1006098E+04  0.7818609E-02  0.9301881E-01
        1   -1    0    0  501    0  0.00000000000E+00  0.00000000000E+00  0.96533400594E+03  0.96533400596E+03  0.50400001928E-02 0. -1.
       -1   -1    0    0    0  501  0.00000000000E+00  0.00000000000E+00 -0.26214610024E+03  0.26214610029E+03  0.50400001928E-02 0.  1.
    10030    2    1    2    0    0  0.00000000000E+00  0.00000000000E+00  0.70318790570E+03  0.12274801062E+04  0.10060984944E+04 0.  0.
        3    1    3    3  502    0 -0.44617825531E+03 -0.22738448274E+03  0.29334045640E+03  0.58036830725E+03  0.10100000352E+00 0. -1.
       -3    1    3    3    0  502  0.44617825531E+03  0.22738448274E+03  0.40984744930E+03  0.64711179899E+03  0.10100000352E+00 0.  1.
</event>
<event>
 5   0  0.6199539E-03  0.9920978E+03  0.7818609E-02  0.9317255E-01
       -2   -1    0    0    0  501  0.00000000000E+00  0.00000000000E+00  0.27294535752E+03  0.27294535753E+03  0.25500000920E-02 0.  1.
        2   -1    0    0  501    0  0.00000000000E+00  0.00000000000E+00 -0.90151555969E+03  0.90151555969E+03  0.25500000920E-02 0. -1.
    10030    2    1    2    0    0  0.00000000000E+00  0.00000000000E+00 -0.62857020217E+03  0.11744609172E+04  0.99209775073E+03 0.  0.
        2    1    3    3  502    0 -0.13225976251E+03  0.34542954693E+03  0.77001848988E+02  0.37781410962E+03  0.25500000920E-02 0.  1.
       -2    1    3    3    0  502  0.13225976251E+03 -0.34542954693E+03 -0.70557205116E+03  0.79664680760E+03  0.25500000920E-02 0. -1.
</event>
<event>
 5   0  0.3640180E-03  0.9974124E+03  0.7818609E-02  0.9311387E-01
        1   -1    0    0  501    0  0.00000000000E+00  0.00000000000E+00  0.47726406764E+03  0.47726406767E+03  0.50400001928E-02 0.  1.
       -1   -1    0    0    0  501  0.00000000000E+00  0.00000000000E+00 -0.52111164723E+03  0.52111164725E+03  0.50400001928E-02 0. -1.
    10030    2    1    2    0    0  0.00000000000E+00  0.00000000000E+00 -0.43847579590E+02  0.99837571492E+03  0.99741238107E+03 0.  0.
        5    1    3    3  502    0 -0.35990087113E+02 -0.19624239963E+03 -0.47939847633E+03  0.51927964999E+03  0.46999998093E+01 0. -1.
       -5    1    3    3    0  502  0.35990087113E+02  0.19624239963E+03  0.43555089674E+03  0.47909606493E+03  0.46999998093E+01 0.  1.
</event>
<event>
 5   0  0.3643002E-03  0.1004319E+04  0.7818609E-02  0.9303821E-01
        1   -1    0    0  501    0  0.00000000000E+00  0.00000000000E+00  0.68298199538E+03  0.68298199540E+03  0.50400001928E-02 0.  1.
       -1   -1    0    0    0  501  0.00000000000E+00  0.00000000000E+00 -0.36921045946E+03  0.36921045949E+03  0.50400001928E-02 0. -1.
    10030    2    1    2    0    0  0.00000000000E+00  0.00000000000E+00  0.31377153592E+03  0.10521924549E+04  0.10043188664E+04 0.  0.
        2    1    3    3  502    0  0.10980476902E+03 -0.48590450630E+03  0.90593813524E+02  0.50632747861E+03  0.25500000920E-02 0. -1.
       -2    1    3    3    0  502 -0.10980476902E+03  0.48590450630E+03  0.22317772239E+03  0.54586497627E+03  0.25500000920E-02 0.  1.
</event>
<event>
 5   0  0.3466598E-03  0.1002414E+04  0.7818609E-02  0.9305901E-01
       -1   -1    0    0    0  501  0.00000000000E+00  0.00000000000E+00  0.28391446439E+03  0.28391446444E+03  0.50400001928E-02 0. -1.
        1   -1    0    0  501    0  0.00000000000E+00  0.00000000000E+00 -0.88480284494E+03  0.88480284495E+03  0.50400001928E-02 0.  1.
    10030    2    1    2    0    0  0.00000000000E+00  0.00000000000E+00 -0.60088838054E+03  0.11687173094E+04  0.10024137386E+04 0.  0.
        3    1    3    3  502    0 -0.20750350101E+03 -0.40421404960E+03 -0.53774755390E+02  0.45753517389E+03  0.10100000352E+00 0. -1.
       -3    1    3    3    0  502  0.20750350101E+03  0.40421404960E+03 -0.54711362515E+03  0.71118213550E+03  0.10100000352E+00 0.  1.
</event>
<event>
 5   0  0.6606947E-03  0.1005651E+04  0.7818609E-02  0.9302369E-01
        2   -1    0    0  501    0  0.00000000000E+00  0.00000000000E+00  0.72684702941E+03  0.72684702941E+03  0.25500000920E-02 0.  1.
       -2   -1    0    0    0  501  0.00000000000E+00  0.00000000000E+00 -0.34784938473E+03  0.34784938474E+03  0.25500000920E-02 0. -1.
    10030    2    1    2    0    0  0.00000000000E+00  0.00000000000E+00  0.37899764468E+03  0.10746964142E+04  0.10056506192E+04 0.  0.
        1    1    3    3  502    0 -0.26184370066E+03 -0.70008627654E+01 -0.26918096780E+03  0.37559223782E+03  0.50400001928E-02 0. -1.
       -1    1    3    3    0  502  0.26184370066E+03  0.70008627654E+01  0.64817861248E+03  0.69910417633E+03  0.50400001928E-02 0.  1.
</event>
<event>
 5   0  0.6199539E-03  0.9995663E+03  0.7818609E-02  0.9309021E-01
        2   -1    0    0  501    0  0.00000000000E+00  0.00000000000E+00  0.12917318656E+04  0.12917318656E+04  0.25500000920E-02 0.  1.
       -2   -1    0    0    0  501  0.00000000000E+00  0.00000000000E+00 -0.19337077764E+03  0.19337077765E+03  0.25500000920E-02 0. -1.
    10030    2    1    2    0    0  0.00000000000E+00  0.00000000000E+00  0.10983610879E+04  0.14851026432E+04  0.99956629667E+03 0.  0.
        2    1    3    3  502    0  0.35104420622E+03 -0.16620293555E+03  0.10164893031E+04  0.10881663263E+04  0.25500000920E-02 0.  1.
       -2    1    3    3    0  502 -0.35104420622E+03  0.16620293555E+03  0.81871784868E+02  0.39693631690E+03  0.25500000920E-02 0. -1.
</event>
<event>
 5   0  0.3466598E-03  0.9617626E+03  0.7818609E-02  0.9351507E-01
        1   -1    0    0  501    0  0.00000000000E+00  0.00000000000E+00  0.10680811545E+04  0.10680811545E+04  0.50400001928E-02 0.  1.
       -1   -1    0    0    0  501  0.00000000000E+00  0.00000000000E+00 -0.21650677879E+03  0.21650677885E+03  0.50400001928E-02 0. -1.
    10030    2    1    2    0    0  0.00000000000E+00  0.00000000000E+00  0.85157437569E+03  0.12845879333E+04  0.96176257005E+03 0.  0.
        3    1    3    3  502    0 -0.17379130800E+02 -0.26925368962E+02  0.10666532803E+04  0.10671345933E+04  0.10100000352E+00 0.  1.
       -3    1    3    3    0  502  0.17379130800E+02  0.26925368962E+02 -0.21507890460E+03  0.21745334002E+03  0.10100000352E+00 0. -1.
</event>
<event>
 5   0  0.6606947E-03  0.9999440E+03  0.7818609E-02  0.9308606E-01
       -2   -1    0    0    0  501  0.00000000000E+00  0.00000000000E+00  0.97082455873E+03  0.97082455873E+03  0.25500000920E-02 0.  1.
        2   -1    0    0  501    0  0.00000000000E+00  0.00000000000E+00 -0.25748422604E+03  0.25748422605E+03  0.25500000920E-02 0. -1.
    10030    2    1    2    0    0  0.00000000000E+00  0.00000000000E+00  0.71334033268E+03  0.12283087848E+04  0.99994401870E+03 0.  0.
        1    1    3    3  502    0  0.23768460972E+03 -0.17833135729E+03  0.85058787766E+03  0.90099710562E+03  0.50400001928E-02 0.  1.
       -1    1    3    3    0  502 -0.23768460972E+03  0.17833135729E+03 -0.13724754497E+03  0.32731167916E+03  0.50400001928E-02 0. -1.
</event>
<event>
 5   0  0.3608845E-03  0.9982236E+03  0.7818609E-02  0.9310495E-01
        1   -1    0    0  501    0  0.00000000000E+00  0.00000000000E+00  0.72242151732E+03  0.72242151734E+03  0.50400001928E-02 0.  1.
       -1   -1    0    0    0  501  0.00000000000E+00  0.00000000000E+00 -0.34482993406E+03  0.34482993410E+03  0.50400001928E-02 0. -1.
    10030    2    1    2    0    0  0.00000000000E+00  0.00000000000E+00  0.37759158327E+03  0.10672514514E+04  0.99822355054E+03 0.  0.
        1    1    3    3  502    0  0.21190953744E+03 -0.48206826579E+02  0.66918012155E+03  0.70358481031E+03  0.50400001928E-02 0.  1.
       -1    1    3    3    0  502 -0.21190953744E+03  0.48206826579E+02 -0.29158853829E+03  0.36366664113E+03  0.50400001928E-02 0. -1.
</event>
<event>
 5   0  0.3466598E-03  0.9985444E+03  0.7818609E-02  0.9310143E-01
       -1   -1    0    0    0  501  0.00000000000E+00  0.00000000000E+00  0.16970399763E+03  0.16970399771E+03  0.50400001928E-02 0. -1.
        1   -1    0    0  501    0  0.00000000000E+00  0.00000000000E+00 -0.14688678463E+04  0.14688678463E+04  0.50400001928E-02 0.  1.
    10030    2    1    2    0    0  0.00000000000E+00  0.00000000000E+00 -0.12991638486E+04  0.16385718440E+04  0.99854443180E+03 0.  0.
        3    1    3    3  502    0 -0.81083043561E+02  0.49133156247E+03 -0.59060837604E+03  0.77252794660E+03  0.10100000352E+00 0.  1.
       -3    1    3    3    0  502  0.81083043561E+02 -0.49133156247E+03 -0.70855547259E+03  0.86604389737E+03  0.10100000352E+00 0. -1.
</event>
<event>
 5   0  0.6360455E-03  0.1010058E+04  0.7818609E-02  0.9297582E-01
       -2   -1    0    0    0  501  0.00000000000E+00  0.00000000000E+00  0.35910801302E+03  0.35910801302E+03  0.25500000920E-02 0.  1.
        2   -1    0    0  501    0  0.00000000000E+00  0.00000000000E+00 -0.71024351988E+03  0.71024351988E+03  0.25500000920E-02 0. -1.
    10030    2    1    2    0    0  0.00000000000E+00  0.00000000000E+00 -0.35113550686E+03  0.10693515329E+04  0.10100576997E+04 0.  0.
        4    1    3    3  502    0  0.17882926912E+03  0.12362398868E+03  0.30703117161E+03  0.37620812233E+03  0.12699999809E+01 0.  1.
       -4    1    3    3    0  502 -0.17882926912E+03 -0.12362398868E+03 -0.65816667847E+03  0.69314341057E+03  0.12699999809E+01 0. -1.
</event>
<event>
 5   0  0.2417750E-03  0.1003223E+04  0.7818609E-02  0.9305017E-01
       -4   -1    0    0    0  501  0.00000000000E+00  0.00000000000E+00  0.13657608187E+04  0.13657614091E+04  0.12699999809E+01 0.  1.
        4   -1    0    0  501    0  0.00000000000E+00  0.00000000000E+00 -0.18422716506E+03  0.18423154249E+03  0.12699999809E+01 0. -1.
    10030    2    1    2    0    0  0.00000000000E+00  0.00000000000E+00  0.11815336536E+04  0.15499929516E+04  0.10032229939E+04 0.  0.
        4    1    3    3  502    0 -0.37270200921E+03  0.19418942292E+03  0.16765831431E+03  0.45246794682E+03  0.12699999809E+01 0. -1.
       -4    1    3    3    0  502  0.37270200921E+03 -0.19418942292E+03  0.10138753393E+04  0.10975250048E+04  0.12699999809E+01 0.  1.
</event>
<event>
 5   0  0.2417750E-03  0.9985532E+03  0.7818609E-02  0.9310133E-01
        3   -1    0    0  501    0  0.00000000000E+00  0.00000000000E+00  0.90084029995E+03  0.90084030561E+03  0.10100000352E+00 0.  1.
       -3   -1    0    0    0  501  0.00000000000E+00  0.00000000000E+00 -0.27671622197E+03  0.27671624040E+03  0.10100000352E+00 0. -1.
    10030    2    1    2    0    0  0.00000000000E+00  0.00000000000E+00  0.62412407798E+03  0.11775565460E+04  0.99855323060E+03 0.  0.
        4    1    3    3  502    0 -0.19360281487E+03 -0.28867138418E+03  0.73472910553E+03  0.81279867703E+03  0.12699999809E+01 0.  1.
       -4    1    3    3    0  502  0.19360281487E+03  0.28867138418E+03 -0.11060502755E+03  0.36475786898E+03  0.12699999809E+01 0. -1.
</event>
<event>
 5   0  0.6606947E-03  0.1010390E+04  0.7818609E-02  0.9297222E-01
        2   -1    0    0  501    0  0.00000000000E+00  0.00000000000E+00  0.19974061395E+03  0.19974061397E+03  0.25500000920E-02 0.  1.
       -2   -1    0    0    0  501  0.00000000000E+00  0.00000000000E+00 -0.12777676711E+04  0.12777676711E+04  0.25500000920E-02 0. -1.
    10030    2    1    2    0    0  0.00000000000E+00  0.00000000000E+00 -0.10780270571E+04  0.14775082850E+04  0.10103902199E+04 0.  0.
        1    1    3    3  502    0 -0.15269698438E+03  0.29922314228E+02 -0.12418536468E+04  0.12515638993E+04  0.50400001928E-02 0. -1.
       -1    1    3    3    0  502  0.15269698438E+03 -0.29922314228E+02  0.16382658970E+03  0.22594438573E+03  0.50400001928E-02 0.  1.
</event>
<event>
 5   0  0.6022787E-03  0.9929068E+03  0.7818609E-02  0.9316359E-01
        2   -1    0    0  501    0  0.00000000000E+00  0.00000000000E+00  0.32564898239E+03  0.32564898240E+03  0.25500000920E-02 0.  1.
       -2   -1    0    0    0  501  0.00000000000E+00  0.00000000000E+00 -0.75684554347E+03  0.75684554347E+03  0.25500000920E-02 0. -1.
    10030    2    1    2    0    0  0.00000000000E+00  0.00000000000E+00 -0.43119656108E+03  0.10824945259E+04  0.99290680542E+03 0.  0.
        5    1    3    3  502    0  0.27797764228E+03  0.27324544428E+03  0.11956341337E+03  0.40774028774E+03  0.46999998093E+01 0.  1.
       -5    1    3    3    0  502 -0.27797764228E+03 -0.27324544428E+03 -0.55075997445E+03  0.67475423813E+03  0.46999998093E+01 0. -1.
</event>
<event>
 5   0  0.6360455E-03  0.1009287E+04  0.7818609E-02  0.9298417E-01
       -2   -1    0    0    0  501  0.00000000000E+00  0.00000000000E+00  0.46617276350E+03  0.46617276351E+03  0.25500000920E-02 0.  1.
        2   -1    0    0  501    0  0.00000000000E+00  0.00000000000E+00 -0.54628913632E+03  0.54628913632E+03  0.25500000920E-02 0. -1.
    10030    2    1    2    0    0  0.00000000000E+00  0.00000000000E+00 -0.80116372814E+02  0.10124618998E+04  0.10092871075E+04 0.  0.
        4    1    3    3  502    0 -0.26508669267E+03 -0.32742068989E+03  0.23864346021E+03  0.48417721631E+03  0.12699999809E+01 0.  1.
       -4    1    3    3    0  502  0.26508669267E+03  0.32742068989E+03 -0.31875983302E+03  0.52828468352E+03  0.12699999809E+01 0. -1.
</event>
<event>
 5   0  0.3466598E-03  0.1000518E+04  0.7818609E-02  0.9307977E-01
       -1   -1    0    0    0  501  0.00000000000E+00  0.00000000000E+00  0.14122772472E+03  0.14122772481E+03  0.50400001928E-02 0.  1.
        1   -1    0    0  501    0  0.00000000000E+00  0.00000000000E+00 -0.17720248783E+04  0.17720248783E+04  0.50400001928E-02 0. -1.
    10030    2    1    2    0    0  0.00000000000E+00  0.00000000000E+00 -0.16307971536E+04  0.19132526031E+04  0.10005179495E+04 0.  0.
        3    1    3    3  502    0 -0.49468272161E+03  0.58316485083E+02 -0.72678788717E+03  0.88109729919E+03  0.10100000352E+00 0. -1.
       -3    1    3    3    0  502  0.49468272161E+03 -0.58316485083E+02 -0.90400926641E+03  0.10321553039E+04  0.10100000352E+00 0.  1.
</event>
<event>
 5   0  0.3466598E-03  0.9942247E+03  0.7818609E-02  0.9314902E-01
        1   -1    0    0  501    0  0.00000000000E+00  0.00000000000E+00  0.40844319644E+03  0.40844319647E+03  0.50400001928E-02 0. -1.
       -1   -1    0    0    0  501  0.00000000000E+00  0.00000000000E+00 -0.60503072960E+03  0.60503072962E+03  0.50400001928E-02 0.  1.
    10030    2    1    2    0    0  0.00000000000E+00  0.00000000000E+00 -0.19658753315E+03  0.10134739261E+04  0.99422469325E+03 0.  0.
        3    1    3    3  502    0 -0.11558680474E+03 -0.65869235789E+02 -0.58654707585E+03  0.60144538243E+03  0.10100000352E+00 0.  1.
       -3    1    3    3    0  502  0.11558680474E+03  0.65869235789E+02  0.38995954270E+03  0.41202854366E+03  0.10100000352E+00 0. -1.
</event>
<event>
 5   0  0.6376961E-03  0.9949061E+03  0.7818609E-02  0.9314149E-01
       -2   -1    0    0    0  501  0.00000000000E+00  0.00000000000E+00  0.37810989484E+03  0.37810989485E+03  0.25500000920E-02 0.  1.
        2   -1    0    0  501    0  0.00000000000E+00  0.00000000000E+00 -0.65446455429E+03  0.65446455430E+03  0.25500000920E-02 0. -1.
    10030    2    1    2    0    0  0.00000000000E+00  0.00000000000E+00 -0.27635465946E+03  0.10325744491E+04  0.99490607357E+03 0.  0.
        3    1    3    3  502    0 -0.47996520376E+03 -0.34319105150E+02 -0.26910884495E+03  0.55132928312E+03  0.10100000352E+00 0. -1.
       -3    1    3    3    0  502  0.47996520376E+03  0.34319105150E+02 -0.72458145121E+01  0.48124516603E+03  0.10100000352E+00 0.  1.
</event>
<event>
 5   0  0.6360455E-03  0.9614405E+03  0.7818609E-02  0.9351877E-01
        2   -1    0    0  501    0  0.00000000000E+00  0.00000000000E+00  0.56062009872E+03  0.56062009872E+03  0.25500000920E-02 0. -1.
       -2   -1    0    0    0  501  0.00000000000E+00  0.00000000000E+00 -0.41220773539E+03  0.41220773540E+03  0.25500000920E-02 0.  1.
    10030    2    1    2    0    0  0.00000000000E+00  0.00000000000E+00  0.14841236333E+03  0.97282783412E+03  0.96144046370E+03 0.  0.
        4    1    3    3  502    0  0.44605975627E+03  0.11397176217E+03 -0.65748569097E+02  0.46506274413E+03  0.12699999809E+01 0.  1.
       -4    1    3    3    0  502 -0.44605975627E+03 -0.11397176217E+03  0.21416093243E+03  0.50776508999E+03  0.12699999809E+01 0. -1.
</event>
<event>
 5   0  0.3643002E-03  0.9909280E+03  0.7818609E-02  0.9318551E-01
       -1   -1    0    0    0  501  0.00000000000E+00  0.00000000000E+00  0.36226688800E+03  0.36226688803E+03  0.50400001928E-02 0. -1.
        1   -1    0    0  501    0  0.00000000000E+00  0.00000000000E+00 -0.67763461342E+03  0.67763461344E+03  0.50400001928E-02 0.  1.
    10030    2    1    2    0    0  0.00000000000E+00  0.00000000000E+00 -0.31536772542E+03  0.10399015015E+04  0.99092801480E+03 0.  0.
        2    1    3    3  502    0 -0.44445515235E+02  0.25229182087E+03  0.28737248306E+03  0.38497988354E+03  0.25500000920E-02 0. -1.
       -2    1    3    3    0  502  0.44445515235E+02 -0.25229182087E+03 -0.60274020848E+03  0.65492161793E+03  0.25500000920E-02 0.  1.
</event>
<event>
 5   0  0.3608845E-03  0.1019055E+04  0.7818609E-02  0.9287889E-01
        1   -1    0    0  501    0  0.00000000000E+00  0.00000000000E+00  0.14826765372E+04  0.14826765372E+04  0.50400001928E-02 0.  1.
       -1   -1    0    0    0  501  0.00000000000E+00  0.00000000000E+00 -0.17510107418E+03  0.17510107426E+03  0.50400001928E-02 0. -1.
    10030    2    1    2    0    0  0.00000000000E+00  0.00000000000E+00  0.13075754630E+04  0.16577776115E+04  0.10190549630E+04 0.  0.
        1    1    3    3  502    0  0.14085523707E+02  0.36806739298E+03  0.12265116907E+04  0.12806259935E+04  0.50400001928E-02 0.  1.
       -1    1    3    3    0  502 -0.14085523707E+02 -0.36806739298E+03  0.81063772354E+02  0.37715161801E+03  0.50400001928E-02 0. -1.
</event>
<event>
 5   0  0.3643002E-03  0.1001376E+04  0.7818609E-02  0.9307037E-01
       -1   -1    0    0    0  501  0.00000000000E+00  0.00000000000E+00  0.52839808686E+03  0.52839808688E+03  0.50400001928E-02 0.  1.
        1   -1    0    0  501    0  0.00000000000E+00  0.00000000000E+00 -0.47443136275E+03  0.47443136277E+03  0.50400001928E-02 0. -1.
    10030    2    1    2    0    0  0.00000000000E+00  0.00000000000E+00  0.53966724114E+02  0.10028294497E+04  0.10013763018E+04 0.  0.
        2    1    3    3  502    0 -0.40935693715E+03 -0.21093029569E+03  0.22379828129E+03  0.51200621319E+03  0.25500000920E-02 0.  1.
       -2    1    3    3    0  502  0.40935693715E+03  0.21093029569E+03 -0.16983155718E+03  0.49082323646E+03  0.25500000920E-02 0. -1.
</event>
<event>
 5   0  0.2417750E-03  0.9882150E+03  0.7818609E-02  0.9321566E-01
       -3   -1    0    0    0  501  0.00000000000E+00  0.00000000000E+00  0.18330284408E+04  0.18330284435E+04  0.10100000352E+00 0. -1.
        3   -1    0    0  501    0  0.00000000000E+00  0.00000000000E+00 -0.13319062128E+03  0.13319065958E+03  0.10100000352E+00 0.  1.
    10030    2    1    2    0    0  0.00000000000E+00  0.00000000000E+00  0.16998378195E+04  0.19662191031E+04  0.98821503173E+03 0.  0.
        1    1    3    3  502    0 -0.52958392821E+02 -0.31259030067E+03  0.95877146177E+02  0.33122456828E+03  0.50400001928E-02 0.  1.
       -1    1    3    3    0  502  0.52958392821E+02  0.31259030067E+03  0.16039606733E+04  0.16349945348E+04  0.50400001928E-02 0. -1.
</event>
<event>
 5   0  0.6360455E-03  0.9678639E+03  0.7818609E-02  0.9344511E-01
       -2   -1    0    0    0  501  0.00000000000E+00  0.00000000000E+00  0.23263775128E+03  0.23263775129E+03  0.25500000920E-02 0.  1.
        2   -1    0    0  501    0  0.00000000000E+00  0.00000000000E+00 -0.10066729249E+04  0.10066729249E+04  0.25500000920E-02 0. -1.
    10030    2    1    2    0    0  0.00000000000E+00  0.00000000000E+00 -0.77403517367E+03  0.12393106762E+04  0.96786388618E+03 0.  0.
        4    1    3    3  502    0  0.30748309646E+02  0.80681058328E+02 -0.99672835823E+03  0.10004618557E+04  0.12699999809E+01 0. -1.
       -4    1    3    3    0  502 -0.30748309646E+02 -0.80681058328E+02  0.22269318456E+03  0.23884882053E+03  0.12699999809E+01 0.  1.
</event>
<event>
 5   0  0.6360455E-03  0.1003173E+04  0.7818609E-02  0.9305071E-01
        2   -1    0    0  501    0  0.00000000000E+00  0.00000000000E+00  0.77649426943E+03  0.77649426944E+03  0.25500000920E-02 0. -1.
       -2   -1    0    0    0  501  0.00000000000E+00  0.00000000000E+00 -0.32400656906E+03  0.32400656907E+03  0.25500000920E-02 0.  1.
    10030    2    1    2    0    0  0.00000000000E+00  0.00000000000E+00  0.45248770037E+03  0.11005008385E+04  0.10031734529E+04 0.  0.
        4    1    3    3  502    0  0.33356748073E+03 -0.31196030624E+03  0.45372965575E+03  0.64378467695E+03  0.12699999809E+01 0. -1.
       -4    1    3    3    0  502 -0.33356748073E+03  0.31196030624E+03 -0.12419553796E+01  0.45671616155E+03  0.12699999809E+01 0.  1.
</event>
<event>
 5   0  0.6022787E-03  0.9993002E+03  0.7818609E-02  0.9309313E-01
        2   -1    0    0  501    0  0.00000000000E+00  0.00000000000E+00  0.23299014857E+04  0.23299014857E+04  0.25500000920E-02 0.  1.
       -2   -1    0    0    0  501  0.00000000000E+00  0.00000000000E+00 -0.10715054929E+03  0.10715054932E+03  0.25500000920E-02 0. -1.
    10030    2    1    2    0    0  0.00000000000E+00  0.00000000000E+00  0.22227509364E+04  0.24370520351E+04  0.99930020319E+03 0.  0.
        5    1    3    3  502    0 -0.49127434807E+03  0.58022922335E+02  0.94047103576E+03  0.10626499911E+04  0.46999998093E+01 0.  1.
       -5    1    3    3    0  502  0.49127434807E+03 -0.58022922335E+02  0.12822799007E+04  0.13744020439E+04  0.46999998093E+01 0. -1.
</event>
<event>
 5   0  0.3466598E-03  0.1007603E+04  0.7818609E-02  0.9300245E-01
       -1   -1    0    0    0  501  0.00000000000E+00  0.00000000000E+00  0.57008503274E+03  0.57008503276E+03  0.50400001928E-02 0.  1.
        1   -1    0    0  501    0  0.00000000000E+00  0.00000000000E+00 -0.44522486752E+03  0.44522486755E+03  0.50400001928E-02 0. -1.
    10030    2    1    2    0    0  0.00000000000E+00  0.00000000000E+00  0.12486016521E+03  0.10153099003E+04  0.10076031624E+04 0.  0.
        3    1    3    3  502    0 -0.58489378727E+02  0.33259995061E+03 -0.31429074978E+03  0.46132680408E+03  0.10100000352E+00 0. -1.
       -3    1    3    3    0  502  0.58489378727E+02 -0.33259995061E+03  0.43915091499E+03  0.55398309623E+03  0.10100000352E+00 0.  1.
</event>
<event>
 5   0  0.3643002E-03  0.1002453E+04  0.7818609E-02  0.9305859E-01
       -1   -1    0    0    0  501  0.00000000000E+00  0.00000000000E+00  0.55699310211E+03  0.55699310213E+03  0.50400001928E-02 0. -1.
        1   -1    0    0  501    0  0.00000000000E+00  0.00000000000E+00 -0.45104319357E+03  0.45104319360E+03  0.50400001928E-02 0.  1.
    10030    2    1    2    0    0  0.00000000000E+00  0.00000000000E+00  0.10594990854E+03  0.10080362957E+04  0.10024528869E+04 0.  0.
        2    1    3    3  502    0 -0.15463587153E+03 -0.26444974740E+03  0.45189858650E+03  0.54594711662E+03  0.25500000920E-02 0. -1.
       -2    1    3    3    0  502  0.15463587153E+03  0.26444974740E+03 -0.34594867796E+03  0.46208917911E+03  0.25500000920E-02 0.  1.
</event>
<event>
 5   0  0.6606947E-03  0.9902152E+03  0.7818609E-02  0.9319342E-01
       -2   -1    0    0    0  501  0.00000000000E+00  0.00000000000E+00  0.94107157868E+02  0.94107157903E+02  0.25500000920E-02 0.  1.
        2   -1    0    0  501    0  0.00000000000E+00  0.00000000000E+00 -0.26048128126E+04  0.26048128126E+04  0.25500000920E-02 0. -1.
    10030    2    1    2    0    0  0.00000000000E+00  0.00000000000E+00 -0.25107056547E+04  0.26989199705E+04  0.99021518998E+03 0.  0.
        1    1    3    3  502    0  0.42887514142E+03  0.64103118216E+01 -0.19293870029E+04  0.19764891060E+04  0.50400001928E-02 0. -1.
       -1    1    3    3    0  502 -0.42887514142E+03 -0.64103118216E+01 -0.58131865179E+03  0.72243086449E+03  0.50400001928E-02 0.  1.
</event>
<event>
 5   0  0.3569359E-03  0.9971902E+03  0.7818609E-02  0.9311632E-01
        1   -1    0    0  501    0  0.00000000000E+00  0.00000000000E+00  0.14802649316E+04  0.14802649316E+04  0.50400001928E-02 0. -1.
       -1   -1    0    0    0  501  0.00000000000E+00  0.00000000000E+00 -0.16794092282E+03  0.16794092290E+03  0.50400001928E-02 0.  1.
    10030    2    1    2    0    0  0.00000000000E+00  0.00000000000E+00  0.13123240087E+04  0.16482058545E+04  0.99719016982E+03 0.  0.
        4    1    3    3  502    0 -0.15250078684E+03  0.47458506744E+03  0.63898750235E+03  0.81042835419E+03  0.12699999809E+01 0. -1.
       -4    1    3    3    0  502  0.15250078684E+03 -0.47458506744E+03  0.67333650639E+03  0.83777750027E+03  0.12699999809E+01 0.  1.
</event>
<event>
 5   0  0.6606947E-03  0.1024336E+04  0.7818609E-02  0.9282249E-01
       -2   -1    0    0    0  501  0.00000000000E+00  0.00000000000E+00  0.36366024402E+03  0.36366024403E+03  0.25500000920E-02 0. -1.
        2   -1    0    0  501    0  0.00000000000E+00  0.00000000000E+00 -0.72132232110E+03  0.72132232110E+03  0.25500000920E-02 0.  1.
    10030    2    1    2    0    0  0.00000000000E+00  0.00000000000E+00 -0.35766207707E+03  0.10849825651E+04  0.10243363731E+04 0.  0.
        1    1    3    3  502    0  0.45160137744E+03  0.78493345183E+02  0.63195047202E+02  0.46270792446E+03  0.50400001928E-02 0. -1.
       -1    1    3    3    0  502 -0.45160137744E+03 -0.78493345183E+02 -0.42085712428E+03  0.62227464067E+03  0.50400001928E-02 0.  1.
</event>
<event>
 5   0  0.2417750E-03  0.1040426E+04  0.7818609E-02  0.9265285E-01
        3   -1    0    0  501    0  0.00000000000E+00  0.00000000000E+00  0.11651981322E+04  0.11651981366E+04  0.10100000352E+00 0. -1.
       -3   -1    0    0    0  501  0.00000000000E+00  0.00000000000E+00 -0.23225356431E+03  0.23225358627E+03  0.10100000352E+00 0.  1.
    10030    2    1    2    0    0  0.00000000000E+00  0.00000000000E+00  0.93294456787E+03  0.13974517228E+04  0.10404257546E+04 0.  0.
        4    1    3    3  502    0  0.29247545409E+03 -0.68260125598E+02  0.10369861967E+04  0.10796033165E+04  0.12699999809E+01 0. -1.
       -4    1    3    3    0  502 -0.29247545409E+03  0.68260125598E+02 -0.10404162880E+03  0.31784840634E+03  0.12699999809E+01 0.  1.
</event>
<event>
 5   0  0.6199539E-03  0.9960765E+03  0.7818609E-02  0.9312859E-01
        2   -1    0    0  501    0  0.00000000000E+00  0.00000000000E+00  0.48817430713E+03  0.48817430713E+03  0.25500000920E-02 0. -1.
       -2   -1    0    0    0  501  0.00000000000E+00  0.00000000000E+00 -0.50810149909E+03  0.50810149910E+03  0.25500000920E-02 0.  1.
    10030    2    1    2    0    0  0.00000000000E+00  0.00000000000E+00 -0.19927191965E+02  0.99627580623E+03  0.99607649761E+03 0.  0.
        2    1    3    3  502    0 -0.24155230897E+03 -0.35062574147E+03 -0.26838744622E+03  0.50330681482E+03  0.25500000920E-02 0.  1.
       -2    1    3    3    0  502  0.24155230897E+03  0.35062574147E+03  0.24846025425E+03  0.49296899141E+03  0.25500000920E-02 0. -1.
</event>
<event>
 5   0  0.3569359E-03  0.1004577E+04  0.7818609E-02  0.9303539E-01
       -1   -1    0    0    0  501  0.00000000000E+00  0.00000000000E+00  0.44034724719E+03  0.44034724722E+03  0.50400001928E-02 0.  1.
        1   -1    0    0  501    0  0.00000000000E+00  0.00000000000E+00 -0.57294267053E+03  0.57294267055E+03  0.50400001928E-02 0. -1.
    10030    2    1    2    0    0  0.00000000000E+00  0.00000000000E+00 -0.13259542334E+03  0.10132899178E+04  0.10045769812E+04 0.  0.
        4    1    3    3  502    0  0.19134670545E+03 -0.46337441113E+03 -0.97594362129E+02  0.51074032443E+03  0.12699999809E+01 0. -1.
       -4    1    3    3    0  502 -0.19134670545E+03  0.46337441113E+03 -0.35001061208E+02  0.50254959334E+03  0.12699999809E+01 0.  1.
</event>
<event>
 5   0  0.6360455E-03  0.9533058E+03  0.7818609E-02  0.9361295E-01
       -2   -1    0    0    0  501  0.00000000000E+00  0.00000000000E+00  0.35016043745E+03  0.35016043746E+03  0.25500000920E-02 0. -1.
        2   -1    0    0  501    0  0.00000000000E+00  0.00000000000E+00 -0.64883967991E+03  0.64883967992E+03  0.25500000920E-02 0.  1.
    10030    2    1    2    0    0  0.00000000000E+00  0.00000000000E+00 -0.29867924247E+03  0.99900011737E+03  0.95330579807E+03 0.  0.
        4    1    3    3  502    0 -0.27621381625E+03 -0.19829152671E+02 -0.55589030179E+03  0.62104984350E+03  0.12699999809E+01 0.  1.
       -4    1    3    3    0  502  0.27621381625E+03  0.19829152671E+02  0.25721105933E+03  0.37795027388E+03  0.12699999809E+01 0. -1.
</event>
<event>
 5   0  0.3466598E-03  0.9648446E+03  0.7818609E-02  0.9347966E-01
        1   -1    0    0  501    0  0.00000000000E+00  0.00000000000E+00  0.20546444127E+04  0.20546444127E+04  0.50400001928E-02 0.  1.
       -1   -1    0    0    0  501  0.00000000000E+00  0.00000000000E+00 -0.11327082585E+03  0.11327082596E+03  0.50400001928E-02 0. -1.
    10030    2    1    2    0    0  0.00000000000E+00  0.00000000000E+00  0.19413735868E+04  0.21679152386E+04  0.96484458765E+03 0.  0.
        3    1    3    3  502    0  0.77792074971E+02 -0.38227827967E+03  0.16083608545E+04  0.16549963560E+04  0.10100000352E+00 0.  1.
       -3    1    3    3    0  502 -0.77792074971E+02  0.38227827967E+03  0.33301273233E+03  0.51291888260E+03  0.10100000352E+00 0. -1.
</event>
<event>
 5   0  0.6022787E-03  0.1004220E+04  0.7818609E-02  0.9303928E-01
       -2   -1    0    0    0  501  0.00000000000E+00  0.00000000000E+00  0.65722357151E+03  0.65722357152E+03  0.25500000920E-02 0. -1.
        2   -1    0    0  501    0  0.00000000000E+00  0.00000000000E+00 -0.38360541121E+03  0.38360541122E+03  0.25500000920E-02 0.  1.
    10030    2    1    2    0    0  0.00000000000E+00  0.00000000000E+00  0.27361816031E+03  0.10408289827E+04  0.10042201321E+04 0.  0.
        5    1    3    3  502    0  0.27641956933E+03 -0.10930845845E+03 -0.28258563555E+03  0.41016197875E+03  0.46999998093E+01 0.  1.
       -5    1    3    3    0  502 -0.27641956933E+03  0.10930845845E+03  0.55620379585E+03  0.63066700399E+03  0.46999998093E+01 0. -1.
</event>
<event>
 5   0  0.6022787E-03  0.9662787E+03  0.7818609E-02  0.9346323E-01
       -2   -1    0    0    0  501  0.00000000000E+00  0.00000000000E+00  0.41088253388E+03  0.41088253389E+03  0.25500000920E-02 0.  1.
        2   -1    0    0  501    0  0.00000000000E+00  0.00000000000E+00 -0.56810304230E+03  0.56810304231E+03  0.25500000920E-02 0. -1.
    10030    2    1    2    0    0  0.00000000000E+00  0.00000000000E+00 -0.15722050843E+03  0.97898557620E+03  0.96627867105E+03 0.  0.
        5    1    3    3  502    0 -0.43995564101E+03 -0.25644399124E+02 -0.27916010046E+03  0.52170015617E+03  0.46999998093E+01 0. -1.
       -5    1    3    3    0  502  0.43995564101E+03  0.25644399124E+02  0.12193959203E+03  0.45728542002E+03  0.46999998093E+01 0.  1.
</event>
<event>
 5   0  0.6606947E-03  0.9971203E+03  0.7818609E-02  0.9311709E-01
       -2   -1    0    0    0  501  0.00000000000E+00  0.00000000000E+00  0.13602487389E+03  0.13602487391E+03  0.25500000920E-02 0.  1.
        2   -1    0    0  501    0  0.00000000000E+00  0.00000000000E+00 -0.18273291095E+04  0.18273291095E+04  0.25500000920E-02 0. -1.
    10030    2    1    2    0    0  0.00000000000E+00  0.00000000000E+00 -0.16913042356E+04  0.19633539834E+04  0.99712027698E+03 0.  0.
        1    1    3    3  502    0  0.17795571864E+03 -0.45331450590E+03 -0.63541848156E+03  0.80057412261E+03  0.50400001928E-02 0.  1.
       -1    1    3    3    0  502 -0.17795571864E+03  0.45331450590E+03 -0.10558857540E+04  0.11627798608E+04  0.50400001928E-02 0. -1.
</event>
<event>
 5   0  0.3643002E-03  0.9972978E+03  0.7818609E-02  0.9311514E-01
       -1   -1    0    0    0  501  0.00000000000E+00  0.00000000000E+00  0.52842766221E+03  0.52842766223E+03  0.50400001928E-02 0.  1.
        1   -1    0    0  501    0  0.00000000000E+00  0.00000000000E+00 -0.47054824352E+03  0.47054824354E+03  0.50400001928E-02 0. -1.
    10030    2    1    2    0    0  0.00000000000E+00  0.00000000000E+00  0.57879418688E+02  0.99897590577E+03  0.99729776557E+03 0.  0.
        2    1    3    3  502    0 -0.17713098450E+03 -0.39266011500E+03  0.28054628345E+03  0.51406572415E+03  0.25500000920E-02 0.  1.
       -2    1    3    3    0  502  0.17713098450E+03  0.39266011500E+03 -0.22266686476E+03  0.48491018163E+03  0.25500000920E-02 0. -1.
</event>
<event>
 5   0  0.3466598E-03  0.9965992E+03  0.7818609E-02  0.9312283E-01
       -1   -1    0    0    0  501  0.00000000000E+00  0.00000000000E+00  0.16653289113E+04  0.16653289113E+04  0.50400001928E-02 0.  1.
        1   -1    0    0  501    0  0.00000000000E+00  0.00000000000E+00 -0.14910116438E+03  0.14910116446E+03  0.50400001928E-02 0. -1.
    10030    2    1    2    0    0  0.00000000000E+00  0.00000000000E+00  0.15162277469E+04  0.18144300757E+04  0.99659917685E+03 0.  0.
        3    1    3    3  502    0 -0.10171266189E+02 -0.52882119523E+02  0.16600155622E+04  0.16608888133E+04  0.10100000352E+00 0.  1.
       -3    1    3    3    0  502  0.10171266189E+02  0.52882119523E+02 -0.14378781533E+03  0.15354126240E+03  0.10100000352E+00 0. -1.
</event>
<event>
 5   0  0.3608845E-03  0.9960574E+03  0.7818609E-02  0.9312880E-01
       -1   -1    0    0    0  501  0.00000000000E+00  0.00000000000E+00  0.34921215394E+03  0.34921215397E+03  0.50400001928E-02 0. -1.
        1   -1    0    0  501    0  0.00000000000E+00  0.00000000000E+00 -0.71026326962E+03  0.71026326964E+03  0.50400001928E-02 0.  1.
    10030    2    1    2    0    0  0.00000000000E+00  0.00000000000E+00 -0.36105111569E+03  0.10594754236E+04  0.99605736035E+03 0.  0.
        1    1    3    3  502    0 -0.28331105207E+03 -0.21780700694E+02 -0.61558183795E+03  0.67799745603E+03  0.50400001928E-02 0.  1.
       -1    1    3    3    0  502  0.28331105207E+03  0.21780700694E+02  0.25453072226E+03  0.38147796758E+03  0.50400001928E-02 0. -1.
</event>
<event>
 5   0  0.6360455E-03  0.1006692E+04  0.7818609E-02  0.9301236E-01
       -2   -1    0    0    0  501  0.00000000000E+00  0.00000000000E+00  0.69898934632E+03  0.69898934632E+03  0.25500000920E-02 0. -1.
        2   -1    0    0  501    0  0.00000000000E+00  0.00000000000E+00 -0.36246188678E+03  0.36246188679E+03  0.25500000920E-02 0.  1.
    10030    2    1    2    0    0  0.00000000000E+00  0.00000000000E+00  0.33652745953E+03  0.10614512331E+04  0.10066916058E+04 0.  0.
        4    1    3    3  502    0 -0.26323448054E+03 -0.33816587492E+03  0.44664581057E+03  0.61898517245E+03  0.12699999809E+01 0. -1.
       -4    1    3    3    0  502  0.26323448054E+03  0.33816587492E+03 -0.11011835104E+03  0.44246606067E+03  0.12699999809E+01 0.  1.
</event>
<event>
 5   0  0.3640180E-03  0.1003662E+04  0.7818609E-02  0.9304538E-01
        1   -1    0    0  501    0  0.00000000000E+00  0.00000000000E+00  0.79846283938E+03  0.79846283940E+03  0.50400001928E-02 0. -1.
       -1   -1    0    0    0  501  0.00000000000E+00  0.00000000000E+00 -0.31539883311E+03  0.31539883316E+03  0.50400001928E-02 0.  1.
    10030    2    1    2    0    0  0.00000000000E+00  0.00000000000E+00  0.48306400627E+03  0.11138616726E+04  0.10036617914E+04 0.  0.
        5    1    3    3  502    0 -0.25096613710E+03  0.17893209021E+03 -0.19794157777E+03  0.36633816766E+03  0.46999998093E+01 0.  1.
       -5    1    3    3    0  502  0.25096613710E+03 -0.17893209021E+03  0.68100558404E+03  0.74752350489E+03  0.46999998093E+01 0. -1.
</event>
<event>
 5   0  0.3569359E-03  0.9999392E+03  0.7818609E-02  0.9308612E-01
        1   -1    0    0  501    0  0.00000000000E+00  0.00000000000E+00  0.19245558387E+03  0.19245558394E+03  0.50400001928E-02 0.  1.
       -1   -1    0    0    0  501  0.00000000000E+00  0.00000000000E+00 -0.12988429403E+04  0.12988429403E+04  0.50400001928E-02 0. -1.
    10030    2    1    2    0    0  0.00000000000E+00  0.00000000000E+00 -0.11063873564E+04  0.14912985242E+04  0.99993915112E+03 0.  0.
        4    1    3    3  502    0 -0.23629493581E+03  0.10624908610E+03 -0.11909152867E+04  0.12187719221E+04  0.12699999809E+01 0. -1.
       -4    1    3    3    0  502  0.23629493581E+03 -0.10624908610E+03  0.84527930308E+02  0.27252660216E+03  0.12699999809E+01 0.  1.
</event>
<event>
 5   0  0.3643002E-03  0.9850988E+03  0.7818609E-02  0.9325041E-01
        1   -1    0    0  501    0  0.00000000000E+00  0.00000000000E+00  0.48190646846E+03  0.48190646849E+03  0.50400001928E-02 0. -1.
       -1   -1    0    0    0  501  0.00000000000E+00  0.00000000000E+00 -0.50342740780E+03  0.50342740782E+03  0.50400001928E-02 0.  1.
    10030    2    1    2    0    0  0.00000000000E+00  0.00000000000E+00 -0.21520939334E+02  0.98533387631E+03  0.98509882600E+03 0.  0.
        2    1    3    3  502    0 -0.48386115977E+03 -0.92099899314E+02 -0.98058560361E+01  0.49264608819E+03  0.25500000920E-02 0. -1.
       -2    1    3    3    0  502  0.48386115977E+03  0.92099899314E+02 -0.11715083298E+02  0.49268778813E+03  0.25500000920E-02 0.  1.
</event>
<event>
 5   0  0.6376961E-03  0.1012853E+04  0.7818609E-02  0.9294559E-01
        2   -1    0    0  501    0  0.00000000000E+00  0.00000000000E+00  0.15160237002E+04  0.15160237002E+04  0.25500000920E-02 0. -1.
       -2   -1    0    0    0  501  0.00000000000E+00  0.00000000000E+00 -0.16917151861E+03  0.16917151863E+03  0.25500000920E-02 0.  1.
    10030    2    1    2    0    0  0.00000000000E+00  0.00000000000E+00  0.13468521816E+04  0.16851952188E+04  0.10128534576E+04 0.  0.
        3    1    3    3  502    0 -0.14926331072E+03 -0.14110536346E+03 -0.96753762742E+02  0.22704968692E+03  0.10100000352E+00 0.  1.
       -3    1    3    3    0  502  0.14926331072E+03  0.14110536346E+03  0.14436059443E+04  0.14581455319E+04  0.10100000352E+00 0. -1.
</event>
<event>
 5   0  0.6360455E-03  0.9992889E+03  0.7818609E-02  0.9309325E-01
       -2   -1    0    0    0  501  0.00000000000E+00  0.00000000000E+00  0.30088685982E+03  0.30088685983E+03  0.25500000920E-02 0.  1.
        2   -1    0    0  501    0  0.00000000000E+00  0.00000000000E+00 -0.82969588470E+03  0.82969588470E+03  0.25500000920E-02 0. -1.
    10030    2    1    2    0    0  0.00000000000E+00  0.00000000000E+00 -0.52880902488E+03  0.11305827445E+04  0.99928892592E+03 0.  0.
        4    1    3    3  502    0 -0.34775450031E+03 -0.19745326598E+03 -0.60329605537E+03  0.72380158058E+03  0.12699999809E+01 0. -1.
       -4    1    3    3    0  502  0.34775450031E+03  0.19745326598E+03  0.74487030493E+02  0.40678116395E+03  0.12699999809E+01 0.  1.
</event>
<event>
 5   0  0.6376961E-03  0.1003735E+04  0.7818609E-02  0.9304458E-01
       -2   -1    0    0    0  501  0.00000000000E+00  0.00000000000E+00  0.22367076777E+03  0.22367076779E+03  0.25500000920E-02 0. -1.
        2   -1    0    0  501    0  0.00000000000E+00  0.00000000000E+00 -0.11260780951E+04  0.11260780952E+04  0.25500000920E-02 0.  1.
    10030    2    1    2    0    0  0.00000000000E+00  0.00000000000E+00 -0.90240732738E+03  0.13497488629E+04  0.10037345309E+04 0.  0.
        3    1    3    3  502    0 -0.10495313625E+03  0.99406665212E+01  0.20861311326E+03  0.23373792779E+03  0.10100000352E+00 0. -1.
       -3    1    3    3    0  502  0.10495313625E+03 -0.99406665212E+01 -0.11110204406E+04  0.11160109352E+04  0.10100000352E+00 0.  1.
</event>
<event>
 5   0  0.6376961E-03  0.9996968E+03  0.7818609E-02  0.9308877E-01
       -2   -1    0    0    0  501  0.00000000000E+00  0.00000000000E+00  0.17323242017E+03  0.17323242019E+03  0.25500000920E-02 0. -1.
        2   -1    0    0  501    0  0.00000000000E+00  0.00000000000E+00 -0.14422728057E+04  0.14422728057E+04  0.25500000920E-02 0.  1.
    10030    2    1    2    0    0  0.00000000000E+00  0.00000000000E+00 -0.12690403856E+04  0.16155052259E+04  0.99969677142E+03 0.  0.
        3    1    3    3  502    0  0.39662963165E+03 -0.21434743880E+03 -0.28571777649E+03  0.53375513790E+03  0.10100000352E+00 0.  1.
       -3    1    3    3    0  502 -0.39662963165E+03  0.21434743880E+03 -0.98332260908E+03  0.10817500880E+04  0.10100000352E+00 0. -1.
</event>
<event>
 5   0  0.3640180E-03  0.1019037E+04  0.7818609E-02  0.9287909E-01
       -1   -1    0    0    0  501  0.00000000000E+00  0.00000000000E+00  0.25554059824E+03  0.25554059829E+03  0.50400001928E-02 0. -1.
        1   -1    0    0  501    0  0.00000000000E+00  0.00000000000E+00 -0.10159204635E+04  0.10159204635E+04  0.50400001928E-02 0.  1.
    10030    2    1    2    0    0  0.00000000000E+00  0.00000000000E+00 -0.76037986524E+03  0.12714610618E+04  0.10190366491E+04 0.  0.
        5    1    3    3  502    0  0.28653596579E+03  0.21379418988E+03 -0.83312031151E+03  0.90659933751E+03  0.46999998093E+01 0.  1.
       -5    1    3    3    0  502 -0.28653596579E+03 -0.21379418988E+03  0.72740446271E+02  0.36486172427E+03  0.46999998093E+01 0. -1.
</event>
<event>
 5   0  0.3569359E-03  0.1001302E+04  0.7818609E-02  0.9307118E-01
       -1   -1    0    0    0  501  0.00000000000E+00  0.00000000000E+00  0.27747891237E+03  0.27747891242E+03  0.50400001928E-02 0. -1.
        1   -1    0    0  501    0  0.00000000000E+00  0.00000000000E+00 -0.90331695495E+03  0.90331695496E+03  0.50400001928E-02 0.  1.
    10030    2    1    2    0    0  0.00000000000E+00  0.00000000000E+00 -0.62583804258E+03  0.11807958674E+04  0.10013019649E+04 0.  0.
        4    1    3    3  502    0 -0.91477573242E+02  0.17554963700E+03 -0.85520446706E+03  0.87781667496E+03  0.12699999809E+01 0.  1.
       -4    1    3    3    0  502  0.91477573242E+02 -0.17554963700E+03  0.22936642448E+03  0.30297919242E+03  0.12699999809E+01 0. -1.
</event>
<event>
 5   0  0.3640180E-03  0.1012624E+04  0.7818609E-02  0.9294806E-01
        1   -1    0    0  501    0  0.00000000000E+00  0.00000000000E+00  0.78721937258E+03  0.78721937260E+03  0.50400001928E-02 0.  1.
       -1   -1    0    0    0  501  0.00000000000E+00  0.00000000000E+00 -0.32564239851E+03  0.32564239855E+03  0.50400001928E-02 0. -1.
    10030    2    1    2    0    0  0.00000000000E+00  0.00000000000E+00  0.46157697407E+03  0.11128617712E+04  0.10126243226E+04 0.  0.
        5    1    3    3  502    0  0.45263202951E+03  0.18320230231E+03  0.83790593542E+02  0.49546119048E+03  0.46999998093E+01 0. -1.
       -5    1    3    3    0  502 -0.45263202951E+03 -0.18320230231E+03  0.37778638053E+03  0.61740058067E+03  0.46999998093E+01 0.  1.
</event>
<event>
 5   0  0.3608845E-03  0.1034468E+04  0.7818609E-02  0.9271528E-01
       -1   -1    0    0    0  501  0.00000000000E+00  0.00000000000E+00  0.19016638560E+03  0.19016638567E+03  0.50400001928E-02 0. -1.
        1   -1    0    0  501    0  0.00000000000E+00  0.00000000000E+00 -0.14068259067E+04  0.14068259067E+04  0.50400001928E-02 0.  1.
    10030    2    1    2    0    0  0.00000000000E+00  0.00000000000E+00 -0.12166595211E+04  0.15969922924E+04  0.10344679752E+04 0.  0.
        1    1    3    3  502    0  0.31719768505E+03  0.30085042581E+03 -0.18160435412E+03  0.47339781535E+03  0.50400001928E-02 0. -1.
       -1    1    3    3    0  502 -0.31719768505E+03 -0.30085042581E+03 -0.10350551670E+04  0.11235944770E+04  0.50400001928E-02 0.  1.
</event>
<event>
 5   0  0.6360455E-03  0.1008481E+04  0.7818609E-02  0.9299291E-01
        2   -1    0    0  501    0  0.00000000000E+00  0.00000000000E+00  0.15455974883E+04  0.15455974883E+04  0.25500000920E-02 0.  1.
       -2   -1    0    0    0  501  0.00000000000E+00  0.00000000000E+00 -0.16450506810E+03  0.16450506812E+03  0.25500000920E-02 0. -1.
    10030    2    1    2    0    0  0.00000000000E+00  0.00000000000E+00  0.13810924202E+04  0.17101025565E+04  0.10084812742E+04 0.  0.
        4    1    3    3  502    0 -0.88936163674E+02 -0.15445764164E+03 -0.10930602692E+03  0.20908425262E+03  0.12699999809E+01 0. -1.
       -4    1    3    3    0  502  0.88936163674E+02  0.15445764164E+03  0.14903984472E+04  0.15010183038E+04  0.12699999809E+01 0.  1.
</event>
<event>
 5   0  0.6606947E-03  0.9622084E+03  0.7818609E-02  0.9350994E-01
        2   -1    0    0  501    0  0.00000000000E+00  0.00000000000E+00  0.47398368237E+03  0.47398368237E+03  0.25500000920E-02 0. -1.
       -2   -1    0    0    0  501  0.00000000000E+00  0.00000000000E+00 -0.48833165526E+03  0.48833165527E+03  0.25500000920E-02 0.  1.
    10030    2    1    2    0    0  0.00000000000E+00  0.00000000000E+00 -0.14347972894E+02  0.96231533764E+03  0.96220836867E+03 0.  0.
        1    1    3    3  502    0 -0.15097169637E+02  0.28139297613E+03 -0.39715490094E+03  0.48697222396E+03  0.50400001928E-02 0.  1.
       -1    1    3    3    0  502  0.15097169637E+02 -0.28139297613E+03  0.38280692804E+03  0.47534311368E+03  0.50400001928E-02 0. -1.
</event>
<event>
 5   0  0.6199539E-03  0.9982368E+03  0.7818609E-02  0.9310481E-01
       -2   -1    0    0    0  501  0.00000000000E+00  0.00000000000E+00  0.16920838375E+03  0.16920838377E+03  0.25500000920E-02 0. -1.
        2   -1    0    0  501    0  0.00000000000E+00  0.00000000000E+00 -0.14722625367E+04  0.14722625367E+04  0.25500000920E-02 0.  1.
    10030    2    1    2    0    0  0.00000000000E+00  0.00000000000E+00 -0.13030541529E+04  0.16414709204E+04  0.99823677413E+03 0.  0.
        2    1    3    3  502    0 -0.28951516090E+03 -0.40412926611E+03 -0.72469087888E+03  0.87881531738E+03  0.25500000920E-02 0.  1.
       -2    1    3    3    0  502  0.28951516090E+03  0.40412926611E+03 -0.57836327404E+03  0.76265560306E+03  0.25500000920E-02 0. -1.
</event>
<event>
 5   0  0.3466598E-03  0.9671503E+03  0.7818609E-02  0.9345326E-01
        1   -1    0    0  501    0  0.00000000000E+00  0.00000000000E+00  0.47696720211E+03  0.47696720214E+03  0.50400001928E-02 0. -1.
       -1   -1    0    0    0  501  0.00000000000E+00  0.00000000000E+00 -0.49027463105E+03  0.49027463107E+03  0.50400001928E-02 0.  1.
    10030    2    1    2    0    0  0.00000000000E+00  0.00000000000E+00 -0.13307428936E+02  0.96724183321E+03  0.96715028628E+03 0.  0.
        3    1    3    3  502    0  0.10259472160E+03  0.39396916697E+03  0.25434517761E+03  0.48003006260E+03  0.10100000352E+00 0. -1.
       -3    1    3    3    0  502 -0.10259472160E+03 -0.39396916697E+03 -0.26765260655E+03  0.48721177061E+03  0.10100000352E+00 0.  1.
</event>
<event>
 5   0  0.6376961E-03  0.9950463E+03  0.7818609E-02  0.9313995E-01
        2   -1    0    0  501    0  0.00000000000E+00  0.00000000000E+00  0.12624234607E+04  0.12624234607E+04  0.25500000920E-02 0.  1.
       -2   -1    0    0    0  501  0.00000000000E+00  0.00000000000E+00 -0.19607468995E+03  0.19607468997E+03  0.25500000920E-02 0. -1.
    10030    2    1    2    0    0  0.00000000000E+00  0.00000000000E+00  0.10663487707E+04  0.14584981506E+04  0.99504630776E+03 0.  0.
        3    1    3    3  502    0  0.18013856149E+03  0.10872661673E+03 -0.12765037522E+03  0.24610161929E+03  0.10100000352E+00 0. -1.
       -3    1    3    3    0  502 -0.18013856149E+03 -0.10872661673E+03  0.11939991459E+04  0.12123965313E+04  0.10100000352E+00 0.  1.
</event>
<event>
 5   0  0.6022787E-03  0.9976321E+03  0.7818609E-02  0.9311146E-01
       -2   -1    0    0    0  501  0.00000000000E+00  0.00000000000E+00  0.16101927255E+03  0.16101927257E+03  0.25500000920E-02 0. -1.
        2   -1    0    0  501    0  0.00000000000E+00  0.00000000000E+00 -0.15452650545E+04  0.15452650545E+04  0.25500000920E-02 0.  1.
    10030    2    1    2    0    0  0.00000000000E+00  0.00000000000E+00 -0.13842457819E+04  0.17062843271E+04  0.99763210651E+03 0.  0.
        5    1    3    3  502    0 -0.22691408654E+03  0.20569312193E+03 -0.18772972716E+02  0.30687811519E+03  0.46999998093E+01 0. -1.
       -5    1    3    3    0  502  0.22691408654E+03 -0.20569312193E+03 -0.13654728092E+04  0.13994062119E+04  0.46999998093E+01 0.  1.
</event>
<event>
 5   0  0.6606947E-03  0.1049910E+04  0.7818609E-02  0.9255437E-01
        2   -1    0    0  501    0  0.00000000000E+00  0.00000000000E+00  0.15883950385E+04  0.15883950385E+04  0.25500000920E-02 0. -1.
       -2   -1    0    0    0  501  0.00000000000E+00  0.00000000000E+00 -0.17349438982E+03  0.17349438984E+03  0.25500000920E-02 0.  1.
    10030    2    1    2    0    0  0.00000000000E+00  0.00000000000E+00  0.14149006487E+04  0.17618894284E+04  0.10499097638E+04 0.  0.
        1    1    3    3  502    0  0.94797699730E+02  0.28822869080E+03 -0.11440185070E+02  0.30363343019E+03  0.50400001928E-02 0.  1.
       -1    1    3    3    0  502 -0.94797699730E+02 -0.28822869080E+03  0.14263408338E+04  0.14582559982E+04  0.50400001928E-02 0. -1.
</event>
<event>
 5   0  0.3466598E-03  0.9973151E+03  0.7818609E-02  0.9311494E-01
       -1   -1    0    0    0  501  0.00000000000E+00  0.00000000000E+00  0.24836179937E+03  0.24836179942E+03  0.50400001928E-02 0.  1.
        1   -1    0    0  501    0  0.00000000000E+00  0.00000000000E+00 -0.10011981584E+04  0.10011981584E+04  0.50400001928E-02 0. -1.
    10030    2    1    2    0    0  0.00000000000E+00  0.00000000000E+00 -0.75283635901E+03  0.12495599578E+04  0.99731514815E+03 0.  0.
        3    1    3    3  502    0  0.34200207675E+03 -0.30615461705E+03 -0.13229633682E+03  0.47770116284E+03  0.10100000352E+00 0.  1.
       -3    1    3    3    0  502 -0.34200207675E+03  0.30615461705E+03 -0.62054002219E+03  0.77185879497E+03  0.10100000352E+00 0. -1.
</event>
<event>
 5   0  0.3569359E-03  0.9823231E+03  0.7818609E-02  0.9328148E-01
        1   -1    0    0  501    0  0.00000000000E+00  0.00000000000E+00  0.76288078272E+03  0.76288078274E+03  0.50400001928E-02 0. -1.
       -1   -1    0    0    0  501  0.00000000000E+00  0.00000000000E+00 -0.31622198000E+03  0.31622198004E+03  0.50400001928E-02 0.  1.
    10030    2    1    2    0    0  0.00000000000E+00  0.00000000000E+00  0.44665880272E+03  0.10791027628E+04  0.98232310703E+03 0.  0.
        4    1    3    3  502    0 -0.44461199373E+03  0.31495826907E+02  0.44997178190E+03  0.63336247875E+03  0.12699999809E+01 0.  1.
       -4    1    3    3    0  502  0.44461199373E+03 -0.31495826907E+02 -0.33129791754E+01  0.44574028404E+03  0.12699999809E+01 0. -1.
</event>
<event>
 5   0  0.3466598E-03  0.9980366E+03  0.7818609E-02  0.9310701E-01
        1   -1    0    0  501    0  0.00000000000E+00  0.00000000000E+00  0.17392197770E+04  0.17392197770E+04  0.50400001928E-02 0.  1.
       -1   -1    0    0    0  501  0.00000000000E+00  0.00000000000E+00 -0.14317872633E+03  0.14317872642E+03  0.50400001928E-02 0. -1.
    10030    2    1    2    0    0  0.00000000000E+00  0.00000000000E+00  0.15960410506E+04  0.18823985034E+04  0.99803661768E+03 0.  0.
        3    1    3    3  502    0  0.56276003088E+02 -0.21951206264E+03  0.16365761572E+04  0.16521906859E+04  0.10100000352E+00 0.  1.
       -3    1    3    3    0  502 -0.56276003088E+02  0.21951206264E+03 -0.40535106532E+02  0.23020781749E+03  0.10100000352E+00 0. -1.
</event>
<event>
 5   0  0.6360455E-03  0.9956583E+03  0.7818609E-02  0.9313320E-01
       -2   -1    0    0    0  501  0.00000000000E+00  0.00000000000E+00  0.20122402549E+03  0.20122402551E+03  0.25500000920E-02 0. -1.
        2   -1    0    0  501    0  0.00000000000E+00  0.00000000000E+00 -0.12316316456E+04  0.12316316456E+04  0.25500000920E-02 0.  1.
    10030    2    1    2    0    0  0.00000000000E+00  0.00000000000E+00 -0.10304076201E+04  0.14328556711E+04  0.99565833027E+03 0.  0.
        4    1    3    3  502    0  0.36380395633E+03 -0.29874003601E+03 -0.28211636337E+03  0.54880796563E+03  0.12699999809E+01 0.  1.
       -4    1    3    3    0  502 -0.36380395633E+03  0.29874003601E+03 -0.74829125670E+03  0.88404770545E+03  0.12699999809E+01 0. -1.
</event>
<event>
 5   0  0.6022787E-03  0.9978947E+03  0.7818609E-02  0.9310857E-01
        2   -1    0    0  501    0  0.00000000000E+00  0.00000000000E+00  0.16791049952E+04  0.16791049952E+04  0.25500000920E-02 0.  1.
       -2   -1    0    0    0  501  0.00000000000E+00  0.00000000000E+00 -0.14826259730E+03  0.14826259732E+03  0.25500000920E-02 0. -1.
    10030    2    1    2    0    0  0.00000000000E+00  0.00000000000E+00  0.15308423979E+04  0.18273675925E+04  0.99789471940E+03 0.  0.
        5    1    3    3  502    0  0.32792250460E+03  0.21171748472E+03  0.13344835726E+04  0.13904049618E+04  0.46999998093E+01 0.  1.
       -5    1    3    3    0  502 -0.32792250460E+03 -0.21171748472E+03  0.19635882532E+03  0.43696263071E+03  0.46999998093E+01 0. -1.
</event>
<event>
 5   0  0.6199539E-03  0.9788604E+03  0.7818609E-02  0.9332039E-01
       -2   -1    0    0    0  501  0.00000000000E+00  0.00000000000E+00  0.46176743403E+03  0.46176743403E+03  0.25500000920E-02 0. -1.
        2   -1    0    0  501    0  0.00000000000E+00  0.00000000000E+00 -0.51875009614E+03  0.51875009615E+03  0.25500000920E-02 0.  1.
    10030    2    1    2    0    0  0.00000000000E+00  0.00000000000E+00 -0.56982662118E+02  0.98051753018E+03  0.97886035941E+03 0.  0.
        2    1    3    3  502    0  0.48510798603E+03 -0.54300831720E+02 -0.64098132481E+02  0.49232805021E+03  0.25500000920E-02 0. -1.
       -2    1    3    3    0  502 -0.48510798603E+03  0.54300831720E+02  0.71154703626E+01  0.48818947997E+03  0.25500000920E-02 0.  1.
</event>
<event>
 5   0  0.6376961E-03  0.1006443E+04  0.7818609E-02  0.9301506E-01
        2   -1    0    0  501    0  0.00000000000E+00  0.00000000000E+00  0.14534062770E+04  0.14534062770E+04  0.25500000920E-02 0. -1.
       -2   -1    0    0    0  501  0.00000000000E+00  0.00000000000E+00 -0.17423347304E+03  0.17423347306E+03  0.25500000920E-02 0.  1.
    10030    2    1    2    0    0  0.00000000000E+00  0.00000000000E+00  0.12791728039E+04  0.16276397500E+04  0.10064432888E+04 0.  0.
        3    1    3    3  502    0  0.70604706683E+02 -0.49515719789E+03  0.72913916495E+03  0.88419998150E+03  0.10100000352E+00 0. -1.
       -3    1    3    3    0  502 -0.70604706683E+02  0.49515719789E+03  0.55003363899E+03  0.74343976854E+03  0.10100000352E+00 0.  1.
</event>
<event>
 5   0  0.6199539E-03  0.9950861E+03  0.7818609E-02  0.9313951E-01
        2   -1    0    0  501    0  0.00000000000E+00  0.00000000000E+00  0.89421086200E+03  0.89421086200E+03  0.25500000920E-02 0.  1.
       -2   -1    0    0    0  501  0.00000000000E+00  0.00000000000E+00 -0.27683527478E+03  0.27683527479E+03  0.25500000920E-02 0. -1.
    10030    2    1    2    0    0  0.00000000000E+00  0.00000000000E+00  0.61737558722E+03  0.11710461368E+04  0.99508614642E+03 0.  0.
        2    1    3    3  502    0 -0.46116528798E+03 -0.16473927019E+03  0.20517594292E+03  0.53095161506E+03  0.25500000920E-02 0. -1.
       -2    1    3    3    0  502  0.46116528798E+03  0.16473927019E+03  0.41219964430E+03  0.64009452173E+03  0.25500000920E-02 0.  1.
</event>
<event>
 5   0  0.6376961E-03  0.1020543E+04  0.7818609E-02  0.9286296E-01
       -2   -1    0    0    0  501  0.00000000000E+00  0.00000000000E+00  0.44773723032E+03  0.44773723033E+03  0.25500000920E-02 0.  1.
        2   -1    0    0  501    0  0.00000000000E+00  0.00000000000E+00 -0.58154000680E+03  0.58154000680E+03  0.25500000920E-02 0. -1.
    10030    2    1    2    0    0  0.00000000000E+00  0.00000000000E+00 -0.13380277648E+03  0.10292772371E+04  0.10205432122E+04 0.  0.
        3    1    3    3  502    0  0.32350932345E+03 -0.39394263306E+03 -0.43726018296E+02  0.51162589397E+03  0.10100000352E+00 0. -1.
       -3    1    3    3    0  502 -0.32350932345E+03  0.39394263306E+03 -0.90076758184E+02  0.51765134316E+03  0.10100000352E+00 0.  1.
</event>
<event>
 5   0  0.6376961E-03  0.9996411E+03  0.7818609E-02  0.9308938E-01
        2   -1    0    0  501    0  0.00000000000E+00  0.00000000000E+00  0.97478080753E+03  0.97478080753E+03  0.25500000920E-02 0. -1.
       -2   -1    0    0    0  501  0.00000000000E+00  0.00000000000E+00 -0.25628387216E+03  0.25628387217E+03  0.25500000920E-02 0.  1.
    10030    2    1    2    0    0  0.00000000000E+00  0.00000000000E+00  0.71849693537E+03  0.12310646797E+04  0.99964113534E+03 0.  0.
        3    1    3    3  502    0 -0.14594673743E+02  0.19236348985E+03 -0.20858676774E+03  0.28412174610E+03  0.10100000352E+00 0.  1.
       -3    1    3    3    0  502  0.14594673743E+02 -0.19236348985E+03  0.92708370311E+03  0.94694293360E+03  0.10100000352E+00 0. -1.
</event>
<event>
 5   0  0.6360455E-03  0.9945262E+03  0.7818609E-02  0.9314569E-01
        2   -1    0    0  501    0  0.00000000000E+00  0.00000000000E+00  0.15042935390E+04  0.15042935390E+04  0.25500000920E-02 0.  1.
       -2   -1    0    0    0  501  0.00000000000E+00  0.00000000000E+00 -0.16437654662E+03  0.16437654664E+03  0.25500000920E-02 0. -1.
    10030    2    1    2    0    0  0.00000000000E+00  0.00000000000E+00  0.13399169923E+04  0.16686700856E+04  0.99452617273E+03 0.  0.
        4    1    3    3  502    0  0.16243732650E+03 -0.16747884215E+03  0.14067523163E+04  0.14259694036E+04  0.12699999809E+01 0.  1.
       -4    1    3    3    0  502 -0.16243732650E+03  0.16747884215E+03 -0.66835323997E+02  0.24270068200E+03  0.12699999809E+01 0. -1.
</event>
<event>
 5   0  0.3466598E-03  0.1004594E+04  0.7818609E-02  0.9303521E-01
        1   -1    0    0  501    0  0.00000000000E+00  0.00000000000E+00  0.14663667738E+04  0.14663667738E+04  0.50400001928E-02 0.  1.
       -1   -1    0    0    0  501  0.00000000000E+00  0.00000000000E+00 -0.17205942322E+03  0.17205942329E+03  0.50400001928E-02 0. -1.
    10030    2    1    2    0    0  0.00000000000E+00  0.00000000000E+00  0.12943073506E+04  0.16384261971E+04  0.10045938909E+04 0.  0.
        3    1    3    3  502    0 -0.32631671558E+03  0.19309410321E+03  0.11844573547E+04  0.12436668231E+04  0.10100000352E+00 0.  1.
       -3    1    3    3    0  502  0.32631671558E+03 -0.19309410321E+03  0.10984999587E+03  0.39475937399E+03  0.10100000352E+00 0. -1.
</event>
<event>
 5   0  0.3643002E-03  0.1016404E+04  0.7818609E-02  0.9290734E-01
       -1   -1    0    0    0  501  0.00000000000E+00  0.00000000000E+00  0.41430411117E+03  0.41430411120E+03  0.50400001928E-02 0. -1.
        1   -1    0    0  501    0  0.00000000000E+00  0.00000000000E+00 -0.62338082940E+03  0.62338082942E+03  0.50400001928E-02 0.  1.
    10030    2    1    2    0    0  0.00000000000E+00  0.00000000000E+00 -0.20907671822E+03  0.10376849406E+04  0.10164039364E+04 0.  0.
        2    1    3    3  502    0  0.27696607279E+02  0.17110526404E+03 -0.59226997052E+03  0.61711249495E+03  0.25500000920E-02 0.  1.
       -2    1    3    3    0  502 -0.27696607279E+02 -0.17110526404E+03  0.38319325230E+03  0.42057244566E+03  0.25500000920E-02 0. -1.
</event>
<event>
 5   0  0.3643002E-03  0.1000157E+04  0.7818609E-02  0.9308373E-01
       -1   -1    0    0    0  501  0.00000000000E+00  0.00000000000E+00  0.17187917308E+03  0.17187917316E+03  0.50400001928E-02 0. -1.
        1   -1    0    0  501    0  0.00000000000E+00  0.00000000000E+00 -0.14549658504E+04  0.14549658504E+04  0.50400001928E-02 0.  1.
    10030    2    1    2    0    0  0.00000000000E+00  0.00000000000E+00 -0.12830866774E+04  0.16268450236E+04  0.10001566423E+04 0.  0.
        2    1    3    3  502    0  0.36557136635E+03  0.19139017172E+03 -0.11010535115E+04  0.11758364924E+04  0.25500000920E-02 0.  1.
       -2    1    3    3    0  502 -0.36557136635E+03 -0.19139017172E+03 -0.18203316587E+03  0.45100853119E+03  0.25500000920E-02 0. -1.
</event>
<event>
 5   0  0.3466598E-03  0.1006954E+04  0.7818609E-02  0.9300950E-01
       -1   -1    0    0    0  501  0.00000000000E+00  0.00000000000E+00  0.23029315637E+03  0.23029315642E+03  0.50400001928E-02 0. -1.
        1   -1    0    0  501    0  0.00000000000E+00  0.00000000000E+00 -0.11007243040E+04  0.11007243040E+04  0.50400001928E-02 0.  1.
    10030    2    1    2    0    0  0.00000000000E+00  0.00000000000E+00 -0.87043114763E+03  0.13310174604E+04  0.10069543670E+04 0.  0.
        3    1    3    3  502    0  0.32451981642E+03 -0.10904595444E+03 -0.92319128262E+03  0.98462494684E+03  0.10100000352E+00 0.  1.
       -3    1    3    3    0  502 -0.32451981642E+03  0.10904595444E+03  0.52760134988E+02  0.34639251360E+03  0.10100000352E+00 0. -1.
</event>
<event>
 5   0  0.6606947E-03  0.1012785E+04  0.7818609E-02  0.9294633E-01
       -2   -1    0    0    0  501  0.00000000000E+00  0.00000000000E+00  0.15855246622E+03  0.15855246624E+03  0.25500000920E-02 0.  1.
        2   -1    0    0  501    0  0.00000000000E+00  0.00000000000E+00 -0.16173399543E+04  0.16173399543E+04  0.25500000920E-02 0. -1.
    10030    2    1    2    0    0  0.00000000000E+00  0.00000000000E+00 -0.14587874881E+04  0.17758924205E+04  0.10127847520E+04 0.  0.
        1    1    3    3  502    0 -0.45623233191E+03 -0.80474381602E+02 -0.10879318180E+04  0.11824634064E+04  0.50400001928E-02 0. -1.
       -1    1    3    3    0  502  0.45623233191E+03  0.80474381602E+02 -0.37085567003E+03  0.59342901412E+03  0.50400001928E-02 0.  1.
</event>
<event>
 5   0  0.3466598E-03  0.9929436E+03  0.7818609E-02  0.9316318E-01
       -1   -1    0    0    0  501  0.00000000000E+00  0.00000000000E+00  0.44206784813E+03  0.44206784816E+03  0.50400001928E-02 0.  1.
        1   -1    0    0  501    0  0.00000000000E+00  0.00000000000E+00 -0.55757108057E+03  0.55757108060E+03  0.50400001928E-02 0. -1.
    10030    2    1    2    0    0  0.00000000000E+00  0.00000000000E+00 -0.11550323244E+03  0.99963892875E+03  0.99294359919E+03 0.  0.
        3    1    3    3  502    0 -0.95076131587E+02  0.28955089995E+03 -0.45231912262E+03  0.54540974812E+03  0.10100000352E+00 0. -1.
       -3    1    3    3    0  502  0.95076131587E+02 -0.28955089995E+03  0.33681589018E+03  0.45422918063E+03  0.10100000352E+00 0.  1.
</event>
<event>
 5   0  0.6376961E-03  0.9986246E+03  0.7818609E-02  0.9310055E-01
       -2   -1    0    0    0  501  0.00000000000E+00  0.00000000000E+00  0.10120078432E+03  0.10120078435E+03  0.25500000920E-02 0. -1.
        2   -1    0    0  501    0  0.00000000000E+00  0.00000000000E+00 -0.24635458424E+04  0.24635458424E+04  0.25500000920E-02 0.  1.
    10030    2    1    2    0    0  0.00000000000E+00  0.00000000000E+00 -0.23623450581E+04  0.25647466268E+04  0.99862459713E+03 0.  0.
        3    1    3    3  502    0  0.31342217535E+03 -0.32445065592E+03 -0.17308746861E+04  0.17886947412E+04  0.10100000352E+00 0.  1.
       -3    1    3    3    0  502 -0.31342217535E+03  0.32445065592E+03 -0.63147037198E+03  0.77605188552E+03  0.10100000352E+00 0. -1.
</event>
<event>
 5   0  0.3608845E-03  0.9983270E+03  0.7818609E-02  0.9310382E-01
        1   -1    0    0  501    0  0.00000000000E+00  0.00000000000E+00  0.46190149499E+03  0.46190149502E+03  0.50400001928E-02 0.  1.
       -1   -1    0    0    0  501  0.00000000000E+00  0.00000000000E+00 -0.53943146721E+03  0.53943146724E+03  0.50400001928E-02 0. -1.
    10030    2    1    2    0    0  0.00000000000E+00  0.00000000000E+00 -0.77529972221E+02  0.10013329623E+04  0.99832700290E+03 0.  0.
        1    1    3    3  502    0  0.18472356099E+03 -0.32515273625E+03 -0.37039188981E+03  0.52634327956E+03  0.50400001928E-02 0. -1.
       -1    1    3    3    0  502 -0.18472356099E+03  0.32515273625E+03  0.29286191759E+03  0.47498968270E+03  0.50400001928E-02 0.  1.
</event>
<event>
 5   0  0.6360455E-03  0.9842333E+03  0.7818609E-02  0.9326008E-01
        2   -1    0    0  501    0  0.00000000000E+00  0.00000000000E+00  0.96326582523E+03  0.96326582524E+03  0.25500000920E-02 0. -1.
       -2   -1    0    0    0  501  0.00000000000E+00  0.00000000000E+00 -0.25141430132E+03  0.25141430134E+03  0.25500000920E-02 0.  1.
    10030    2    1    2    0    0  0.00000000000E+00  0.00000000000E+00  0.71185152391E+03  0.12146801266E+04  0.98423331472E+03 0.  0.
        4    1    3    3  502    0 -0.25182831575E+03 -0.41956582897E+03  0.29151123155E+03  0.56959055160E+03  0.12699999809E+01 0.  1.
       -4    1    3    3    0  502  0.25182831575E+03  0.41956582897E+03  0.42034029236E+03  0.64508957497E+03  0.12699999809E+01 0. -1.
</event>
<event>
 5   0  0.6360455E-03  0.9903699E+03  0.7818609E-02  0.9319170E-01
        2   -1    0    0  501    0  0.00000000000E+00  0.00000000000E+00  0.20456366890E+04  0.20456366890E+04  0.25500000920E-02 0. -1.
       -2   -1    0    0    0  501  0.00000000000E+00  0.00000000000E+00 -0.11986885214E+03  0.11986885217E+03  0.25500000920E-02 0.  1.
    10030    2    1    2    0    0  0.00000000000E+00  0.00000000000E+00  0.19257678369E+04  0.21655055412E+04  0.99036987404E+03 0.  0.
        4    1    3    3  502    0 -0.32057799048E+03 -0.53363194411E+02  0.14595005005E+03  0.35625960830E+03  0.12699999809E+01 0.  1.
       -4    1    3    3    0  502  0.32057799048E+03  0.53363194411E+02  0.17798177868E+04  0.18092459329E+04  0.12699999809E+01 0. -1.
</event>
<event>
 5   0  0.3640180E-03  0.1018068E+04  0.7818609E-02  0.9288947E-01
        1   -1    0    0  501    0  0.00000000000E+00  0.00000000000E+00  0.97550796612E+03  0.97550796613E+03  0.50400001928E-02 0. -1.
       -1   -1    0    0    0  501  0.00000000000E+00  0.00000000000E+00 -0.26562134408E+03  0.26562134413E+03  0.50400001928E-02 0.  1.
    10030    2    1    2    0    0  0.00000000000E+00  0.00000000000E+00  0.70988662203E+03  0.12411293103E+04  0.10180682436E+04 0.  0.
        5    1    3    3  502    0  0.14795779428E+03 -0.23545081306E+02 -0.23810673911E+03  0.28135882597E+03  0.46999998093E+01 0.  1.
       -5    1    3    3    0  502 -0.14795779428E+03  0.23545081306E+02  0.94799336114E+03  0.95977048429E+03  0.46999998093E+01 0. -1.
</event>
<event>
 5   0  0.3466598E-03  0.1034447E+04  0.7818609E-02  0.9271550E-01
        1   -1    0    0  501    0  0.00000000000E+00  0.00000000000E+00  0.10058832760E+04  0.10058832760E+04  0.50400001928E-02 0. -1.
       -1   -1    0    0    0  501  0.00000000000E+00  0.00000000000E+00 -0.26595562846E+03  0.26595562850E+03  0.50400001928E-02 0.  1.
    10030    2    1    2    0    0  0.00000000000E+00  0.00000000000E+00  0.73992764751E+03  0.12718389045E+04  0.10344473285E+04 0.  0.
        3    1    3    3  502    0 -0.40708067525E+03  0.25597812641E+03  0.60415058360E+03  0.77216411159E+03  0.10100000352E+00 0. -1.
       -3    1    3    3    0  502  0.40708067525E+03 -0.25597812641E+03  0.13577706391E+03  0.49967479289E+03  0.10100000352E+00 0.  1.
</event>
<event>
 5   0  0.3643002E-03  0.9810013E+03  0.7818609E-02  0.9329631E-01
        1   -1    0    0  501    0  0.00000000000E+00  0.00000000000E+00  0.50735851026E+03  0.50735851029E+03  0.50400001928E-02 0. -1.
       -1   -1    0    0    0  501  0.00000000000E+00  0.00000000000E+00 -0.47420294051E+03  0.47420294054E+03  0.50400001928E-02 0.  1.
    10030    2    1    2    0    0  0.00000000000E+00  0.00000000000E+00  0.33155569748E+02  0.98156145083E+03  0.98100132005E+03 0.  0.
        2    1    3    3  502    0 -0.37505731286E+03  0.17464872670E+03  0.28020636821E+03  0.49968567566E+03  0.25500000920E-02 0. -1.
       -2    1    3    3    0  502  0.37505731286E+03 -0.17464872670E+03 -0.24705079846E+03  0.48187577517E+03  0.25500000920E-02 0.  1.
</event>
<event>
 5   0  0.6360455E-03  0.9961145E+03  0.7818609E-02  0.9312817E-01
       -2   -1    0    0    0  501  0.00000000000E+00  0.00000000000E+00  0.60533223605E+03  0.60533223605E+03  0.25500000920E-02 0. -1.
        2   -1    0    0  501    0  0.00000000000E+00  0.00000000000E+00 -0.40979319813E+03  0.40979319814E+03  0.25500000920E-02 0.  1.
    10030    2    1    2    0    0  0.00000000000E+00  0.00000000000E+00  0.19553903792E+03  0.10151254342E+04  0.99611451741E+03 0.  0.
        4    1    3    3  502    0 -0.47670500978E+03  0.13962930276E+03  0.13473031001E+03  0.51468230772E+03  0.12699999809E+01 0. -1.
       -4    1    3    3    0  502  0.47670500978E+03 -0.13962930276E+03  0.60808727902E+02  0.50044312647E+03  0.12699999809E+01 0.  1.
</event>
<event>
 5   0  0.3466598E-03  0.1004343E+04  0.7818609E-02  0.9303794E-01
        1   -1    0    0  501    0  0.00000000000E+00  0.00000000000E+00  0.44719197646E+03  0.44719197649E+03  0.50400001928E-02 0.  1.
       -1   -1    0    0    0  501  0.00000000000E+00  0.00000000000E+00 -0.56391095726E+03  0.56391095729E+03  0.50400001928E-02 0. -1.
    10030    2    1    2    0    0  0.00000000000E+00  0.00000000000E+00 -0.11671898080E+03  0.10111029338E+04  0.10043434782E+04 0.  0.
        3    1    3    3  502    0  0.29922799835E+03 -0.85042083814E+02 -0.45522946878E+03  0.55136506097E+03  0.10100000352E+00 0. -1.
       -3    1    3    3    0  502 -0.29922799835E+03  0.85042083814E+02  0.33851048797E+03  0.45973787280E+03  0.10100000352E+00 0.  1.
</event>
<event>
 5   0  0.6199539E-03  0.1012050E+04  0.7818609E-02  0.9295427E-01
       -2   -1    0    0    0  501  0.00000000000E+00  0.00000000000E+00  0.37825319112E+03  0.37825319113E+03  0.25500000920E-02 0. -1.
        2   -1    0    0  501    0  0.00000000000E+00  0.00000000000E+00 -0.67695707633E+03  0.67695707633E+03  0.25500000920E-02 0.  1.
    10030    2    1    2    0    0  0.00000000000E+00  0.00000000000E+00 -0.29870388521E+03  0.10552102675E+04  0.10120497505E+04 0.  0.
        2    1    3    3  502    0 -0.53504277856E+02 -0.56624593293E+02 -0.67066704644E+03  0.67517652470E+03  0.25500000920E-02 0.  1.
       -2    1    3    3    0  502  0.53504277856E+02  0.56624593293E+02  0.37196316124E+03  0.38003374276E+03  0.25500000920E-02 0. -1.
</event>
<event>
 5   0  0.6360455E-03  0.9410189E+03  0.7818609E-02  0.9375710E-01
       -2   -1    0    0    0  501  0.00000000000E+00  0.00000000000E+00  0.34074626961E+03  0.34074626962E+03  0.25500000920E-02 0.  1.
        2   -1    0    0  501    0  0.00000000000E+00  0.00000000000E+00 -0.64968905406E+03  0.64968905407E+03  0.25500000920E-02 0. -1.
    10030    2    1    2    0    0  0.00000000000E+00  0.00000000000E+00 -0.30894278445E+03  0.99043532369E+03  0.94101885547E+03 0.  0.
        4    1    3    3  502    0 -0.41031527591E+03 -0.11555303957E+03 -0.36409445831E+03  0.56060460047E+03  0.12699999809E+01 0. -1.
       -4    1    3    3    0  502  0.41031527591E+03  0.11555303957E+03  0.55151673861E+02  0.42983072322E+03  0.12699999809E+01 0.  1.
</event>
<event>
 5   0  0.3640180E-03  0.8617035E+03  0.7818609E-02  0.9474762E-01
        1   -1    0    0  501    0  0.00000000000E+00  0.00000000000E+00  0.13400404618E+04  0.13400404618E+04  0.50400001928E-02 0.  1.
       -1   -1    0    0    0  501  0.00000000000E+00  0.00000000000E+00 -0.13852807464E+03  0.13852807474E+03  0.50400001928E-02 0. -1.
    10030    2    1    2    0    0  0.00000000000E+00  0.00000000000E+00  0.12015123871E+04  0.14785685365E+04  0.86170348773E+03 0.  0.
        5    1    3    3  502    0  0.33417939550E+03  0.10606234767E+03  0.17115147244E+03  0.39017945421E+03  0.46999998093E+01 0. -1.
       -5    1    3    3    0  502 -0.33417939550E+03 -0.10606234767E+03  0.10303609147E+04  0.10883890823E+04  0.46999998093E+01 0.  1.
</event>
<event>
 5   0  0.2417750E-03  0.9933759E+03  0.7818609E-02  0.9315840E-01
        4   -1    0    0  501    0  0.00000000000E+00  0.00000000000E+00  0.12702385646E+04  0.12702391995E+04  0.12699999809E+01 0. -1.
       -4   -1    0    0    0  501  0.00000000000E+00  0.00000000000E+00 -0.19421186740E+03  0.19421601978E+03  0.12699999809E+01 0.  1.
    10030    2    1    2    0    0  0.00000000000E+00  0.00000000000E+00  0.10760266972E+04  0.14644552193E+04  0.99337587859E+03 0.  0.
        5    1    3    3  502    0  0.49021356595E+03  0.50870338521E+02  0.44737949819E+03  0.66563326012E+03  0.46999998093E+01 0.  1.
       -5    1    3    3    0  502 -0.49021356595E+03 -0.50870338521E+02  0.62864719901E+03  0.79882195914E+03  0.46999998093E+01 0. -1.
</event>
<event>
 5   0  0.6199539E-03  0.1025957E+04  0.7818609E-02  0.9280525E-01
       -2   -1    0    0    0  501  0.00000000000E+00  0.00000000000E+00  0.33071925676E+03  0.33071925677E+03  0.25500000920E-02 0. -1.
        2   -1    0    0  501    0  0.00000000000E+00  0.00000000000E+00 -0.79568067355E+03  0.79568067356E+03  0.25500000920E-02 0.  1.
    10030    2    1    2    0    0  0.00000000000E+00  0.00000000000E+00 -0.46496141680E+03  0.11263999303E+04  0.10259569601E+04 0.  0.
        2    1    3    3  502    0  0.37700373334E+03  0.30802152879E+03 -0.40998070630E+03  0.63646936823E+03  0.25500000920E-02 0.  1.
       -2    1    3    3    0  502 -0.37700373334E+03 -0.30802152879E+03 -0.54980710496E+02  0.48993056210E+03  0.25500000920E-02 0. -1.
</event>
<event>
 5   0  0.6376961E-03  0.1001138E+04  0.7818609E-02  0.9307298E-01
        2   -1    0    0  501    0  0.00000000000E+00  0.00000000000E+00  0.10180108204E+04  0.10180108204E+04  0.25500000920E-02 0. -1.
       -2   -1    0    0    0  501  0.00000000000E+00  0.00000000000E+00 -0.24613617273E+03  0.24613617274E+03  0.25500000920E-02 0.  1.
    10030    2    1    2    0    0  0.00000000000E+00  0.00000000000E+00  0.77187464765E+03  0.12641469931E+04  0.10011379268E+04 0.  0.
        3    1    3    3  502    0  0.47935946892E+02 -0.44477838607E+03  0.10233698989E+03  0.45891016269E+03  0.10100000352E+00 0. -1.
       -3    1    3    3    0  502 -0.47935946892E+02  0.44477838607E+03  0.66953765776E+03  0.80523683043E+03  0.10100000352E+00 0.  1.
</event>
<event>
 5   0  0.6022787E-03  0.9988292E+03  0.7818609E-02  0.9309830E-01
       -2   -1    0    0    0  501  0.00000000000E+00  0.00000000000E+00  0.28802931663E+03  0.28802931664E+03  0.25500000920E-02 0.  1.
        2   -1    0    0  501    0  0.00000000000E+00  0.00000000000E+00 -0.86593588441E+03  0.86593588442E+03  0.25500000920E-02 0. -1.
    10030    2    1    2    0    0  0.00000000000E+00  0.00000000000E+00 -0.57790656778E+03  0.11539652011E+04  0.99882915665E+03 0.  0.
        5    1    3    3  502    0  0.89945437660E+02 -0.19677895242E+03 -0.80894991212E+03  0.83739727023E+03  0.46999998093E+01 0. -1.
       -5    1    3    3    0  502 -0.89945437660E+02  0.19677895242E+03  0.23104334433E+03  0.31656793083E+03  0.46999998093E+01 0.  1.
</event>
<event>
 5   0  0.3643002E-03  0.9704902E+03  0.7818609E-02  0.9341516E-01
        1   -1    0    0  501    0  0.00000000000E+00  0.00000000000E+00  0.33342217785E+03  0.33342217789E+03  0.50400001928E-02 0.  1.
       -1   -1    0    0    0  501  0.00000000000E+00  0.00000000000E+00 -0.70620018908E+03  0.70620018910E+03  0.50400001928E-02 0. -1.
    10030    2    1    2    0    0  0.00000000000E+00  0.00000000000E+00 -0.37277801123E+03  0.10396223670E+04  0.97049019588E+03 0.  0.
        2    1    3    3  502    0 -0.39133822536E+03  0.22312118497E+03  0.68318923481E+01  0.45052785105E+03  0.25500000920E-02 0.  1.
       -2    1    3    3    0  502  0.39133822536E+03 -0.22312118497E+03 -0.37960990358E+03  0.58909451594E+03  0.25500000920E-02 0. -1.
</event>
<event>
 5   0  0.6199539E-03  0.9959745E+03  0.7818609E-02  0.9312971E-01
       -2   -1    0    0    0  501  0.00000000000E+00  0.00000000000E+00  0.32582545204E+03  0.32582545205E+03  0.25500000920E-02 0. -1.
        2   -1    0    0  501    0  0.00000000000E+00  0.00000000000E+00 -0.76111696563E+03  0.76111696563E+03  0.25500000920E-02 0.  1.
    10030    2    1    2    0    0  0.00000000000E+00  0.00000000000E+00 -0.43529151359E+03  0.10869424177E+04  0.99597445628E+03 0.  0.
        2    1    3    3  502    0 -0.42038690955E+03 -0.17179617804E+03  0.53507260782E+01  0.45416705163E+03  0.25500000920E-02 0. -1.
       -2    1    3    3    0  502  0.42038690955E+03  0.17179617804E+03 -0.44064223966E+03  0.63277536606E+03  0.25500000920E-02 0.  1.
</event>
<event>
 5   0  0.3643002E-03  0.9778636E+03  0.7818609E-02  0.9333162E-01
        1   -1    0    0  501    0  0.00000000000E+00  0.00000000000E+00  0.43792678829E+03  0.43792678832E+03  0.50400001928E-02 0. -1.
       -1   -1    0    0    0  501  0.00000000000E+00  0.00000000000E+00 -0.54587734138E+03  0.54587734141E+03  0.50400001928E-02 0.  1.
    10030    2    1    2    0    0  0.00000000000E+00  0.00000000000E+00 -0.10795055310E+03  0.98380412972E+03  0.97786361204E+03 0.  0.
        2    1    3    3  502    0 -0.48789158123E+03  0.26761861400E+02 -0.71398644411E+02  0.49381389074E+03  0.25500000920E-02 0.  1.
       -2    1    3    3    0  502  0.48789158123E+03 -0.26761861400E+02 -0.36551908687E+02  0.48999023898E+03  0.25500000920E-02 0. -1.
</event>
<event>
 5   0  0.6022787E-03  0.9989956E+03  0.7818609E-02  0.9309647E-01
        2   -1    0    0  501    0  0.00000000000E+00  0.00000000000E+00  0.33982482594E+03  0.33982482595E+03  0.25500000920E-02 0. -1.
       -2   -1    0    0    0  501  0.00000000000E+00  0.00000000000E+00 -0.73419600724E+03  0.73419600724E+03  0.25500000920E-02 0.  1.
    10030    2    1    2    0    0  0.00000000000E+00  0.00000000000E+00 -0.39437118130E+03  0.10740208332E+04  0.99899555629E+03 0.  0.
        5    1    3    3  502    0  0.19020545549E+03 -0.22013008110E+03  0.23931135214E+03  0.37673250611E+03  0.46999998093E+01 0. -1.
       -5    1    3    3    0  502 -0.19020545549E+03  0.22013008110E+03 -0.63368253344E+03  0.69728832708E+03  0.46999998093E+01 0.  1.
</event>
<event>
 5   0  0.3608845E-03  0.1006778E+04  0.7818609E-02  0.9301142E-01
       -1   -1    0    0    0  501  0.00000000000E+00  0.00000000000E+00  0.25383297641E+03  0.25383297646E+03  0.50400001928E-02 0. -1.
        1   -1    0    0  501    0  0.00000000000E+00  0.00000000000E+00 -0.99829603236E+03  0.99829603237E+03  0.50400001928E-02 0.  1.
    10030    2    1    2    0    0  0.00000000000E+00  0.00000000000E+00 -0.74446305594E+03  0.12521290088E+04  0.10067779363E+04 0.  0.
        1    1    3    3  502    0 -0.32493199875E+03 -0.35338747206E+03 -0.56058913541E+03  0.73805398718E+03  0.50400001928E-02 0. -1.
       -1    1    3    3    0  502  0.32493199875E+03  0.35338747206E+03 -0.18387392053E+03  0.51407502166E+03  0.50400001928E-02 0.  1.
</event>
<event>
 5   0  0.3643002E-03  0.9963597E+03  0.7818609E-02  0.9312546E-01
        1   -1    0    0  501    0  0.00000000000E+00  0.00000000000E+00  0.37132906536E+03  0.37132906539E+03  0.50400001928E-02 0. -1.
       -1   -1    0    0    0  501  0.00000000000E+00  0.00000000000E+00 -0.66836454435E+03  0.66836454437E+03  0.50400001928E-02 0.  1.
    10030    2    1    2    0    0  0.00000000000E+00  0.00000000000E+00 -0.29703547899E+03  0.10396936098E+04  0.99635973744E+03 0.  0.
        2    1    3    3  502    0  0.30149824967E+03 -0.33794327617E+03 -0.36509285188E+03  0.58172127601E+03  0.25500000920E-02 0.  1.
       -2    1    3    3    0  502 -0.30149824967E+03  0.33794327617E+03  0.68057372884E+02  0.45797233375E+03  0.25500000920E-02 0. -1.
</event>
<event>
 5   0  0.3608845E-03  0.9910067E+03  0.7818609E-02  0.9318464E-01
        1   -1    0    0  501    0  0.00000000000E+00  0.00000000000E+00  0.50229748715E+03  0.50229748718E+03  0.50400001928E-02 0. -1.
       -1   -1    0    0    0  501  0.00000000000E+00  0.00000000000E+00 -0.48880110855E+03  0.48880110858E+03  0.50400001928E-02 0.  1.
    10030    2    1    2    0    0  0.00000000000E+00  0.00000000000E+00  0.13496378602E+02  0.99109859576E+03  0.99100669739E+03 0.  0.
        1    1    3    3  502    0  0.19786553548E+03 -0.40282182060E+03  0.21678523366E+03  0.49840949714E+03  0.50400001928E-02 0. -1.
       -1    1    3    3    0  502 -0.19786553548E+03  0.40282182060E+03 -0.20328885506E+03  0.49268909862E+03  0.50400001928E-02 0.  1.
</event>
<event>
 5   0  0.6022787E-03  0.8614161E+03  0.7818609E-02  0.9475141E-01
        2   -1    0    0  501    0  0.00000000000E+00  0.00000000000E+00  0.92033657765E+03  0.92033657765E+03  0.25500000920E-02 0. -1.
       -2   -1    0    0    0  501  0.00000000000E+00  0.00000000000E+00 -0.20156695917E+03  0.20156695919E+03  0.25500000920E-02 0.  1.
    10030    2    1    2    0    0  0.00000000000E+00  0.00000000000E+00  0.71876961847E+03  0.11219035368E+04  0.86141614887E+03 0.  0.
        5    1    3    3  502    0 -0.12110873741E+03  0.40204493717E+03  0.23460008417E+03  0.48100597426E+03  0.46999998093E+01 0.  1.
       -5    1    3    3    0  502  0.12110873741E+03 -0.40204493717E+03  0.48416953430E+03  0.64089756258E+03  0.46999998093E+01 0. -1.
</event>
<event>
 5   0  0.3640180E-03  0.1003913E+04  0.7818609E-02  0.9304264E-01
        1   -1    0    0  501    0  0.00000000000E+00  0.00000000000E+00  0.38172680045E+03  0.38172680048E+03  0.50400001928E-02 0. -1.
       -1   -1    0    0    0  501  0.00000000000E+00  0.00000000000E+00 -0.66005377106E+03  0.66005377108E+03  0.50400001928E-02 0.  1.
    10030    2    1    2    0    0  0.00000000000E+00  0.00000000000E+00 -0.27832697061E+03  0.10417805716E+04  0.10039127735E+04 0.  0.
        5    1    3    3  502    0  0.31631595506E+03 -0.96561704487E+01 -0.54346052884E+03  0.62890417510E+03  0.46999998093E+01 0.  1.
       -5    1    3    3    0  502 -0.31631595506E+03  0.96561704487E+01  0.26513355823E+03  0.41287639645E+03  0.46999998093E+01 0. -1.
</event>
<event>
 5   0  0.3466598E-03  0.1083131E+04  0.7818609E-02  0.9221791E-01
       -1   -1    0    0    0  501  0.00000000000E+00  0.00000000000E+00  0.55059284898E+03  0.55059284901E+03  0.50400001928E-02 0.  1.
        1   -1    0    0  501    0  0.00000000000E+00  0.00000000000E+00 -0.53268650627E+03  0.53268650629E+03  0.50400001928E-02 0. -1.
    10030    2    1    2    0    0  0.00000000000E+00  0.00000000000E+00  0.17906342717E+02  0.10832793553E+04  0.10831313515E+04 0.  0.
        3    1    3    3  502    0  0.42507469885E+03  0.20853190838E+03 -0.25398827714E+03  0.53729331984E+03  0.10100000352E+00 0. -1.
       -3    1    3    3    0  502 -0.42507469885E+03 -0.20853190838E+03  0.27189461986E+03  0.54598603546E+03  0.10100000352E+00 0.  1.
</event>
<event>
 5   0  0.6606947E-03  0.9970994E+03  0.7818609E-02  0.9311732E-01
        2   -1    0    0  501    0  0.00000000000E+00  0.00000000000E+00  0.11228551440E+04  0.11228551440E+04  0.25500000920E-02 0.  1.
       -2   -1    0    0    0  501  0.00000000000E+00  0.00000000000E+00 -0.22135698086E+03  0.22135698087E+03  0.25500000920E-02 0. -1.
    10030    2    1    2    0    0  0.00000000000E+00  0.00000000000E+00  0.90149816315E+03  0.13442121249E+04  0.99709944264E+03 0.  0.
        1    1    3    3  502    0 -0.36447513767E+03 -0.25897920290E+02 -0.64989841670E+01  0.36545186424E+03  0.50400001928E-02 0. -1.
       -1    1    3    3    0  502  0.36447513767E+03  0.25897920290E+02  0.90799714732E+03  0.97876026064E+03  0.50400001928E-02 0.  1.
</event>
<event>
 5   0  0.3608845E-03  0.9991379E+03  0.7818609E-02  0.9309491E-01
       -1   -1    0    0    0  501  0.00000000000E+00  0.00000000000E+00  0.69588621660E+03  0.69588621662E+03  0.50400001928E-02 0.  1.
        1   -1    0    0  501    0  0.00000000000E+00  0.00000000000E+00 -0.35863494293E+03  0.35863494297E+03  0.50400001928E-02 0. -1.
    10030    2    1    2    0    0  0.00000000000E+00  0.00000000000E+00  0.33725127367E+03  0.10545211596E+04  0.99913785557E+03 0.  0.
        1    1    3    3  502    0  0.23114778045E+03 -0.27342360270E+03 -0.19908169502E+03  0.40966240277E+03  0.50400001928E-02 0. -1.
       -1    1    3    3    0  502 -0.23114778045E+03  0.27342360270E+03  0.53633296869E+03  0.64485875682E+03  0.50400001928E-02 0.  1.
</event>
<event>
 5   0  0.6376961E-03  0.1039764E+04  0.7818609E-02  0.9265976E-01
       -2   -1    0    0    0  501  0.00000000000E+00  0.00000000000E+00  0.46155253485E+03  0.46155253486E+03  0.25500000920E-02 0.  1.
        2   -1    0    0  501    0  0.00000000000E+00  0.00000000000E+00 -0.58558334313E+03  0.58558334313E+03  0.25500000920E-02 0. -1.
    10030    2    1    2    0    0  0.00000000000E+00  0.00000000000E+00 -0.12403080828E+03  0.10471358780E+04  0.10397643510E+04 0.  0.
        3    1    3    3  502    0  0.22912103334E+03  0.34930787623E+03  0.24963778973E+03  0.48665334333E+03  0.10100000352E+00 0.  1.
       -3    1    3    3    0  502 -0.22912103334E+03 -0.34930787623E+03 -0.37366859800E+03  0.56048253465E+03  0.10100000352E+00 0. -1.
</event>
<event>
 5   0  0.3608845E-03  0.1001398E+04  0.7818609E-02  0.9307013E-01
        1   -1    0    0  501    0  0.00000000000E+00  0.00000000000E+00  0.55606957350E+03  0.55606957353E+03  0.50400001928E-02 0. -1.
       -1   -1    0    0    0  501  0.00000000000E+00  0.00000000000E+00 -0.45084205957E+03  0.45084205960E+03  0.50400001928E-02 0.  1.
    10030    2    1    2    0    0  0.00000000000E+00  0.00000000000E+00  0.10522751393E+03  0.10069116331E+04  0.10013981262E+04 0.  0.
        1    1    3    3  502    0  0.57828533474E+02  0.31236763173E+03 -0.33653371693E+03  0.46278787721E+03  0.50400001928E-02 0.  1.
       -1    1    3    3    0  502 -0.57828533474E+02 -0.31236763173E+03  0.44176123086E+03  0.54412375592E+03  0.50400001928E-02 0. -1.
</event>
<event>
 5   0  0.3569359E-03  0.1004590E+04  0.7818609E-02  0.9303525E-01
        1   -1    0    0  501    0  0.00000000000E+00  0.00000000000E+00  0.15700350009E+04  0.15700350009E+04  0.50400001928E-02 0.  1.
       -1   -1    0    0    0  501  0.00000000000E+00  0.00000000000E+00 -0.16069715809E+03  0.16069715817E+03  0.50400001928E-02 0. -1.
    10030    2    1    2    0    0  0.00000000000E+00  0.00000000000E+00  0.14093378428E+04  0.17307321591E+04  0.10045897925E+04 0.  0.
        4    1    3    3  502    0 -0.36092251916E+02 -0.48938178276E+03  0.88943229752E+03  0.10158191791E+04  0.12699999809E+01 0.  1.
       -4    1    3    3    0  502  0.36092251916E+02  0.48938178276E+03  0.51990554528E+03  0.71491297992E+03  0.12699999809E+01 0. -1.
</event>
<event>
 5   0  0.6606947E-03  0.1002867E+04  0.7818609E-02  0.9305406E-01
        2   -1    0    0  501    0  0.00000000000E+00  0.00000000000E+00  0.16179490334E+04  0.16179490334E+04  0.25500000920E-02 0.  1.
       -2   -1    0    0    0  501  0.00000000000E+00  0.00000000000E+00 -0.15540382583E+03  0.15540382585E+03  0.25500000920E-02 0. -1.
    10030    2    1    2    0    0  0.00000000000E+00  0.00000000000E+00  0.14625452076E+04  0.17733528593E+04  0.10028668303E+04 0.  0.
        1    1    3    3  502    0  0.39747605759E+02 -0.13131539647E+03 -0.12156791013E+03  0.18330947142E+03  0.50400001928E-02 0. -1.
       -1    1    3    3    0  502 -0.39747605759E+02  0.13131539647E+03  0.15841131177E+04  0.15900433879E+04  0.50400001928E-02 0.  1.
</event>
<event>
 5   0  0.3608845E-03  0.9788371E+03  0.7818609E-02  0.9332065E-01
       -1   -1    0    0    0  501  0.00000000000E+00  0.00000000000E+00  0.36391156408E+03  0.36391156412E+03  0.50400001928E-02 0. -1.
        1   -1    0    0  501    0  0.00000000000E+00  0.00000000000E+00 -0.65821075963E+03  0.65821075965E+03  0.50400001928E-02 0.  1.
    10030    2    1    2    0    0  0.00000000000E+00  0.00000000000E+00 -0.29429919555E+03  0.10221223238E+04  0.97883707952E+03 0.  0.
        1    1    3    3  502    0 -0.42704780727E+03  0.22152796148E+02  0.10143190138E+03  0.43948720882E+03  0.50400001928E-02 0. -1.
       -1    1    3    3    0  502  0.42704780727E+03 -0.22152796148E+02 -0.39573109693E+03  0.58263511495E+03  0.50400001928E-02 0.  1.
</event>
<event>
 5   0  0.3608845E-03  0.9826652E+03  0.7818609E-02  0.9327764E-01
       -1   -1    0    0    0  501  0.00000000000E+00  0.00000000000E+00  0.69627851892E+03  0.69627851894E+03  0.50400001928E-02 0. -1.
        1   -1    0    0  501    0  0.00000000000E+00  0.00000000000E+00 -0.34671145084E+03  0.34671145088E+03  0.50400001928E-02 0.  1.
    10030    2    1    2    0    0  0.00000000000E+00  0.00000000000E+00  0.34956706808E+03  0.10429899698E+04  0.98266522379E+03 0.  0.
        1    1    3    3  502    0  0.48991063475E+03 -0.27407254378E+02  0.20172165680E+03  0.53052352868E+03  0.50400001928E-02 0. -1.
       -1    1    3    3    0  502 -0.48991063475E+03  0.27407254378E+02  0.14784541128E+03  0.51246644114E+03  0.50400001928E-02 0.  1.
</event>
<event>
 5   0  0.6376961E-03  0.9883664E+03  0.7818609E-02  0.9321397E-01
       -2   -1    0    0    0  501  0.00000000000E+00  0.00000000000E+00  0.28386849339E+03  0.28386849340E+03  0.25500000920E-02 0. -1.
        2   -1    0    0  501    0  0.00000000000E+00  0.00000000000E+00 -0.86031756820E+03  0.86031756820E+03  0.25500000920E-02 0.  1.
    10030    2    1    2    0    0  0.00000000000E+00  0.00000000000E+00 -0.57644907481E+03  0.11441860616E+04  0.98836643393E+03 0.  0.
        3    1    3    3  502    0  0.41922128994E+03 -0.53753565625E+02 -0.58468585421E+03  0.72145235052E+03  0.10100000352E+00 0.  1.
       -3    1    3    3    0  502 -0.41922128994E+03  0.53753565625E+02  0.82367794012E+01  0.42273371109E+03  0.10100000352E+00 0. -1.
</event>
<event>
 5   0  0.6022787E-03  0.9990674E+03  0.7818609E-02  0.9309568E-01
        2   -1    0    0  501    0  0.00000000000E+00  0.00000000000E+00  0.31935132766E+03  0.31935132767E+03  0.25500000920E-02 0.  1.
       -2   -1    0    0    0  501  0.00000000000E+00  0.00000000000E+00 -0.78137745596E+03  0.78137745596E+03  0.25500000920E-02 0. -1.
    10030    2    1    2    0    0  0.00000000000E+00  0.00000000000E+00 -0.46202612830E+03  0.11007287836E+04  0.99906742109E+03 0.  0.
        5    1    3    3  502    0 -0.16982956286E+03 -0.33004653132E+03 -0.59930143286E+03  0.70495183572E+03  0.46999998093E+01 0. -1.
       -5    1    3    3    0  502  0.16982956286E+03  0.33004653132E+03  0.13727530456E+03  0.39577694791E+03  0.46999998093E+01 0.  1.
</event>
<event>
 5   0  0.6199539E-03  0.9833461E+03  0.7818609E-02  0.9327001E-01
        2   -1    0    0  501    0  0.00000000000E+00  0.00000000000E+00  0.23214815096E+04  0.23214815096E+04  0.25500000920E-02 0.  1.
       -2   -1    0    0    0  501  0.00000000000E+00  0.00000000000E+00 -0.10413281631E+03  0.10413281635E+03  0.25500000920E-02 0. -1.
    10030    2    1    2    0    0  0.00000000000E+00  0.00000000000E+00  0.22173486933E+04  0.24256143260E+04  0.98334613979E+03 0.  0.
        2    1    3    3  502    0  0.10293596771E+03 -0.35280800334E+03  0.19143176546E+04  0.19492771438E+04  0.25500000920E-02 0.  1.
       -2    1    3    3    0  502 -0.10293596771E+03  0.35280800334E+03  0.30303103869E+03  0.47633718214E+03  0.25500000920E-02 0. -1.
</event>
<event>
 5   0  0.6199539E-03  0.1001287E+04  0.7818609E-02  0.9307134E-01
       -2   -1    0    0    0  501  0.00000000000E+00  0.00000000000E+00  0.23458427175E+03  0.23458427177E+03  0.25500000920E-02 0.  1.
        2   -1    0    0  501    0  0.00000000000E+00  0.00000000000E+00 -0.10684602480E+04  0.10684602480E+04  0.25500000920E-02 0. -1.
    10030    2    1    2    0    0  0.00000000000E+00  0.00000000000E+00 -0.83387597623E+03  0.13030445198E+04  0.10012871100E+04 0.  0.
        2    1    3    3  502    0 -0.44400730160E+03  0.22403199953E+03 -0.34205382901E+03  0.60360056547E+03  0.25500000920E-02 0. -1.
       -2    1    3    3    0  502  0.44400730160E+03 -0.22403199953E+03 -0.49182214722E+03  0.69944395429E+03  0.25500000920E-02 0.  1.
</event>
<event>
 5   0  0.6376961E-03  0.8573900E+03  0.7818609E-02  0.9480472E-01
       -2   -1    0    0    0  501  0.00000000000E+00  0.00000000000E+00  0.14518036248E+03  0.14518036250E+03  0.25500000920E-02 0. -1.
        2   -1    0    0  501    0  0.00000000000E+00  0.00000000000E+00 -0.12658695328E+04  0.12658695328E+04  0.25500000920E-02 0.  1.
    10030    2    1    2    0    0  0.00000000000E+00  0.00000000000E+00 -0.11206891703E+04  0.14110498953E+04  0.85738998743E+03 0.  0.
        3    1    3    3  502    0 -0.17550647810E+03  0.32880458753E+03 -0.21175458203E+03  0.42866652989E+03  0.10100000352E+00 0. -1.
       -3    1    3    3    0  502  0.17550647810E+03 -0.32880458753E+03 -0.90893458829E+03  0.98238336541E+03  0.10100000352E+00 0.  1.
</event>
<event>
 5   0  0.3643002E-03  0.1006040E+04  0.7818609E-02  0.9301945E-01
       -1   -1    0    0    0  501  0.00000000000E+00  0.00000000000E+00  0.48851183413E+03  0.48851183416E+03  0.50400001928E-02 0.  1.
        1   -1    0    0  501    0  0.00000000000E+00  0.00000000000E+00 -0.51795886118E+03  0.51795886120E+03  0.50400001928E-02 0. -1.
    10030    2    1    2    0    0  0.00000000000E+00  0.00000000000E+00 -0.29447027045E+02  0.10064706954E+04  0.10060398269E+04 0.  0.
        2    1    3    3  502    0 -0.79301795874E+02  0.31634100292E+03 -0.39786093826E+03  0.51444507108E+03  0.25500000920E-02 0. -1.
       -2    1    3    3    0  502  0.79301795874E+02 -0.31634100292E+03  0.36841391122E+03  0.49202562428E+03  0.25500000920E-02 0.  1.
</event>
<event>
 5   0  0.6606947E-03  0.1019043E+04  0.7818609E-02  0.9287902E-01
       -2   -1    0    0    0  501  0.00000000000E+00  0.00000000000E+00  0.17685901887E+03  0.17685901889E+03  0.25500000920E-02 0. -1.
        2   -1    0    0  501    0  0.00000000000E+00  0.00000000000E+00 -0.14679041714E+04  0.14679041714E+04  0.25500000920E-02 0.  1.
    10030    2    1    2    0    0  0.00000000000E+00  0.00000000000E+00 -0.12910451526E+04  0.16447631903E+04  0.10190428677E+04 0.  0.
        1    1    3    3  502    0  0.84416256169E+02 -0.48149901546E+03 -0.87743021737E+03  0.10044158464E+04  0.50400001928E-02 0.  1.
       -1    1    3    3    0  502 -0.84416256169E+02  0.48149901546E+03 -0.41361493519E+03  0.64034734389E+03  0.50400001928E-02 0. -1.
</event>
<event>
 5   0  0.3466598E-03  0.1006246E+04  0.7818609E-02  0.9301721E-01
       -1   -1    0    0    0  501  0.00000000000E+00  0.00000000000E+00  0.41781878103E+03  0.41781878107E+03  0.50400001928E-02 0.  1.
        1   -1    0    0  501    0  0.00000000000E+00  0.00000000000E+00 -0.60584347095E+03  0.60584347097E+03  0.50400001928E-02 0. -1.
    10030    2    1    2    0    0  0.00000000000E+00  0.00000000000E+00 -0.18802468991E+03  0.10236622520E+04  0.10062460545E+04 0.  0.
        3    1    3    3  502    0 -0.20718999619E+03  0.73555902224E+02  0.36636267871E+03  0.42727015789E+03  0.10100000352E+00 0.  1.
       -3    1    3    3    0  502  0.20718999619E+03 -0.73555902224E+02 -0.55438736862E+03  0.59639209415E+03  0.10100000352E+00 0. -1.
</event>
<event>
 5   0  0.3466598E-03  0.9936126E+03  0.7818609E-02  0.9315578E-01
       -1   -1    0    0    0  501  0.00000000000E+00  0.00000000000E+00  0.43711572441E+03  0.43711572444E+03  0.50400001928E-02 0. -1.
        1   -1    0    0  501    0  0.00000000000E+00  0.00000000000E+00 -0.56464795247E+03  0.56464795249E+03  0.50400001928E-02 0.  1.
    10030    2    1    2    0    0  0.00000000000E+00  0.00000000000E+00 -0.12753222806E+03  0.10017636769E+04  0.99361259816E+03 0.  0.
        3    1    3    3  502    0 -0.47264376190E+03 -0.15113103813E+03 -0.88125700663E+02  0.50398300137E+03  0.10100000352E+00 0.  1.
       -3    1    3    3    0  502  0.47264376190E+03  0.15113103813E+03 -0.39406527400E+02  0.49778067555E+03  0.10100000352E+00 0. -1.
</event>
<event>
 5   0  0.3569359E-03  0.9985562E+03  0.7818609E-02  0.9310130E-01
       -1   -1    0    0    0  501  0.00000000000E+00  0.00000000000E+00  0.38290366144E+03  0.38290366148E+03  0.50400001928E-02 0. -1.
        1   -1    0    0  501    0  0.00000000000E+00  0.00000000000E+00 -0.65102175694E+03  0.65102175696E+03  0.50400001928E-02 0.  1.
    10030    2    1    2    0    0  0.00000000000E+00  0.00000000000E+00 -0.26811809549E+03  0.10339254184E+04  0.99855618658E+03 0.  0.
        4    1    3    3  502    0  0.34082675776E+02  0.12702478458E+03 -0.63276212680E+03  0.64628665985E+03  0.12699999809E+01 0.  1.
       -4    1    3    3    0  502 -0.34082675776E+02 -0.12702478458E+03  0.36464403131E+03  0.38763875858E+03  0.12699999809E+01 0. -1.
</event>
<event>
 5   0  0.6360455E-03  0.1005820E+04  0.7818609E-02  0.9302185E-01
       -2   -1    0    0    0  501  0.00000000000E+00  0.00000000000E+00  0.42072714988E+03  0.42072714989E+03  0.25500000920E-02 0.  1.
        2   -1    0    0  501    0  0.00000000000E+00  0.00000000000E+00 -0.60114585206E+03  0.60114585206E+03  0.25500000920E-02 0. -1.
    10030    2    1    2    0    0  0.00000000000E+00  0.00000000000E+00 -0.18041870217E+03  0.10218730020E+04  0.10058198268E+04 0.  0.
        4    1    3    3  502    0  0.19032881855E+03 -0.35075107680E+03  0.22072328462E+03  0.45603920700E+03  0.12699999809E+01 0.  1.
       -4    1    3    3    0  502 -0.19032881855E+03  0.35075107680E+03 -0.40114198679E+03  0.56583379496E+03  0.12699999809E+01 0. -1.
</event>
<event>
 5   0  0.3466598E-03  0.1009989E+04  0.7818609E-02  0.9297656E-01
        1   -1    0    0  501    0  0.00000000000E+00  0.00000000000E+00  0.88493545795E+03  0.88493545796E+03  0.50400001928E-02 0. -1.
       -1   -1    0    0    0  501  0.00000000000E+00  0.00000000000E+00 -0.28817882722E+03  0.28817882727E+03  0.50400001928E-02 0.  1.
    10030    2    1    2    0    0  0.00000000000E+00  0.00000000000E+00  0.59675663072E+03  0.11731142852E+04  0.10099894306E+04 0.  0.
        3    1    3    3  502    0  0.32444255357E+03  0.36098533695E+03  0.46035094389E+03  0.66895170663E+03  0.10100000352E+00 0. -1.
       -3    1    3    3    0  502 -0.32444255357E+03 -0.36098533695E+03  0.13640568683E+03  0.50416257860E+03  0.10100000352E+00 0.  1.
</event>
<event>
 5   0  0.6022787E-03  0.1001552E+04  0.7818609E-02  0.9306845E-01
       -2   -1    0    0    0  501  0.00000000000E+00  0.00000000000E+00  0.37222438619E+03  0.37222438619E+03  0.25500000920E-02 0.  1.
        2   -1    0    0  501    0  0.00000000000E+00  0.00000000000E+00 -0.67372383880E+03  0.67372383880E+03  0.25500000920E-02 0. -1.
    10030    2    1    2    0    0  0.00000000000E+00  0.00000000000E+00 -0.30149945261E+03  0.10459482250E+04  0.10015516809E+04 0.  0.
        5    1    3    3  502    0  0.24440004042E+03 -0.42027017802E+03 -0.27605143374E+03  0.55909291389E+03  0.46999998093E+01 0. -1.
       -5    1    3    3    0  502 -0.24440004042E+03  0.42027017802E+03 -0.25448018869E+02  0.48685531111E+03  0.46999998093E+01 0.  1.
</event>
<event>
 5   0  0.3466598E-03  0.1011783E+04  0.7818609E-02  0.9295715E-01
        1   -1    0    0  501    0  0.00000000000E+00  0.00000000000E+00  0.13059855861E+04  0.13059855861E+04  0.50400001928E-02 0.  1.
       -1   -1    0    0    0  501  0.00000000000E+00  0.00000000000E+00 -0.19596409280E+03  0.19596409287E+03  0.50400001928E-02 0. -1.
    10030    2    1    2    0    0  0.00000000000E+00  0.00000000000E+00  0.11100214933E+04  0.15019496790E+04  0.10117831401E+04 0.  0.
        3    1    3    3  502    0 -0.34234328603E+03 -0.24148778435E+03  0.13406544930E+03  0.43987365274E+03  0.10100000352E+00 0. -1.
       -3    1    3    3    0  502  0.34234328603E+03  0.24148778435E+03  0.97595604403E+03  0.10620760263E+04  0.10100000352E+00 0.  1.
</event>
<event>
 5   0  0.6606947E-03  0.1004595E+04  0.7818609E-02  0.9303519E-01
       -2   -1    0    0    0  501  0.00000000000E+00  0.00000000000E+00  0.48200687558E+03  0.48200687559E+03  0.25500000920E-02 0.  1.
        2   -1    0    0  501    0  0.00000000000E+00  0.00000000000E+00 -0.52344263591E+03  0.52344263591E+03  0.25500000920E-02 0. -1.
    10030    2    1    2    0    0  0.00000000000E+00  0.00000000000E+00 -0.41435760329E+02  0.10054495115E+04  0.10045953404E+04 0.  0.
        1    1    3    3  502    0 -0.29266861509E+03 -0.22482998392E+03 -0.36174137480E+03  0.51677873621E+03  0.50400001928E-02 0. -1.
       -1    1    3    3    0  502  0.29266861509E+03  0.22482998392E+03  0.32030561447E+03  0.48867077529E+03  0.50400001928E-02 0.  1.
</event>
<event>
 5   0  0.3466598E-03  0.9535463E+03  0.7818609E-02  0.9361015E-01
        1   -1    0    0  501    0  0.00000000000E+00  0.00000000000E+00  0.79725427624E+03  0.79725427626E+03  0.50400001928E-02 0. -1.
       -1   -1    0    0    0  501  0.00000000000E+00  0.00000000000E+00 -0.28511937651E+03  0.28511937655E+03  0.50400001928E-02 0.  1.
    10030    2    1    2    0    0  0.00000000000E+00  0.00000000000E+00  0.51213489973E+03  0.10823736528E+04  0.95354631182E+03 0.  0.
        3    1    3    3  502    0  0.29146630638E+03  0.11531325947E+03 -0.15172209924E+03  0.34823750683E+03  0.10100000352E+00 0.  1.
       -3    1    3    3    0  502 -0.29146630638E+03 -0.11531325947E+03  0.66385699897E+03  0.73413614599E+03  0.10100000352E+00 0. -1.
</event>
<event>
 5   0  0.6022787E-03  0.1018940E+04  0.7818609E-02  0.9288012E-01
        2   -1    0    0  501    0  0.00000000000E+00  0.00000000000E+00  0.97413184029E+03  0.97413184030E+03  0.25500000920E-02 0.  1.
       -2   -1    0    0    0  501  0.00000000000E+00  0.00000000000E+00 -0.26645243658E+03  0.26645243659E+03  0.25500000920E-02 0. -1.
    10030    2    1    2    0    0  0.00000000000E+00  0.00000000000E+00  0.70767940371E+03  0.12405842769E+04  0.10189402385E+04 0.  0.
        5    1    3    3  502    0  0.26604267267E+03  0.21556239709E+02  0.88215865274E+03  0.92166661747E+03  0.46999998093E+01 0.  1.
       -5    1    3    3    0  502 -0.26604267267E+03 -0.21556239709E+02 -0.17447924903E+03  0.31891765942E+03  0.46999998093E+01 0. -1.
</event>
<event>
 5   0  0.6376961E-03  0.9981551E+03  0.7818609E-02  0.9310571E-01
       -2   -1    0    0    0  501  0.00000000000E+00  0.00000000000E+00  0.34141392817E+03  0.34141392818E+03  0.25500000920E-02 0. -1.
        2   -1    0    0  501    0  0.00000000000E+00  0.00000000000E+00 -0.72954961389E+03  0.72954961390E+03  0.25500000920E-02 0.  1.
    10030    2    1    2    0    0  0.00000000000E+00  0.00000000000E+00 -0.38813568573E+03  0.10709635421E+04  0.99815509713E+03 0.  0.
        3    1    3    3  502    0  0.30921702759E+02  0.48593862383E+03 -0.76601938166E+02  0.49291009826E+03  0.10100000352E+00 0.  1.
       -3    1    3    3    0  502 -0.30921702759E+02 -0.48593862383E+03 -0.31153374756E+03  0.57805344381E+03  0.10100000352E+00 0. -1.
</event>
<event>
 5   0  0.6376961E-03  0.9899997E+03  0.7818609E-02  0.9319581E-01
        2   -1    0    0  501    0  0.00000000000E+00  0.00000000000E+00  0.13188090553E+04  0.13188090553E+04  0.25500000920E-02 0.  1.
       -2   -1    0    0    0  501  0.00000000000E+00  0.00000000000E+00 -0.18579252105E+03  0.18579252107E+03  0.25500000920E-02 0. -1.
    10030    2    1    2    0    0  0.00000000000E+00  0.00000000000E+00  0.11330165343E+04  0.15046015764E+04  0.98999971553E+03 0.  0.
        3    1    3    3  502    0 -0.33628503392E+03  0.11287509256E+03  0.41799788202E+02  0.35717732718E+03  0.10100000352E+00 0. -1.
       -3    1    3    3    0  502  0.33628503392E+03 -0.11287509256E+03  0.10912167461E+04  0.11474242492E+04  0.10100000352E+00 0.  1.
</event>
<event>
 5   0  0.3608845E-03  0.1001651E+04  0.7818609E-02  0.9306736E-01
       -1   -1    0    0    0  501  0.00000000000E+00  0.00000000000E+00  0.17968020923E+03  0.17968020931E+03  0.50400001928E-02 0.  1.
        1   -1    0    0  501    0  0.00000000000E+00  0.00000000000E+00 -0.13959578569E+04  0.13959578569E+04  0.50400001928E-02 0. -1.
    10030    2    1    2    0    0  0.00000000000E+00  0.00000000000E+00 -0.12162776476E+04  0.15756380662E+04  0.10016506374E+04 0.  0.
        1    1    3    3  502    0 -0.37575917316E+03 -0.32980958020E+03 -0.56209720015E+03  0.75227825826E+03  0.50400001928E-02 0. -1.
       -1    1    3    3    0  502  0.37575917316E+03  0.32980958020E+03 -0.65418044749E+03  0.82335980793E+03  0.50400001928E-02 0.  1.
</event>
<event>
 5   0  0.3569359E-03  0.9892567E+03  0.7818609E-02  0.9320407E-01
        1   -1    0    0  501    0  0.00000000000E+00  0.00000000000E+00  0.17894049971E+04  0.17894049971E+04  0.50400001928E-02 0.  1.
       -1   -1    0    0    0  501  0.00000000000E+00  0.00000000000E+00 -0.13672546208E+03  0.13672546217E+03  0.50400001928E-02 0. -1.
    10030    2    1    2    0    0  0.00000000000E+00  0.00000000000E+00  0.16526795350E+04  0.19261304593E+04  0.98925674154E+03 0.  0.
        4    1    3    3  502    0  0.21313698037E+03  0.24472559320E+03  0.99546525027E+02  0.33945413816E+03  0.12699999809E+01 0. -1.
       -4    1    3    3    0  502 -0.21313698037E+03 -0.24472559320E+03  0.15531330100E+04  0.15866763211E+04  0.12699999809E+01 0.  1.
</event>
<event>
 5   0  0.3608845E-03  0.1003445E+04  0.7818609E-02  0.9304775E-01
        1   -1    0    0  501    0  0.00000000000E+00  0.00000000000E+00  0.85913910773E+03  0.85913910775E+03  0.50400001928E-02 0.  1.
       -1   -1    0    0    0  501  0.00000000000E+00  0.00000000000E+00 -0.29299707937E+03  0.29299707941E+03  0.50400001928E-02 0. -1.
    10030    2    1    2    0    0  0.00000000000E+00  0.00000000000E+00  0.56614202837E+03  0.11521361872E+04  0.10034445662E+04 0.  0.
        1    1    3    3  502    0  0.22546235271E+03 -0.37734403968E+03  0.56078719250E+03  0.71253355856E+03  0.50400001928E-02 0.  1.
       -1    1    3    3    0  502 -0.22546235271E+03  0.37734403968E+03  0.53548358648E+01  0.43960262860E+03  0.50400001928E-02 0. -1.
</event>
<event>
 5   0  0.3640180E-03  0.1013513E+04  0.7818609E-02  0.9293847E-01
       -1   -1    0    0    0  501  0.00000000000E+00  0.00000000000E+00  0.33509765117E+03  0.33509765120E+03  0.50400001928E-02 0. -1.
        1   -1    0    0  501    0  0.00000000000E+00  0.00000000000E+00 -0.76635009374E+03  0.76635009375E+03  0.50400001928E-02 0.  1.
    10030    2    1    2    0    0  0.00000000000E+00  0.00000000000E+00 -0.43125244257E+03  0.11014477450E+04  0.10135129331E+04 0.  0.
        5    1    3    3  502    0  0.44452772452E+03 -0.14453788205E+03 -0.29872535350E+01  0.46746883415E+03  0.46999998093E+01 0. -1.
       -5    1    3    3    0  502 -0.44452772452E+03  0.14453788205E+03 -0.42826518904E+03  0.63397891081E+03  0.46999998093E+01 0.  1.
</event>
<event>
 5   0  0.3466598E-03  0.1004419E+04  0.7818609E-02  0.9303712E-01
       -1   -1    0    0    0  501  0.00000000000E+00  0.00000000000E+00  0.22514736075E+03  0.22514736081E+03  0.50400001928E-02 0. -1.
        1   -1    0    0  501    0  0.00000000000E+00  0.00000000000E+00 -0.11202185570E+04  0.11202185570E+04  0.50400001928E-02 0.  1.
    10030    2    1    2    0    0  0.00000000000E+00  0.00000000000E+00 -0.89507119627E+03  0.13453659178E+04  0.10044187406E+04 0.  0.
        3    1    3    3  502    0  0.84482924451E+02  0.16452775960E+03 -0.10729405633E+04  0.10887645341E+04  0.10100000352E+00 0.  1.
       -3    1    3    3    0  502 -0.84482924451E+02 -0.16452775960E+03  0.17786936702E+03  0.25660138372E+03  0.10100000352E+00 0. -1.
</event>
<event>
 5   0  0.3569359E-03  0.9740183E+03  0.7818609E-02  0.9337509E-01
       -1   -1    0    0    0  501  0.00000000000E+00  0.00000000000E+00  0.18476032068E+03  0.18476032075E+03  0.50400001928E-02 0. -1.
        1   -1    0    0  501    0  0.00000000000E+00  0.00000000000E+00 -0.12837060127E+04  0.12837060127E+04  0.50400001928E-02 0.  1.
    10030    2    1    2    0    0  0.00000000000E+00  0.00000000000E+00 -0.10989456920E+04  0.14684663334E+04  0.97401834606E+03 0.  0.
        4    1    3    3  502    0  0.19621748375E+03  0.34699082911E+03 -0.12767812351E+03  0.41857765413E+03  0.12699999809E+01 0. -1.
       -4    1    3    3    0  502 -0.19621748375E+03 -0.34699082911E+03 -0.97126756848E+03  0.10498886793E+04  0.12699999809E+01 0.  1.
</event>
<event>
 5   0  0.3643002E-03  0.9983980E+03  0.7818609E-02  0.9310304E-01
        1   -1    0    0  501    0  0.00000000000E+00  0.00000000000E+00  0.24351996416E+04  0.24351996416E+04  0.50400001928E-02 0. -1.
       -1   -1    0    0    0  501  0.00000000000E+00  0.00000000000E+00 -0.10233232342E+03  0.10233232354E+03  0.50400001928E-02 0.  1.
    10030    2    1    2    0    0  0.00000000000E+00  0.00000000000E+00  0.23328673182E+04  0.25375319652E+04  0.99839799174E+03 0.  0.
        2    1    3    3  502    0 -0.11821805755E+03  0.31683760131E+03  0.23314911188E+03  0.41075550284E+03  0.25500000920E-02 0.  1.
       -2    1    3    3    0  502  0.11821805755E+03 -0.31683760131E+03  0.20997182063E+04  0.21267764623E+04  0.25500000920E-02 0. -1.
</event>
<event>
 5   0  0.6199539E-03  0.9831992E+03  0.7818609E-02  0.9327166E-01
        2   -1    0    0  501    0  0.00000000000E+00  0.00000000000E+00  0.10723472622E+04  0.10723472622E+04  0.25500000920E-02 0. -1.
       -2   -1    0    0    0  501  0.00000000000E+00  0.00000000000E+00 -0.22536556368E+03  0.22536556369E+03  0.25500000920E-02 0.  1.
    10030    2    1    2    0    0  0.00000000000E+00  0.00000000000E+00  0.84698169849E+03  0.12977128259E+04  0.98319915625E+03 0.  0.
        2    1    3    3  502    0  0.10977079856E+03  0.44690390022E+02 -0.20622618894E+03  0.23785731056E+03  0.25500000920E-02 0.  1.
       -2    1    3    3    0  502 -0.10977079856E+03 -0.44690390022E+02  0.10532078874E+04  0.10598555153E+04  0.25500000920E-02 0. -1.
</event>
<event>
 5   0  0.3640180E-03  0.1022006E+04  0.7818609E-02  0.9284733E-01
        1   -1    0    0  501    0  0.00000000000E+00  0.00000000000E+00  0.18690421103E+04  0.18690421103E+04  0.50400001928E-02 0.  1.
       -1   -1    0    0    0  501  0.00000000000E+00  0.00000000000E+00 -0.13971011049E+03  0.13971011058E+03  0.50400001928E-02 0. -1.
    10030    2    1    2    0    0  0.00000000000E+00  0.00000000000E+00  0.17293319998E+04  0.20087522208E+04  0.10220060271E+04 0.  0.
        5    1    3    3  502    0 -0.29980222753E+03  0.10737096413E+03  0.79223104421E+02  0.32818941153E+03  0.46999998093E+01 0. -1.
       -5    1    3    3    0  502  0.29980222753E+03 -0.10737096413E+03  0.16501088953E+04  0.16805628093E+04  0.46999998093E+01 0.  1.
</event>
<event>
 5   0  0.3466598E-03  0.9830215E+03  0.7818609E-02  0.9327365E-01
       -1   -1    0    0    0  501  0.00000000000E+00  0.00000000000E+00  0.19564063015E+03  0.19564063022E+03  0.50400001928E-02 0. -1.
        1   -1    0    0  501    0  0.00000000000E+00  0.00000000000E+00 -0.12348293674E+04  0.12348293674E+04  0.50400001928E-02 0.  1.
    10030    2    1    2    0    0  0.00000000000E+00  0.00000000000E+00 -0.10391887372E+04  0.14304699976E+04  0.98302145576E+03 0.  0.
        3    1    3    3  502    0 -0.25980585391E+03 -0.24926690129E+03 -0.10064803314E+04  0.10689414098E+04  0.10100000352E+00 0.  1.
       -3    1    3    3    0  502  0.25980585391E+03  0.24926690129E+03 -0.32708405803E+02  0.36152858783E+03  0.10100000352E+00 0. -1.
</event>
<event>
 5   0  0.6199539E-03  0.9891860E+03  0.7818609E-02  0.9320486E-01
        2   -1    0    0  501    0  0.00000000000E+00  0.00000000000E+00  0.12606875850E+04  0.12606875850E+04  0.25500000920E-02 0. -1.
       -2   -1    0    0    0  501  0.00000000000E+00  0.00000000000E+00 -0.19403873409E+03  0.19403873410E+03  0.25500000920E-02 0.  1.
    10030    2    1    2    0    0  0.00000000000E+00  0.00000000000E+00  0.10666488509E+04  0.14547263191E+04  0.98918597459E+03 0.  0.
        2    1    3    3  502    0  0.16841048952E+03  0.43694707645E+03  0.29923369334E+03  0.55572083264E+03  0.25500000920E-02 0.  1.
       -2    1    3    3    0  502 -0.16841048952E+03 -0.43694707645E+03  0.76741515755E+03  0.89900548644E+03  0.25500000920E-02 0. -1.
</event>
<event>
 5   0  0.3643002E-03  0.9809557E+03  0.7818609E-02  0.9329682E-01
        1   -1    0    0  501    0  0.00000000000E+00  0.00000000000E+00  0.89491029627E+03  0.89491029629E+03  0.50400001928E-02 0. -1.
       -1   -1    0    0    0  501  0.00000000000E+00  0.00000000000E+00 -0.26881859702E+03  0.26881859707E+03  0.50400001928E-02 0.  1.
    10030    2    1    2    0    0  0.00000000000E+00  0.00000000000E+00  0.62609169925E+03  0.11637288934E+04  0.98095571835E+03 0.  0.
        2    1    3    3  502    0 -0.12655312659E+03 -0.74844543571E+02 -0.24206026379E+03  0.28321470807E+03  0.25500000920E-02 0.  1.
       -2    1    3    3    0  502  0.12655312659E+03  0.74844543571E+02  0.86815196305E+03  0.88051418529E+03  0.25500000920E-02 0. -1.
</event>
<event>
 5   0  0.3640180E-03  0.9969894E+03  0.7818609E-02  0.9311853E-01
        1   -1    0    0  501    0  0.00000000000E+00  0.00000000000E+00  0.55161440891E+03  0.55161440894E+03  0.50400001928E-02 0. -1.
       -1   -1    0    0    0  501  0.00000000000E+00  0.00000000000E+00 -0.45049036071E+03  0.45049036074E+03  0.50400001928E-02 0.  1.
    10030    2    1    2    0    0  0.00000000000E+00  0.00000000000E+00  0.10112404820E+03  0.10021047697E+04  0.99698941633E+03 0.  0.
        5    1    3    3  502    0  0.77982750160E+02  0.49150320794E+03  0.21811569806E+02  0.49815112899E+03  0.46999998093E+01 0.  1.
       -5    1    3    3    0  502 -0.77982750160E+02 -0.49150320794E+03  0.79312478397E+02  0.50395364069E+03  0.46999998093E+01 0. -1.
</event>
<event>
 5   0  0.6606947E-03  0.9866676E+03  0.7818609E-02  0.9323290E-01
        2   -1    0    0  501    0  0.00000000000E+00  0.00000000000E+00  0.92556604106E+03  0.92556604106E+03  0.25500000920E-02 0.  1.
       -2   -1    0    0    0  501  0.00000000000E+00  0.00000000000E+00 -0.26295069663E+03  0.26295069664E+03  0.25500000920E-02 0. -1.
    10030    2    1    2    0    0  0.00000000000E+00  0.00000000000E+00  0.66261534443E+03  0.11885167377E+04  0.98666759404E+03 0.  0.
        1    1    3    3  502    0 -0.37720613250E+03  0.12526725506E+03  0.68332834011E+03  0.79051500429E+03  0.50400001928E-02 0.  1.
       -1    1    3    3    0  502  0.37720613250E+03 -0.12526725506E+03 -0.20712995678E+02  0.39800173341E+03  0.50400001928E-02 0. -1.
</event>
<event>
 5   0  0.6199539E-03  0.1008249E+04  0.7818609E-02  0.9299543E-01
        2   -1    0    0  501    0  0.00000000000E+00  0.00000000000E+00  0.12546646450E+04  0.12546646450E+04  0.25500000920E-02 0.  1.
       -2   -1    0    0    0  501  0.00000000000E+00  0.00000000000E+00 -0.20255746128E+03  0.20255746129E+03  0.25500000920E-02 0. -1.
    10030    2    1    2    0    0  0.00000000000E+00  0.00000000000E+00  0.10521071837E+04  0.14572221062E+04  0.10082493447E+04 0.  0.
        2    1    3    3  502    0 -0.20526359722E+03  0.60427260828E+02  0.11857770717E+04  0.12049281563E+04  0.25500000920E-02 0.  1.
       -2    1    3    3    0  502  0.20526359722E+03 -0.60427260828E+02 -0.13366988801E+03  0.25229394991E+03  0.25500000920E-02 0. -1.
</event>
<event>
 5   0  0.6360455E-03  0.1022425E+04  0.7818609E-02  0.9284286E-01
       -2   -1    0    0    0  501  0.00000000000E+00  0.00000000000E+00  0.10334495633E+04  0.10334495633E+04  0.25500000920E-02 0. -1.
        2   -1    0    0  501    0  0.00000000000E+00  0.00000000000E+00 -0.25287930471E+03  0.25287930473E+03  0.25500000920E-02 0.  1.
    10030    2    1    2    0    0  0.00000000000E+00  0.00000000000E+00  0.78057025858E+03  0.12863288680E+04  0.10224245831E+04 0.  0.
        4    1    3    3  502    0  0.25973854812E+03  0.94863883091E+02  0.93123575031E+03  0.97142416340E+03  0.12699999809E+01 0. -1.
       -4    1    3    3    0  502 -0.25973854812E+03 -0.94863883091E+02 -0.15066549173E+03  0.31490470462E+03  0.12699999809E+01 0.  1.
</event>
<event>
 5   0  0.6022787E-03  0.8143804E+03  0.7818609E-02  0.9539432E-01
       -2   -1    0    0    0  501  0.00000000000E+00  0.00000000000E+00  0.16164541596E+03  0.16164541598E+03  0.25500000920E-02 0.  1.
        2   -1    0    0  501    0  0.00000000000E+00  0.00000000000E+00 -0.10257257450E+04  0.10257257450E+04  0.25500000920E-02 0. -1.
    10030    2    1    2    0    0  0.00000000000E+00  0.00000000000E+00 -0.86408032900E+03  0.11873711609E+04  0.81438041409E+03 0.  0.
        5    1    3    3  502    0 -0.17231446569E+03  0.10334012441E+03 -0.94836832406E+03  0.96943077343E+03  0.46999998093E+01 0. -1.
       -5    1    3    3    0  502  0.17231446569E+03 -0.10334012441E+03  0.84287995056E+02  0.21794038751E+03  0.46999998093E+01 0.  1.
</event>
<event>
 5   0  0.6360455E-03  0.9977842E+03  0.7818609E-02  0.9310978E-01
        2   -1    0    0  501    0  0.00000000000E+00  0.00000000000E+00  0.66593601827E+03  0.66593601828E+03  0.25500000920E-02 0. -1.
       -2   -1    0    0    0  501  0.00000000000E+00  0.00000000000E+00 -0.37374962546E+03  0.37374962546E+03  0.25500000920E-02 0.  1.
    10030    2    1    2    0    0  0.00000000000E+00  0.00000000000E+00  0.29218639281E+03  0.10396856437E+04  0.99778421999E+03 0.  0.
        4    1    3    3  502    0  0.13819761156E+03  0.32467565868E+03 -0.22139103142E+03  0.41656747937E+03  0.12699999809E+01 0.  1.
       -4    1    3    3    0  502 -0.13819761156E+03 -0.32467565868E+03  0.51357742424E+03  0.62311816437E+03  0.12699999809E+01 0. -1.
</event>
<event>
 5   0  0.6606947E-03  0.1012672E+04  0.7818609E-02  0.9294755E-01
       -2   -1    0    0    0  501  0.00000000000E+00  0.00000000000E+00  0.17687218472E+03  0.17687218474E+03  0.25500000920E-02 0.  1.
        2   -1    0    0  501    0  0.00000000000E+00  0.00000000000E+00 -0.14494981381E+04  0.14494981381E+04  0.25500000920E-02 0. -1.
    10030    2    1    2    0    0  0.00000000000E+00  0.00000000000E+00 -0.12726259534E+04  0.16263703229E+04  0.10126715212E+04 0.  0.
        1    1    3    3  502    0 -0.16353602947E+03  0.24201903087E+03  0.27924499390E+02  0.29342294036E+03  0.50400001928E-02 0.  1.
       -1    1    3    3    0  502  0.16353602947E+03 -0.24201903087E+03 -0.13005504528E+04  0.13329473825E+04  0.50400001928E-02 0. -1.
</event>
<event>
 5   0  0.3643002E-03  0.1005750E+04  0.7818609E-02  0.9302260E-01
        1   -1    0    0  501    0  0.00000000000E+00  0.00000000000E+00  0.18076900359E+04  0.18076900359E+04  0.50400001928E-02 0.  1.
       -1   -1    0    0    0  501  0.00000000000E+00  0.00000000000E+00 -0.13989310137E+03  0.13989310146E+03  0.50400001928E-02 0. -1.
    10030    2    1    2    0    0  0.00000000000E+00  0.00000000000E+00  0.16677969345E+04  0.19475831373E+04  0.10057501987E+04 0.  0.
        2    1    3    3  502    0 -0.22532426573E+03 -0.24033012981E+03  0.15696309712E+04  0.16038300975E+04  0.25500000920E-02 0.  1.
       -2    1    3    3    0  502  0.22532426573E+03  0.24033012981E+03  0.98165963303E+02  0.34375303981E+03  0.25500000920E-02 0. -1.
</event>
<event>
 5   0  0.6199539E-03  0.1002095E+04  0.7818609E-02  0.9306249E-01
        2   -1    0    0  501    0  0.00000000000E+00  0.00000000000E+00  0.48465049306E+03  0.48465049307E+03  0.25500000920E-02 0.  1.
       -2   -1    0    0    0  501  0.00000000000E+00  0.00000000000E+00 -0.51799977606E+03  0.51799977607E+03  0.25500000920E-02 0. -1.
    10030    2    1    2    0    0  0.00000000000E+00  0.00000000000E+00 -0.33349282995E+02  0.10026502691E+04  0.10020954982E+04 0.  0.
        2    1    3    3  502    0 -0.17524158543E+03 -0.36308664277E+02 -0.48493043307E+03  0.51689985228E+03  0.25500000920E-02 0. -1.
       -2    1    3    3    0  502  0.17524158543E+03  0.36308664277E+02  0.45158115007E+03  0.48575041686E+03  0.25500000920E-02 0.  1.
</event>
<event>
 5   0  0.6376961E-03  0.9904497E+03  0.7818609E-02  0.9319082E-01
       -2   -1    0    0    0  501  0.00000000000E+00  0.00000000000E+00  0.16057531552E+03  0.16057531554E+03  0.25500000920E-02 0.  1.
        2   -1    0    0  501    0  0.00000000000E+00  0.00000000000E+00 -0.15273060605E+04  0.15273060605E+04  0.25500000920E-02 0. -1.
    10030    2    1    2    0    0  0.00000000000E+00  0.00000000000E+00 -0.13667307449E+04  0.16878813760E+04  0.99044970105E+03 0.  0.
        3    1    3    3  502    0 -0.15100371820E+03 -0.47154559009E+03 -0.66717355893E+03  0.83082966628E+03  0.10100000352E+00 0.  1.
       -3    1    3    3    0  502  0.15100371820E+03  0.47154559009E+03 -0.69955718601E+03  0.85705170972E+03  0.10100000352E+00 0. -1.
</event>
<event>
 5   0  0.2417750E-03  0.1000468E+04  0.7818609E-02  0.9308031E-01
       -4   -1    0    0    0  501  0.00000000000E+00  0.00000000000E+00  0.10336408727E+04  0.10336416530E+04  0.12699999809E+01 0. -1.
        4   -1    0    0  501    0  0.00000000000E+00  0.00000000000E+00 -0.24208750581E+03  0.24209083702E+03  0.12699999809E+01 0.  1.
    10030    2    1    2    0    0  0.00000000000E+00  0.00000000000E+00  0.79155336694E+03  0.12757324900E+04  0.10004682170E+04 0.  0.
        4    1    3    3  502    0  0.17756535404E+03  0.35180737351E+03  0.78866465808E+03  0.88164133230E+03  0.12699999809E+01 0. -1.
       -4    1    3    3    0  502 -0.17756535404E+03 -0.35180737351E+03  0.28887088668E+01  0.39409115767E+03  0.12699999809E+01 0.  1.
</event>
<event>
 5   0  0.6606947E-03  0.1003584E+04  0.7818609E-02  0.9304623E-01
        2   -1    0    0  501    0  0.00000000000E+00  0.00000000000E+00  0.56829197651E+03  0.56829197651E+03  0.25500000920E-02 0.  1.
       -2   -1    0    0    0  501  0.00000000000E+00  0.00000000000E+00 -0.44307351257E+03  0.44307351257E+03  0.25500000920E-02 0. -1.
    10030    2    1    2    0    0  0.00000000000E+00  0.00000000000E+00  0.12521846394E+03  0.10113654891E+04  0.10035838225E+04 0.  0.
        1    1    3    3  502    0 -0.18101258365E+03  0.20243148268E+03  0.48784203749E+03  0.55833136593E+03  0.50400001928E-02 0.  1.
       -1    1    3    3    0  502  0.18101258365E+03 -0.20243148268E+03 -0.36262357355E+03  0.45303412315E+03  0.50400001928E-02 0. -1.
</event>
<event>
 5   0  0.3608845E-03  0.1014385E+04  0.7818609E-02  0.9292907E-01
       -1   -1    0    0    0  501  0.00000000000E+00  0.00000000000E+00  0.54616111989E+03  0.54616111992E+03  0.50400001928E-02 0. -1.
        1   -1    0    0  501    0  0.00000000000E+00  0.00000000000E+00 -0.47100419086E+03  0.47100419089E+03  0.50400001928E-02 0.  1.
    10030    2    1    2    0    0  0.00000000000E+00  0.00000000000E+00  0.75156929035E+02  0.10171653108E+04  0.10143848902E+04 0.  0.
        1    1    3    3  502    0 -0.32618838889E+03 -0.38831336623E+03  0.45217805470E+02  0.50914711567E+03  0.50400001928E-02 0.  1.
       -1    1    3    3    0  502  0.32618838889E+03  0.38831336623E+03  0.29939123565E+02  0.50801819513E+03  0.50400001928E-02 0. -1.
</event>
<event>
 5   0  0.6199539E-03  0.1009172E+04  0.7818609E-02  0.9298542E-01
       -2   -1    0    0    0  501  0.00000000000E+00  0.00000000000E+00  0.41495649469E+03  0.41495649470E+03  0.25500000920E-02 0.  1.
        2   -1    0    0  501    0  0.00000000000E+00  0.00000000000E+00 -0.61357558822E+03  0.61357558823E+03  0.25500000920E-02 0. -1.
    10030    2    1    2    0    0  0.00000000000E+00  0.00000000000E+00 -0.19861909353E+03  0.10285320829E+04  0.10091722852E+04 0.  0.
        2    1    3    3  502    0 -0.28597775073E+02 -0.33306467371E+03 -0.48452499465E+03  0.58865472058E+03  0.25500000920E-02 0. -1.
       -2    1    3    3    0  502  0.28597775073E+02  0.33306467371E+03  0.28590590111E+03  0.43987736235E+03  0.25500000920E-02 0.  1.
</event>
<event>
 5   0  0.3466598E-03  0.9792449E+03  0.7818609E-02  0.9331606E-01
        1   -1    0    0  501    0  0.00000000000E+00  0.00000000000E+00  0.46887102752E+03  0.46887102754E+03  0.50400001928E-02 0.  1.
       -1   -1    0    0    0  501  0.00000000000E+00  0.00000000000E+00 -0.51129231088E+03  0.51129231091E+03  0.50400001928E-02 0. -1.
    10030    2    1    2    0    0  0.00000000000E+00  0.00000000000E+00 -0.42421283365E+02  0.98016333845E+03  0.97924491562E+03 0.  0.
        3    1    3    3  502    0 -0.12576756199E+03  0.40996886100E+03  0.21531204962E+03  0.47984501201E+03  0.10100000352E+00 0.  1.
       -3    1    3    3    0  502  0.12576756199E+03 -0.40996886100E+03 -0.25773333298E+03  0.50031832644E+03  0.10100000352E+00 0. -1.
</event>
<event>
 5   0  0.6022787E-03  0.1055607E+04  0.7818609E-02  0.9249574E-01
        2   -1    0    0  501    0  0.00000000000E+00  0.00000000000E+00  0.94408663039E+03  0.94408663040E+03  0.25500000920E-02 0.  1.
       -2   -1    0    0    0  501  0.00000000000E+00  0.00000000000E+00 -0.29507519886E+03  0.29507519887E+03  0.25500000920E-02 0. -1.
    10030    2    1    2    0    0  0.00000000000E+00  0.00000000000E+00  0.64901143153E+03  0.12391618293E+04  0.10556070296E+04 0.  0.
        5    1    3    3  502    0  0.22985363082E+03  0.43995544147E+03  0.53502426954E+03  0.72984007911E+03  0.46999998093E+01 0.  1.
       -5    1    3    3    0  502 -0.22985363082E+03 -0.43995544147E+03  0.11398716199E+03  0.50932175015E+03  0.46999998093E+01 0. -1.
</event>
<event>
 5   0  0.3569359E-03  0.9916132E+03  0.7818609E-02  0.9317791E-01
       -1   -1    0    0    0  501  0.00000000000E+00  0.00000000000E+00  0.24200825776E+03  0.24200825781E+03  0.50400001928E-02 0. -1.
        1   -1    0    0  501    0  0.00000000000E+00  0.00000000000E+00 -0.10157676763E+04  0.10157676763E+04  0.50400001928E-02 0.  1.
    10030    2    1    2    0    0  0.00000000000E+00  0.00000000000E+00 -0.77375941852E+03  0.12577759341E+04  0.99161316180E+03 0.  0.
        4    1    3    3  502    0  0.88166675394E+02 -0.10059166257E+03 -0.99244674619E+03  0.10014210913E+04  0.12699999809E+01 0.  1.
       -4    1    3    3    0  502 -0.88166675394E+02  0.10059166257E+03  0.21868732767E+03  0.25635484277E+03  0.12699999809E+01 0. -1.
</event>
<event>
 5   0  0.6360455E-03  0.1006289E+04  0.7818609E-02  0.9301673E-01
        2   -1    0    0  501    0  0.00000000000E+00  0.00000000000E+00  0.15446627132E+04  0.15446627132E+04  0.25500000920E-02 0. -1.
       -2   -1    0    0    0  501  0.00000000000E+00  0.00000000000E+00 -0.16388991041E+03  0.16388991043E+03  0.25500000920E-02 0.  1.
    10030    2    1    2    0    0  0.00000000000E+00  0.00000000000E+00  0.13807728028E+04  0.17085526236E+04  0.10062894886E+04 0.  0.
        4    1    3    3  502    0 -0.20724432168E+03 -0.14324870296E+03  0.14298540772E+04  0.14518797108E+04  0.12699999809E+01 0. -1.
       -4    1    3    3    0  502  0.20724432168E+03  0.14324870296E+03 -0.49081274400E+02  0.25667291280E+03  0.12699999809E+01 0.  1.
</event>
<event>
 5   0  0.3608845E-03  0.1012239E+04  0.7818609E-02  0.9295223E-01
        1   -1    0    0  501    0  0.00000000000E+00  0.00000000000E+00  0.27076056622E+04  0.27076056622E+04  0.50400001928E-02 0. -1.
       -1   -1    0    0    0  501  0.00000000000E+00  0.00000000000E+00 -0.94606379807E+02  0.94606379941E+02  0.50400001928E-02 0.  1.
    10030    2    1    2    0    0  0.00000000000E+00  0.00000000000E+00  0.26129992824E+04  0.28022120422E+04  0.10122386474E+04 0.  0.
        1    1    3    3  502    0  0.12997805860E+03  0.10990321453E+03  0.26259915138E+04  0.26315023167E+04  0.50400001928E-02 0. -1.
       -1    1    3    3    0  502 -0.12997805860E+03 -0.10990321453E+03 -0.12992231337E+02  0.17070972550E+03  0.50400001928E-02 0.  1.
</event>
<event>
 5   0  0.6606947E-03  0.9987132E+03  0.7818609E-02  0.9309957E-01
       -2   -1    0    0    0  501  0.00000000000E+00  0.00000000000E+00  0.22614430199E+03  0.22614430201E+03  0.25500000920E-02 0. -1.
        2   -1    0    0  501    0  0.00000000000E+00  0.00000000000E+00 -0.11026456663E+04  0.11026456663E+04  0.25500000920E-02 0.  1.
    10030    2    1    2    0    0  0.00000000000E+00  0.00000000000E+00 -0.87650136428E+03  0.13287899683E+04  0.99871324124E+03 0.  0.
        1    1    3    3  502    0 -0.30458367744E+03  0.19479935696E+03 -0.89652901410E+03  0.96668623616E+03  0.50400001928E-02 0.  1.
       -1    1    3    3    0  502  0.30458367744E+03 -0.19479935696E+03  0.20027649815E+02  0.36210373213E+03  0.50400001928E-02 0. -1.
</event>
<event>
 5   0  0.3569359E-03  0.9355864E+03  0.7818609E-02  0.9382158E-01
       -1   -1    0    0    0  501  0.00000000000E+00  0.00000000000E+00  0.22635148134E+03  0.22635148139E+03  0.50400001928E-02 0.  1.
        1   -1    0    0  501    0  0.00000000000E+00  0.00000000000E+00 -0.96677282142E+03  0.96677282143E+03  0.50400001928E-02 0. -1.
    10030    2    1    2    0    0  0.00000000000E+00  0.00000000000E+00 -0.74042134008E+03  0.11931243028E+04  0.93558636220E+03 0.  0.
        4    1    3    3  502    0  0.84471978912E+02  0.27643137654E+03  0.98837065470E+02  0.30548355041E+03  0.12699999809E+01 0.  1.
       -4    1    3    3    0  502 -0.84471978912E+02 -0.27643137654E+03 -0.83925840555E+03  0.88764075242E+03  0.12699999809E+01 0. -1.
</event>
<event>
 5   0  0.2417750E-03  0.1076967E+04  0.7818609E-02  0.9227936E-01
        3   -1    0    0  501    0  0.00000000000E+00  0.00000000000E+00  0.16307043544E+04  0.16307043576E+04  0.10100000352E+00 0.  1.
       -3   -1    0    0    0  501  0.00000000000E+00  0.00000000000E+00 -0.17781562306E+03  0.17781565174E+03  0.10100000352E+00 0. -1.
    10030    2    1    2    0    0  0.00000000000E+00  0.00000000000E+00  0.14528887314E+04  0.18085200093E+04  0.10769674825E+04 0.  0.
        1    1    3    3  502    0 -0.12089578143E+03 -0.20754705274E+03  0.15357643260E+04  0.15544335412E+04  0.50400001928E-02 0.  1.
       -1    1    3    3    0  502  0.12089578143E+03  0.20754705274E+03 -0.82875594589E+02  0.25408646810E+03  0.50400001928E-02 0. -1.
</event>
<event>
 5   0  0.6376961E-03  0.1009484E+04  0.7818609E-02  0.9298204E-01
        2   -1    0    0  501    0  0.00000000000E+00  0.00000000000E+00  0.10079799071E+04  0.10079799071E+04  0.25500000920E-02 0.  1.
       -2   -1    0    0    0  501  0.00000000000E+00  0.00000000000E+00 -0.25274754587E+03  0.25274754588E+03  0.25500000920E-02 0. -1.
    10030    2    1    2    0    0  0.00000000000E+00  0.00000000000E+00  0.75523236119E+03  0.12607274529E+04  0.10094839232E+04 0.  0.
        3    1    3    3  502    0 -0.32076887618E+03 -0.34796464617E+03  0.59676713493E+03  0.76164498978E+03  0.10100000352E+00 0. -1.
       -3    1    3    3    0  502  0.32076887618E+03  0.34796464617E+03  0.15846522626E+03  0.49908246317E+03  0.10100000352E+00 0.  1.
</event>
<event>
 5   0  0.3466598E-03  0.9968841E+03  0.7818609E-02  0.9311969E-01
        1   -1    0    0  501    0  0.00000000000E+00  0.00000000000E+00  0.35273620778E+03  0.35273620782E+03  0.50400001928E-02 0. -1.
       -1   -1    0    0    0  501  0.00000000000E+00  0.00000000000E+00 -0.70433501761E+03  0.70433501763E+03  0.50400001928E-02 0.  1.
    10030    2    1    2    0    0  0.00000000000E+00  0.00000000000E+00 -0.35159880982E+03  0.10570712254E+04  0.99688407179E+03 0.  0.
        3    1    3    3  502    0 -0.39774125098E+03 -0.91771415397E+02  0.12752048952E+03  0.42764656068E+03  0.10100000352E+00 0. -1.
       -3    1    3    3    0  502  0.39774125098E+03  0.91771415397E+02 -0.47911929934E+03  0.62942466477E+03  0.10100000352E+00 0.  1.
</event>
<event>
 5   0  0.6606947E-03  0.9983283E+03  0.7818609E-02  0.9310380E-01
       -2   -1    0    0    0  501  0.00000000000E+00  0.00000000000E+00  0.15647692408E+03  0.15647692410E+03  0.25500000920E-02 0. -1.
        2   -1    0    0  501    0  0.00000000000E+00  0.00000000000E+00 -0.15923425826E+04  0.15923425826E+04  0.25500000920E-02 0.  1.
    10030    2    1    2    0    0  0.00000000000E+00  0.00000000000E+00 -0.14358656585E+04  0.17488195067E+04  0.99832834163E+03 0.  0.
        1    1    3    3  502    0 -0.21475524092E+03  0.37285648624E+03 -0.27469182916E+03  0.51048738855E+03  0.50400001928E-02 0. -1.
       -1    1    3    3    0  502  0.21475524092E+03 -0.37285648624E+03 -0.11611738293E+04  0.12383321181E+04  0.50400001928E-02 0.  1.
</event>
<event>
 5   0  0.3569359E-03  0.1008898E+04  0.7818609E-02  0.9298839E-01
       -1   -1    0    0    0  501  0.00000000000E+00  0.00000000000E+00  0.15643505026E+03  0.15643505034E+03  0.50400001928E-02 0. -1.
        1   -1    0    0  501    0  0.00000000000E+00  0.00000000000E+00 -0.16266749176E+04  0.16266749176E+04  0.50400001928E-02 0.  1.
    10030    2    1    2    0    0  0.00000000000E+00  0.00000000000E+00 -0.14702398673E+04  0.17831099679E+04  0.10088983548E+04 0.  0.
        4    1    3    3  502    0 -0.58392478281E+02  0.31192709129E+03 -0.42091227622E+02  0.32012728116E+03  0.12699999809E+01 0. -1.
       -4    1    3    3    0  502  0.58392478281E+02 -0.31192709129E+03 -0.14281486397E+04  0.14629826868E+04  0.12699999809E+01 0.  1.
</event>
<event>
 5   0  0.6376961E-03  0.1002717E+04  0.7818609E-02  0.9305570E-01
        2   -1    0    0  501    0  0.00000000000E+00  0.00000000000E+00  0.11060094307E+04  0.11060094307E+04  0.25500000920E-02 0.  1.
       -2   -1    0    0    0  501  0.00000000000E+00  0.00000000000E+00 -0.22726759809E+03  0.22726759811E+03  0.25500000920E-02 0. -1.
    10030    2    1    2    0    0  0.00000000000E+00  0.00000000000E+00  0.87874183262E+03  0.13332770288E+04  0.10027165238E+04 0.  0.
        3    1    3    3  502    0  0.16962141451E+03  0.29321228166E+03 -0.52093166322E+02  0.34272229947E+03  0.10100000352E+00 0. -1.
       -3    1    3    3    0  502 -0.16962141451E+03 -0.29321228166E+03  0.93083499894E+03  0.99055472935E+03  0.10100000352E+00 0.  1.
</event>
<event>
 5   0  0.3569359E-03  0.1007323E+04  0.7818609E-02  0.9300550E-01
        1   -1    0    0  501    0  0.00000000000E+00  0.00000000000E+00  0.16805227170E+04  0.16805227170E+04  0.50400001928E-02 0.  1.
       -1   -1    0    0    0  501  0.00000000000E+00  0.00000000000E+00 -0.15094986874E+03  0.15094986882E+03  0.50400001928E-02 0. -1.
    10030    2    1    2    0    0  0.00000000000E+00  0.00000000000E+00  0.15295728482E+04  0.18314725858E+04  0.10073225573E+04 0.  0.
        4    1    3    3  502    0 -0.18343838965E+03  0.46904815427E+03  0.77233931827E+03  0.92204416883E+03  0.12699999809E+01 0.  1.
       -4    1    3    3    0  502  0.18343838965E+03 -0.46904815427E+03  0.75723352997E+03  0.90942841699E+03  0.12699999809E+01 0. -1.
</event>
<event>
 5   0  0.3640180E-03  0.1000599E+04  0.7818609E-02  0.9307888E-01
       -1   -1    0    0    0  501  0.00000000000E+00  0.00000000000E+00  0.18179162765E+03  0.18179162772E+03  0.50400001928E-02 0.  1.
        1   -1    0    0  501    0  0.00000000000E+00  0.00000000000E+00 -0.13768492306E+04  0.13768492306E+04  0.50400001928E-02 0. -1.
    10030    2    1    2    0    0  0.00000000000E+00  0.00000000000E+00 -0.11950576030E+04  0.15586408584E+04  0.10005991460E+04 0.  0.
        5    1    3    3  502    0 -0.40009574630E+02  0.49787697447E+03 -0.55359910174E+03  0.74563818519E+03  0.46999998093E+01 0. -1.
       -5    1    3    3    0  502  0.40009574630E+02 -0.49787697447E+03 -0.64145850124E+03  0.81300267317E+03  0.46999998093E+01 0.  1.
</event>
<event>
 5   0  0.3569359E-03  0.1013054E+04  0.7818609E-02  0.9294342E-01
       -1   -1    0    0    0  501  0.00000000000E+00  0.00000000000E+00  0.31868093099E+03  0.31868093103E+03  0.50400001928E-02 0. -1.
        1   -1    0    0  501    0  0.00000000000E+00  0.00000000000E+00 -0.80509913415E+03  0.80509913416E+03  0.50400001928E-02 0.  1.
    10030    2    1    2    0    0  0.00000000000E+00  0.00000000000E+00 -0.48641820316E+03  0.11237800652E+04  0.10130542762E+04 0.  0.
        4    1    3    3  502    0 -0.22071671840E+03 -0.16836066351E+03 -0.71319977390E+03  0.76532131369E+03  0.12699999809E+01 0.  1.
       -4    1    3    3    0  502  0.22071671840E+03  0.16836066351E+03  0.22678157074E+03  0.35845875150E+03  0.12699999809E+01 0. -1.
</event>
<event>
 5   0  0.3466598E-03  0.1000375E+04  0.7818609E-02  0.9308134E-01
        1   -1    0    0  501    0  0.00000000000E+00  0.00000000000E+00  0.26125464229E+04  0.26125464229E+04  0.50400001928E-02 0.  1.
       -1   -1    0    0    0  501  0.00000000000E+00  0.00000000000E+00 -0.95763781131E+02  0.95763781263E+02  0.50400001928E-02 0. -1.
    10030    2    1    2    0    0  0.00000000000E+00  0.00000000000E+00  0.25167826418E+04  0.27083102042E+04  0.10003745779E+04 0.  0.
        3    1    3    3  502    0 -0.71492801783E+02 -0.47523754856E+03  0.16337729913E+04  0.17029903539E+04  0.10100000352E+00 0.  1.
       -3    1    3    3    0  502  0.71492801783E+02  0.47523754856E+03  0.88300965051E+03  0.10053198503E+04  0.10100000352E+00 0. -1.
</event>
<event>
 5   0  0.6199539E-03  0.9776724E+03  0.7818609E-02  0.9333378E-01
        2   -1    0    0  501    0  0.00000000000E+00  0.00000000000E+00  0.12343911871E+04  0.12343911871E+04  0.25500000920E-02 0.  1.
       -2   -1    0    0    0  501  0.00000000000E+00  0.00000000000E+00 -0.19358596586E+03  0.19358596587E+03  0.25500000920E-02 0. -1.
    10030    2    1    2    0    0  0.00000000000E+00  0.00000000000E+00  0.10408052213E+04  0.14279771530E+04  0.97767235865E+03 0.  0.
        2    1    3    3  502    0  0.46108840237E+03 -0.38031200239E+02  0.28987043409E+03  0.54596131324E+03  0.25500000920E-02 0. -1.
       -2    1    3    3    0  502 -0.46108840237E+03  0.38031200239E+02  0.75093478717E+03  0.88201583975E+03  0.25500000920E-02 0.  1.
</event>
<event>
 5   0  0.6360455E-03  0.1038469E+04  0.7818609E-02  0.9267331E-01
       -2   -1    0    0    0  501  0.00000000000E+00  0.00000000000E+00  0.65139864409E+03  0.65139864410E+03  0.25500000920E-02 0.  1.
        2   -1    0    0  501    0  0.00000000000E+00  0.00000000000E+00 -0.41388526085E+03  0.41388526085E+03  0.25500000920E-02 0. -1.
    10030    2    1    2    0    0  0.00000000000E+00  0.00000000000E+00  0.23751338325E+03  0.10652839050E+04  0.10384686760E+04 0.  0.
        4    1    3    3  502    0 -0.58972601943E+02 -0.39713964139E+03  0.45650770897E+03  0.60794618495E+03  0.12699999809E+01 0.  1.
       -4    1    3    3    0  502  0.58972601943E+02  0.39713964139E+03 -0.21899432572E+03  0.45733772001E+03  0.12699999809E+01 0. -1.
</event>
<event>
 5   0  0.6022787E-03  0.1000267E+04  0.7818609E-02  0.9308252E-01
       -2   -1    0    0    0  501  0.00000000000E+00  0.00000000000E+00  0.15775760581E+03  0.15775760583E+03  0.25500000920E-02 0. -1.
        2   -1    0    0  501    0  0.00000000000E+00  0.00000000000E+00 -0.15855548608E+04  0.15855548608E+04  0.25500000920E-02 0.  1.
    10030    2    1    2    0    0  0.00000000000E+00  0.00000000000E+00 -0.14277972550E+04  0.17433124666E+04  0.10002666419E+04 0.  0.
        5    1    3    3  502    0  0.26729382401E+03 -0.16302158591E+03 -0.13935851692E+04  0.14283290026E+04  0.46999998093E+01 0.  1.
       -5    1    3    3    0  502 -0.26729382401E+03  0.16302158591E+03 -0.34212085818E+02  0.31498346408E+03  0.46999998093E+01 0. -1.
</event>
<event>
 5   0  0.2417750E-03  0.9997814E+03  0.7818609E-02  0.9308785E-01
        4   -1    0    0  501    0  0.00000000000E+00  0.00000000000E+00  0.23862409286E+03  0.23862747242E+03  0.12699999809E+01 0. -1.
       -4   -1    0    0    0  501  0.00000000000E+00  0.00000000000E+00 -0.10472037847E+04  0.10472045548E+04  0.12699999809E+01 0.  1.
    10030    2    1    2    0    0  0.00000000000E+00  0.00000000000E+00 -0.80857969180E+03  0.12858320272E+04  0.99978141817E+03 0.  0.
        2    1    3    3  502    0  0.11293628664E+03 -0.58908036731E+02  0.21740447830E+03  0.25197116665E+03  0.25500000920E-02 0. -1.
       -2    1    3    3    0  502 -0.11293628664E+03  0.58908036731E+02 -0.10259841701E+04  0.10338608605E+04  0.25500000920E-02 0.  1.
</event>
<event>
 5   0  0.3569359E-03  0.9946367E+03  0.7818609E-02  0.9314447E-01
       -1   -1    0    0    0  501  0.00000000000E+00  0.00000000000E+00  0.57347921496E+03  0.57347921499E+03  0.50400001928E-02 0.  1.
        1   -1    0    0  501    0  0.00000000000E+00  0.00000000000E+00 -0.43127202895E+03  0.43127202898E+03  0.50400001928E-02 0. -1.
    10030    2    1    2    0    0  0.00000000000E+00  0.00000000000E+00  0.14220718601E+03  0.10047512440E+04  0.99463670680E+03 0.  0.
        4    1    3    3  502    0 -0.23892634869E+03 -0.30500522182E+03 -0.24385206995E+03  0.45779846041E+03  0.12699999809E+01 0. -1.
       -4    1    3    3    0  502  0.23892634869E+03  0.30500522182E+03  0.38605925597E+03  0.54695278356E+03  0.12699999809E+01 0.  1.
</event>
<event>
 5   0  0.3608845E-03  0.9583191E+03  0.7818609E-02  0.9355479E-01
       -1   -1    0    0    0  501  0.00000000000E+00  0.00000000000E+00  0.21522288226E+03  0.21522288232E+03  0.50400001928E-02 0. -1.
        1   -1    0    0  501    0  0.00000000000E+00  0.00000000000E+00 -0.10667726633E+04  0.10667726633E+04  0.50400001928E-02 0.  1.
    10030    2    1    2    0    0  0.00000000000E+00  0.00000000000E+00 -0.85154978105E+03  0.12819955457E+04  0.95831912715E+03 0.  0.
        1    1    3    3  502    0  0.16186572370E+03  0.29012229427E+03  0.36132959555E+02  0.33418116185E+03  0.50400001928E-02 0. -1.
       -1    1    3    3    0  502 -0.16186572370E+03 -0.29012229427E+03 -0.88768274061E+03  0.94781438380E+03  0.50400001928E-02 0.  1.
</event>
<event>
 5   0  0.6376961E-03  0.9989441E+03  0.7818609E-02  0.9309704E-01
       -2   -1    0    0    0  501  0.00000000000E+00  0.00000000000E+00  0.21838402163E+03  0.21838402165E+03  0.25500000920E-02 0. -1.
        2   -1    0    0  501    0  0.00000000000E+00  0.00000000000E+00 -0.11423560888E+04  0.11423560888E+04  0.25500000920E-02 0.  1.
    10030    2    1    2    0    0  0.00000000000E+00  0.00000000000E+00 -0.92397206721E+03  0.13607401105E+04  0.99894407618E+03 0.  0.
        3    1    3    3  502    0  0.44706608496E+03  0.95137809840E+02 -0.18767352690E+03  0.49410590978E+03  0.10100000352E+00 0. -1.
       -3    1    3    3    0  502 -0.44706608496E+03 -0.95137809840E+02 -0.73629854031E+03  0.86663420071E+03  0.10100000352E+00 0.  1.
</event>
<event>
 5   0  0.6606947E-03  0.1011165E+04  0.7818609E-02  0.9296384E-01
        2   -1    0    0  501    0  0.00000000000E+00  0.00000000000E+00  0.10973940553E+04  0.10973940553E+04  0.25500000920E-02 0.  1.
       -2   -1    0    0    0  501  0.00000000000E+00  0.00000000000E+00 -0.23292771039E+03  0.23292771040E+03  0.25500000920E-02 0. -1.
    10030    2    1    2    0    0  0.00000000000E+00  0.00000000000E+00  0.86446634489E+03  0.13303217657E+04  0.10111646448E+04 0.  0.
        1    1    3    3  502    0 -0.41210592335E+03 -0.25849175991E+03  0.61340977631E+03  0.78289260802E+03  0.50400001928E-02 0. -1.
       -1    1    3    3    0  502  0.41210592335E+03  0.25849175991E+03  0.25105656859E+03  0.54742915766E+03  0.50400001928E-02 0.  1.
</event>
<event>
 5   0  0.2417750E-03  0.9807523E+03  0.7818609E-02  0.9329911E-01
       -3   -1    0    0    0  501  0.00000000000E+00  0.00000000000E+00  0.55174783420E+03  0.55174784344E+03  0.10100000352E+00 0. -1.
        3   -1    0    0  501    0  0.00000000000E+00  0.00000000000E+00 -0.43583087998E+03  0.43583089169E+03  0.10100000352E+00 0.  1.
    10030    2    1    2    0    0  0.00000000000E+00  0.00000000000E+00  0.11591695421E+03  0.98757873513E+03  0.98075227137E+03 0.  0.
        4    1    3    3  502    0  0.11587809836E+03 -0.95505374152E+01 -0.42174821156E+03  0.43748384347E+03  0.12699999809E+01 0.  1.
       -4    1    3    3    0  502 -0.11587809836E+03  0.95505374152E+01  0.53766516577E+03  0.55009489166E+03  0.12699999809E+01 0. -1.
</event>
<event>
 5   0  0.6022787E-03  0.9853687E+03  0.7818609E-02  0.9324739E-01
        2   -1    0    0  501    0  0.00000000000E+00  0.00000000000E+00  0.11366125446E+04  0.11366125446E+04  0.25500000920E-02 0. -1.
       -2   -1    0    0    0  501  0.00000000000E+00  0.00000000000E+00 -0.21356255626E+03  0.21356255627E+03  0.25500000920E-02 0.  1.
    10030    2    1    2    0    0  0.00000000000E+00  0.00000000000E+00  0.92304998836E+03  0.13501751009E+04  0.98536872391E+03 0.  0.
        5    1    3    3  502    0  0.26530145983E+03  0.24286221648E+03  0.20750646145E+00  0.35970689990E+03  0.46999998093E+01 0.  1.
       -5    1    3    3    0  502 -0.26530145983E+03 -0.24286221648E+03  0.92284248189E+03  0.99046820099E+03  0.46999998093E+01 0. -1.
</event>
<event>
 5   0  0.3466598E-03  0.1000528E+04  0.7818609E-02  0.9307966E-01
        1   -1    0    0  501    0  0.00000000000E+00  0.00000000000E+00  0.33753311633E+03  0.33753311637E+03  0.50400001928E-02 0. -1.
       -1   -1    0    0    0  501  0.00000000000E+00  0.00000000000E+00 -0.74145039060E+03  0.74145039062E+03  0.50400001928E-02 0.  1.
    10030    2    1    2    0    0  0.00000000000E+00  0.00000000000E+00 -0.40391727427E+03  0.10789835070E+04  0.10005279826E+04 0.  0.
        3    1    3    3  502    0  0.24153423796E+02 -0.27002577315E+02  0.33611654480E+03  0.33806340966E+03  0.10100000352E+00 0. -1.
       -3    1    3    3    0  502 -0.24153423796E+02  0.27002577315E+02 -0.74003381907E+03  0.74092009733E+03  0.10100000352E+00 0.  1.
</event>
<event>
 5   0  0.2417750E-03  0.9972081E+03  0.7818609E-02  0.9311612E-01
        3   -1    0    0  501    0  0.00000000000E+00  0.00000000000E+00  0.22297857009E+03  0.22297859297E+03  0.10100000352E+00 0.  1.
       -3   -1    0    0    0  501  0.00000000000E+00  0.00000000000E+00 -0.11149321905E+04  0.11149321951E+04  0.10100000352E+00 0. -1.
    10030    2    1    2    0    0  0.00000000000E+00  0.00000000000E+00 -0.89195362043E+03  0.13379107881E+04  0.99720811059E+03 0.  0.
        3    1    3    3  502    0  0.36396260225E+03 -0.28925825972E+03 -0.68772409898E+03  0.83012261936E+03  0.10100000352E+00 0. -1.
       -3    1    3    3    0  502 -0.36396260225E+03  0.28925825972E+03 -0.20422952144E+03  0.50778816871E+03  0.10100000352E+00 0.  1.
</event>
<event>
 5   0  0.6199539E-03  0.9661822E+03  0.7818609E-02  0.9346433E-01
        2   -1    0    0  501    0  0.00000000000E+00  0.00000000000E+00  0.15608183862E+04  0.15608183862E+04  0.25500000920E-02 0. -1.
       -2   -1    0    0    0  501  0.00000000000E+00  0.00000000000E+00 -0.14952221476E+03  0.14952221478E+03  0.25500000920E-02 0.  1.
    10030    2    1    2    0    0  0.00000000000E+00  0.00000000000E+00  0.14112961714E+04  0.17103406010E+04  0.96618222290E+03 0.  0.
        2    1    3    3  502    0 -0.10998181876E+02 -0.55427314428E+02 -0.14365169328E+03  0.15436630519E+03  0.25500000920E-02 0.  1.
       -2    1    3    3    0  502  0.10998181876E+02  0.55427314428E+02  0.15549478647E+04  0.15559742958E+04  0.25500000920E-02 0. -1.
</event>
<event>
 5   0  0.3608845E-03  0.1002651E+04  0.7818609E-02  0.9305642E-01
       -1   -1    0    0    0  501  0.00000000000E+00  0.00000000000E+00  0.66037057184E+03  0.66037057186E+03  0.50400001928E-02 0. -1.
        1   -1    0    0  501    0  0.00000000000E+00  0.00000000000E+00 -0.38058513637E+03  0.38058513640E+03  0.50400001928E-02 0.  1.
    10030    2    1    2    0    0  0.00000000000E+00  0.00000000000E+00  0.27978543547E+03  0.10409557083E+04  0.10026509346E+04 0.  0.
        1    1    3    3  502    0  0.17663273742E+03 -0.42269103967E+03 -0.71504445130E+02  0.46365906078E+03  0.50400001928E-02 0.  1.
       -1    1    3    3    0  502 -0.17663273742E+03  0.42269103967E+03  0.35128988060E+03  0.57729664747E+03  0.50400001928E-02 0. -1.
</event>
<event>
 5   0  0.6376961E-03  0.9931478E+03  0.7818609E-02  0.9316092E-01
       -2   -1    0    0    0  501  0.00000000000E+00  0.00000000000E+00  0.25512513834E+03  0.25512513836E+03  0.25500000920E-02 0. -1.
        2   -1    0    0  501    0  0.00000000000E+00  0.00000000000E+00 -0.96652819441E+03  0.96652819441E+03  0.25500000920E-02 0.  1.
    10030    2    1    2    0    0  0.00000000000E+00  0.00000000000E+00 -0.71140305606E+03  0.12216533328E+04  0.99314780233E+03 0.  0.
        3    1    3    3  502    0 -0.14938406805E+03  0.99745782428E+02  0.21376246284E+03  0.27921178632E+03  0.10100000352E+00 0. -1.
       -3    1    3    3    0  502  0.14938406805E+03 -0.99745782428E+02 -0.92516551890E+03  0.94244154644E+03  0.10100000352E+00 0.  1.
</event>
<event>
 5   0  0.6199539E-03  0.1004821E+04  0.7818609E-02  0.9303273E-01
       -2   -1    0    0    0  501  0.00000000000E+00  0.00000000000E+00  0.38572574157E+03  0.38572574158E+03  0.25500000920E-02 0. -1.
        2   -1    0    0  501    0  0.00000000000E+00  0.00000000000E+00 -0.65439368279E+03  0.65439368279E+03  0.25500000920E-02 0.  1.
    10030    2    1    2    0    0  0.00000000000E+00  0.00000000000E+00 -0.26866794122E+03  0.10401194244E+04  0.10048213544E+04 0.  0.
        2    1    3    3  502    0  0.41737929560E+03  0.11390477054E+03  0.13005321040E+03  0.45176720851E+03  0.25500000920E-02 0. -1.
       -2    1    3    3    0  502 -0.41737929560E+03 -0.11390477054E+03 -0.39872115162E+03  0.58835221585E+03  0.25500000920E-02 0.  1.
</event>
<event>
 5   0  0.3608845E-03  0.9901870E+03  0.7818609E-02  0.9319374E-01
       -1   -1    0    0    0  501  0.00000000000E+00  0.00000000000E+00  0.43903680537E+03  0.43903680540E+03  0.50400001928E-02 0.  1.
        1   -1    0    0  501    0  0.00000000000E+00  0.00000000000E+00 -0.55830753083E+03  0.55830753085E+03  0.50400001928E-02 0. -1.
    10030    2    1    2    0    0  0.00000000000E+00  0.00000000000E+00 -0.11927072546E+03  0.99734433625E+03  0.99018696169E+03 0.  0.
        1    1    3    3  502    0 -0.20972390177E+03  0.35061553861E+03  0.22203254184E+03  0.46498797893E+03  0.50400001928E-02 0.  1.
       -1    1    3    3    0  502  0.20972390177E+03 -0.35061553861E+03 -0.34130326729E+03  0.53235635732E+03  0.50400001928E-02 0. -1.
</event>
<event>
 5   0  0.6022787E-03  0.1003732E+04  0.7818609E-02  0.9304461E-01
       -2   -1    0    0    0  501  0.00000000000E+00  0.00000000000E+00  0.10707719282E+04  0.10707719282E+04  0.25500000920E-02 0.  1.
        2   -1    0    0  501    0  0.00000000000E+00  0.00000000000E+00 -0.23522217009E+03  0.23522217010E+03  0.25500000920E-02 0. -1.
    10030    2    1    2    0    0  0.00000000000E+00  0.00000000000E+00  0.83554975814E+03  0.13059940983E+04  0.10037316307E+04 0.  0.
        5    1    3    3  502    0  0.36183105011E+02  0.17267850243E+03 -0.19351129078E+03  0.26190798374E+03  0.46999998093E+01 0. -1.
       -5    1    3    3    0  502 -0.36183105011E+02 -0.17267850243E+03  0.10290610489E+04  0.10440861146E+04  0.46999998093E+01 0.  1.
</event>
<event>
 5   0  0.6199539E-03  0.9824725E+03  0.7818609E-02  0.9327980E-01
       -2   -1    0    0    0  501  0.00000000000E+00  0.00000000000E+00  0.19794737846E+03  0.19794737848E+03  0.25500000920E-02 0.  1.
        2   -1    0    0  501    0  0.00000000000E+00  0.00000000000E+00 -0.12190768141E+04  0.12190768141E+04  0.25500000920E-02 0. -1.
    10030    2    1    2    0    0  0.00000000000E+00  0.00000000000E+00 -0.10211294357E+04  0.14170241926E+04  0.98247251263E+03 0.  0.
        2    1    3    3  502    0 -0.75365549464E+01  0.33635218313E+03 -0.10268279551E+04  0.10805393284E+04  0.25500000920E-02 0. -1.
       -2    1    3    3    0  502  0.75365549464E+01 -0.33635218313E+03  0.56985194029E+01  0.33648486428E+03  0.25500000920E-02 0.  1.
</event>
<event>
 5   0  0.6022787E-03  0.1049824E+04  0.7818609E-02  0.9255526E-01
       -2   -1    0    0    0  501  0.00000000000E+00  0.00000000000E+00  0.37573516136E+03  0.37573516136E+03  0.25500000920E-02 0.  1.
        2   -1    0    0  501    0  0.00000000000E+00  0.00000000000E+00 -0.73331610384E+03  0.73331610385E+03  0.25500000920E-02 0. -1.
    10030    2    1    2    0    0  0.00000000000E+00  0.00000000000E+00 -0.35758094249E+03  0.11090512652E+04  0.10498240702E+04 0.  0.
        5    1    3    3  502    0 -0.27859554003E+03  0.42769266539E+03 -0.49518332750E+02  0.51284563587E+03  0.46999998093E+01 0. -1.
       -5    1    3    3    0  502  0.27859554003E+03 -0.42769266539E+03 -0.30806260974E+03  0.59620562935E+03  0.46999998093E+01 0.  1.
</event>
<event>
 5   0  0.3608845E-03  0.9990032E+03  0.7818609E-02  0.9309639E-01
       -1   -1    0    0    0  501  0.00000000000E+00  0.00000000000E+00  0.25280524661E+03  0.25280524666E+03  0.50400001928E-02 0.  1.
        1   -1    0    0  501    0  0.00000000000E+00  0.00000000000E+00 -0.98693307227E+03  0.98693307229E+03  0.50400001928E-02 0. -1.
    10030    2    1    2    0    0  0.00000000000E+00  0.00000000000E+00 -0.73412782566E+03  0.12397383189E+04  0.99900322074E+03 0.  0.
        1    1    3    3  502    0 -0.19936177296E+03  0.19276797325E+03  0.14849710617E+03  0.31457272385E+03  0.50400001928E-02 0.  1.
       -1    1    3    3    0  502  0.19936177296E+03 -0.19276797325E+03 -0.88262493183E+03  0.92516559509E+03  0.50400001928E-02 0. -1.
</event>
<event>
 5   0  0.6360455E-03  0.9976832E+03  0.7818609E-02  0.9311090E-01
       -2   -1    0    0    0  501  0.00000000000E+00  0.00000000000E+00  0.16013855599E+03  0.16013855601E+03  0.25500000920E-02 0. -1.
        2   -1    0    0  501    0  0.00000000000E+00  0.00000000000E+00 -0.15539226536E+04  0.15539226536E+04  0.25500000920E-02 0.  1.
    10030    2    1    2    0    0  0.00000000000E+00  0.00000000000E+00 -0.13937840976E+04  0.17140612096E+04  0.99768317593E+03 0.  0.
        4    1    3    3  502    0 -0.44128032275E+03 -0.18925949569E+03 -0.92926527135E+03  0.10459842434E+04  0.12699999809E+01 0.  1.
       -4    1    3    3    0  502  0.44128032275E+03  0.18925949569E+03 -0.46451882623E+03  0.66807696621E+03  0.12699999809E+01 0. -1.
</event>
<event>
 5   0  0.6376961E-03  0.9877176E+03  0.7818609E-02  0.9322119E-01
        2   -1    0    0  501    0  0.00000000000E+00  0.00000000000E+00  0.13817967664E+04  0.13817967664E+04  0.25500000920E-02 0. -1.
       -2   -1    0    0    0  501  0.00000000000E+00  0.00000000000E+00 -0.17650679796E+03  0.17650679798E+03  0.25500000920E-02 0.  1.
    10030    2    1    2    0    0  0.00000000000E+00  0.00000000000E+00  0.12052899685E+04  0.15583035644E+04  0.98771761693E+03 0.  0.
        3    1    3    3  502    0  0.31250512134E+03 -0.21848174093E+03  0.10748729093E+03  0.39616568491E+03  0.10100000352E+00 0.  1.
       -3    1    3    3    0  502 -0.31250512134E+03  0.21848174093E+03  0.10978026775E+04  0.11621378795E+04  0.10100000352E+00 0. -1.
</event>
<event>
 5   0  0.2417750E-03  0.1003417E+04  0.7818609E-02  0.9304805E-01
       -4   -1    0    0    0  501  0.00000000000E+00  0.00000000000E+00  0.13015616834E+04  0.13015623030E+04  0.12699999809E+01 0.  1.
        4   -1    0    0  501    0  0.00000000000E+00  0.00000000000E+00 -0.19338908230E+03  0.19339325235E+03  0.12699999809E+01 0. -1.
    10030    2    1    2    0    0  0.00000000000E+00  0.00000000000E+00  0.11081726011E+04  0.14949555554E+04  0.10034169615E+04 0.  0.
        2    1    3    3  502    0  0.23731729976E+03  0.16270407965E+03 -0.58244994559E+02  0.29357213372E+03  0.25500000920E-02 0. -1.
       -2    1    3    3    0  502 -0.23731729976E+03 -0.16270407965E+03  0.11664175957E+04  0.12013834216E+04  0.25500000920E-02 0.  1.
</event>
<event>
 5   0  0.6376961E-03  0.1001977E+04  0.7818609E-02  0.9306379E-01
        2   -1    0    0  501    0  0.00000000000E+00  0.00000000000E+00  0.55976984782E+03  0.55976984782E+03  0.25500000920E-02 0.  1.
       -2   -1    0    0    0  501  0.00000000000E+00  0.00000000000E+00 -0.44837982712E+03  0.44837982713E+03  0.25500000920E-02 0. -1.
    10030    2    1    2    0    0  0.00000000000E+00  0.00000000000E+00  0.11139002069E+03  0.10081496750E+04  0.10019770608E+04 0.  0.
        3    1    3    3  502    0  0.48094481164E+03 -0.90826634973E+02  0.16327472634E+03  0.51596127367E+03  0.10100000352E+00 0.  1.
       -3    1    3    3    0  502 -0.48094481164E+03  0.90826634973E+02 -0.51884705650E+02  0.49218840128E+03  0.10100000352E+00 0. -1.
</event>
<event>
 5   0  0.3466598E-03  0.9970745E+03  0.7818609E-02  0.9311759E-01
       -1   -1    0    0    0  501  0.00000000000E+00  0.00000000000E+00  0.12210329459E+04  0.12210329459E+04  0.50400001928E-02 0. -1.
        1   -1    0    0  501    0  0.00000000000E+00  0.00000000000E+00 -0.20354845732E+03  0.20354845738E+03  0.50400001928E-02 0.  1.
    10030    2    1    2    0    0  0.00000000000E+00  0.00000000000E+00  0.10174844885E+04  0.14245814033E+04  0.99707446566E+03 0.  0.
        3    1    3    3  502    0 -0.40580180638E+03 -0.22081437293E+02  0.96187163757E+02  0.41762983203E+03  0.10100000352E+00 0.  1.
       -3    1    3    3    0  502  0.40580180638E+03  0.22081437293E+02  0.92129732479E+03  0.10069515712E+04  0.10100000352E+00 0. -1.
</event>
<event>
 5   0  0.3466598E-03  0.9435357E+03  0.7818609E-02  0.9372738E-01
        1   -1    0    0  501    0  0.00000000000E+00  0.00000000000E+00  0.60158572590E+03  0.60158572592E+03  0.50400001928E-02 0. -1.
       -1   -1    0    0    0  501  0.00000000000E+00  0.00000000000E+00 -0.36996372227E+03  0.36996372231E+03  0.50400001928E-02 0.  1.
    10030    2    1    2    0    0  0.00000000000E+00  0.00000000000E+00  0.23162200363E+03  0.97154944823E+03  0.94353567913E+03 0.  0.
        3    1    3    3  502    0 -0.39450426285E+03  0.12908679448E+03 -0.11505066408E+03  0.43073620630E+03  0.10100000352E+00 0.  1.
       -3    1    3    3    0  502  0.39450426285E+03 -0.12908679448E+03  0.34667266770E+03  0.54081324193E+03  0.10100000352E+00 0. -1.
</event>
<event>
 5   0  0.6360455E-03  0.8568687E+03  0.7818609E-02  0.9481164E-01
       -2   -1    0    0    0  501  0.00000000000E+00  0.00000000000E+00  0.40205036200E+03  0.40205036201E+03  0.25500000920E-02 0.  1.
        2   -1    0    0  501    0  0.00000000000E+00  0.00000000000E+00 -0.45654971632E+03  0.45654971633E+03  0.25500000920E-02 0. -1.
    10030    2    1    2    0    0  0.00000000000E+00  0.00000000000E+00 -0.54499354324E+02  0.85860007833E+03  0.85686866840E+03 0.  0.
        4    1    3    3  502    0 -0.31230407614E+02  0.43091971220E+02 -0.45322290454E+03  0.45633854806E+03  0.12699999809E+01 0. -1.
       -4    1    3    3    0  502  0.31230407614E+02 -0.43091971220E+02  0.39872355022E+03  0.40226153028E+03  0.12699999809E+01 0.  1.
</event>
<event>
 5   0  0.3640180E-03  0.9694202E+03  0.7818609E-02  0.9342735E-01
       -1   -1    0    0    0  501  0.00000000000E+00  0.00000000000E+00  0.80013405753E+02  0.80013405912E+02  0.50400001928E-02 0. -1.
        1   -1    0    0  501    0  0.00000000000E+00  0.00000000000E+00 -0.29363067350E+04  0.29363067350E+04  0.50400001928E-02 0.  1.
    10030    2    1    2    0    0  0.00000000000E+00  0.00000000000E+00 -0.28562933292E+04  0.30163201409E+04  0.96942024416E+03 0.  0.
        5    1    3    3  502    0 -0.16735223707E+03  0.43033841404E+03 -0.96954655655E+03  0.10738903748E+04  0.46999998093E+01 0.  1.
       -5    1    3    3    0  502  0.16735223707E+03 -0.43033841404E+03 -0.18867467727E+04  0.19424297660E+04  0.46999998093E+01 0. -1.
</event>
<event>
 5   0  0.2417750E-03  0.1006565E+04  0.7818609E-02  0.9301374E-01
       -3   -1    0    0    0  501  0.00000000000E+00  0.00000000000E+00  0.12600349167E+04  0.12600349207E+04  0.10100000352E+00 0.  1.
        3   -1    0    0  501    0  0.00000000000E+00  0.00000000000E+00 -0.20102078572E+03  0.20102081109E+03  0.10100000352E+00 0. -1.
    10030    2    1    2    0    0  0.00000000000E+00  0.00000000000E+00  0.10590141310E+04  0.14610557318E+04  0.10065649119E+04 0.  0.
        4    1    3    3  502    0 -0.43406708230E+02  0.44658591097E+03  0.19860834831E+03  0.49068320443E+03  0.12699999809E+01 0. -1.
       -4    1    3    3    0  502  0.43406708230E+02 -0.44658591097E+03  0.86040578265E+03  0.97037252739E+03  0.12699999809E+01 0.  1.
</event>
<event>
 5   0  0.3466598E-03  0.1000077E+04  0.7818609E-02  0.9308461E-01
       -1   -1    0    0    0  501  0.00000000000E+00  0.00000000000E+00  0.15711361463E+04  0.15711361463E+04  0.50400001928E-02 0. -1.
        1   -1    0    0  501    0  0.00000000000E+00  0.00000000000E+00 -0.15914491060E+03  0.15914491068E+03  0.50400001928E-02 0.  1.
    10030    2    1    2    0    0  0.00000000000E+00  0.00000000000E+00  0.14119912357E+04  0.17302810570E+04  0.10000766403E+04 0.  0.
        3    1    3    3  502    0 -0.19153517111E+03 -0.12508465511E+02 -0.92868705572E+02  0.21322943079E+03  0.10100000352E+00 0.  1.
       -3    1    3    3    0  502  0.19153517111E+03  0.12508465511E+02  0.15048599413E+04  0.15170516262E+04  0.10100000352E+00 0. -1.
</event>
<event>
 5   0  0.3640180E-03  0.1005044E+04  0.7818609E-02  0.9303030E-01
       -1   -1    0    0    0  501  0.00000000000E+00  0.00000000000E+00  0.81690943819E+03  0.81690943821E+03  0.50400001928E-02 0.  1.
        1   -1    0    0  501    0  0.00000000000E+00  0.00000000000E+00 -0.30912652718E+03  0.30912652723E+03  0.50400001928E-02 0. -1.
    10030    2    1    2    0    0  0.00000000000E+00  0.00000000000E+00  0.50778291101E+03  0.11260359654E+04  0.10050440342E+04 0.  0.
        5    1    3    3  502    0 -0.44719120133E+03 -0.80461640650E+02  0.13459295066E+02  0.45459574215E+03  0.46999998093E+01 0. -1.
       -5    1    3    3    0  502  0.44719120133E+03  0.80461640650E+02  0.49432361594E+03  0.67144022328E+03  0.46999998093E+01 0.  1.
</event>
<event>
 5   0  0.3466598E-03  0.9829979E+03  0.7818609E-02  0.9327391E-01
       -1   -1    0    0    0  501  0.00000000000E+00  0.00000000000E+00  0.12779119201E+03  0.12779119211E+03  0.50400001928E-02 0. -1.
        1   -1    0    0  501    0  0.00000000000E+00  0.00000000000E+00 -0.18903590765E+04  0.18903590765E+04  0.50400001928E-02 0.  1.
    10030    2    1    2    0    0  0.00000000000E+00  0.00000000000E+00 -0.17625678845E+04  0.20181502686E+04  0.98299794467E+03 0.  0.
        3    1    3    3  502    0  0.68119486455E+02 -0.12112205416E+03 -0.18491871941E+04  0.18544012795E+04  0.10100000352E+00 0.  1.
       -3    1    3    3    0  502 -0.68119486455E+02  0.12112205416E+03  0.86619309595E+02  0.16374898911E+03  0.10100000352E+00 0. -1.
</event>
<event>
 5   0  0.6606947E-03  0.1004912E+04  0.7818609E-02  0.9303174E-01
       -2   -1    0    0    0  501  0.00000000000E+00  0.00000000000E+00  0.11614675502E+03  0.11614675504E+03  0.25500000920E-02 0. -1.
        2   -1    0    0  501    0  0.00000000000E+00  0.00000000000E+00 -0.21736476880E+04  0.21736476880E+04  0.25500000920E-02 0.  1.
    10030    2    1    2    0    0  0.00000000000E+00  0.00000000000E+00 -0.20575009330E+04  0.22897944430E+04  0.10049121863E+04 0.  0.
        1    1    3    3  502    0 -0.19417034657E+02  0.82474518403E+02 -0.21572520175E+04  0.21589153144E+04  0.50400001928E-02 0.  1.
       -1    1    3    3    0  502  0.19417034657E+02 -0.82474518403E+02  0.99751084571E+02  0.13087912866E+03  0.50400001928E-02 0. -1.
</event>
<event>
 5   0  0.3643002E-03  0.1000152E+04  0.7818609E-02  0.9308378E-01
       -1   -1    0    0    0  501  0.00000000000E+00  0.00000000000E+00  0.30627111223E+03  0.30627111227E+03  0.50400001928E-02 0.  1.
        1   -1    0    0  501    0  0.00000000000E+00  0.00000000000E+00 -0.81651898006E+03  0.81651898008E+03  0.50400001928E-02 0. -1.
    10030    2    1    2    0    0  0.00000000000E+00  0.00000000000E+00 -0.51024786783E+03  0.11227900923E+04  0.10001523408E+04 0.  0.
        2    1    3    3  502    0  0.25213148611E+03 -0.16847451864E+03  0.19128088735E+03  0.35852800112E+03  0.25500000920E-02 0.  1.
       -2    1    3    3    0  502 -0.25213148611E+03  0.16847451864E+03 -0.70152875519E+03  0.76426209122E+03  0.25500000920E-02 0. -1.
</event>
<event>
 5   0  0.3466598E-03  0.9727449E+03  0.7818609E-02  0.9338953E-01
       -1   -1    0    0    0  501  0.00000000000E+00  0.00000000000E+00  0.65538561060E+03  0.65538561062E+03  0.50400001928E-02 0. -1.
        1   -1    0    0  501    0  0.00000000000E+00  0.00000000000E+00 -0.36094496728E+03  0.36094496732E+03  0.50400001928E-02 0.  1.
    10030    2    1    2    0    0  0.00000000000E+00  0.00000000000E+00  0.29444064332E+03  0.10163305779E+04  0.97274485412E+03 0.  0.
        3    1    3    3  502    0 -0.19170560872E+03 -0.20532427348E+03  0.56206134939E+03  0.62834868376E+03  0.10100000352E+00 0. -1.
       -3    1    3    3    0  502  0.19170560872E+03  0.20532427348E+03 -0.26762070608E+03  0.38798189419E+03  0.10100000352E+00 0.  1.
</event>
<event>
 5   0  0.3643002E-03  0.1005072E+04  0.7818609E-02  0.9303000E-01
       -1   -1    0    0    0  501  0.00000000000E+00  0.00000000000E+00  0.39855888785E+03  0.39855888789E+03  0.50400001928E-02 0.  1.
        1   -1    0    0  501    0  0.00000000000E+00  0.00000000000E+00 -0.63363847077E+03  0.63363847079E+03  0.50400001928E-02 0. -1.
    10030    2    1    2    0    0  0.00000000000E+00  0.00000000000E+00 -0.23507958292E+03  0.10321973587E+04  0.10050716278E+04 0.  0.
        2    1    3    3  502    0 -0.41502218045E+03  0.46668102771E+02  0.16950482795E+03  0.45072520319E+03  0.25500000920E-02 0.  1.
       -2    1    3    3    0  502  0.41502218045E+03 -0.46668102771E+02 -0.40458441087E+03  0.58147215549E+03  0.25500000920E-02 0. -1.
</event>
<event>
 5   0  0.3466598E-03  0.9688465E+03  0.7818609E-02  0.9343389E-01
        1   -1    0    0  501    0  0.00000000000E+00  0.00000000000E+00  0.31415507888E+03  0.31415507892E+03  0.50400001928E-02 0. -1.
       -1   -1    0    0    0  501  0.00000000000E+00  0.00000000000E+00 -0.74697470697E+03  0.74697470699E+03  0.50400001928E-02 0.  1.
    10030    2    1    2    0    0  0.00000000000E+00  0.00000000000E+00 -0.43281962809E+03  0.10611297859E+04  0.96884652659E+03 0.  0.
        3    1    3    3  502    0  0.42868559427E+03 -0.21160634850E+03 -0.30207285599E+03  0.56550561976E+03  0.10100000352E+00 0. -1.
       -3    1    3    3    0  502 -0.42868559427E+03  0.21160634850E+03 -0.13074677210E+03  0.49562416615E+03  0.10100000352E+00 0.  1.
</event>
<event>
 5   0  0.6022787E-03  0.1001989E+04  0.7818609E-02  0.9306366E-01
       -2   -1    0    0    0  501  0.00000000000E+00  0.00000000000E+00  0.21870635306E+03  0.21870635307E+03  0.25500000920E-02 0.  1.
        2   -1    0    0  501    0  0.00000000000E+00  0.00000000000E+00 -0.11476376540E+04  0.11476376540E+04  0.25500000920E-02 0. -1.
    10030    2    1    2    0    0  0.00000000000E+00  0.00000000000E+00 -0.92893130091E+03  0.13663440070E+04  0.10019893132E+04 0.  0.
        5    1    3    3  502    0 -0.36677908334E+03 -0.16192060652E+03 -0.54857547056E+02  0.40469324093E+03  0.46999998093E+01 0.  1.
       -5    1    3    3    0  502  0.36677908334E+03  0.16192060652E+03 -0.87407375386E+03  0.96165076611E+03  0.46999998093E+01 0. -1.
</event>
<event>
 5   0  0.6606947E-03  0.9948114E+03  0.7818609E-02  0.9314254E-01
       -2   -1    0    0    0  501  0.00000000000E+00  0.00000000000E+00  0.25679710532E+03  0.25679710533E+03  0.25500000920E-02 0. -1.
        2   -1    0    0  501    0  0.00000000000E+00  0.00000000000E+00 -0.96345482261E+03  0.96345482261E+03  0.25500000920E-02 0.  1.
    10030    2    1    2    0    0  0.00000000000E+00  0.00000000000E+00 -0.70665771729E+03  0.12202519279E+04  0.99481135812E+03 0.  0.
        1    1    3    3  502    0  0.18737243999E+03 -0.56560613219E+02  0.20757812418E+03  0.28530021363E+03  0.50400001928E-02 0. -1.
       -1    1    3    3    0  502 -0.18737243999E+03  0.56560613219E+02 -0.91423584147E+03  0.93495171431E+03  0.50400001928E-02 0.  1.
</event>
<event>
 5   0  0.3608845E-03  0.9468506E+03  0.7818609E-02  0.9368839E-01
       -1   -1    0    0    0  501  0.00000000000E+00  0.00000000000E+00  0.23304134451E+03  0.23304134456E+03  0.50400001928E-02 0.  1.
        1   -1    0    0  501    0  0.00000000000E+00  0.00000000000E+00 -0.96176719559E+03  0.96176719561E+03  0.50400001928E-02 0. -1.
    10030    2    1    2    0    0  0.00000000000E+00  0.00000000000E+00 -0.72872585109E+03  0.11948085402E+04  0.94685061209E+03 0.  0.
        1    1    3    3  502    0 -0.84721355927E+02  0.35236408901E+02 -0.95043930135E+03  0.95485819798E+03  0.50400001928E-02 0. -1.
       -1    1    3    3    0  502  0.84721355927E+02 -0.35236408901E+02  0.22171345027E+03  0.23995034219E+03  0.50400001928E-02 0.  1.
</event>
<event>
 5   0  0.6199539E-03  0.1002573E+04  0.7818609E-02  0.9305727E-01
        2   -1    0    0  501    0  0.00000000000E+00  0.00000000000E+00  0.90341640327E+03  0.90341640328E+03  0.25500000920E-02 0.  1.
       -2   -1    0    0    0  501  0.00000000000E+00  0.00000000000E+00 -0.27815325232E+03  0.27815325233E+03  0.25500000920E-02 0. -1.
    10030    2    1    2    0    0  0.00000000000E+00  0.00000000000E+00  0.62526315095E+03  0.11815696556E+04  0.10025731111E+04 0.  0.
        2    1    3    3  502    0  0.76729905733E+02  0.42238268535E+03  0.61767378120E+03  0.75220709336E+03  0.25500000920E-02 0.  1.
       -2    1    3    3    0  502 -0.76729905733E+02 -0.42238268535E+03  0.75893697550E+01  0.42936256225E+03  0.25500000920E-02 0. -1.
</event>
<event>
 5   0  0.6022787E-03  0.9972120E+03  0.7818609E-02  0.9311608E-01
        2   -1    0    0  501    0  0.00000000000E+00  0.00000000000E+00  0.12904282848E+04  0.12904282848E+04  0.25500000920E-02 0.  1.
       -2   -1    0    0    0  501  0.00000000000E+00  0.00000000000E+00 -0.19265537577E+03  0.19265537579E+03  0.25500000920E-02 0. -1.
    10030    2    1    2    0    0  0.00000000000E+00  0.00000000000E+00  0.10977729090E+04  0.14830836606E+04  0.99721200578E+03 0.  0.
        5    1    3    3  502    0 -0.40886997020E+03 -0.20357186615E+03  0.84621978127E+03  0.96162683273E+03  0.46999998093E+01 0.  1.
       -5    1    3    3    0  502  0.40886997020E+03  0.20357186615E+03  0.25155312773E+03  0.52145682782E+03  0.46999998093E+01 0. -1.
</event>
<event>
 5   0  0.3643002E-03  0.8495430E+03  0.7818609E-02  0.9490951E-01
       -1   -1    0    0    0  501  0.00000000000E+00  0.00000000000E+00  0.31384930115E+03  0.31384930119E+03  0.50400001928E-02 0. -1.
        1   -1    0    0  501    0  0.00000000000E+00  0.00000000000E+00 -0.57489640356E+03  0.57489640358E+03  0.50400001928E-02 0.  1.
    10030    2    1    2    0    0  0.00000000000E+00  0.00000000000E+00 -0.26104710241E+03  0.88874570476E+03  0.84954301719E+03 0.  0.
        2    1    3    3  502    0  0.30378873345E+03 -0.27846695250E+03 -0.22819334789E+02  0.41273739866E+03  0.25500000920E-02 0. -1.
       -2    1    3    3    0  502 -0.30378873345E+03  0.27846695250E+03 -0.23822776762E+03  0.47600830610E+03  0.25500000920E-02 0.  1.
</event>
<event>
 5   0  0.6199539E-03  0.9601727E+03  0.7818609E-02  0.9353339E-01
       -2   -1    0    0    0  501  0.00000000000E+00  0.00000000000E+00  0.27670582907E+03  0.27670582908E+03  0.25500000920E-02 0. -1.
        2   -1    0    0  501    0  0.00000000000E+00  0.00000000000E+00 -0.83295282277E+03  0.83295282277E+03  0.25500000920E-02 0.  1.
    10030    2    1    2    0    0  0.00000000000E+00  0.00000000000E+00 -0.55624699370E+03  0.11096586519E+04  0.96017269573E+03 0.  0.
        2    1    3    3  502    0 -0.44986641606E+03  0.14381825456E+01 -0.47185544870E+03  0.65194280819E+03  0.25500000920E-02 0. -1.
       -2    1    3    3    0  502  0.44986641606E+03 -0.14381825456E+01 -0.84391545001E+02  0.45771584367E+03  0.25500000920E-02 0.  1.
</event>
<event>
 5   0  0.6376961E-03  0.1050878E+04  0.7818609E-02  0.9254438E-01
        2   -1    0    0  501    0  0.00000000000E+00  0.00000000000E+00  0.99180155379E+03  0.99180155380E+03  0.25500000920E-02 0.  1.
       -2   -1    0    0    0  501  0.00000000000E+00  0.00000000000E+00 -0.27836847442E+03  0.27836847443E+03  0.25500000920E-02 0. -1.
    10030    2    1    2    0    0  0.00000000000E+00  0.00000000000E+00  0.71343307937E+03  0.12701700282E+04  0.10508782717E+04 0.  0.
        3    1    3    3  502    0 -0.27671629704E+03 -0.10642933222E+02  0.89644238686E+03  0.93823991827E+03  0.10100000352E+00 0.  1.
       -3    1    3    3    0  502  0.27671629704E+03  0.10642933222E+02 -0.18300930748E+03  0.33193010996E+03  0.10100000352E+00 0. -1.
</event>
<event>
 5   0  0.3640180E-03  0.1012254E+04  0.7818609E-02  0.9295206E-01
       -1   -1    0    0    0  501  0.00000000000E+00  0.00000000000E+00  0.14771817126E+03  0.14771817135E+03  0.50400001928E-02 0.  1.
        1   -1    0    0  501    0  0.00000000000E+00  0.00000000000E+00 -0.17341452618E+04  0.17341452618E+04  0.50400001928E-02 0. -1.
    10030    2    1    2    0    0  0.00000000000E+00  0.00000000000E+00 -0.15864270905E+04  0.18818634331E+04  0.10122544480E+04 0.  0.
        5    1    3    3  502    0  0.20315066207E+02  0.48043605325E+03 -0.49978963217E+03  0.69357282934E+03  0.46999998093E+01 0.  1.
       -5    1    3    3    0  502 -0.20315066207E+02 -0.48043605325E+03 -0.10866374584E+04  0.11882906038E+04  0.46999998093E+01 0. -1.
</event>
<event>
 5   0  0.3640180E-03  0.1000126E+04  0.7818609E-02  0.9308407E-01
       -1   -1    0    0    0  501  0.00000000000E+00  0.00000000000E+00  0.39525292482E+03  0.39525292485E+03  0.50400001928E-02 0. -1.
        1   -1    0    0  501    0  0.00000000000E+00  0.00000000000E+00 -0.63266548232E+03  0.63266548234E+03  0.50400001928E-02 0.  1.
    10030    2    1    2    0    0  0.00000000000E+00  0.00000000000E+00 -0.23741255750E+03  0.10279184072E+04  0.10001257568E+04 0.  0.
        5    1    3    3  502    0 -0.27710603350E+03  0.38024489691E+03  0.55311680190E+02  0.47376725023E+03  0.46999998093E+01 0. -1.
       -5    1    3    3    0  502  0.27710603350E+03 -0.38024489691E+03 -0.29272423769E+03  0.55415115696E+03  0.46999998093E+01 0.  1.
</event>
<event>
 5   0  0.6606947E-03  0.8708109E+03  0.7818609E-02  0.9462823E-01
        2   -1    0    0  501    0  0.00000000000E+00  0.00000000000E+00  0.26404987003E+03  0.26404987004E+03  0.25500000920E-02 0.  1.
       -2   -1    0    0    0  501  0.00000000000E+00  0.00000000000E+00 -0.71796242975E+03  0.71796242976E+03  0.25500000920E-02 0. -1.
    10030    2    1    2    0    0  0.00000000000E+00  0.00000000000E+00 -0.45391255972E+03  0.98201229980E+03  0.87081085494E+03 0.  0.
        1    1    3    3  502    0  0.32056684015E+03 -0.22755456606E+02 -0.55823297371E+03  0.64413116892E+03  0.50400001928E-02 0. -1.
       -1    1    3    3    0  502 -0.32056684015E+03  0.22755456606E+02  0.10432041399E+03  0.33788113088E+03  0.50400001928E-02 0.  1.
</event>
<event>
 5   0  0.3569359E-03  0.1000221E+04  0.7818609E-02  0.9308302E-01
       -1   -1    0    0    0  501  0.00000000000E+00  0.00000000000E+00  0.58102723474E+03  0.58102723476E+03  0.50400001928E-02 0. -1.
        1   -1    0    0  501    0  0.00000000000E+00  0.00000000000E+00 -0.43046278729E+03  0.43046278732E+03  0.50400001928E-02 0.  1.
    10030    2    1    2    0    0  0.00000000000E+00  0.00000000000E+00  0.15056444745E+03  0.10114900221E+04  0.10002211815E+04 0.  0.
        4    1    3    3  502    0 -0.38609724728E+03  0.20236010003E+03  0.32317307484E+03  0.54264458317E+03  0.12699999809E+01 0. -1.
       -4    1    3    3    0  502  0.38609724728E+03 -0.20236010003E+03 -0.17260862739E+03  0.46884543891E+03  0.12699999809E+01 0.  1.
</event>
<event>
 5   0  0.3643002E-03  0.9923543E+03  0.7818609E-02  0.9316970E-01
        1   -1    0    0  501    0  0.00000000000E+00  0.00000000000E+00  0.33067158451E+03  0.33067158455E+03  0.50400001928E-02 0.  1.
       -1   -1    0    0    0  501  0.00000000000E+00  0.00000000000E+00 -0.74452043830E+03  0.74452043832E+03  0.50400001928E-02 0. -1.
    10030    2    1    2    0    0  0.00000000000E+00  0.00000000000E+00 -0.41384885378E+03  0.10751920229E+04  0.99235427760E+03 0.  0.
        2    1    3    3  502    0 -0.42170857026E+03 -0.85140290039E+02 -0.47475295192E+03  0.64068506505E+03  0.25500000920E-02 0. -1.
       -2    1    3    3    0  502  0.42170857026E+03  0.85140290039E+02  0.60904098140E+02  0.43450695782E+03  0.25500000920E-02 0.  1.
</event>
<event>
 5   0  0.6360455E-03  0.1027978E+04  0.7818609E-02  0.9278380E-01
       -2   -1    0    0    0  501  0.00000000000E+00  0.00000000000E+00  0.18106538039E+03  0.18106538040E+03  0.25500000920E-02 0. -1.
        2   -1    0    0  501    0  0.00000000000E+00  0.00000000000E+00 -0.14590565784E+04  0.14590565784E+04  0.25500000920E-02 0.  1.
    10030    2    1    2    0    0  0.00000000000E+00  0.00000000000E+00 -0.12779911980E+04  0.16401219588E+04  0.10279778877E+04 0.  0.
        4    1    3    3  502    0 -0.26332940327E+03  0.14528920323E+03 -0.13040112981E+04  0.13382445239E+04  0.12699999809E+01 0.  1.
       -4    1    3    3    0  502  0.26332940327E+03 -0.14528920323E+03  0.26020100109E+02  0.30187743491E+03  0.12699999809E+01 0. -1.
</event>
<event>
 5   0  0.6199539E-03  0.1000352E+04  0.7818609E-02  0.9308159E-01
       -2   -1    0    0    0  501  0.00000000000E+00  0.00000000000E+00  0.30299277608E+03  0.30299277609E+03  0.25500000920E-02 0.  1.
        2   -1    0    0  501    0  0.00000000000E+00  0.00000000000E+00 -0.82568337151E+03  0.82568337151E+03  0.25500000920E-02 0. -1.
    10030    2    1    2    0    0  0.00000000000E+00  0.00000000000E+00 -0.52269059543E+03  0.11286761476E+04  0.10003521318E+04 0.  0.
        2    1    3    3  502    0 -0.27949858094E+03 -0.25578009193E+03  0.10709119144E+03  0.39371491648E+03  0.25500000920E-02 0.  1.
       -2    1    3    3    0  502  0.27949858094E+03  0.25578009193E+03 -0.62978178686E+03  0.73496123111E+03  0.25500000920E-02 0. -1.
</event>
<event>
 5   0  0.6022787E-03  0.1003208E+04  0.7818609E-02  0.9305034E-01
       -2   -1    0    0    0  501  0.00000000000E+00  0.00000000000E+00  0.21680111818E+04  0.21680111818E+04  0.25500000920E-02 0.  1.
        2   -1    0    0  501    0  0.00000000000E+00  0.00000000000E+00 -0.11605400464E+03  0.11605400467E+03  0.25500000920E-02 0. -1.
    10030    2    1    2    0    0  0.00000000000E+00  0.00000000000E+00  0.20519571771E+04  0.22840651864E+04  0.10032076152E+04 0.  0.
        5    1    3    3  502    0 -0.45973721160E+03 -0.57992803203E+02  0.14631099413E+04  0.15347424082E+04  0.46999998093E+01 0.  1.
       -5    1    3    3    0  502  0.45973721160E+03  0.57992803203E+02  0.58884723576E+03  0.74932277826E+03  0.46999998093E+01 0. -1.
</event>
<event>
 5   0  0.2417750E-03  0.9925013E+03  0.7818609E-02  0.9316808E-01
        4   -1    0    0  501    0  0.00000000000E+00  0.00000000000E+00  0.78029006018E+03  0.78029109370E+03  0.12699999809E+01 0. -1.
       -4   -1    0    0    0  501  0.00000000000E+00  0.00000000000E+00 -0.31560407050E+03  0.31560662575E+03  0.12699999809E+01 0.  1.
    10030    2    1    2    0    0  0.00000000000E+00  0.00000000000E+00  0.46468598968E+03  0.10958977195E+04  0.99250125567E+03 0.  0.
        3    1    3    3  502    0 -0.16312357014E+03 -0.34250124144E+03 -0.12090460841E+03  0.39816370259E+03  0.10100000352E+00 0.  1.
       -3    1    3    3    0  502  0.16312357014E+03  0.34250124144E+03  0.58559059809E+03  0.69773401687E+03  0.10100000352E+00 0. -1.
</event>
<event>
 5   0  0.6360455E-03  0.1001317E+04  0.7818609E-02  0.9307101E-01
        2   -1    0    0  501    0  0.00000000000E+00  0.00000000000E+00  0.43241561623E+03  0.43241561623E+03  0.25500000920E-02 0.  1.
       -2   -1    0    0    0  501  0.00000000000E+00  0.00000000000E+00 -0.57967151365E+03  0.57967151366E+03  0.25500000920E-02 0. -1.
    10030    2    1    2    0    0  0.00000000000E+00  0.00000000000E+00 -0.14725589742E+03  0.10120871299E+04  0.10013171621E+04 0.  0.
        4    1    3    3  502    0 -0.83197957061E+02  0.86386287351E+02  0.41767934169E+03  0.43455970370E+03  0.12699999809E+01 0.  1.
       -4    1    3    3    0  502  0.83197957061E+02 -0.86386287351E+02 -0.56493523912E+03  0.57752742619E+03  0.12699999809E+01 0. -1.
</event>
<event>
 5   0  0.6376961E-03  0.1019476E+04  0.7818609E-02  0.9287438E-01
        2   -1    0    0  501    0  0.00000000000E+00  0.00000000000E+00  0.15948268819E+04  0.15948268819E+04  0.25500000920E-02 0.  1.
       -2   -1    0    0    0  501  0.00000000000E+00  0.00000000000E+00 -0.16292220998E+03  0.16292221000E+03  0.25500000920E-02 0. -1.
    10030    2    1    2    0    0  0.00000000000E+00  0.00000000000E+00  0.14319046720E+04  0.17577490919E+04  0.10194757872E+04 0.  0.
        3    1    3    3  502    0 -0.66068998905E+02  0.50520770227E+03  0.68964674567E+03  0.85744537964E+03  0.10100000352E+00 0.  1.
       -3    1    3    3    0  502  0.66068998905E+02 -0.50520770227E+03  0.74225792629E+03  0.90030371231E+03  0.10100000352E+00 0. -1.
</event>
<event>
 5   0  0.3466598E-03  0.9398637E+03  0.7818609E-02  0.9377077E-01
       -1   -1    0    0    0  501  0.00000000000E+00  0.00000000000E+00  0.11820946317E+04  0.11820946317E+04  0.50400001928E-02 0. -1.
        1   -1    0    0  501    0  0.00000000000E+00  0.00000000000E+00 -0.18681748079E+03  0.18681748086E+03  0.50400001928E-02 0.  1.
    10030    2    1    2    0    0  0.00000000000E+00  0.00000000000E+00  0.99527715088E+03  0.13689121125E+04  0.93986369480E+03 0.  0.
        3    1    3    3  502    0 -0.76194853561E+02  0.23751792352E+03 -0.82435584948E+02  0.26270907021E+03  0.10100000352E+00 0.  1.
       -3    1    3    3    0  502  0.76194853561E+02 -0.23751792352E+03  0.10777127358E+04  0.11062030423E+04  0.10100000352E+00 0. -1.
</event>
<event>
 5   0  0.6376961E-03  0.9974640E+03  0.7818609E-02  0.9311331E-01
        2   -1    0    0  501    0  0.00000000000E+00  0.00000000000E+00  0.87951321167E+03  0.87951321167E+03  0.25500000920E-02 0. -1.
       -2   -1    0    0    0  501  0.00000000000E+00  0.00000000000E+00 -0.28280828034E+03  0.28280828035E+03  0.25500000920E-02 0.  1.
    10030    2    1    2    0    0  0.00000000000E+00  0.00000000000E+00  0.59670493133E+03  0.11623214920E+04  0.99746402228E+03 0.  0.
        3    1    3    3  502    0  0.19721016229E+03 -0.18942493057E+03 -0.18766701072E+03  0.33165127701E+03  0.10100000352E+00 0.  1.
       -3    1    3    3    0  502 -0.19721016229E+03  0.18942493057E+03  0.78437194205E+03  0.83067021501E+03  0.10100000352E+00 0. -1.
</event>
<event>
 5   0  0.3643002E-03  0.1007276E+04  0.7818609E-02  0.9300600E-01
        1   -1    0    0  501    0  0.00000000000E+00  0.00000000000E+00  0.72727656119E+03  0.72727656121E+03  0.50400001928E-02 0. -1.
       -1   -1    0    0    0  501  0.00000000000E+00  0.00000000000E+00 -0.34876881366E+03  0.34876881370E+03  0.50400001928E-02 0.  1.
    10030    2    1    2    0    0  0.00000000000E+00  0.00000000000E+00  0.37850774753E+03  0.10760453749E+04  0.10072762947E+04 0.  0.
        2    1    3    3  502    0  0.35470358637E+03 -0.16154693599E+03 -0.15148871833E+03  0.41816369821E+03  0.25500000920E-02 0.  1.
       -2    1    3    3    0  502 -0.35470358637E+03  0.16154693599E+03  0.52999646586E+03  0.65788167670E+03  0.25500000920E-02 0. -1.
</event>
<event>
 5   0  0.3608845E-03  0.9778899E+03  0.7818609E-02  0.9333133E-01
        1   -1    0    0  501    0  0.00000000000E+00  0.00000000000E+00  0.43217869090E+03  0.43217869093E+03  0.50400001928E-02 0.  1.
       -1   -1    0    0    0  501  0.00000000000E+00  0.00000000000E+00 -0.55316737817E+03  0.55316737819E+03  0.50400001928E-02 0. -1.
    10030    2    1    2    0    0  0.00000000000E+00  0.00000000000E+00 -0.12098868727E+03  0.98534606912E+03  0.97788987799E+03 0.  0.
        1    1    3    3  502    0 -0.21964410908E+03 -0.11277581273E+03 -0.48573734978E+03  0.54488777890E+03  0.50400001928E-02 0. -1.
       -1    1    3    3    0  502  0.21964410908E+03  0.11277581273E+03  0.36474866252E+03  0.44045829022E+03  0.50400001928E-02 0.  1.
</event>
<event>
 5   0  0.6360455E-03  0.9914185E+03  0.7818609E-02  0.9318007E-01
       -2   -1    0    0    0  501  0.00000000000E+00  0.00000000000E+00  0.33712371781E+03  0.33712371782E+03  0.25500000920E-02 0.  1.
        2   -1    0    0  501    0  0.00000000000E+00  0.00000000000E+00 -0.72889461188E+03  0.72889461188E+03  0.25500000920E-02 0. -1.
    10030    2    1    2    0    0  0.00000000000E+00  0.00000000000E+00 -0.39177089407E+03  0.10660183297E+04  0.99141850185E+03 0.  0.
        4    1    3    3  502    0 -0.27389548364E+03 -0.80381421719E+02 -0.63165334967E+03  0.69315761264E+03  0.12699999809E+01 0. -1.
       -4    1    3    3    0  502  0.27389548364E+03  0.80381421719E+02  0.23988245560E+03  0.37286071705E+03  0.12699999809E+01 0.  1.
</event>
<event>
 5   0  0.6360455E-03  0.9871779E+03  0.7818609E-02  0.9322721E-01
       -2   -1    0    0    0  501  0.00000000000E+00  0.00000000000E+00  0.38061457721E+03  0.38061457722E+03  0.25500000920E-02 0. -1.
        2   -1    0    0  501    0  0.00000000000E+00  0.00000000000E+00 -0.64009645800E+03  0.64009645800E+03  0.25500000920E-02 0.  1.
    10030    2    1    2    0    0  0.00000000000E+00  0.00000000000E+00 -0.25948188079E+03  0.10207110352E+04  0.98717788213E+03 0.  0.
        4    1    3    3  502    0  0.86522982155E+02 -0.22091171177E+03  0.31778983465E+03  0.39658568147E+03  0.12699999809E+01 0. -1.
       -4    1    3    3    0  502 -0.86522982155E+02  0.22091171177E+03 -0.57727171544E+03  0.62412535375E+03  0.12699999809E+01 0.  1.
</event>
<event>
 5   0  0.6360455E-03  0.1002085E+04  0.7818609E-02  0.9306261E-01
       -2   -1    0    0    0  501  0.00000000000E+00  0.00000000000E+00  0.51712043305E+03  0.51712043306E+03  0.25500000920E-02 0.  1.
        2   -1    0    0  501    0  0.00000000000E+00  0.00000000000E+00 -0.48546401041E+03  0.48546401042E+03  0.25500000920E-02 0. -1.
    10030    2    1    2    0    0  0.00000000000E+00  0.00000000000E+00  0.31656422639E+02  0.10025844435E+04  0.10020845459E+04 0.  0.
        4    1    3    3  502    0 -0.33474178997E+03 -0.45157593148E+02 -0.35442459946E+03  0.48960155614E+03  0.12699999809E+01 0. -1.
       -4    1    3    3    0  502  0.33474178997E+03  0.45157593148E+02  0.38608102210E+03  0.51298288733E+03  0.12699999809E+01 0.  1.
</event>
<event>
 5   0  0.2417750E-03  0.9672956E+03  0.7818609E-02  0.9345160E-01
       -3   -1    0    0    0  501  0.00000000000E+00  0.00000000000E+00  0.47047660786E+03  0.47047661870E+03  0.10100000352E+00 0.  1.
        3   -1    0    0  501    0  0.00000000000E+00  0.00000000000E+00 -0.49718766378E+03  0.49718767404E+03  0.10100000352E+00 0. -1.
    10030    2    1    2    0    0  0.00000000000E+00  0.00000000000E+00 -0.26711055920E+02  0.96766429274E+03  0.96729556132E+03 0.  0.
        4    1    3    3  502    0  0.33550651463E+03  0.20024123909E+03 -0.29851223224E+03  0.49170350913E+03  0.12699999809E+01 0. -1.
       -4    1    3    3    0  502 -0.33550651463E+03 -0.20024123909E+03  0.27180117632E+03  0.47596078362E+03  0.12699999809E+01 0.  1.
</event>
<event>
 5   0  0.3608845E-03  0.1028770E+04  0.7818609E-02  0.9277541E-01
        1   -1    0    0  501    0  0.00000000000E+00  0.00000000000E+00  0.10716348319E+04  0.10716348319E+04  0.50400001928E-02 0.  1.
       -1   -1    0    0    0  501  0.00000000000E+00  0.00000000000E+00 -0.24690497598E+03  0.24690497603E+03  0.50400001928E-02 0. -1.
    10030    2    1    2    0    0  0.00000000000E+00  0.00000000000E+00  0.82472985595E+03  0.13185398080E+04  0.10287700860E+04 0.  0.
        1    1    3    3  502    0 -0.61973083406E+02 -0.77588752457E+02 -0.23450367171E+03  0.25466183390E+03  0.50400001928E-02 0. -1.
       -1    1    3    3    0  502  0.61973083406E+02  0.77588752457E+02  0.10592335277E+04  0.10638779741E+04  0.50400001928E-02 0.  1.
</event>
<event>
 5   0  0.2417750E-03  0.1037317E+04  0.7818609E-02  0.9268537E-01
        3   -1    0    0  501    0  0.00000000000E+00  0.00000000000E+00  0.13953633853E+04  0.13953633890E+04  0.10100000352E+00 0.  1.
       -3   -1    0    0    0  501  0.00000000000E+00  0.00000000000E+00 -0.19278620271E+03  0.19278622917E+03  0.10100000352E+00 0. -1.
    10030    2    1    2    0    0  0.00000000000E+00  0.00000000000E+00  0.12025771826E+04  0.15881496182E+04  0.10373173716E+04 0.  0.
        1    1    3    3  502    0  0.74929219499E+02  0.50653803183E+03  0.47492951018E+03  0.69839330272E+03  0.50400001928E-02 0. -1.
       -1    1    3    3    0  502 -0.74929219499E+02 -0.50653803183E+03  0.72764767244E+03  0.88975631543E+03  0.50400001928E-02 0.  1.
</event>
<event>
 5   0  0.6022787E-03  0.9900318E+03  0.7818609E-02  0.9319546E-01
        2   -1    0    0  501    0  0.00000000000E+00  0.00000000000E+00  0.50378097355E+03  0.50378097356E+03  0.25500000920E-02 0. -1.
       -2   -1    0    0    0  501  0.00000000000E+00  0.00000000000E+00 -0.48640328356E+03  0.48640328357E+03  0.25500000920E-02 0.  1.
    10030    2    1    2    0    0  0.00000000000E+00  0.00000000000E+00  0.17377689991E+02  0.99018425712E+03  0.99003175653E+03 0.  0.
        5    1    3    3  502    0  0.13824934012E+03 -0.10823140908E+03 -0.45419094864E+03  0.48696860862E+03  0.46999998093E+01 0.  1.
       -5    1    3    3    0  502 -0.13824934012E+03  0.10823140908E+03  0.47156863863E+03  0.50321564850E+03  0.46999998093E+01 0. -1.
</event>
<event>
 5   0  0.2417750E-03  0.9641236E+03  0.7818609E-02  0.9348793E-01
        3   -1    0    0  501    0  0.00000000000E+00  0.00000000000E+00  0.35823506118E+03  0.35823507542E+03  0.10100000352E+00 0. -1.
       -3   -1    0    0    0  501  0.00000000000E+00  0.00000000000E+00 -0.64869013050E+03  0.64869013836E+03  0.10100000352E+00 0.  1.
    10030    2    1    2    0    0  0.00000000000E+00  0.00000000000E+00 -0.29045506932E+03  0.10069252138E+04  0.96412355996E+03 0.  0.
        5    1    3    3  502    0 -0.43634702334E+03  0.17071317800E+03 -0.26347841877E+03  0.53757295419E+03  0.46999998093E+01 0.  1.
       -5    1    3    3    0  502  0.43634702334E+03 -0.17071317800E+03 -0.26976650549E+02  0.46935225960E+03  0.46999998093E+01 0. -1.
</event>
<event>
 5   0  0.6376961E-03  0.1005860E+04  0.7818609E-02  0.9302141E-01
        2   -1    0    0  501    0  0.00000000000E+00  0.00000000000E+00  0.19091503245E+04  0.19091503245E+04  0.25500000920E-02 0.  1.
       -2   -1    0    0    0  501  0.00000000000E+00  0.00000000000E+00 -0.13248747434E+03  0.13248747437E+03  0.25500000920E-02 0. -1.
    10030    2    1    2    0    0  0.00000000000E+00  0.00000000000E+00  0.17766628502E+04  0.20416377989E+04  0.10058598405E+04 0.  0.
        3    1    3    3  502    0 -0.26261057813E+01  0.34621215350E+03  0.16287533247E+04  0.16651447849E+04  0.10100000352E+00 0.  1.
       -3    1    3    3    0  502  0.26261057813E+01 -0.34621215350E+03  0.14790952544E+03  0.37649301398E+03  0.10100000352E+00 0. -1.
</event>
<event>
 5   0  0.2417750E-03  0.1023171E+04  0.7818609E-02  0.9283490E-01
       -4   -1    0    0    0  501  0.00000000000E+00  0.00000000000E+00  0.80529673139E+03  0.80529773282E+03  0.12699999809E+01 0.  1.
        4   -1    0    0  501    0  0.00000000000E+00  0.00000000000E+00 -0.32499526130E+03  0.32499774271E+03  0.12699999809E+01 0. -1.
    10030    2    1    2    0    0  0.00000000000E+00  0.00000000000E+00  0.48030147009E+03  0.11302954755E+04  0.10231707384E+04 0.  0.
        5    1    3    3  502    0  0.47417122433E+03 -0.18893107506E+03  0.27784345356E+03  0.58116467184E+03  0.46999998093E+01 0.  1.
       -5    1    3    3    0  502 -0.47417122433E+03  0.18893107506E+03  0.20245801654E+03  0.54913080369E+03  0.46999998093E+01 0. -1.
</event>
<event>
 5   0  0.3608845E-03  0.1029044E+04  0.7818609E-02  0.9277251E-01
        1   -1    0    0  501    0  0.00000000000E+00  0.00000000000E+00  0.84949305861E+03  0.84949305863E+03  0.50400001928E-02 0. -1.
       -1   -1    0    0    0  501  0.00000000000E+00  0.00000000000E+00 -0.31163636629E+03  0.31163636633E+03  0.50400001928E-02 0.  1.
    10030    2    1    2    0    0  0.00000000000E+00  0.00000000000E+00  0.53785669232E+03  0.11611294250E+04  0.10290440807E+04 0.  0.
        1    1    3    3  502    0 -0.44471561601E+03  0.24158844243E+03  0.16431328035E+03  0.53210507305E+03  0.50400001928E-02 0. -1.
       -1    1    3    3    0  502  0.44471561601E+03 -0.24158844243E+03  0.37354341198E+03  0.62902435191E+03  0.50400001928E-02 0.  1.
</event>
<event>
 5   0  0.3643002E-03  0.1004486E+04  0.7818609E-02  0.9303639E-01
       -1   -1    0    0    0  501  0.00000000000E+00  0.00000000000E+00  0.37684978700E+03  0.37684978704E+03  0.50400001928E-02 0. -1.
        1   -1    0    0  501    0  0.00000000000E+00  0.00000000000E+00 -0.66935922138E+03  0.66935922140E+03  0.50400001928E-02 0.  1.
    10030    2    1    2    0    0  0.00000000000E+00  0.00000000000E+00 -0.29250943438E+03  0.10462090084E+04  0.10044856993E+04 0.  0.
        2    1    3    3  502    0  0.40478295593E+03  0.28225745829E+03 -0.48942796459E+02  0.49589707753E+03  0.25500000920E-02 0. -1.
       -2    1    3    3    0  502 -0.40478295593E+03 -0.28225745829E+03 -0.24356663792E+03  0.55031193090E+03  0.25500000920E-02 0.  1.
</event>
<event>
 5   0  0.6376961E-03  0.9426200E+03  0.7818609E-02  0.9373818E-01
       -2   -1    0    0    0  501  0.00000000000E+00  0.00000000000E+00  0.36504574757E+03  0.36504574758E+03  0.25500000920E-02 0.  1.
        2   -1    0    0  501    0  0.00000000000E+00  0.00000000000E+00 -0.60850761906E+03  0.60850761907E+03  0.25500000920E-02 0. -1.
    10030    2    1    2    0    0  0.00000000000E+00  0.00000000000E+00 -0.24346187150E+03  0.97355336665E+03  0.94262000554E+03 0.  0.
        3    1    3    3  502    0 -0.46907208721E+03 -0.45470698522E+02 -0.12800490907E+03  0.48834565051E+03  0.10100000352E+00 0.  1.
       -3    1    3    3    0  502  0.46907208721E+03  0.45470698522E+02 -0.11545696243E+03  0.48520771614E+03  0.10100000352E+00 0. -1.
</event>
<event>
 5   0  0.3643002E-03  0.1003512E+04  0.7818609E-02  0.9304702E-01
        1   -1    0    0  501    0  0.00000000000E+00  0.00000000000E+00  0.10760520698E+04  0.10760520698E+04  0.50400001928E-02 0.  1.
       -1   -1    0    0    0  501  0.00000000000E+00  0.00000000000E+00 -0.23396540134E+03  0.23396540139E+03  0.50400001928E-02 0. -1.
    10030    2    1    2    0    0  0.00000000000E+00  0.00000000000E+00  0.84208666849E+03  0.13100174712E+04  0.10035117427E+04 0.  0.
        2    1    3    3  502    0  0.44883825767E+03 -0.15006671391E+03  0.20345009176E+03  0.51513856391E+03  0.25500000920E-02 0.  1.
       -2    1    3    3    0  502 -0.44883825767E+03  0.15006671391E+03  0.63863657672E+03  0.79487890732E+03  0.25500000920E-02 0. -1.
</event>
<event>
 5   0  0.6199539E-03  0.9969253E+03  0.7818609E-02  0.9311924E-01
        2   -1    0    0  501    0  0.00000000000E+00  0.00000000000E+00  0.10736103805E+04  0.10736103805E+04  0.25500000920E-02 0.  1.
       -2   -1    0    0    0  501  0.00000000000E+00  0.00000000000E+00 -0.23142941066E+03  0.23142941067E+03  0.25500000920E-02 0. -1.
    10030    2    1    2    0    0  0.00000000000E+00  0.00000000000E+00  0.84218096981E+03  0.13050397911E+04  0.99692530841E+03 0.  0.
        2    1    3    3  502    0 -0.79012624743E+02  0.27409535168E+03  0.95619824540E+03  0.99784083961E+03  0.25500000920E-02 0.  1.
       -2    1    3    3    0  502  0.79012624743E+02 -0.27409535168E+03 -0.11401727559E+03  0.30719895153E+03  0.25500000920E-02 0. -1.
</event>
<event>
 5   0  0.3466598E-03  0.1013371E+04  0.7818609E-02  0.9294000E-01
        1   -1    0    0  501    0  0.00000000000E+00  0.00000000000E+00  0.11833740560E+04  0.11833740560E+04  0.50400001928E-02 0.  1.
       -1   -1    0    0    0  501  0.00000000000E+00  0.00000000000E+00 -0.21694763046E+03  0.21694763052E+03  0.50400001928E-02 0. -1.
    10030    2    1    2    0    0  0.00000000000E+00  0.00000000000E+00  0.96642642558E+03  0.14003216866E+04  0.10133710030E+04 0.  0.
        3    1    3    3  502    0 -0.48054970829E+03  0.95808520141E+02  0.30505221316E+03  0.57720374014E+03  0.10100000352E+00 0. -1.
       -3    1    3    3    0  502  0.48054970829E+03 -0.95808520141E+02  0.66137421242E+03  0.82311794642E+03  0.10100000352E+00 0.  1.
</event>
<event>
 5   0  0.3608845E-03  0.9848864E+03  0.7818609E-02  0.9325278E-01
       -1   -1    0    0    0  501  0.00000000000E+00  0.00000000000E+00  0.43840165167E+03  0.43840165170E+03  0.50400001928E-02 0.  1.
        1   -1    0    0  501    0  0.00000000000E+00  0.00000000000E+00 -0.55314637819E+03  0.55314637821E+03  0.50400001928E-02 0. -1.
    10030    2    1    2    0    0  0.00000000000E+00  0.00000000000E+00 -0.11474472652E+03  0.99154802991E+03  0.98488636063E+03 0.  0.
        1    1    3    3  502    0  0.43904640671E+03  0.59733784006E+02 -0.27369875950E+03  0.52080791390E+03  0.50400001928E-02 0. -1.
       -1    1    3    3    0  502 -0.43904640671E+03 -0.59733784006E+02  0.15895403298E+03  0.47074011601E+03  0.50400001928E-02 0.  1.
</event>
<event>
 5   0  0.6360455E-03  0.9770930E+03  0.7818609E-02  0.9334032E-01
       -2   -1    0    0    0  501  0.00000000000E+00  0.00000000000E+00  0.16090367041E+03  0.16090367043E+03  0.25500000920E-02 0.  1.
        2   -1    0    0  501    0  0.00000000000E+00  0.00000000000E+00 -0.14833576081E+04  0.14833576081E+04  0.25500000920E-02 0. -1.
    10030    2    1    2    0    0  0.00000000000E+00  0.00000000000E+00 -0.13224539377E+04  0.16442612785E+04  0.97709300211E+03 0.  0.
        4    1    3    3  502    0 -0.31990210992E+03  0.36917502088E+03 -0.64950576757E+03  0.81270345821E+03  0.12699999809E+01 0.  1.
       -4    1    3    3    0  502  0.31990210992E+03 -0.36917502088E+03 -0.67294817010E+03  0.83155782031E+03  0.12699999809E+01 0. -1.
</event>
<event>
 5   0  0.6022787E-03  0.9764111E+03  0.7818609E-02  0.9334802E-01
        2   -1    0    0  501    0  0.00000000000E+00  0.00000000000E+00  0.12981428445E+04  0.12981428445E+04  0.25500000920E-02 0.  1.
       -2   -1    0    0    0  501  0.00000000000E+00  0.00000000000E+00 -0.18360432370E+03  0.18360432371E+03  0.25500000920E-02 0. -1.
    10030    2    1    2    0    0  0.00000000000E+00  0.00000000000E+00  0.11145385208E+04  0.14817471682E+04  0.97641105902E+03 0.  0.
        5    1    3    3  502    0  0.13574358957E+03 -0.18209269837E+03 -0.98510972249E+02  0.24760972226E+03  0.46999998093E+01 0. -1.
       -5    1    3    3    0  502 -0.13574358957E+03  0.18209269837E+03  0.12130494931E+04  0.12341374460E+04  0.46999998093E+01 0.  1.
</event>
<event>
 5   0  0.3643002E-03  0.1090136E+04  0.7818609E-02  0.9214859E-01
       -1   -1    0    0    0  501  0.00000000000E+00  0.00000000000E+00  0.60017972980E+03  0.60017972982E+03  0.50400001928E-02 0.  1.
        1   -1    0    0  501    0  0.00000000000E+00  0.00000000000E+00 -0.49501728133E+03  0.49501728135E+03  0.50400001928E-02 0. -1.
    10030    2    1    2    0    0  0.00000000000E+00  0.00000000000E+00  0.10516244847E+03  0.10951970112E+04  0.10901363918E+04 0.  0.
        2    1    3    3  502    0 -0.42924735636E+03 -0.15403741702E+03  0.35249429488E+03  0.57639660540E+03  0.25500000920E-02 0.  1.
       -2    1    3    3    0  502  0.42924735636E+03  0.15403741702E+03 -0.24733184640E+03  0.51880040578E+03  0.25500000920E-02 0. -1.
</event>
<event>
 5   0  0.3643002E-03  0.1001647E+04  0.7818609E-02  0.9306741E-01
       -1   -1    0    0    0  501  0.00000000000E+00  0.00000000000E+00  0.26213656862E+03  0.26213656867E+03  0.50400001928E-02 0. -1.
        1   -1    0    0  501    0  0.00000000000E+00  0.00000000000E+00 -0.95684461285E+03  0.95684461286E+03  0.50400001928E-02 0.  1.
    10030    2    1    2    0    0  0.00000000000E+00  0.00000000000E+00 -0.69470804423E+03  0.12189811815E+04  0.10016465715E+04 0.  0.
        2    1    3    3  502    0  0.44972821861E+03 -0.67301865722E+02 -0.91965732831E+02  0.46394256947E+03  0.25500000920E-02 0. -1.
       -2    1    3    3    0  502 -0.44972821861E+03  0.67301865722E+02 -0.60274231140E+03  0.75503861206E+03  0.25500000920E-02 0.  1.
</event>
<event>
 5   0  0.3608845E-03  0.1019991E+04  0.7818609E-02  0.9286887E-01
       -1   -1    0    0    0  501  0.00000000000E+00  0.00000000000E+00  0.31510480481E+03  0.31510480485E+03  0.50400001928E-02 0.  1.
        1   -1    0    0  501    0  0.00000000000E+00  0.00000000000E+00 -0.82542502513E+03  0.82542502515E+03  0.50400001928E-02 0. -1.
    10030    2    1    2    0    0  0.00000000000E+00  0.00000000000E+00 -0.51032022032E+03  0.11405298300E+04  0.10199909636E+04 0.  0.
        1    1    3    3  502    0 -0.23107532570E+03 -0.15120168173E+03 -0.73459268484E+03  0.78478287911E+03  0.50400001928E-02 0. -1.
       -1    1    3    3    0  502  0.23107532570E+03  0.15120168173E+03  0.22427246452E+03  0.35574695089E+03  0.50400001928E-02 0.  1.
</event>
<event>
 5   0  0.3640180E-03  0.1010247E+04  0.7818609E-02  0.9297376E-01
       -1   -1    0    0    0  501  0.00000000000E+00  0.00000000000E+00  0.35117223001E+03  0.35117223005E+03  0.50400001928E-02 0.  1.
        1   -1    0    0  501    0  0.00000000000E+00  0.00000000000E+00 -0.72656652239E+03  0.72656652240E+03  0.50400001928E-02 0. -1.
    10030    2    1    2    0    0  0.00000000000E+00  0.00000000000E+00 -0.37539429237E+03  0.10777387525E+04  0.10102474666E+04 0.  0.
        5    1    3    3  502    0  0.16031105071E+02 -0.13931555248E+03 -0.70535906036E+03  0.71917961144E+03  0.46999998093E+01 0. -1.
       -5    1    3    3    0  502 -0.16031105071E+02  0.13931555248E+03  0.32996476798E+03  0.35855914101E+03  0.46999998093E+01 0.  1.
</event>
<event>
 5   0  0.3466598E-03  0.9816552E+03  0.7818609E-02  0.9328897E-01
        1   -1    0    0  501    0  0.00000000000E+00  0.00000000000E+00  0.13537548088E+04  0.13537548088E+04  0.50400001928E-02 0. -1.
       -1   -1    0    0    0  501  0.00000000000E+00  0.00000000000E+00 -0.17795817960E+03  0.17795817968E+03  0.50400001928E-02 0.  1.
    10030    2    1    2    0    0  0.00000000000E+00  0.00000000000E+00  0.11757966292E+04  0.15317129885E+04  0.98165521742E+03 0.  0.
        3    1    3    3  502    0  0.21653486471E+03 -0.26034547774E+03  0.33496237805E+02  0.34027800923E+03  0.10100000352E+00 0.  1.
       -3    1    3    3    0  502 -0.21653486471E+03  0.26034547774E+03  0.11423003914E+04  0.11914349793E+04  0.10100000352E+00 0. -1.
</event>
<event>
 5   0  0.6606947E-03  0.9953479E+03  0.7818609E-02  0.9313662E-01
        2   -1    0    0  501    0  0.00000000000E+00  0.00000000000E+00  0.44227141407E+03  0.44227141408E+03  0.25500000920E-02 0. -1.
       -2   -1    0    0    0  501  0.00000000000E+00  0.00000000000E+00 -0.56001660849E+03  0.56001660849E+03  0.25500000920E-02 0.  1.
    10030    2    1    2    0    0  0.00000000000E+00  0.00000000000E+00 -0.11774519442E+03  0.10022880226E+04  0.99534785346E+03 0.  0.
        1    1    3    3  502    0  0.10218063672E+03 -0.72946421053E+02 -0.54380835122E+03  0.55811252069E+03  0.50400001928E-02 0.  1.
       -1    1    3    3    0  502 -0.10218063672E+03  0.72946421053E+02  0.42606315680E+03  0.44417550189E+03  0.50400001928E-02 0. -1.
</event>
<event>
 5   0  0.3466598E-03  0.9994614E+03  0.7818609E-02  0.9309136E-01
        1   -1    0    0  501    0  0.00000000000E+00  0.00000000000E+00  0.19268579260E+03  0.19268579267E+03  0.50400001928E-02 0. -1.
       -1   -1    0    0    0  501  0.00000000000E+00  0.00000000000E+00 -0.12960516968E+04  0.12960516968E+04  0.50400001928E-02 0.  1.
    10030    2    1    2    0    0  0.00000000000E+00  0.00000000000E+00 -0.11033659042E+04  0.14887374894E+04  0.99946135192E+03 0.  0.
        3    1    3    3  502    0 -0.21071857106E+03 -0.13501652514E+03 -0.11959824703E+04  0.12218861886E+04  0.10100000352E+00 0.  1.
       -3    1    3    3    0  502  0.21071857106E+03  0.13501652514E+03  0.92616566169E+02  0.26685130088E+03  0.10100000352E+00 0. -1.
</event>
<event>
 5   0  0.3608845E-03  0.1030155E+04  0.7818609E-02  0.9276076E-01
       -1   -1    0    0    0  501  0.00000000000E+00  0.00000000000E+00  0.27418542148E+03  0.27418542152E+03  0.50400001928E-02 0.  1.
        1   -1    0    0  501    0  0.00000000000E+00  0.00000000000E+00 -0.96761130278E+03  0.96761130280E+03  0.50400001928E-02 0. -1.
    10030    2    1    2    0    0  0.00000000000E+00  0.00000000000E+00 -0.69342588130E+03  0.12417967243E+04  0.10301551590E+04 0.  0.
        1    1    3    3  502    0 -0.48632116872E+03 -0.12720053279E+03 -0.48211336858E+03  0.69650667971E+03  0.50400001928E-02 0. -1.
       -1    1    3    3    0  502  0.48632116872E+03  0.12720053279E+03 -0.21131251273E+03  0.54529004461E+03  0.50400001928E-02 0.  1.
</event>
<event>
 5   0  0.3608845E-03  0.9986490E+03  0.7818609E-02  0.9310028E-01
       -1   -1    0    0    0  501  0.00000000000E+00  0.00000000000E+00  0.89889943309E+03  0.89889943310E+03  0.50400001928E-02 0. -1.
        1   -1    0    0  501    0  0.00000000000E+00  0.00000000000E+00 -0.27736689495E+03  0.27736689499E+03  0.50400001928E-02 0.  1.
    10030    2    1    2    0    0  0.00000000000E+00  0.00000000000E+00  0.62153253814E+03  0.11762663281E+04  0.99864897669E+03 0.  0.
        1    1    3    3  502    0  0.27793592204E+03 -0.36773307920E+03  0.53686876907E+03  0.70760445839E+03  0.50400001928E-02 0.  1.
       -1    1    3    3    0  502 -0.27793592204E+03  0.36773307920E+03  0.84663769071E+02  0.46866186971E+03  0.50400001928E-02 0. -1.
</event>
<event>
 5   0  0.3569359E-03  0.1010830E+04  0.7818609E-02  0.9296745E-01
        1   -1    0    0  501    0  0.00000000000E+00  0.00000000000E+00  0.12582251568E+04  0.12582251568E+04  0.50400001928E-02 0.  1.
       -1   -1    0    0    0  501  0.00000000000E+00  0.00000000000E+00 -0.20301971262E+03  0.20301971269E+03  0.50400001928E-02 0. -1.
    10030    2    1    2    0    0  0.00000000000E+00  0.00000000000E+00  0.10552054442E+04  0.14612448695E+04  0.10108303711E+04 0.  0.
        4    1    3    3  502    0  0.15289649918E+03  0.31116336199E+03  0.10592235483E+04  0.11145205765E+04  0.12699999809E+01 0.  1.
       -4    1    3    3    0  502 -0.15289649918E+03 -0.31116336199E+03 -0.40181040875E+01  0.34672429301E+03  0.12699999809E+01 0. -1.
</event>
<event>
 5   0  0.3466598E-03  0.9974136E+03  0.7818609E-02  0.9311386E-01
        1   -1    0    0  501    0  0.00000000000E+00  0.00000000000E+00  0.17409717191E+04  0.17409717191E+04  0.50400001928E-02 0. -1.
       -1   -1    0    0    0  501  0.00000000000E+00  0.00000000000E+00 -0.14285611720E+03  0.14285611729E+03  0.50400001928E-02 0.  1.
    10030    2    1    2    0    0  0.00000000000E+00  0.00000000000E+00  0.15981156019E+04  0.18838278364E+04  0.99741357528E+03 0.  0.
        3    1    3    3  502    0  0.27967945177E+03 -0.13643901400E+03  0.15351041248E+04  0.15663271959E+04  0.10100000352E+00 0. -1.
       -3    1    3    3    0  502 -0.27967945177E+03  0.13643901400E+03  0.63011477057E+02  0.31750064051E+03  0.10100000352E+00 0.  1.
</event>
<event>
 5   0  0.6606947E-03  0.9900726E+03  0.7818609E-02  0.9319501E-01
        2   -1    0    0  501    0  0.00000000000E+00  0.00000000000E+00  0.10659882883E+04  0.10659882883E+04  0.25500000920E-02 0. -1.
       -2   -1    0    0    0  501  0.00000000000E+00  0.00000000000E+00 -0.22989082928E+03  0.22989082930E+03  0.25500000920E-02 0.  1.
    10030    2    1    2    0    0  0.00000000000E+00  0.00000000000E+00  0.83609745900E+03  0.12958791176E+04  0.99007258645E+03 0.  0.
        1    1    3    3  502    0  0.32031598804E+03 -0.12516555875E+03  0.88411072909E+03  0.94864141308E+03  0.50400001928E-02 0. -1.
       -1    1    3    3    0  502 -0.32031598804E+03  0.12516555875E+03 -0.48013270096E+02  0.34723770450E+03  0.50400001928E-02 0.  1.
</event>
<event>
 5   0  0.6022787E-03  0.1026140E+04  0.7818609E-02  0.9280330E-01
        2   -1    0    0  501    0  0.00000000000E+00  0.00000000000E+00  0.62529515659E+03  0.62529515660E+03  0.25500000920E-02 0.  1.
       -2   -1    0    0    0  501  0.00000000000E+00  0.00000000000E+00 -0.42098668527E+03  0.42098668528E+03  0.25500000920E-02 0. -1.
    10030    2    1    2    0    0  0.00000000000E+00  0.00000000000E+00  0.20430847132E+03  0.10462818419E+04  0.10261402152E+04 0.  0.
        5    1    3    3  502    0  0.11886076554E+03  0.25462424843E+03  0.53983203197E+03  0.60860668926E+03  0.46999998093E+01 0.  1.
       -5    1    3    3    0  502 -0.11886076554E+03 -0.25462424843E+03 -0.33552356064E+03  0.43767515262E+03  0.46999998093E+01 0. -1.
</event>
<event>
 5   0  0.3466598E-03  0.1001347E+04  0.7818609E-02  0.9307068E-01
       -1   -1    0    0    0  501  0.00000000000E+00  0.00000000000E+00  0.20396466416E+03  0.20396466422E+03  0.50400001928E-02 0.  1.
        1   -1    0    0  501    0  0.00000000000E+00  0.00000000000E+00 -0.12290072210E+04  0.12290072210E+04  0.50400001928E-02 0. -1.
    10030    2    1    2    0    0  0.00000000000E+00  0.00000000000E+00 -0.10250425568E+04  0.14329718852E+04  0.10013471828E+04 0.  0.
        3    1    3    3  502    0 -0.40977769944E+03  0.27871193039E+02 -0.10278394314E+03  0.42339002766E+03  0.10100000352E+00 0.  1.
       -3    1    3    3    0  502  0.40977769944E+03 -0.27871193039E+02 -0.92225861367E+03  0.10095818575E+04  0.10100000352E+00 0. -1.
</event>
<event>
 5   0  0.2417750E-03  0.9846118E+03  0.7818609E-02  0.9325585E-01
       -4   -1    0    0    0  501  0.00000000000E+00  0.00000000000E+00  0.86825637238E+03  0.86825730120E+03  0.12699999809E+01 0. -1.
        4   -1    0    0  501    0  0.00000000000E+00  0.00000000000E+00 -0.27913750906E+03  0.27914039813E+03  0.12699999809E+01 0.  1.
    10030    2    1    2    0    0  0.00000000000E+00  0.00000000000E+00  0.58911886332E+03  0.11473976993E+04  0.98461182468E+03 0.  0.
        4    1    3    3  502    0  0.17268097899E+03  0.25681156171E+03 -0.15161527931E+03  0.34461529936E+03  0.12699999809E+01 0.  1.
       -4    1    3    3    0  502 -0.17268097899E+03 -0.25681156171E+03  0.74073414263E+03  0.80278239996E+03  0.12699999809E+01 0. -1.
</event>
<event>
 5   0  0.3569359E-03  0.1040320E+04  0.7818609E-02  0.9265395E-01
        1   -1    0    0  501    0  0.00000000000E+00  0.00000000000E+00  0.20900222502E+03  0.20900222508E+03  0.50400001928E-02 0. -1.
       -1   -1    0    0    0  501  0.00000000000E+00  0.00000000000E+00 -0.12945627792E+04  0.12945627792E+04  0.50400001928E-02 0.  1.
    10030    2    1    2    0    0  0.00000000000E+00  0.00000000000E+00 -0.10855605542E+04  0.15035650043E+04  0.10403201456E+04 0.  0.
        4    1    3    3  502    0  0.30009806186E+03  0.42140426913E+03 -0.46462113195E+03  0.69535229483E+03  0.12699999809E+01 0.  1.
       -4    1    3    3    0  502 -0.30009806186E+03 -0.42140426913E+03 -0.62093942224E+03  0.80821270948E+03  0.12699999809E+01 0. -1.
</event>
<event>
 5   0  0.3643002E-03  0.9878112E+03  0.7818609E-02  0.9322015E-01
       -1   -1    0    0    0  501  0.00000000000E+00  0.00000000000E+00  0.66231259967E+03  0.66231259969E+03  0.50400001928E-02 0. -1.
        1   -1    0    0  501    0  0.00000000000E+00  0.00000000000E+00 -0.36831961501E+03  0.36831961505E+03  0.50400001928E-02 0.  1.
    10030    2    1    2    0    0  0.00000000000E+00  0.00000000000E+00  0.29399298466E+03  0.10306322147E+04  0.98781115960E+03 0.  0.
        2    1    3    3  502    0  0.90993374929E+01 -0.64827084576E+02 -0.36377327367E+03  0.36961648161E+03  0.25500000920E-02 0.  1.
       -2    1    3    3    0  502 -0.90993374929E+01  0.64827084576E+02  0.65776625832E+03  0.66101573312E+03  0.25500000920E-02 0. -1.
</event>
<event>
 5   0  0.3608845E-03  0.9990522E+03  0.7818609E-02  0.9309585E-01
        1   -1    0    0  501    0  0.00000000000E+00  0.00000000000E+00  0.62378548129E+03  0.62378548131E+03  0.50400001928E-02 0. -1.
       -1   -1    0    0    0  501  0.00000000000E+00  0.00000000000E+00 -0.40001945053E+03  0.40001945056E+03  0.50400001928E-02 0.  1.
    10030    2    1    2    0    0  0.00000000000E+00  0.00000000000E+00  0.22376603076E+03  0.10238049319E+04  0.99905220184E+03 0.  0.
        1    1    3    3  502    0  0.36893835399E+03 -0.12132481736E+02  0.45676797373E+03  0.58728160877E+03  0.50400001928E-02 0. -1.
       -1    1    3    3    0  502 -0.36893835399E+03  0.12132481736E+02 -0.23300194296E+03  0.43652332309E+03  0.50400001928E-02 0.  1.
</event>
<event>
 5   0  0.3640180E-03  0.9982041E+03  0.7818609E-02  0.9310517E-01
       -1   -1    0    0    0  501  0.00000000000E+00  0.00000000000E+00  0.41929854544E+03  0.41929854547E+03  0.50400001928E-02 0.  1.
        1   -1    0    0  501    0  0.00000000000E+00  0.00000000000E+00 -0.59409428882E+03  0.59409428884E+03  0.50400001928E-02 0. -1.
    10030    2    1    2    0    0  0.00000000000E+00  0.00000000000E+00 -0.17479574338E+03  0.10133928343E+04  0.99820412980E+03 0.  0.
        5    1    3    3  502    0  0.38706542000E+03 -0.30066655719E+03  0.81660651015E+01  0.49021300736E+03  0.46999998093E+01 0. -1.
       -5    1    3    3    0  502 -0.38706542000E+03  0.30066655719E+03 -0.18296180848E+03  0.52317982695E+03  0.46999998093E+01 0.  1.
</event>
<event>
 5   0  0.6022787E-03  0.8566912E+03  0.7818609E-02  0.9481400E-01
       -2   -1    0    0    0  501  0.00000000000E+00  0.00000000000E+00  0.45064580338E+03  0.45064580339E+03  0.25500000920E-02 0. -1.
        2   -1    0    0  501    0  0.00000000000E+00  0.00000000000E+00 -0.40714889771E+03  0.40714889772E+03  0.25500000920E-02 0.  1.
    10030    2    1    2    0    0  0.00000000000E+00  0.00000000000E+00  0.43496905674E+02  0.85779470110E+03  0.85669117448E+03 0.  0.
        5    1    3    3  502    0  0.16959097742E+03 -0.46720784277E+00 -0.37207298933E+03  0.40892752082E+03  0.46999998093E+01 0.  1.
       -5    1    3    3    0  502 -0.16959097742E+03  0.46720784277E+00  0.41556989500E+03  0.44886718028E+03  0.46999998093E+01 0. -1.
</event>
<event>
 5   0  0.6360455E-03  0.9972222E+03  0.7818609E-02  0.9311597E-01
       -2   -1    0    0    0  501  0.00000000000E+00  0.00000000000E+00  0.68049083781E+03  0.68049083781E+03  0.25500000920E-02 0.  1.
        2   -1    0    0  501    0  0.00000000000E+00  0.00000000000E+00 -0.36534369639E+03  0.36534369640E+03  0.25500000920E-02 0. -1.
    10030    2    1    2    0    0  0.00000000000E+00  0.00000000000E+00  0.31514714141E+03  0.10458345342E+04  0.99722221807E+03 0.  0.
        4    1    3    3  502    0  0.15170839623E+03  0.46849513033E+03  0.23953909669E+03  0.54761639528E+03  0.12699999809E+01 0.  1.
       -4    1    3    3    0  502 -0.15170839623E+03 -0.46849513033E+03  0.75608044728E+02  0.49821813893E+03  0.12699999809E+01 0. -1.
</event>
<event>
 5   0  0.3640180E-03  0.1006622E+04  0.7818609E-02  0.9301312E-01
       -1   -1    0    0    0  501  0.00000000000E+00  0.00000000000E+00  0.28260585468E+03  0.28260585473E+03  0.50400001928E-02 0.  1.
        1   -1    0    0  501    0  0.00000000000E+00  0.00000000000E+00 -0.89637897087E+03  0.89637897088E+03  0.50400001928E-02 0. -1.
    10030    2    1    2    0    0  0.00000000000E+00  0.00000000000E+00 -0.61377311619E+03  0.11789848256E+04  0.10066219652E+04 0.  0.
        5    1    3    3  502    0  0.49075608446E+03  0.11155278996E+03 -0.30245816095E+03  0.58718701323E+03  0.46999998093E+01 0. -1.
       -5    1    3    3    0  502 -0.49075608446E+03 -0.11155278996E+03 -0.31131495524E+03  0.59179781238E+03  0.46999998093E+01 0.  1.
</event>
<event>
 5   0  0.3640180E-03  0.9897604E+03  0.7818609E-02  0.9319847E-01
       -1   -1    0    0    0  501  0.00000000000E+00  0.00000000000E+00  0.27736066201E+03  0.27736066206E+03  0.50400001928E-02 0.  1.
        1   -1    0    0  501    0  0.00000000000E+00  0.00000000000E+00 -0.88298902423E+03  0.88298902424E+03  0.50400001928E-02 0. -1.
    10030    2    1    2    0    0  0.00000000000E+00  0.00000000000E+00 -0.60562836221E+03  0.11603496863E+04  0.98976041615E+03 0.  0.
        5    1    3    3  502    0  0.25573907715E+03 -0.23716073189E+03  0.10874162814E+03  0.36536901896E+03  0.46999998093E+01 0.  1.
       -5    1    3    3    0  502 -0.25573907715E+03  0.23716073189E+03 -0.71436999035E+03  0.79498066734E+03  0.46999998093E+01 0. -1.
</event>
<event>
 5   0  0.6376961E-03  0.9969896E+03  0.7818609E-02  0.9311853E-01
       -2   -1    0    0    0  501  0.00000000000E+00  0.00000000000E+00  0.33372005272E+03  0.33372005273E+03  0.25500000920E-02 0. -1.
        2   -1    0    0  501    0  0.00000000000E+00  0.00000000000E+00 -0.74462735011E+03  0.74462735011E+03  0.25500000920E-02 0.  1.
    10030    2    1    2    0    0  0.00000000000E+00  0.00000000000E+00 -0.41090729738E+03  0.10783474028E+04  0.99698962591E+03 0.  0.
        3    1    3    3  502    0 -0.22867526181E+02  0.32550633887E+02  0.33200052930E+03  0.33437528195E+03  0.10100000352E+00 0. -1.
       -3    1    3    3    0  502  0.22867526181E+02 -0.32550633887E+02 -0.74290782668E+03  0.74397212090E+03  0.10100000352E+00 0.  1.
</event>
<event>
 5   0  0.6360455E-03  0.1001993E+04  0.7818609E-02  0.9306362E-01
       -2   -1    0    0    0  501  0.00000000000E+00  0.00000000000E+00  0.24372880632E+03  0.24372880633E+03  0.25500000920E-02 0. -1.
        2   -1    0    0  501    0  0.00000000000E+00  0.00000000000E+00 -0.10298225643E+04  0.10298225643E+04  0.25500000920E-02 0.  1.
    10030    2    1    2    0    0  0.00000000000E+00  0.00000000000E+00 -0.78609375800E+03  0.12735513706E+04  0.10019928629E+04 0.  0.
        4    1    3    3  502    0  0.26926408790E+03 -0.86502932591E+01  0.14382538983E+03  0.30539373318E+03  0.12699999809E+01 0. -1.
       -4    1    3    3    0  502 -0.26926408790E+03  0.86502932591E+01 -0.92991914782E+03  0.96815763747E+03  0.12699999809E+01 0.  1.
</event>
<event>
 5   0  0.6360455E-03  0.9989496E+03  0.7818609E-02  0.9309698E-01
        2   -1    0    0  501    0  0.00000000000E+00  0.00000000000E+00  0.15123330330E+04  0.15123330330E+04  0.25500000920E-02 0. -1.
       -2   -1    0    0    0  501  0.00000000000E+00  0.00000000000E+00 -0.16496041719E+03  0.16496041721E+03  0.25500000920E-02 0.  1.
    10030    2    1    2    0    0  0.00000000000E+00  0.00000000000E+00  0.13473726158E+04  0.16772934502E+04  0.99894962451E+03 0.  0.
        4    1    3    3  502    0  0.10240722374E+03 -0.39729386909E+03  0.11519783779E+04  0.12228595397E+04  0.12699999809E+01 0. -1.
       -4    1    3    3    0  502 -0.10240722374E+03  0.39729386909E+03  0.19539423795E+03  0.45443391051E+03  0.12699999809E+01 0.  1.
</event>
<event>
 5   0  0.3569359E-03  0.1008070E+04  0.7818609E-02  0.9299737E-01
       -1   -1    0    0    0  501  0.00000000000E+00  0.00000000000E+00  0.43704000891E+03  0.43704000894E+03  0.50400001928E-02 0.  1.
        1   -1    0    0  501    0  0.00000000000E+00  0.00000000000E+00 -0.58130027170E+03  0.58130027173E+03  0.50400001928E-02 0. -1.
    10030    2    1    2    0    0  0.00000000000E+00  0.00000000000E+00 -0.14426026279E+03  0.10183402807E+04  0.10080703863E+04 0.  0.
        4    1    3    3  502    0  0.15591741817E+03 -0.86623152207E+02  0.40409172296E+03  0.44170753362E+03  0.12699999809E+01 0.  1.
       -4    1    3    3    0  502 -0.15591741817E+03  0.86623152207E+02 -0.54835198576E+03  0.57663274705E+03  0.12699999809E+01 0. -1.
</event>
<event>
 5   0  0.3466598E-03  0.9850071E+03  0.7818609E-02  0.9325143E-01
       -1   -1    0    0    0  501  0.00000000000E+00  0.00000000000E+00  0.35119818647E+03  0.35119818651E+03  0.50400001928E-02 0.  1.
        1   -1    0    0  501    0  0.00000000000E+00  0.00000000000E+00 -0.69066341166E+03  0.69066341168E+03  0.50400001928E-02 0. -1.
    10030    2    1    2    0    0  0.00000000000E+00  0.00000000000E+00 -0.33946522519E+03  0.10418615982E+04  0.98500708153E+03 0.  0.
        3    1    3    3  502    0 -0.42995767468E+03  0.22903306662E+03 -0.24629852920E+03  0.54587793811E+03  0.10100000352E+00 0. -1.
       -3    1    3    3    0  502  0.42995767468E+03 -0.22903306662E+03 -0.93166695987E+02  0.49598366008E+03  0.10100000352E+00 0.  1.
</event>
<event>
 5   0  0.3466598E-03  0.9998937E+03  0.7818609E-02  0.9308661E-01
        1   -1    0    0  501    0  0.00000000000E+00  0.00000000000E+00  0.68705586227E+03  0.68705586229E+03  0.50400001928E-02 0. -1.
       -1   -1    0    0    0  501  0.00000000000E+00  0.00000000000E+00 -0.36379406497E+03  0.36379406500E+03  0.50400001928E-02 0.  1.
    10030    2    1    2    0    0  0.00000000000E+00  0.00000000000E+00  0.32326179731E+03  0.10508499273E+04  0.99989368440E+03 0.  0.
        3    1    3    3  502    0  0.43142974307E+03  0.18491787179E+03 -0.19246266423E+02  0.46978364327E+03  0.10100000352E+00 0.  1.
       -3    1    3    3    0  502 -0.43142974307E+03 -0.18491787179E+03  0.34250806373E+03  0.58106628403E+03  0.10100000352E+00 0. -1.
</event>
<event>
 5   0  0.6360455E-03  0.9921657E+03  0.7818609E-02  0.9317179E-01
       -2   -1    0    0    0  501  0.00000000000E+00  0.00000000000E+00  0.32380169579E+03  0.32380169580E+03  0.25500000920E-02 0. -1.
        2   -1    0    0  501    0  0.00000000000E+00  0.00000000000E+00 -0.76002745392E+03  0.76002745392E+03  0.25500000920E-02 0.  1.
    10030    2    1    2    0    0  0.00000000000E+00  0.00000000000E+00 -0.43622575813E+03  0.10838291497E+04  0.99216566849E+03 0.  0.
        4    1    3    3  502    0 -0.28683533199E+03  0.27020717149E+03 -0.54730073871E+03  0.67440798831E+03  0.12699999809E+01 0.  1.
       -4    1    3    3    0  502  0.28683533199E+03 -0.27020717149E+03  0.11107498058E+03  0.40942116141E+03  0.12699999809E+01 0. -1.
</event>
<event>
 5   0  0.3569359E-03  0.9964889E+03  0.7818609E-02  0.9312404E-01
        1   -1    0    0  501    0  0.00000000000E+00  0.00000000000E+00  0.35317905697E+03  0.35317905701E+03  0.50400001928E-02 0.  1.
       -1   -1    0    0    0  501  0.00000000000E+00  0.00000000000E+00 -0.70289429138E+03  0.70289429140E+03  0.50400001928E-02 0. -1.
    10030    2    1    2    0    0  0.00000000000E+00  0.00000000000E+00 -0.34971523441E+03  0.10560733484E+04  0.99648892219E+03 0.  0.
        4    1    3    3  502    0  0.16401838031E+03  0.26859200517E+03  0.23450602985E+03  0.39247724170E+03  0.12699999809E+01 0.  1.
       -4    1    3    3    0  502 -0.16401838031E+03 -0.26859200517E+03 -0.58422126426E+03  0.66359610670E+03  0.12699999809E+01 0. -1.
</event>
<event>
 5   0  0.6376961E-03  0.1003755E+04  0.7818609E-02  0.9304436E-01
        2   -1    0    0  501    0  0.00000000000E+00  0.00000000000E+00  0.11845793267E+04  0.11845793267E+04  0.25500000920E-02 0. -1.
       -2   -1    0    0    0  501  0.00000000000E+00  0.00000000000E+00 -0.21263313538E+03  0.21263313540E+03  0.25500000920E-02 0.  1.
    10030    2    1    2    0    0  0.00000000000E+00  0.00000000000E+00  0.97194619136E+03  0.13972124621E+04  0.10037545843E+04 0.  0.
        3    1    3    3  502    0  0.38153632430E+03  0.25867953802E+03  0.20968668900E+03  0.50641246815E+03  0.10100000352E+00 0.  1.
       -3    1    3    3    0  502 -0.38153632430E+03 -0.25867953802E+03  0.76225950236E+03  0.89079999399E+03  0.10100000352E+00 0. -1.
</event>
<event>
 5   0  0.3640180E-03  0.1001792E+04  0.7818609E-02  0.9306582E-01
       -1   -1    0    0    0  501  0.00000000000E+00  0.00000000000E+00  0.47195916766E+03  0.47195916769E+03  0.50400001928E-02 0. -1.
        1   -1    0    0  501    0  0.00000000000E+00  0.00000000000E+00 -0.53160656071E+03  0.53160656073E+03  0.50400001928E-02 0.  1.
    10030    2    1    2    0    0  0.00000000000E+00  0.00000000000E+00 -0.59647393052E+02  0.10035657284E+04  0.10017915750E+04 0.  0.
        5    1    3    3  502    0 -0.32277910847E+03 -0.29525178237E+03 -0.27421174228E+03  0.51630818070E+03  0.46999998093E+01 0.  1.
       -5    1    3    3    0  502  0.32277910847E+03  0.29525178237E+03  0.21456434923E+03  0.48725754772E+03  0.46999998093E+01 0. -1.
</event>
<event>
 5   0  0.6376961E-03  0.1007875E+04  0.7818609E-02  0.9299949E-01
        2   -1    0    0  501    0  0.00000000000E+00  0.00000000000E+00  0.54316902853E+03  0.54316902854E+03  0.25500000920E-02 0. -1.
       -2   -1    0    0    0  501  0.00000000000E+00  0.00000000000E+00 -0.46753967188E+03  0.46753967189E+03  0.25500000920E-02 0.  1.
    10030    2    1    2    0    0  0.00000000000E+00  0.00000000000E+00  0.75629356645E+02  0.10107087004E+04  0.10078751299E+04 0.  0.
        3    1    3    3  502    0  0.18430948072E+03 -0.12928717349E+03 -0.41430527802E+03  0.47152309754E+03  0.10100000352E+00 0.  1.
       -3    1    3    3    0  502 -0.18430948072E+03  0.12928717349E+03  0.48993463467E+03  0.53918560289E+03  0.10100000352E+00 0. -1.
</event>
<event>
 5   0  0.6606947E-03  0.9979854E+03  0.7818609E-02  0.9310757E-01
       -2   -1    0    0    0  501  0.00000000000E+00  0.00000000000E+00  0.21008076159E+03  0.21008076160E+03  0.25500000920E-02 0.  1.
        2   -1    0    0  501    0  0.00000000000E+00  0.00000000000E+00 -0.11852284336E+04  0.11852284336E+04  0.25500000920E-02 0. -1.
    10030    2    1    2    0    0  0.00000000000E+00  0.00000000000E+00 -0.97514767202E+03  0.13953091952E+04  0.99798535459E+03 0.  0.
        1    1    3    3  502    0  0.37088741590E+03  0.17515127287E+01 -0.20856976208E+02  0.37147753170E+03  0.50400001928E-02 0.  1.
       -1    1    3    3    0  502 -0.37088741590E+03 -0.17515127287E+01 -0.95429069581E+03  0.10238316635E+04  0.50400001928E-02 0. -1.
</event>
<event>
 5   0  0.3640180E-03  0.9677607E+03  0.7818609E-02  0.9344629E-01
        1   -1    0    0  501    0  0.00000000000E+00  0.00000000000E+00  0.13751871822E+04  0.13751871822E+04  0.50400001928E-02 0.  1.
       -1   -1    0    0    0  501  0.00000000000E+00  0.00000000000E+00 -0.17026058940E+03  0.17026058947E+03  0.50400001928E-02 0. -1.
    10030    2    1    2    0    0  0.00000000000E+00  0.00000000000E+00  0.12049265928E+04  0.15454477717E+04  0.96776067338E+03 0.  0.
        5    1    3    3  502    0 -0.88007579740E+02  0.63125420729E+02 -0.15061819898E+03  0.18557501097E+03  0.46999998093E+01 0. -1.
       -5    1    3    3    0  502  0.88007579740E+02 -0.63125420729E+02  0.13555447917E+04  0.13598727607E+04  0.46999998093E+01 0.  1.
</event>
<event>
 5   0  0.3643002E-03  0.1001185E+04  0.7818609E-02  0.9307246E-01
       -1   -1    0    0    0  501  0.00000000000E+00  0.00000000000E+00  0.49587888652E+03  0.49587888655E+03  0.50400001928E-02 0. -1.
        1   -1    0    0  501    0  0.00000000000E+00  0.00000000000E+00 -0.50535057120E+03  0.50535057123E+03  0.50400001928E-02 0.  1.
    10030    2    1    2    0    0  0.00000000000E+00  0.00000000000E+00 -0.94716846841E+01  0.10012294578E+04  0.10011846555E+04 0.  0.
        2    1    3    3  502    0 -0.14540136637E+03 -0.13802647056E+03 -0.46344996417E+03  0.50495418923E+03  0.25500000920E-02 0.  1.
       -2    1    3    3    0  502  0.14540136637E+03  0.13802647056E+03  0.45397827949E+03  0.49627526855E+03  0.25500000920E-02 0. -1.
</event>
<event>
 5   0  0.6199539E-03  0.1000762E+04  0.7818609E-02  0.9307710E-01
       -2   -1    0    0    0  501  0.00000000000E+00  0.00000000000E+00  0.36042659910E+03  0.36042659911E+03  0.25500000920E-02 0.  1.
        2   -1    0    0  501    0  0.00000000000E+00  0.00000000000E+00 -0.69467953213E+03  0.69467953213E+03  0.25500000920E-02 0. -1.
    10030    2    1    2    0    0  0.00000000000E+00  0.00000000000E+00 -0.33425293302E+03  0.10551061312E+04  0.10007616724E+04 0.  0.
        2    1    3    3  502    0  0.12077962928E+03  0.47802512778E+03 -0.25711504721E+03  0.55606104804E+03  0.25500000920E-02 0. -1.
       -2    1    3    3    0  502 -0.12077962928E+03 -0.47802512778E+03 -0.77137885812E+02  0.49904508320E+03  0.25500000920E-02 0.  1.
</event>
<event>
 5   0  0.6199539E-03  0.9630363E+03  0.7818609E-02  0.9350042E-01
       -2   -1    0    0    0  501  0.00000000000E+00  0.00000000000E+00  0.23483606378E+03  0.23483606379E+03  0.25500000920E-02 0. -1.
        2   -1    0    0  501    0  0.00000000000E+00  0.00000000000E+00 -0.98732593420E+03  0.98732593420E+03  0.25500000920E-02 0.  1.
    10030    2    1    2    0    0  0.00000000000E+00  0.00000000000E+00 -0.75248987042E+03  0.12221619980E+04  0.96303631513E+03 0.  0.
        2    1    3    3  502    0  0.36117314553E+03  0.12964579147E+03 -0.71094213692E+01  0.38380283503E+03  0.25500000920E-02 0. -1.
       -2    1    3    3    0  502 -0.36117314553E+03 -0.12964579147E+03 -0.74538044905E+03  0.83835916297E+03  0.25500000920E-02 0.  1.
</event>
<event>
 5   0  0.3466598E-03  0.1066641E+04  0.7818609E-02  0.9238330E-01
        1   -1    0    0  501    0  0.00000000000E+00  0.00000000000E+00  0.43931832152E+03  0.43931832155E+03  0.50400001928E-02 0.  1.
       -1   -1    0    0    0  501  0.00000000000E+00  0.00000000000E+00 -0.64743619953E+03  0.64743619955E+03  0.50400001928E-02 0. -1.
    10030    2    1    2    0    0  0.00000000000E+00  0.00000000000E+00 -0.20811787801E+03  0.10867545211E+04  0.10666406789E+04 0.  0.
        3    1    3    3  502    0 -0.16030128730E+03  0.20260454152E+03  0.37130697259E+03  0.45234276943E+03  0.10100000352E+00 0.  1.
       -3    1    3    3    0  502  0.16030128730E+03 -0.20260454152E+03 -0.57942485060E+03  0.63441175167E+03  0.10100000352E+00 0. -1.
</event>
<event>
 5   0  0.3643002E-03  0.9886651E+03  0.7818609E-02  0.9321065E-01
       -1   -1    0    0    0  501  0.00000000000E+00  0.00000000000E+00  0.97429775364E+03  0.97429775366E+03  0.50400001928E-02 0. -1.
        1   -1    0    0  501    0  0.00000000000E+00  0.00000000000E+00 -0.25081106592E+03  0.25081106597E+03  0.50400001928E-02 0.  1.
    10030    2    1    2    0    0  0.00000000000E+00  0.00000000000E+00  0.72348668773E+03  0.12251088196E+04  0.98866507605E+03 0.  0.
        2    1    3    3  502    0 -0.24733853553E+03 -0.18285765122E+03 -0.11778126414E+03  0.32937167145E+03  0.25500000920E-02 0.  1.
       -2    1    3    3    0  502  0.24733853553E+03  0.18285765122E+03  0.84126795187E+03  0.89573714817E+03  0.25500000920E-02 0. -1.
</event>
<event>
 5   0  0.6606947E-03  0.9913843E+03  0.7818609E-02  0.9318045E-01
        2   -1    0    0  501    0  0.00000000000E+00  0.00000000000E+00  0.10540748895E+04  0.10540748895E+04  0.25500000920E-02 0. -1.
       -2   -1    0    0    0  501  0.00000000000E+00  0.00000000000E+00 -0.23310557351E+03  0.23310557353E+03  0.25500000920E-02 0.  1.
    10030    2    1    2    0    0  0.00000000000E+00  0.00000000000E+00  0.82096931602E+03  0.12871804631E+04  0.99138434860E+03 0.  0.
        1    1    3    3  502    0 -0.11513518203E+03  0.18685777348E+03 -0.16657880830E+03  0.27553663468E+03  0.50400001928E-02 0.  1.
       -1    1    3    3    0  502  0.11513518203E+03 -0.18685777348E+03  0.98754812432E+03  0.10116438284E+04  0.50400001928E-02 0. -1.
</event>
<event>
 5   0  0.3569359E-03  0.1014479E+04  0.7818609E-02  0.9292805E-01
       -1   -1    0    0    0  501  0.00000000000E+00  0.00000000000E+00  0.21404171853E+03  0.21404171859E+03  0.50400001928E-02 0. -1.
        1   -1    0    0  501    0  0.00000000000E+00  0.00000000000E+00 -0.12020649695E+04  0.12020649696E+04  0.50400001928E-02 0.  1.
    10030    2    1    2    0    0  0.00000000000E+00  0.00000000000E+00 -0.98802325101E+03  0.14161066881E+04  0.10144792791E+04 0.  0.
        4    1    3    3  502    0  0.19995447764E+03 -0.28692658381E+03 -0.10068616383E+04  0.10658708314E+04  0.12699999809E+01 0.  1.
       -4    1    3    3    0  502 -0.19995447764E+03  0.28692658381E+03  0.18838387273E+02  0.35023585676E+03  0.12699999809E+01 0. -1.
</event>
<event>
 5   0  0.6606947E-03  0.9994152E+03  0.7818609E-02  0.9309186E-01
       -2   -1    0    0    0  501  0.00000000000E+00  0.00000000000E+00  0.74000715459E+03  0.74000715459E+03  0.25500000920E-02 0. -1.
        2   -1    0    0  501    0  0.00000000000E+00  0.00000000000E+00 -0.33743956198E+03  0.33743956199E+03  0.25500000920E-02 0.  1.
    10030    2    1    2    0    0  0.00000000000E+00  0.00000000000E+00  0.40256759260E+03  0.10774467166E+04  0.99941520925E+03 0.  0.
        1    1    3    3  502    0 -0.15136755250E+03  0.40379193603E+02 -0.31028066001E+03  0.34758697218E+03  0.50400001928E-02 0.  1.
       -1    1    3    3    0  502  0.15136755250E+03 -0.40379193603E+02  0.71284825262E+03  0.72985974441E+03  0.50400001928E-02 0. -1.
</event>
<event>
 5   0  0.3608845E-03  0.1039136E+04  0.7818609E-02  0.9266633E-01
        1   -1    0    0  501    0  0.00000000000E+00  0.00000000000E+00  0.17723587794E+04  0.17723587794E+04  0.50400001928E-02 0. -1.
       -1   -1    0    0    0  501  0.00000000000E+00  0.00000000000E+00 -0.15231152330E+03  0.15231152338E+03  0.50400001928E-02 0.  1.
    10030    2    1    2    0    0  0.00000000000E+00  0.00000000000E+00  0.16200472561E+04  0.19246703027E+04  0.10391355361E+04 0.  0.
        1    1    3    3  502    0 -0.38191177414E+03 -0.34905750087E+03  0.72210976480E+03  0.88833566549E+03  0.50400001928E-02 0.  1.
       -1    1    3    3    0  502  0.38191177414E+03  0.34905750087E+03  0.89793749126E+03  0.10363346373E+04  0.50400001928E-02 0. -1.
</event>
<event>
 5   0  0.6360455E-03  0.1003599E+04  0.7818609E-02  0.9304606E-01
       -2   -1    0    0    0  501  0.00000000000E+00  0.00000000000E+00  0.44983152069E+03  0.44983152070E+03  0.25500000920E-02 0.  1.
        2   -1    0    0  501    0  0.00000000000E+00  0.00000000000E+00 -0.55977121776E+03  0.55977121777E+03  0.25500000920E-02 0. -1.
    10030    2    1    2    0    0  0.00000000000E+00  0.00000000000E+00 -0.10993969707E+03  0.10096027385E+04  0.10035989999E+04 0.  0.
        4    1    3    3  502    0  0.24549156504E+03  0.11766136307E+03 -0.47902544215E+03  0.55097848596E+03  0.12699999809E+01 0. -1.
       -4    1    3    3    0  502 -0.24549156504E+03 -0.11766136307E+03  0.36908574508E+03  0.45862425250E+03  0.12699999809E+01 0.  1.
</event>
<event>
 5   0  0.3640180E-03  0.1001332E+04  0.7818609E-02  0.9307085E-01
        1   -1    0    0  501    0  0.00000000000E+00  0.00000000000E+00  0.73403548311E+03  0.73403548312E+03  0.50400001928E-02 0. -1.
       -1   -1    0    0    0  501  0.00000000000E+00  0.00000000000E+00 -0.34149098006E+03  0.34149098010E+03  0.50400001928E-02 0.  1.
    10030    2    1    2    0    0  0.00000000000E+00  0.00000000000E+00  0.39254450305E+03  0.10755264632E+04  0.10013321059E+04 0.  0.
        5    1    3    3  502    0  0.58557508762E+02  0.39629987802E+03  0.51879052166E+03  0.65547560634E+03  0.46999998093E+01 0. -1.
       -5    1    3    3    0  502 -0.58557508762E+02 -0.39629987802E+03 -0.12624601861E+03  0.42005085688E+03  0.46999998093E+01 0.  1.
</event>
<event>
 5   0  0.6376961E-03  0.1000022E+04  0.7818609E-02  0.9308521E-01
        2   -1    0    0  501    0  0.00000000000E+00  0.00000000000E+00  0.11531105976E+04  0.11531105976E+04  0.25500000920E-02 0. -1.
       -2   -1    0    0    0  501  0.00000000000E+00  0.00000000000E+00 -0.21681442003E+03  0.21681442004E+03  0.25500000920E-02 0.  1.
    10030    2    1    2    0    0  0.00000000000E+00  0.00000000000E+00  0.93629617757E+03  0.13699250176E+04  0.10000220107E+04 0.  0.
        3    1    3    3  502    0  0.17394122311E+03 -0.19730525462E+03  0.10506773895E+04  0.10831010569E+04  0.10100000352E+00 0. -1.
       -3    1    3    3    0  502 -0.17394122311E+03  0.19730525462E+03 -0.11438121190E+03  0.28682396071E+03  0.10100000352E+00 0.  1.
</event>
<event>
 5   0  0.6199539E-03  0.9958820E+03  0.7818609E-02  0.9313073E-01
        2   -1    0    0  501    0  0.00000000000E+00  0.00000000000E+00  0.14082378507E+04  0.14082378507E+04  0.25500000920E-02 0.  1.
       -2   -1    0    0    0  501  0.00000000000E+00  0.00000000000E+00 -0.17606771346E+03  0.17606771348E+03  0.25500000920E-02 0. -1.
    10030    2    1    2    0    0  0.00000000000E+00  0.00000000000E+00  0.12321701373E+04  0.15843055642E+04  0.99588195768E+03 0.  0.
        2    1    3    3  502    0  0.14360212264E+03  0.42893173783E+03  0.94727842342E+03  0.10497334980E+04  0.25500000920E-02 0.  1.
       -2    1    3    3    0  502 -0.14360212264E+03 -0.42893173783E+03  0.28489171384E+03  0.53457206621E+03  0.25500000920E-02 0. -1.
</event>
<event>
 5   0  0.6606947E-03  0.9947997E+03  0.7818609E-02  0.9314267E-01
        2   -1    0    0  501    0  0.00000000000E+00  0.00000000000E+00  0.34141266779E+03  0.34141266780E+03  0.25500000920E-02 0. -1.
       -2   -1    0    0    0  501  0.00000000000E+00  0.00000000000E+00 -0.72465559503E+03  0.72465559504E+03  0.25500000920E-02 0.  1.
    10030    2    1    2    0    0  0.00000000000E+00  0.00000000000E+00 -0.38324292724E+03  0.10660682628E+04  0.99479967820E+03 0.  0.
        1    1    3    3  502    0 -0.25098295568E+03 -0.16049161622E+03 -0.61847456952E+03  0.68648437425E+03  0.50400001928E-02 0.  1.
       -1    1    3    3    0  502  0.25098295568E+03  0.16049161622E+03  0.23523164228E+03  0.37958388859E+03  0.50400001928E-02 0. -1.
</event>
<event>
 5   0  0.3643002E-03  0.9983179E+03  0.7818609E-02  0.9310392E-01
        1   -1    0    0  501    0  0.00000000000E+00  0.00000000000E+00  0.14574493083E+04  0.14574493083E+04  0.50400001928E-02 0.  1.
       -1   -1    0    0    0  501  0.00000000000E+00  0.00000000000E+00 -0.17095595661E+03  0.17095595669E+03  0.50400001928E-02 0. -1.
    10030    2    1    2    0    0  0.00000000000E+00  0.00000000000E+00  0.12864933517E+04  0.16284052650E+04  0.99831786677E+03 0.  0.
        2    1    3    3  502    0  0.21694914855E+03 -0.31243314539E+03  0.11704845166E+04  0.12307377491E+04  0.25500000920E-02 0.  1.
       -2    1    3    3    0  502 -0.21694914855E+03  0.31243314539E+03  0.11600883509E+03  0.39766751592E+03  0.25500000920E-02 0. -1.
</event>
<event>
 5   0  0.6199539E-03  0.1001900E+04  0.7818609E-02  0.9306464E-01
       -2   -1    0    0    0  501  0.00000000000E+00  0.00000000000E+00  0.77159869833E+03  0.77159869833E+03  0.25500000920E-02 0.  1.
        2   -1    0    0  501    0  0.00000000000E+00  0.00000000000E+00 -0.32523472508E+03  0.32523472509E+03  0.25500000920E-02 0. -1.
    10030    2    1    2    0    0  0.00000000000E+00  0.00000000000E+00  0.44636397324E+03  0.10968334234E+04  0.10018995769E+04 0.  0.
        2    1    3    3  502    0  0.15971727030E+03  0.32146261610E+03 -0.15936027392E+03  0.39273848410E+03  0.25500000920E-02 0. -1.
       -2    1    3    3    0  502 -0.15971727030E+03 -0.32146261610E+03  0.60572424716E+03  0.70409493933E+03  0.25500000920E-02 0.  1.
</event>
<event>
 5   0  0.3466598E-03  0.1001918E+04  0.7818609E-02  0.9306443E-01
        1   -1    0    0  501    0  0.00000000000E+00  0.00000000000E+00  0.16315028789E+04  0.16315028789E+04  0.50400001928E-02 0.  1.
       -1   -1    0    0    0  501  0.00000000000E+00  0.00000000000E+00 -0.15382143013E+03  0.15382143021E+03  0.50400001928E-02 0. -1.
    10030    2    1    2    0    0  0.00000000000E+00  0.00000000000E+00  0.14776814488E+04  0.17853243091E+04  0.10019183723E+04 0.  0.
        3    1    3    3  502    0 -0.49934672543E+03 -0.16956539029E+02  0.67396810020E+03  0.83896822746E+03  0.10100000352E+00 0. -1.
       -3    1    3    3    0  502  0.49934672543E+03  0.16956539029E+02  0.80371334856E+03  0.94635608165E+03  0.10100000352E+00 0.  1.
</event>
<event>
 5   0  0.3569359E-03  0.9975635E+03  0.7818609E-02  0.9311221E-01
       -1   -1    0    0    0  501  0.00000000000E+00  0.00000000000E+00  0.20722038112E+03  0.20722038118E+03  0.50400001928E-02 0. -1.
        1   -1    0    0  501    0  0.00000000000E+00  0.00000000000E+00 -0.12005731409E+04  0.12005731409E+04  0.50400001928E-02 0.  1.
    10030    2    1    2    0    0  0.00000000000E+00  0.00000000000E+00 -0.99335275979E+03  0.14077935221E+04  0.99756347943E+03 0.  0.
        4    1    3    3  502    0 -0.33008047899E+03 -0.70491614022E+01 -0.10242937337E+04  0.10761886819E+04  0.12699999809E+01 0.  1.
       -4    1    3    3    0  502  0.33008047899E+03  0.70491614022E+01  0.30940973888E+02  0.33160484021E+03  0.12699999809E+01 0. -1.
</event>
<event>
 5   0  0.3643002E-03  0.1003582E+04  0.7818609E-02  0.9304625E-01
       -1   -1    0    0    0  501  0.00000000000E+00  0.00000000000E+00  0.54641536743E+03  0.54641536745E+03  0.50400001928E-02 0. -1.
        1   -1    0    0  501    0  0.00000000000E+00  0.00000000000E+00 -0.46081083511E+03  0.46081083514E+03  0.50400001928E-02 0.  1.
    10030    2    1    2    0    0  0.00000000000E+00  0.00000000000E+00  0.85604532316E+02  0.10072262026E+04  0.10035818289E+04 0.  0.
        2    1    3    3  502    0 -0.30188117261E+03  0.17355354884E+03 -0.31981440660E+03  0.47279417442E+03  0.25500000920E-02 0.  1.
       -2    1    3    3    0  502  0.30188117261E+03 -0.17355354884E+03  0.40541893892E+03  0.53443202817E+03  0.25500000920E-02 0. -1.
</event>
<event>
 5   0  0.3640180E-03  0.1001385E+04  0.7818609E-02  0.9307027E-01
       -1   -1    0    0    0  501  0.00000000000E+00  0.00000000000E+00  0.31153136150E+03  0.31153136155E+03  0.50400001928E-02 0.  1.
        1   -1    0    0  501    0  0.00000000000E+00  0.00000000000E+00 -0.80471181203E+03  0.80471181204E+03  0.50400001928E-02 0. -1.
    10030    2    1    2    0    0  0.00000000000E+00  0.00000000000E+00 -0.49318045052E+03  0.11162431736E+04  0.10013849738E+04 0.  0.
        5    1    3    3  502    0  0.11221118230E+03  0.31413723349E+03 -0.66277382896E+03  0.74200053184E+03  0.46999998093E+01 0. -1.
       -5    1    3    3    0  502 -0.11221118230E+03 -0.31413723349E+03  0.16959337843E+03  0.37424264175E+03  0.46999998093E+01 0.  1.
</event>
<event>
 5   0  0.6376961E-03  0.1028045E+04  0.7818609E-02  0.9278309E-01
        2   -1    0    0  501    0  0.00000000000E+00  0.00000000000E+00  0.51706142559E+03  0.51706142560E+03  0.25500000920E-02 0. -1.
       -2   -1    0    0    0  501  0.00000000000E+00  0.00000000000E+00 -0.51100143911E+03  0.51100143912E+03  0.25500000920E-02 0.  1.
    10030    2    1    2    0    0  0.00000000000E+00  0.00000000000E+00  0.60599864785E+01  0.10280628647E+04  0.10280450041E+04 0.  0.
        3    1    3    3  502    0 -0.18443761191E+03  0.31818438463E+03 -0.35608707415E+03  0.51191459238E+03  0.10100000352E+00 0.  1.
       -3    1    3    3    0  502  0.18443761191E+03 -0.31818438463E+03  0.36214706063E+03  0.51614827234E+03  0.10100000352E+00 0. -1.
</event>
<event>
 5   0  0.6360455E-03  0.1003865E+04  0.7818609E-02  0.9304316E-01
       -2   -1    0    0    0  501  0.00000000000E+00  0.00000000000E+00  0.52006824625E+03  0.52006824625E+03  0.25500000920E-02 0.  1.
        2   -1    0    0  501    0  0.00000000000E+00  0.00000000000E+00 -0.48442872701E+03  0.48442872702E+03  0.25500000920E-02 0. -1.
    10030    2    1    2    0    0  0.00000000000E+00  0.00000000000E+00  0.35639519237E+02  0.10044969733E+04  0.10038645297E+04 0.  0.
        4    1    3    3  502    0 -0.21903494671E+03 -0.20513763080E+03 -0.38477266682E+03  0.48796452072E+03  0.12699999809E+01 0. -1.
       -4    1    3    3    0  502  0.21903494671E+03  0.20513763080E+03  0.42041218606E+03  0.51653245255E+03  0.12699999809E+01 0.  1.
</event>
<event>
 5   0  0.6022787E-03  0.1006969E+04  0.7818609E-02  0.9300935E-01
        2   -1    0    0  501    0  0.00000000000E+00  0.00000000000E+00  0.25405420211E+04  0.25405420211E+04  0.25500000920E-02 0. -1.
       -2   -1    0    0    0  501  0.00000000000E+00  0.00000000000E+00 -0.99780462073E+02  0.99780462106E+02  0.25500000920E-02 0.  1.
    10030    2    1    2    0    0  0.00000000000E+00  0.00000000000E+00  0.24407615591E+04  0.26403224832E+04  0.10069686327E+04 0.  0.
        5    1    3    3  502    0  0.43084461179E+03  0.23240786631E+03  0.91198182838E+03  0.10350717082E+04  0.46999998093E+01 0. -1.
       -5    1    3    3    0  502 -0.43084461179E+03 -0.23240786631E+03  0.15287797307E+04  0.16052507750E+04  0.46999998093E+01 0.  1.
</event>
<event>
 5   0  0.3643002E-03  0.9345133E+03  0.7818609E-02  0.9383438E-01
        1   -1    0    0  501    0  0.00000000000E+00  0.00000000000E+00  0.28572013366E+03  0.28572013370E+03  0.50400001928E-02 0.  1.
       -1   -1    0    0    0  501  0.00000000000E+00  0.00000000000E+00 -0.76413510456E+03  0.76413510457E+03  0.50400001928E-02 0. -1.
    10030    2    1    2    0    0  0.00000000000E+00  0.00000000000E+00 -0.47841497090E+03  0.10498552383E+04  0.93451331556E+03 0.  0.
        2    1    3    3  502    0  0.34388300722E+03 -0.30014582940E+03 -0.12694514018E+03  0.47377010267E+03  0.25500000920E-02 0. -1.
       -2    1    3    3    0  502 -0.34388300722E+03  0.30014582940E+03 -0.35146983072E+03  0.57608513561E+03  0.25500000920E-02 0.  1.
</event>
<event>
 5   0  0.2417750E-03  0.9376513E+03  0.7818609E-02  0.9379702E-01
       -4   -1    0    0    0  501  0.00000000000E+00  0.00000000000E+00  0.79323240923E+03  0.79323342590E+03  0.12699999809E+01 0.  1.
        4   -1    0    0  501    0  0.00000000000E+00  0.00000000000E+00 -0.27708824073E+03  0.27709115116E+03  0.12699999809E+01 0. -1.
    10030    2    1    2    0    0  0.00000000000E+00  0.00000000000E+00  0.51614416850E+03  0.10703245771E+04  0.93765126651E+03 0.  0.
        5    1    3    3  502    0 -0.18812843053E+03  0.33766913885E+03  0.56086463570E+03  0.68117837846E+03  0.46999998093E+01 0.  1.
       -5    1    3    3    0  502  0.18812843053E+03 -0.33766913885E+03 -0.44720467198E+02  0.38914619860E+03  0.46999998093E+01 0. -1.
</event>
<event>
 5   0  0.2417750E-03  0.1004012E+04  0.7818609E-02  0.9304156E-01
       -3   -1    0    0    0  501  0.00000000000E+00  0.00000000000E+00  0.19176061006E+03  0.19176063666E+03  0.10100000352E+00 0.  1.
        3   -1    0    0  501    0  0.00000000000E+00  0.00000000000E+00 -0.13141894461E+04  0.13141894500E+04  0.10100000352E+00 0. -1.
    10030    2    1    2    0    0  0.00000000000E+00  0.00000000000E+00 -0.11224288360E+04  0.15059500866E+04  0.10040115395E+04 0.  0.
        2    1    3    3  502    0 -0.27974408178E+03  0.42417559711E+02 -0.11831963263E+04  0.12165564299E+04  0.25500000920E-02 0. -1.
       -2    1    3    3    0  502  0.27974408178E+03 -0.42417559711E+02  0.60767490249E+02  0.28939365670E+03  0.25500000920E-02 0.  1.
</event>
<event>
 5   0  0.3640180E-03  0.1000289E+04  0.7818609E-02  0.9308228E-01
       -1   -1    0    0    0  501  0.00000000000E+00  0.00000000000E+00  0.56943024225E+03  0.56943024227E+03  0.50400001928E-02 0.  1.
        1   -1    0    0  501    0  0.00000000000E+00  0.00000000000E+00 -0.43928922490E+03  0.43928922493E+03  0.50400001928E-02 0. -1.
    10030    2    1    2    0    0  0.00000000000E+00  0.00000000000E+00  0.13014101735E+03  0.10087194672E+04  0.10002890978E+04 0.  0.
        5    1    3    3  502    0 -0.49110224374E+03  0.18246549226E+02  0.15863245781E+03  0.51643072821E+03  0.46999998093E+01 0. -1.
       -5    1    3    3    0  502  0.49110224374E+03 -0.18246549226E+02 -0.28491440458E+02  0.49228873900E+03  0.46999998093E+01 0.  1.
</event>
<event>
 5   0  0.3569359E-03  0.1005873E+04  0.7818609E-02  0.9302126E-01
       -1   -1    0    0    0  501  0.00000000000E+00  0.00000000000E+00  0.34615537605E+03  0.34615537609E+03  0.50400001928E-02 0.  1.
        1   -1    0    0  501    0  0.00000000000E+00  0.00000000000E+00 -0.73072758139E+03  0.73072758141E+03  0.50400001928E-02 0. -1.
    10030    2    1    2    0    0  0.00000000000E+00  0.00000000000E+00 -0.38457220534E+03  0.10768829575E+04  0.10058733136E+04 0.  0.
        4    1    3    3  502    0 -0.44729445291E+03 -0.16927768083E+03 -0.25684156042E+02  0.47894524698E+03  0.12699999809E+01 0.  1.
       -4    1    3    3    0  502  0.44729445291E+03  0.16927768083E+03 -0.35888804930E+03  0.59793771052E+03  0.12699999809E+01 0. -1.
</event>
<event>
 5   0  0.3608845E-03  0.1002638E+04  0.7818609E-02  0.9305656E-01
       -1   -1    0    0    0  501  0.00000000000E+00  0.00000000000E+00  0.21484184614E+03  0.21484184620E+03  0.50400001928E-02 0.  1.
        1   -1    0    0  501    0  0.00000000000E+00  0.00000000000E+00 -0.11697943878E+04  0.11697943878E+04  0.50400001928E-02 0. -1.
    10030    2    1    2    0    0  0.00000000000E+00  0.00000000000E+00 -0.95495254163E+03  0.13846362340E+04  0.10026380921E+04 0.  0.
        1    1    3    3  502    0 -0.42155521668E+03 -0.19994121041E+03 -0.73075016060E+03  0.86699543573E+03  0.50400001928E-02 0. -1.
       -1    1    3    3    0  502  0.42155521668E+03  0.19994121041E+03 -0.22420238102E+03  0.51764079825E+03  0.50400001928E-02 0.  1.
</event>
<event>
 5   0  0.6360455E-03  0.1005084E+04  0.7818609E-02  0.9302987E-01
       -2   -1    0    0    0  501  0.00000000000E+00  0.00000000000E+00  0.42049814836E+03  0.42049814837E+03  0.25500000920E-02 0. -1.
        2   -1    0    0  501    0  0.00000000000E+00  0.00000000000E+00 -0.60059322310E+03  0.60059322311E+03  0.25500000920E-02 0.  1.
    10030    2    1    2    0    0  0.00000000000E+00  0.00000000000E+00 -0.18009507475E+03  0.10210913715E+04  0.10050837542E+04 0.  0.
        4    1    3    3  502    0  0.33344346020E+02 -0.22835194036E+03  0.36348181747E+03  0.43055440842E+03  0.12699999809E+01 0. -1.
       -4    1    3    3    0  502 -0.33344346020E+02  0.22835194036E+03 -0.54357689222E+03  0.59053696305E+03  0.12699999809E+01 0.  1.
</event>
<event>
 5   0  0.6022787E-03  0.1056787E+04  0.7818609E-02  0.9248365E-01
       -2   -1    0    0    0  501  0.00000000000E+00  0.00000000000E+00  0.20416690595E+03  0.20416690596E+03  0.25500000920E-02 0.  1.
        2   -1    0    0  501    0  0.00000000000E+00  0.00000000000E+00 -0.13675060472E+04  0.13675060472E+04  0.25500000920E-02 0. -1.
    10030    2    1    2    0    0  0.00000000000E+00  0.00000000000E+00 -0.11633391412E+04  0.15716729531E+04  0.10567865982E+04 0.  0.
        5    1    3    3  502    0  0.29166378672E+03 -0.10405382618E+03 -0.12183702216E+04  0.12571169596E+04  0.46999998093E+01 0. -1.
       -5    1    3    3    0  502 -0.29166378672E+03  0.10405382618E+03  0.55031080426E+02  0.31455599349E+03  0.46999998093E+01 0.  1.
</event>
<event>
 5   0  0.3640180E-03  0.9862395E+03  0.7818609E-02  0.9323767E-01
        1   -1    0    0  501    0  0.00000000000E+00  0.00000000000E+00  0.46045009807E+03  0.46045009809E+03  0.50400001928E-02 0.  1.
       -1   -1    0    0    0  501  0.00000000000E+00  0.00000000000E+00 -0.52810740548E+03  0.52810740551E+03  0.50400001928E-02 0. -1.
    10030    2    1    2    0    0  0.00000000000E+00  0.00000000000E+00 -0.67657307415E+02  0.98855750360E+03  0.98623953818E+03 0.  0.
        5    1    3    3  502    0 -0.34547180739E+03  0.71530944680E+02  0.31147712944E+03  0.47064587315E+03  0.46999998093E+01 0.  1.
       -5    1    3    3    0  502  0.34547180739E+03 -0.71530944680E+02 -0.37913443686E+03  0.51791163045E+03  0.46999998093E+01 0. -1.
</event>
<event>
 5   0  0.6606947E-03  0.9972649E+03  0.7818609E-02  0.9311550E-01
        2   -1    0    0  501    0  0.00000000000E+00  0.00000000000E+00  0.93014035849E+03  0.93014035849E+03  0.25500000920E-02 0.  1.
       -2   -1    0    0    0  501  0.00000000000E+00  0.00000000000E+00 -0.26730840087E+03  0.26730840089E+03  0.25500000920E-02 0. -1.
    10030    2    1    2    0    0  0.00000000000E+00  0.00000000000E+00  0.66283195761E+03  0.11974487594E+04  0.99726492333E+03 0.  0.
        1    1    3    3  502    0 -0.16958139253E+03 -0.18554064939E+03 -0.18566809352E+03  0.31249931559E+03  0.50400001928E-02 0. -1.
       -1    1    3    3    0  502  0.16958139253E+03  0.18554064939E+03  0.84850005113E+03  0.88494944379E+03  0.50400001928E-02 0.  1.
</event>
<event>
 5   0  0.6199539E-03  0.9895881E+03  0.7818609E-02  0.9320039E-01
        2   -1    0    0  501    0  0.00000000000E+00  0.00000000000E+00  0.88284527056E+03  0.88284527056E+03  0.25500000920E-02 0.  1.
       -2   -1    0    0    0  501  0.00000000000E+00  0.00000000000E+00 -0.27730926768E+03  0.27730926769E+03  0.25500000920E-02 0. -1.
    10030    2    1    2    0    0  0.00000000000E+00  0.00000000000E+00  0.60553600288E+03  0.11601545383E+04  0.98958814759E+03 0.  0.
        2    1    3    3  502    0  0.18710468818E+03 -0.16306750956E+03 -0.19905454058E+03  0.31815387338E+03  0.25500000920E-02 0. -1.
       -2    1    3    3    0  502 -0.18710468818E+03  0.16306750956E+03  0.80459054346E+03  0.84200066487E+03  0.25500000920E-02 0.  1.
</event>
<event>
 5   0  0.6199539E-03  0.1012647E+04  0.7818609E-02  0.9294781E-01
       -2   -1    0    0    0  501  0.00000000000E+00  0.00000000000E+00  0.22152015295E+03  0.22152015297E+03  0.25500000920E-02 0.  1.
        2   -1    0    0  501    0  0.00000000000E+00  0.00000000000E+00 -0.11572927751E+04  0.11572927751E+04  0.25500000920E-02 0. -1.
    10030    2    1    2    0    0  0.00000000000E+00  0.00000000000E+00 -0.93577262211E+03  0.13788129280E+04  0.10126473672E+04 0.  0.
        2    1    3    3  502    0 -0.42393657627E+03 -0.20701715801E+03 -0.21761486202E+03  0.51955226165E+03  0.25500000920E-02 0.  1.
       -2    1    3    3    0  502  0.42393657627E+03  0.20701715801E+03 -0.71815776009E+03  0.85926066638E+03  0.25500000920E-02 0. -1.
</event>
<event>
 5   0  0.3569359E-03  0.9821815E+03  0.7818609E-02  0.9328307E-01
        1   -1    0    0  501    0  0.00000000000E+00  0.00000000000E+00  0.12550074559E+04  0.12550074560E+04  0.50400001928E-02 0.  1.
       -1   -1    0    0    0  501  0.00000000000E+00  0.00000000000E+00 -0.19216629494E+03  0.19216629500E+03  0.50400001928E-02 0. -1.
    10030    2    1    2    0    0  0.00000000000E+00  0.00000000000E+00  0.10628411610E+04  0.14471737510E+04  0.98218151679E+03 0.  0.
        4    1    3    3  502    0  0.45395617377E+03 -0.16236409885E+03  0.66909121344E+03  0.82469568515E+03  0.12699999809E+01 0.  1.
       -4    1    3    3    0  502 -0.45395617377E+03  0.16236409885E+03  0.39374994757E+03  0.62247806581E+03  0.12699999809E+01 0. -1.
</event>
<event>
 5   0  0.3608845E-03  0.9981506E+03  0.7818609E-02  0.9310575E-01
        1   -1    0    0  501    0  0.00000000000E+00  0.00000000000E+00  0.20125121862E+04  0.20125121862E+04  0.50400001928E-02 0.  1.
       -1   -1    0    0    0  501  0.00000000000E+00  0.00000000000E+00 -0.12376380335E+03  0.12376380345E+03  0.50400001928E-02 0. -1.
    10030    2    1    2    0    0  0.00000000000E+00  0.00000000000E+00  0.18887483828E+04  0.21362759896E+04  0.99815061500E+03 0.  0.
        1    1    3    3  502    0  0.25018408921E+03  0.99887929082E+02  0.18435437898E+04  0.18631219450E+04  0.50400001928E-02 0.  1.
       -1    1    3    3    0  502 -0.25018408921E+03 -0.99887929082E+02  0.45204593044E+02  0.27315404468E+03  0.50400001928E-02 0. -1.
</event>
<event>
 5   0  0.6022787E-03  0.1004093E+04  0.7818609E-02  0.9304067E-01
       -2   -1    0    0    0  501  0.00000000000E+00  0.00000000000E+00  0.29059014448E+03  0.29059014449E+03  0.25500000920E-02 0. -1.
        2   -1    0    0  501    0  0.00000000000E+00  0.00000000000E+00 -0.86737511632E+03  0.86737511632E+03  0.25500000920E-02 0.  1.
    10030    2    1    2    0    0  0.00000000000E+00  0.00000000000E+00 -0.57678497184E+03  0.11579652608E+04  0.10040929446E+04 0.  0.
        5    1    3    3  502    0 -0.33349911467E+03  0.80059714115E+02 -0.71117495711E+03  0.78957148310E+03  0.46999998093E+01 0.  1.
       -5    1    3    3    0  502  0.33349911467E+03 -0.80059714115E+02  0.13438998527E+03  0.36839377770E+03  0.46999998093E+01 0. -1.
</event>
<event>
 5   0  0.3640180E-03  0.9985883E+03  0.7818609E-02  0.9310095E-01
       -1   -1    0    0    0  501  0.00000000000E+00  0.00000000000E+00  0.46550891602E+03  0.46550891605E+03  0.50400001928E-02 0. -1.
        1   -1    0    0  501    0  0.00000000000E+00  0.00000000000E+00 -0.53553137383E+03  0.53553137385E+03  0.50400001928E-02 0.  1.
    10030    2    1    2    0    0  0.00000000000E+00  0.00000000000E+00 -0.70022457806E+02  0.10010402899E+04  0.99858826221E+03 0.  0.
        5    1    3    3  502    0 -0.46040726762E+02  0.37274713476E+03 -0.36477545754E+03  0.52358705047E+03  0.46999998093E+01 0. -1.
       -5    1    3    3    0  502  0.46040726762E+02 -0.37274713476E+03  0.29475299974E+03  0.47745323944E+03  0.46999998093E+01 0.  1.
</event>
<event>
 5   0  0.6199539E-03  0.9825454E+03  0.7818609E-02  0.9327899E-01
        2   -1    0    0  501    0  0.00000000000E+00  0.00000000000E+00  0.97070789679E+03  0.97070789680E+03  0.25500000920E-02 0.  1.
       -2   -1    0    0    0  501  0.00000000000E+00  0.00000000000E+00 -0.24863180560E+03  0.24863180562E+03  0.25500000920E-02 0. -1.
    10030    2    1    2    0    0  0.00000000000E+00  0.00000000000E+00  0.72207609119E+03  0.12193397024E+04  0.98254538237E+03 0.  0.
        2    1    3    3  502    0 -0.42823692002E+03  0.87213750808E+02  0.63951975080E+03  0.77458286172E+03  0.25500000920E-02 0.  1.
       -2    1    3    3    0  502  0.42823692002E+03 -0.87213750808E+02  0.82556340391E+02  0.44475684069E+03  0.25500000920E-02 0. -1.
</event>
<event>
 5   0  0.6360455E-03  0.9957044E+03  0.7818609E-02  0.9313269E-01
       -2   -1    0    0    0  501  0.00000000000E+00  0.00000000000E+00  0.25472144910E+03  0.25472144911E+03  0.25500000920E-02 0.  1.
        2   -1    0    0  501    0  0.00000000000E+00  0.00000000000E+00 -0.97305043830E+03  0.97305043831E+03  0.25500000920E-02 0. -1.
    10030    2    1    2    0    0  0.00000000000E+00  0.00000000000E+00 -0.71832898921E+03  0.12277718874E+04  0.99570440935E+03 0.  0.
        4    1    3    3  502    0 -0.18845633789E+03 -0.12954428624E+02 -0.92714166082E+03  0.94619072107E+03  0.12699999809E+01 0. -1.
       -4    1    3    3    0  502  0.18845633789E+03  0.12954428624E+02  0.20881267162E+03  0.28158116634E+03  0.12699999809E+01 0.  1.
</event>
<event>
 5   0  0.3569359E-03  0.9963388E+03  0.7818609E-02  0.9312569E-01
       -1   -1    0    0    0  501  0.00000000000E+00  0.00000000000E+00  0.22677125632E+03  0.22677125638E+03  0.50400001928E-02 0. -1.
        1   -1    0    0  501    0  0.00000000000E+00  0.00000000000E+00 -0.10943748300E+04  0.10943748300E+04  0.50400001928E-02 0.  1.
    10030    2    1    2    0    0  0.00000000000E+00  0.00000000000E+00 -0.86760357363E+03  0.13211460863E+04  0.99633880807E+03 0.  0.
        4    1    3    3  502    0  0.42042222959E+03 -0.60778525063E+02 -0.77887362998E+03  0.88718353491E+03  0.12699999809E+01 0.  1.
       -4    1    3    3    0  502 -0.42042222959E+03  0.60778525063E+02 -0.88729943656E+02  0.43396255143E+03  0.12699999809E+01 0. -1.
</event>
<event>
 5   0  0.6022787E-03  0.1014655E+04  0.7818609E-02  0.9292616E-01
       -2   -1    0    0    0  501  0.00000000000E+00  0.00000000000E+00  0.20947385194E+03  0.20947385196E+03  0.25500000920E-02 0.  1.
        2   -1    0    0  501    0  0.00000000000E+00  0.00000000000E+00 -0.12287029025E+04  0.12287029025E+04  0.25500000920E-02 0. -1.
    10030    2    1    2    0    0  0.00000000000E+00  0.00000000000E+00 -0.10192290505E+04  0.14381767544E+04  0.10146548771E+04 0.  0.
        5    1    3    3  502    0  0.15626951200E+03  0.47695663799E+03 -0.61426513603E+03  0.79325376913E+03  0.46999998093E+01 0.  1.
       -5    1    3    3    0  502 -0.15626951200E+03 -0.47695663799E+03 -0.40496391449E+03  0.64492298528E+03  0.46999998093E+01 0. -1.
</event>
<event>
 5   0  0.6376961E-03  0.1004692E+04  0.7818609E-02  0.9303414E-01
        2   -1    0    0  501    0  0.00000000000E+00  0.00000000000E+00  0.12117810709E+04  0.12117810709E+04  0.25500000920E-02 0.  1.
       -2   -1    0    0    0  501  0.00000000000E+00  0.00000000000E+00 -0.20824824303E+03  0.20824824305E+03  0.25500000920E-02 0. -1.
    10030    2    1    2    0    0  0.00000000000E+00  0.00000000000E+00  0.10035328279E+04  0.14200293140E+04  0.10046915526E+04 0.  0.
        3    1    3    3  502    0 -0.43995524466E+02  0.37671997745E+02 -0.20351293168E+03  0.21159468129E+03  0.10100000352E+00 0. -1.
       -3    1    3    3    0  502  0.43995524466E+02 -0.37671997745E+02  0.12070457596E+04  0.12084346327E+04  0.10100000352E+00 0.  1.
</event>
<event>
 5   0  0.6360455E-03  0.1003586E+04  0.7818609E-02  0.9304621E-01
       -2   -1    0    0    0  501  0.00000000000E+00  0.00000000000E+00  0.66220405356E+03  0.66220405356E+03  0.25500000920E-02 0.  1.
        2   -1    0    0  501    0  0.00000000000E+00  0.00000000000E+00 -0.38023944157E+03  0.38023944158E+03  0.25500000920E-02 0. -1.
    10030    2    1    2    0    0  0.00000000000E+00  0.00000000000E+00  0.28196461199E+03  0.10424434951E+04  0.10035857702E+04 0.  0.
        4    1    3    3  502    0  0.37156662753E+03  0.31181556751E+03  0.27442344463E+03  0.55731548220E+03  0.12699999809E+01 0.  1.
       -4    1    3    3    0  502 -0.37156662753E+03 -0.31181556751E+03  0.75411673562E+01  0.48512801294E+03  0.12699999809E+01 0. -1.
</event>
<event>
 5   0  0.3643002E-03  0.1078416E+04  0.7818609E-02  0.9226489E-01
       -1   -1    0    0    0  501  0.00000000000E+00  0.00000000000E+00  0.65833314968E+03  0.65833314970E+03  0.50400001928E-02 0. -1.
        1   -1    0    0  501    0  0.00000000000E+00  0.00000000000E+00 -0.44163811487E+03  0.44163811490E+03  0.50400001928E-02 0.  1.
    10030    2    1    2    0    0  0.00000000000E+00  0.00000000000E+00  0.21669503481E+03  0.10999712646E+04  0.10784155251E+04 0.  0.
        2    1    3    3  502    0 -0.26162358421E+03  0.41319014031E+03 -0.12328646657E+03  0.50435359096E+03  0.25500000920E-02 0.  1.
       -2    1    3    3    0  502  0.26162358421E+03 -0.41319014031E+03  0.33998150138E+03  0.59561767364E+03  0.25500000920E-02 0. -1.
</event>
<event>
 5   0  0.6022787E-03  0.1046437E+04  0.7818609E-02  0.9259031E-01
        2   -1    0    0  501    0  0.00000000000E+00  0.00000000000E+00  0.13097145564E+04  0.13097145564E+04  0.25500000920E-02 0. -1.
       -2   -1    0    0    0  501  0.00000000000E+00  0.00000000000E+00 -0.20902063003E+03  0.20902063005E+03  0.25500000920E-02 0.  1.
    10030    2    1    2    0    0  0.00000000000E+00  0.00000000000E+00  0.11006939264E+04  0.15187351864E+04  0.10464365471E+04 0.  0.
        5    1    3    3  502    0 -0.51844161358E+03  0.20467434590E+02  0.45261401429E+03  0.68853624342E+03  0.46999998093E+01 0.  1.
       -5    1    3    3    0  502  0.51844161358E+03 -0.20467434590E+02  0.64807991207E+03  0.83019894302E+03  0.46999998093E+01 0. -1.
</event>
<event>
 5   0  0.3466598E-03  0.9960176E+03  0.7818609E-02  0.9312923E-01
       -1   -1    0    0    0  501  0.00000000000E+00  0.00000000000E+00  0.40125934712E+03  0.40125934715E+03  0.50400001928E-02 0.  1.
        1   -1    0    0  501    0  0.00000000000E+00  0.00000000000E+00 -0.61808595444E+03  0.61808595446E+03  0.50400001928E-02 0. -1.
    10030    2    1    2    0    0  0.00000000000E+00  0.00000000000E+00 -0.21682660732E+03  0.10193453016E+04  0.99601760339E+03 0.  0.
        3    1    3    3  502    0 -0.12426717099E+03  0.45798848557E+03 -0.26300399236E+03  0.54255588919E+03  0.10100000352E+00 0.  1.
       -3    1    3    3    0  502  0.12426717099E+03 -0.45798848557E+03  0.46177385040E+02  0.47678941241E+03  0.10100000352E+00 0. -1.
</event>
<event>
 5   0  0.6360455E-03  0.9804785E+03  0.7818609E-02  0.9330219E-01
        2   -1    0    0  501    0  0.00000000000E+00  0.00000000000E+00  0.74747665101E+03  0.74747665101E+03  0.25500000920E-02 0.  1.
       -2   -1    0    0    0  501  0.00000000000E+00  0.00000000000E+00 -0.32152782926E+03  0.32152782927E+03  0.25500000920E-02 0. -1.
    10030    2    1    2    0    0  0.00000000000E+00  0.00000000000E+00  0.42594882175E+03  0.10690044803E+04  0.98047854649E+03 0.  0.
        4    1    3    3  502    0  0.16066938949E+03  0.35455080859E+03 -0.11194620197E+03  0.40503641025E+03  0.12699999809E+01 0. -1.
       -4    1    3    3    0  502 -0.16066938949E+03 -0.35455080859E+03  0.53789502372E+03  0.66396807004E+03  0.12699999809E+01 0.  1.
</event>
<event>
 5   0  0.3608845E-03  0.9938519E+03  0.7818609E-02  0.9315314E-01
        1   -1    0    0  501    0  0.00000000000E+00  0.00000000000E+00  0.71575458186E+03  0.71575458188E+03  0.50400001928E-02 0. -1.
       -1   -1    0    0    0  501  0.00000000000E+00  0.00000000000E+00 -0.34500012455E+03  0.34500012459E+03  0.50400001928E-02 0.  1.
    10030    2    1    2    0    0  0.00000000000E+00  0.00000000000E+00  0.37075445731E+03  0.10607547065E+04  0.99385194053E+03 0.  0.
        1    1    3    3  502    0 -0.81821647996E+02 -0.46717973023E+03  0.34362734643E+03  0.58568885568E+03  0.50400001928E-02 0.  1.
       -1    1    3    3    0  502  0.81821647996E+02  0.46717973023E+03  0.27127110875E+02  0.47506585079E+03  0.50400001928E-02 0. -1.
</event>
<event>
 5   0  0.6022787E-03  0.1009212E+04  0.7818609E-02  0.9298498E-01
       -2   -1    0    0    0  501  0.00000000000E+00  0.00000000000E+00  0.12433744328E+03  0.12433744331E+03  0.25500000920E-02 0.  1.
        2   -1    0    0  501    0  0.00000000000E+00  0.00000000000E+00 -0.20478735212E+04  0.20478735212E+04  0.25500000920E-02 0. -1.
    10030    2    1    2    0    0  0.00000000000E+00  0.00000000000E+00 -0.19235360779E+04  0.21722109645E+04  0.10092122826E+04 0.  0.
        5    1    3    3  502    0 -0.27884775564E+03 -0.21089428595E+03 -0.17866511225E+03  0.39265224182E+03  0.46999998093E+01 0.  1.
       -5    1    3    3    0  502  0.27884775564E+03  0.21089428595E+03 -0.17448709657E+04  0.17795587227E+04  0.46999998093E+01 0. -1.
</event>
<event>
 5   0  0.3640180E-03  0.1001410E+04  0.7818609E-02  0.9306999E-01
        1   -1    0    0  501    0  0.00000000000E+00  0.00000000000E+00  0.86558829325E+03  0.86558829326E+03  0.50400001928E-02 0. -1.
       -1   -1    0    0    0  501  0.00000000000E+00  0.00000000000E+00 -0.28963623330E+03  0.28963623335E+03  0.50400001928E-02 0.  1.
    10030    2    1    2    0    0  0.00000000000E+00  0.00000000000E+00  0.57595205995E+03  0.11552245266E+04  0.10014104710E+04 0.  0.
        5    1    3    3  502    0  0.13709231815E+03 -0.19124345274E+03  0.79780250453E+03  0.83179281563E+03  0.46999998093E+01 0. -1.
       -5    1    3    3    0  502 -0.13709231815E+03  0.19124345274E+03 -0.22185044458E+03  0.32343171098E+03  0.46999998093E+01 0.  1.
</event>
<event>
 5   0  0.3640180E-03  0.9957486E+03  0.7818609E-02  0.9313220E-01
        1   -1    0    0  501    0  0.00000000000E+00  0.00000000000E+00  0.49339614103E+03  0.49339614106E+03  0.50400001928E-02 0. -1.
       -1   -1    0    0    0  501  0.00000000000E+00  0.00000000000E+00 -0.50239305873E+03  0.50239305876E+03  0.50400001928E-02 0.  1.
    10030    2    1    2    0    0  0.00000000000E+00  0.00000000000E+00 -0.89969176998E+01  0.99578919981E+03  0.99574855558E+03 0.  0.
        5    1    3    3  502    0  0.28433318144E+03  0.34749031329E+02  0.40270835470E+03  0.49421550177E+03  0.46999998093E+01 0. -1.
       -5    1    3    3    0  502 -0.28433318144E+03 -0.34749031329E+02 -0.41170527240E+03  0.50157369804E+03  0.46999998093E+01 0.  1.
</event>
<event>
 5   0  0.6022787E-03  0.1002502E+04  0.7818609E-02  0.9305805E-01
       -2   -1    0    0    0  501  0.00000000000E+00  0.00000000000E+00  0.26209423126E+03  0.26209423127E+03  0.25500000920E-02 0. -1.
        2   -1    0    0  501    0  0.00000000000E+00  0.00000000000E+00 -0.95863455834E+03  0.95863455834E+03  0.25500000920E-02 0.  1.
    10030    2    1    2    0    0  0.00000000000E+00  0.00000000000E+00 -0.69654032708E+03  0.12207287896E+04  0.10025020452E+04 0.  0.
        5    1    3    3  502    0 -0.24558618427E+02 -0.26389451212E+03 -0.86630346678E+03  0.90595100630E+03  0.46999998093E+01 0.  1.
       -5    1    3    3    0  502  0.24558618427E+02  0.26389451212E+03  0.16976313970E+03  0.31477778331E+03  0.46999998093E+01 0. -1.
</event>
<event>
 5   0  0.3569359E-03  0.1030401E+04  0.7818609E-02  0.9275816E-01
       -1   -1    0    0    0  501  0.00000000000E+00  0.00000000000E+00  0.38024205893E+03  0.38024205897E+03  0.50400001928E-02 0. -1.
        1   -1    0    0  501    0  0.00000000000E+00  0.00000000000E+00 -0.69805936150E+03  0.69805936152E+03  0.50400001928E-02 0.  1.
    10030    2    1    2    0    0  0.00000000000E+00  0.00000000000E+00 -0.31781730257E+03  0.10783014205E+04  0.10304009490E+04 0.  0.
        4    1    3    3  502    0  0.22340998222E+03 -0.10841563970E+03 -0.63129528143E+03  0.67838139445E+03  0.12699999809E+01 0.  1.
       -4    1    3    3    0  502 -0.22340998222E+03  0.10841563970E+03  0.31347797886E+03  0.39992002603E+03  0.12699999809E+01 0. -1.
</event>
<event>
 5   0  0.3569359E-03  0.9938763E+03  0.7818609E-02  0.9315287E-01
        1   -1    0    0  501    0  0.00000000000E+00  0.00000000000E+00  0.11315300196E+04  0.11315300196E+04  0.50400001928E-02 0.  1.
       -1   -1    0    0    0  501  0.00000000000E+00  0.00000000000E+00 -0.21824211970E+03  0.21824211976E+03  0.50400001928E-02 0. -1.
    10030    2    1    2    0    0  0.00000000000E+00  0.00000000000E+00  0.91328789985E+03  0.13497721393E+04  0.99387627001E+03 0.  0.
        4    1    3    3  502    0  0.33524133968E+03  0.73364548480E+01 -0.41434630482E+02  0.33787426789E+03  0.12699999809E+01 0. -1.
       -4    1    3    3    0  502 -0.33524133968E+03 -0.73364548480E+01  0.95472253033E+03  0.10118978714E+04  0.12699999809E+01 0.  1.
</event>
<event>
 5   0  0.3640180E-03  0.1000017E+04  0.7818609E-02  0.9308526E-01
       -1   -1    0    0    0  501  0.00000000000E+00  0.00000000000E+00  0.12847472860E+03  0.12847472869E+03  0.50400001928E-02 0. -1.
        1   -1    0    0  501    0  0.00000000000E+00  0.00000000000E+00 -0.19459760543E+04  0.19459760543E+04  0.50400001928E-02 0.  1.
    10030    2    1    2    0    0  0.00000000000E+00  0.00000000000E+00 -0.18175013257E+04  0.20744507830E+04  0.10000174909E+04 0.  0.
        5    1    3    3  502    0 -0.38656626326E+03  0.28725146661E+03 -0.11873698960E+04  0.12813337742E+04  0.46999998093E+01 0.  1.
       -5    1    3    3    0  502  0.38656626326E+03 -0.28725146661E+03 -0.63013142968E+03  0.79311700879E+03  0.46999998093E+01 0. -1.
</event>
<event>
 5   0  0.3569359E-03  0.9982789E+03  0.7818609E-02  0.9310435E-01
       -1   -1    0    0    0  501  0.00000000000E+00  0.00000000000E+00  0.20216703371E+03  0.20216703377E+03  0.50400001928E-02 0. -1.
        1   -1    0    0  501    0  0.00000000000E+00  0.00000000000E+00 -0.12323482076E+04  0.12323482076E+04  0.50400001928E-02 0.  1.
    10030    2    1    2    0    0  0.00000000000E+00  0.00000000000E+00 -0.10301811739E+04  0.14345152413E+04  0.99827888221E+03 0.  0.
        4    1    3    3  502    0  0.48909760891E+03  0.36409125875E+02 -0.64832408843E+03  0.81293777869E+03  0.12699999809E+01 0.  1.
       -4    1    3    3    0  502 -0.48909760891E+03 -0.36409125875E+02 -0.38185708542E+03  0.62157746265E+03  0.12699999809E+01 0. -1.
</event>
<event>
 5   0  0.3569359E-03  0.1003638E+04  0.7818609E-02  0.9304564E-01
       -1   -1    0    0    0  501  0.00000000000E+00  0.00000000000E+00  0.20275368933E+03  0.20275368939E+03  0.50400001928E-02 0. -1.
        1   -1    0    0  501    0  0.00000000000E+00  0.00000000000E+00 -0.12420108724E+04  0.12420108724E+04  0.50400001928E-02 0.  1.
    10030    2    1    2    0    0  0.00000000000E+00  0.00000000000E+00 -0.10392571830E+04  0.14447645618E+04  0.10036379559E+04 0.  0.
        4    1    3    3  502    0  0.27521148664E+03 -0.41478301380E+03 -0.42819464225E+03  0.65661143416E+03  0.12699999809E+01 0. -1.
       -4    1    3    3    0  502 -0.27521148664E+03  0.41478301380E+03 -0.61106254078E+03  0.78815312761E+03  0.12699999809E+01 0.  1.
</event>
<event>
 5   0  0.3569359E-03  0.1009002E+04  0.7818609E-02  0.9298727E-01
       -1   -1    0    0    0  501  0.00000000000E+00  0.00000000000E+00  0.20292685596E+03  0.20292685602E+03  0.50400001928E-02 0.  1.
        1   -1    0    0  501    0  0.00000000000E+00  0.00000000000E+00 -0.12542505747E+04  0.12542505747E+04  0.50400001928E-02 0. -1.
    10030    2    1    2    0    0  0.00000000000E+00  0.00000000000E+00 -0.10513237187E+04  0.14571774307E+04  0.10090017359E+04 0.  0.
        4    1    3    3  502    0  0.44283016972E+03  0.24094596837E+03 -0.55329037092E+03  0.74852212148E+03  0.12699999809E+01 0.  1.
       -4    1    3    3    0  502 -0.44283016972E+03 -0.24094596837E+03 -0.49803334778E+03  0.70865530922E+03  0.12699999809E+01 0. -1.
</event>
<event>
 5   0  0.3608845E-03  0.1002799E+04  0.7818609E-02  0.9305480E-01
        1   -1    0    0  501    0  0.00000000000E+00  0.00000000000E+00  0.35439233348E+03  0.35439233352E+03  0.50400001928E-02 0.  1.
       -1   -1    0    0    0  501  0.00000000000E+00  0.00000000000E+00 -0.70938715833E+03  0.70938715835E+03  0.50400001928E-02 0. -1.
    10030    2    1    2    0    0  0.00000000000E+00  0.00000000000E+00 -0.35499482485E+03  0.10637794919E+04  0.10027988241E+04 0.  0.
        1    1    3    3  502    0 -0.39685714782E+03 -0.82137148482E+02 -0.49067781154E+03  0.63640146267E+03  0.50400001928E-02 0. -1.
       -1    1    3    3    0  502  0.39685714782E+03  0.82137148482E+02  0.13568298669E+03  0.42737802919E+03  0.50400001928E-02 0.  1.
</event>
<event>
 5   0  0.6199539E-03  0.9979270E+03  0.7818609E-02  0.9310821E-01
        2   -1    0    0  501    0  0.00000000000E+00  0.00000000000E+00  0.18108108347E+03  0.18108108349E+03  0.25500000920E-02 0. -1.
       -2   -1    0    0    0  501  0.00000000000E+00  0.00000000000E+00 -0.13748790567E+04  0.13748790567E+04  0.25500000920E-02 0.  1.
    10030    2    1    2    0    0  0.00000000000E+00  0.00000000000E+00 -0.11937979732E+04  0.15559601402E+04  0.99792702988E+03 0.  0.
        2    1    3    3  502    0  0.56788282808E+02 -0.20873367165E+03  0.10416549751E+03  0.24009395166E+03  0.25500000920E-02 0. -1.
       -2    1    3    3    0  502 -0.56788282808E+02  0.20873367165E+03 -0.12979634707E+04  0.13158661885E+04  0.25500000920E-02 0.  1.
</event>
<event>
 5   0  0.3608845E-03  0.9944626E+03  0.7818609E-02  0.9314639E-01
       -1   -1    0    0    0  501  0.00000000000E+00  0.00000000000E+00  0.27492147632E+03  0.27492147637E+03  0.50400001928E-02 0.  1.
        1   -1    0    0  501    0  0.00000000000E+00  0.00000000000E+00 -0.89930766036E+03  0.89930766038E+03  0.50400001928E-02 0. -1.
    10030    2    1    2    0    0  0.00000000000E+00  0.00000000000E+00 -0.62438618404E+03  0.11742291367E+04  0.99446264825E+03 0.  0.
        1    1    3    3  502    0 -0.25680127178E+03 -0.10412741190E+03 -0.79967931074E+03  0.84633114745E+03  0.50400001928E-02 0. -1.
       -1    1    3    3    0  502  0.25680127178E+03  0.10412741190E+03  0.17529312669E+03  0.32789798930E+03  0.50400001928E-02 0.  1.
</event>
<event>
 5   0  0.3569359E-03  0.9786300E+03  0.7818609E-02  0.9332299E-01
        1   -1    0    0  501    0  0.00000000000E+00  0.00000000000E+00  0.16950819046E+04  0.16950819046E+04  0.50400001928E-02 0. -1.
       -1   -1    0    0    0  501  0.00000000000E+00  0.00000000000E+00 -0.14124931595E+03  0.14124931604E+03  0.50400001928E-02 0.  1.
    10030    2    1    2    0    0  0.00000000000E+00  0.00000000000E+00  0.15538325887E+04  0.18363312207E+04  0.97862998032E+03 0.  0.
        4    1    3    3  502    0 -0.28374806627E+03  0.28038745474E+03  0.13086367852E+04  0.13680869630E+04  0.12699999809E+01 0. -1.
       -4    1    3    3    0  502  0.28374806627E+03 -0.28038745474E+03  0.24519580348E+03  0.46824425766E+03  0.12699999809E+01 0.  1.
</event>
<event>
 5   0  0.6022787E-03  0.1000315E+04  0.7818609E-02  0.9308200E-01
       -2   -1    0    0    0  501  0.00000000000E+00  0.00000000000E+00  0.24786731715E+03  0.24786731716E+03  0.25500000920E-02 0.  1.
        2   -1    0    0  501    0  0.00000000000E+00  0.00000000000E+00 -0.10092394302E+04  0.10092394302E+04  0.25500000920E-02 0. -1.
    10030    2    1    2    0    0  0.00000000000E+00  0.00000000000E+00 -0.76137211307E+03  0.12571067474E+04  0.10003148903E+04 0.  0.
        5    1    3    3  502    0  0.23826239036E+03  0.93540514143E+02 -0.92065748554E+03  0.95558939411E+03  0.46999998093E+01 0. -1.
       -5    1    3    3    0  502 -0.23826239036E+03 -0.93540514143E+02  0.15928537247E+03  0.30151735328E+03  0.46999998093E+01 0.  1.
</event>
<event>
 5   0  0.2417750E-03  0.9957361E+03  0.7818609E-02  0.9313234E-01
       -4   -1    0    0    0  501  0.00000000000E+00  0.00000000000E+00  0.31334983246E+03  0.31335240609E+03  0.12699999809E+01 0. -1.
        4   -1    0    0  501    0  0.00000000000E+00  0.00000000000E+00 -0.79103474599E+03  0.79103576548E+03  0.12699999809E+01 0.  1.
    10030    2    1    2    0    0  0.00000000000E+00  0.00000000000E+00 -0.47768491353E+03  0.11043881716E+04  0.99573608797E+03 0.  0.
        1    1    3    3  502    0 -0.25679970662E+02 -0.47301681991E+03 -0.68933003991E+02  0.47870255052E+03  0.50400001928E-02 0.  1.
       -1    1    3    3    0  502  0.25679970662E+02  0.47301681991E+03 -0.40875190954E+03  0.62568562105E+03  0.50400001928E-02 0. -1.
</event>
<event>
 5   0  0.3466598E-03  0.9978036E+03  0.7818609E-02  0.9310957E-01
        1   -1    0    0  501    0  0.00000000000E+00  0.00000000000E+00  0.12316724895E+04  0.12316724895E+04  0.50400001928E-02 0.  1.
       -1   -1    0    0    0  501  0.00000000000E+00  0.00000000000E+00 -0.20208537279E+03  0.20208537285E+03  0.50400001928E-02 0. -1.
    10030    2    1    2    0    0  0.00000000000E+00  0.00000000000E+00  0.10295871167E+04  0.14337578624E+04  0.99780357635E+03 0.  0.
        3    1    3    3  502    0 -0.19677138623E+03 -0.14641182677E+03 -0.10947499036E+03  0.26858924992E+03  0.10100000352E+00 0. -1.
       -3    1    3    3    0  502  0.19677138623E+03  0.14641182677E+03  0.11390621071E+04  0.11651686124E+04  0.10100000352E+00 0.  1.
</event>
<event>
 5   0  0.3569359E-03  0.9991903E+03  0.7818609E-02  0.9309433E-01
        1   -1    0    0  501    0  0.00000000000E+00  0.00000000000E+00  0.13658660516E+04  0.13658660516E+04  0.50400001928E-02 0. -1.
       -1   -1    0    0    0  501  0.00000000000E+00  0.00000000000E+00 -0.18273777626E+03  0.18273777633E+03  0.50400001928E-02 0.  1.
    10030    2    1    2    0    0  0.00000000000E+00  0.00000000000E+00  0.11831282753E+04  0.15486038279E+04  0.99919032220E+03 0.  0.
        4    1    3    3  502    0  0.42101504073E+03 -0.20089336930E+03  0.31439539494E+03  0.56254589823E+03  0.12699999809E+01 0.  1.
       -4    1    3    3    0  502 -0.42101504073E+03  0.20089336930E+03  0.86873288037E+03  0.98605792968E+03  0.12699999809E+01 0. -1.
</event>
<event>
 5   0  0.3569359E-03  0.9874546E+03  0.7818609E-02  0.9322412E-01
       -1   -1    0    0    0  501  0.00000000000E+00  0.00000000000E+00  0.62383385822E+03  0.62383385824E+03  0.50400001928E-02 0.  1.
        1   -1    0    0  501    0  0.00000000000E+00  0.00000000000E+00 -0.39075571443E+03  0.39075571446E+03  0.50400001928E-02 0. -1.
    10030    2    1    2    0    0  0.00000000000E+00  0.00000000000E+00  0.23307814380E+03  0.10145895727E+04  0.98745459638E+03 0.  0.
        4    1    3    3  502    0  0.18685669776E+03  0.21592768893E+03  0.53037856724E+03  0.60236469836E+03  0.12699999809E+01 0.  1.
       -4    1    3    3    0  502 -0.18685669776E+03 -0.21592768893E+03 -0.29730042344E+03  0.41222487434E+03  0.12699999809E+01 0. -1.
</event>
<event>
 5   0  0.6360455E-03  0.9984723E+03  0.7818609E-02  0.9310222E-01
       -2   -1    0    0    0  501  0.00000000000E+00  0.00000000000E+00  0.66122033553E+03  0.66122033553E+03  0.25500000920E-02 0.  1.
        2   -1    0    0  501    0  0.00000000000E+00  0.00000000000E+00 -0.37693445729E+03  0.37693445730E+03  0.25500000920E-02 0. -1.
    10030    2    1    2    0    0  0.00000000000E+00  0.00000000000E+00  0.28428587824E+03  0.10381547928E+04  0.99847228971E+03 0.  0.
        4    1    3    3  502    0  0.22576408099E+03 -0.92006950956E+02  0.59511840143E+03  0.64311913664E+03  0.12699999809E+01 0.  1.
       -4    1    3    3    0  502 -0.22576408099E+03  0.92006950956E+02 -0.31083252319E+03  0.39503565619E+03  0.12699999809E+01 0. -1.
</event>
<event>
 5   0  0.2417750E-03  0.1013271E+04  0.7818609E-02  0.9294108E-01
        3   -1    0    0  501    0  0.00000000000E+00  0.00000000000E+00  0.17856642572E+03  0.17856645429E+03  0.10100000352E+00 0.  1.
       -3   -1    0    0    0  501  0.00000000000E+00  0.00000000000E+00 -0.14374445697E+04  0.14374445732E+04  0.10100000352E+00 0. -1.
    10030    2    1    2    0    0  0.00000000000E+00  0.00000000000E+00 -0.12588781440E+04  0.16160110275E+04  0.10132706745E+04 0.  0.
        2    1    3    3  502    0  0.25866155148E+02  0.36369255187E+03 -0.68429264962E+02  0.37097694615E+03  0.25500000920E-02 0.  1.
       -2    1    3    3    0  502 -0.25866155148E+02 -0.36369255187E+03 -0.11904488790E+04  0.12450340814E+04  0.25500000920E-02 0. -1.
</event>
<event>
 5   0  0.3466598E-03  0.1012622E+04  0.7818609E-02  0.9294809E-01
       -1   -1    0    0    0  501  0.00000000000E+00  0.00000000000E+00  0.63781807659E+03  0.63781807661E+03  0.50400001928E-02 0.  1.
        1   -1    0    0  501    0  0.00000000000E+00  0.00000000000E+00 -0.40191831023E+03  0.40191831027E+03  0.50400001928E-02 0. -1.
    10030    2    1    2    0    0  0.00000000000E+00  0.00000000000E+00  0.23589976635E+03  0.10397363869E+04  0.10126218714E+04 0.  0.
        3    1    3    3  502    0 -0.25465723849E+02 -0.48621372860E+03 -0.24688783767E+02  0.48750573250E+03  0.10100000352E+00 0. -1.
       -3    1    3    3    0  502  0.25465723849E+02  0.48621372860E+03  0.26058855012E+03  0.55223065437E+03  0.10100000352E+00 0.  1.
</event>
<event>
 5   0  0.6199539E-03  0.1011531E+04  0.7818609E-02  0.9295987E-01
        2   -1    0    0  501    0  0.00000000000E+00  0.00000000000E+00  0.89051880089E+03  0.89051880090E+03  0.25500000920E-02 0.  1.
       -2   -1    0    0    0  501  0.00000000000E+00  0.00000000000E+00 -0.28724714492E+03  0.28724714493E+03  0.25500000920E-02 0. -1.
    10030    2    1    2    0    0  0.00000000000E+00  0.00000000000E+00  0.60327165597E+03  0.11777659458E+04  0.10115314786E+04 0.  0.
        2    1    3    3  502    0 -0.25043775106E+03 -0.55284969870E+02 -0.20591931551E+03  0.32890463596E+03  0.25500000920E-02 0. -1.
       -2    1    3    3    0  502  0.25043775106E+03  0.55284969870E+02  0.80919097148E+03  0.84886130986E+03  0.25500000920E-02 0.  1.
</event>
<event>
 5   0  0.6022787E-03  0.9948650E+03  0.7818609E-02  0.9314195E-01
        2   -1    0    0  501    0  0.00000000000E+00  0.00000000000E+00  0.66749255371E+03  0.66749255371E+03  0.25500000920E-02 0.  1.
       -2   -1    0    0    0  501  0.00000000000E+00  0.00000000000E+00 -0.37069940425E+03  0.37069940426E+03  0.25500000920E-02 0. -1.
    10030    2    1    2    0    0  0.00000000000E+00  0.00000000000E+00  0.29679314945E+03  0.10381919580E+04  0.99486499991E+03 0.  0.
        5    1    3    3  502    0 -0.89053047134E+02 -0.11731289991E+03 -0.34739895665E+03  0.37736042025E+03  0.46999998093E+01 0. -1.
       -5    1    3    3    0  502  0.89053047134E+02  0.11731289991E+03  0.64419210610E+03  0.66083153773E+03  0.46999998093E+01 0.  1.
</event>
<event>
 5   0  0.6376961E-03  0.9987020E+03  0.7818609E-02  0.9309970E-01
        2   -1    0    0  501    0  0.00000000000E+00  0.00000000000E+00  0.50822881378E+03  0.50822881379E+03  0.25500000920E-02 0.  1.
       -2   -1    0    0    0  501  0.00000000000E+00  0.00000000000E+00 -0.49062822268E+03  0.49062822268E+03  0.25500000920E-02 0. -1.
    10030    2    1    2    0    0  0.00000000000E+00  0.00000000000E+00  0.17600591103E+02  0.99885703647E+03  0.99870195679E+03 0.  0.
        3    1    3    3  502    0 -0.36482070243E+03 -0.21220967146E+03  0.27572054797E+03  0.50413184819E+03  0.10100000352E+00 0.  1.
       -3    1    3    3    0  502  0.36482070243E+03  0.21220967146E+03 -0.25811995686E+03  0.49472518828E+03  0.10100000352E+00 0. -1.
</event>
<event>
 5   0  0.3643002E-03  0.1000998E+04  0.7818609E-02  0.9307451E-01
        1   -1    0    0  501    0  0.00000000000E+00  0.00000000000E+00  0.37800969724E+03  0.37800969727E+03  0.50400001928E-02 0. -1.
       -1   -1    0    0    0  501  0.00000000000E+00  0.00000000000E+00 -0.66267970197E+03  0.66267970199E+03  0.50400001928E-02 0.  1.
    10030    2    1    2    0    0  0.00000000000E+00  0.00000000000E+00 -0.28467000473E+03  0.10406893993E+04  0.10009982089E+04 0.  0.
        2    1    3    3  502    0  0.17869692076E+03  0.39413407665E+03  0.11908124199E+03  0.44883694374E+03  0.25500000920E-02 0. -1.
       -2    1    3    3    0  502 -0.17869692076E+03 -0.39413407665E+03 -0.40375124673E+03  0.59185245552E+03  0.25500000920E-02 0.  1.
</event>
<event>
 5   0  0.6376961E-03  0.1003751E+04  0.7818609E-02  0.9304441E-01
       -2   -1    0    0    0  501  0.00000000000E+00  0.00000000000E+00  0.11570223005E+03  0.11570223007E+03  0.25500000920E-02 0. -1.
        2   -1    0    0  501    0  0.00000000000E+00  0.00000000000E+00 -0.21769571390E+04  0.21769571390E+04  0.25500000920E-02 0.  1.
    10030    2    1    2    0    0  0.00000000000E+00  0.00000000000E+00 -0.20612549090E+04  0.22926593691E+04  0.10037505581E+04 0.  0.
        3    1    3    3  502    0 -0.32963601260E+03 -0.16196782477E+03 -0.24939658271E+03  0.44395060844E+03  0.10100000352E+00 0. -1.
       -3    1    3    3    0  502  0.32963601260E+03  0.16196782477E+03 -0.18118583263E+04  0.18487087607E+04  0.10100000352E+00 0.  1.
</event>
<event>
 5   0  0.3640180E-03  0.9727213E+03  0.7818609E-02  0.9338980E-01
       -1   -1    0    0    0  501  0.00000000000E+00  0.00000000000E+00  0.16558655900E+03  0.16558655908E+03  0.50400001928E-02 0.  1.
        1   -1    0    0  501    0  0.00000000000E+00  0.00000000000E+00 -0.14285378096E+04  0.14285378096E+04  0.50400001928E-02 0. -1.
    10030    2    1    2    0    0  0.00000000000E+00  0.00000000000E+00 -0.12629512506E+04  0.15941243687E+04  0.97272125580E+03 0.  0.
        5    1    3    3  502    0 -0.27407299689E+03  0.14881865864E+03 -0.12430502218E+04  0.12815845445E+04  0.46999998093E+01 0. -1.
       -5    1    3    3    0  502  0.27407299689E+03 -0.14881865864E+03 -0.19901028837E+02  0.31253982423E+03  0.46999998093E+01 0.  1.
</event>
<event>
 5   0  0.3466598E-03  0.1000667E+04  0.7818609E-02  0.9307814E-01
       -1   -1    0    0    0  501  0.00000000000E+00  0.00000000000E+00  0.31398908723E+03  0.31398908727E+03  0.50400001928E-02 0. -1.
        1   -1    0    0  501    0  0.00000000000E+00  0.00000000000E+00 -0.79726818382E+03  0.79726818384E+03  0.50400001928E-02 0.  1.
    10030    2    1    2    0    0  0.00000000000E+00  0.00000000000E+00 -0.48327909659E+03  0.11112572711E+04  0.10006667964E+04 0.  0.
        3    1    3    3  502    0  0.20588343938E+03 -0.43131280128E+03 -0.77242640677E+02  0.48413341023E+03  0.10100000352E+00 0. -1.
       -3    1    3    3    0  502 -0.20588343938E+03  0.43131280128E+03 -0.40603645591E+03  0.62712386088E+03  0.10100000352E+00 0.  1.
</event>
<event>
 5   0  0.2417750E-03  0.9891825E+03  0.7818609E-02  0.9320489E-01
       -3   -1    0    0    0  501  0.00000000000E+00  0.00000000000E+00  0.10763052048E+04  0.10763052095E+04  0.10100000352E+00 0.  1.
        3   -1    0    0  501    0  0.00000000000E+00  0.00000000000E+00 -0.22727798815E+03  0.22727801059E+03  0.10100000352E+00 0. -1.
    10030    2    1    2    0    0  0.00000000000E+00  0.00000000000E+00  0.84902721665E+03  0.13035832201E+04  0.98918248932E+03 0.  0.
        5    1    3    3  502    0  0.44959822417E+02  0.12306205074E+03  0.10529898261E+04  0.10611198414E+04  0.46999998093E+01 0.  1.
       -5    1    3    3    0  502 -0.44959822417E+02 -0.12306205074E+03 -0.20396260945E+03  0.24246337871E+03  0.46999998093E+01 0. -1.
</event>
<event>
 5   0  0.3569359E-03  0.1003471E+04  0.7818609E-02  0.9304746E-01
       -1   -1    0    0    0  501  0.00000000000E+00  0.00000000000E+00  0.37830896159E+03  0.37830896163E+03  0.50400001928E-02 0. -1.
        1   -1    0    0  501    0  0.00000000000E+00  0.00000000000E+00 -0.66543093593E+03  0.66543093595E+03  0.50400001928E-02 0.  1.
    10030    2    1    2    0    0  0.00000000000E+00  0.00000000000E+00 -0.28712197434E+03  0.10437398976E+04  0.10034709491E+04 0.  0.
        4    1    3    3  502    0 -0.37419636638E+03  0.78934730153E+02 -0.48137624046E+03  0.61479940632E+03  0.12699999809E+01 0.  1.
       -4    1    3    3    0  502  0.37419636638E+03 -0.78934730153E+02  0.19425426611E+03  0.42894049126E+03  0.12699999809E+01 0. -1.
</event>
<event>
 5   0  0.6360455E-03  0.9715015E+03  0.7818609E-02  0.9340366E-01
       -2   -1    0    0    0  501  0.00000000000E+00  0.00000000000E+00  0.42359986783E+03  0.42359986784E+03  0.25500000920E-02 0. -1.
        2   -1    0    0  501    0  0.00000000000E+00  0.00000000000E+00 -0.55702044743E+03  0.55702044744E+03  0.25500000920E-02 0.  1.
    10030    2    1    2    0    0  0.00000000000E+00  0.00000000000E+00 -0.13342057961E+03  0.98062031528E+03  0.97150149339E+03 0.  0.
        4    1    3    3  502    0  0.28172233652E+03 -0.29971468097E+03  0.19408632450E+03  0.45482686722E+03  0.12699999809E+01 0. -1.
       -4    1    3    3    0  502 -0.28172233652E+03  0.29971468097E+03 -0.32750690411E+03  0.52579344806E+03  0.12699999809E+01 0.  1.
</event>
<event>
 5   0  0.3569359E-03  0.9898308E+03  0.7818609E-02  0.9319769E-01
        1   -1    0    0  501    0  0.00000000000E+00  0.00000000000E+00  0.22262307220E+03  0.22262307226E+03  0.50400001928E-02 0. -1.
       -1   -1    0    0    0  501  0.00000000000E+00  0.00000000000E+00 -0.11002508740E+04  0.11002508740E+04  0.50400001928E-02 0.  1.
    10030    2    1    2    0    0  0.00000000000E+00  0.00000000000E+00 -0.87762780182E+03  0.13228739463E+04  0.98983075283E+03 0.  0.
        4    1    3    3  502    0 -0.34676057056E+03 -0.35616493346E+02 -0.90834536350E+03  0.97293593837E+03  0.12699999809E+01 0.  1.
       -4    1    3    3    0  502  0.34676057056E+03  0.35616493346E+02  0.30717561675E+02  0.34993800792E+03  0.12699999809E+01 0. -1.
</event>
<event>
 5   0  0.2417750E-03  0.9961998E+03  0.7818609E-02  0.9312723E-01
       -4   -1    0    0    0  501  0.00000000000E+00  0.00000000000E+00  0.32788647324E+03  0.32788893277E+03  0.12699999809E+01 0. -1.
        4   -1    0    0  501    0  0.00000000000E+00  0.00000000000E+00 -0.75666923786E+03  0.75667030365E+03  0.12699999809E+01 0.  1.
    10030    2    1    2    0    0  0.00000000000E+00  0.00000000000E+00 -0.42878276463E+03  0.10845592364E+04  0.99619981834E+03 0.  0.
        4    1    3    3  502    0  0.20005723023E+03  0.39985818714E+03  0.24607727406E+02  0.44779081984E+03  0.12699999809E+01 0.  1.
       -4    1    3    3    0  502 -0.20005723023E+03 -0.39985818714E+03 -0.45339049203E+03  0.63676841658E+03  0.12699999809E+01 0. -1.
</event>
<event>
 5   0  0.3466598E-03  0.1044018E+04  0.7818609E-02  0.9261542E-01
       -1   -1    0    0    0  501  0.00000000000E+00  0.00000000000E+00  0.29415127156E+03  0.29415127160E+03  0.50400001928E-02 0.  1.
        1   -1    0    0  501    0  0.00000000000E+00  0.00000000000E+00 -0.92637098201E+03  0.92637098203E+03  0.50400001928E-02 0. -1.
    10030    2    1    2    0    0  0.00000000000E+00  0.00000000000E+00 -0.63221971045E+03  0.12205222536E+04  0.10440176288E+04 0.  0.
        3    1    3    3  502    0 -0.19117151491E+03  0.37333979526E+03 -0.67939328304E+03  0.79843872281E+03  0.10100000352E+00 0. -1.
       -3    1    3    3    0  502  0.19117151491E+03 -0.37333979526E+03  0.47173572586E+02  0.42208353082E+03  0.10100000352E+00 0.  1.
</event>
<event>
 5   0  0.6199539E-03  0.1079580E+04  0.7818609E-02  0.9225326E-01
       -2   -1    0    0    0  501  0.00000000000E+00  0.00000000000E+00  0.45349962923E+03  0.45349962924E+03  0.25500000920E-02 0. -1.
        2   -1    0    0  501    0  0.00000000000E+00  0.00000000000E+00 -0.64249952014E+03  0.64249952014E+03  0.25500000920E-02 0.  1.
    10030    2    1    2    0    0  0.00000000000E+00  0.00000000000E+00 -0.18899989090E+03  0.10959991494E+04  0.10795800928E+04 0.  0.
        2    1    3    3  502    0 -0.42569776011E+03 -0.26186661181E+03  0.11251450736E+03  0.51230090739E+03  0.25500000920E-02 0. -1.
       -2    1    3    3    0  502  0.42569776011E+03  0.26186661181E+03 -0.30151439826E+03  0.58369824199E+03  0.25500000920E-02 0.  1.
</event>
<event>
 5   0  0.6360455E-03  0.1002806E+04  0.7818609E-02  0.9305472E-01
       -2   -1    0    0    0  501  0.00000000000E+00  0.00000000000E+00  0.34984477908E+03  0.34984477909E+03  0.25500000920E-02 0. -1.
        2   -1    0    0  501    0  0.00000000000E+00  0.00000000000E+00 -0.71861925639E+03  0.71861925639E+03  0.25500000920E-02 0.  1.
    10030    2    1    2    0    0  0.00000000000E+00  0.00000000000E+00 -0.36877447731E+03  0.10684640355E+04  0.10028064519E+04 0.  0.
        4    1    3    3  502    0  0.46455177206E+03  0.15232089082E+03 -0.30300266265E+03  0.57517147806E+03  0.12699999809E+01 0.  1.
       -4    1    3    3    0  502 -0.46455177206E+03 -0.15232089082E+03 -0.65771814660E+02  0.49329255742E+03  0.12699999809E+01 0. -1.
</event>
<event>
 5   0  0.6199539E-03  0.1021125E+04  0.7818609E-02  0.9285674E-01
        2   -1    0    0  501    0  0.00000000000E+00  0.00000000000E+00  0.60475387326E+03  0.60475387327E+03  0.25500000920E-02 0. -1.
       -2   -1    0    0    0  501  0.00000000000E+00  0.00000000000E+00 -0.43104153010E+03  0.43104153010E+03  0.25500000920E-02 0.  1.
    10030    2    1    2    0    0  0.00000000000E+00  0.00000000000E+00  0.17371234317E+03  0.10357954034E+04  0.10211249382E+04 0.  0.
        2    1    3    3  502    0  0.47972458636E+03 -0.14364499183E+03 -0.14094862115E+02  0.50096729192E+03  0.25500000920E-02 0.  1.
       -2    1    3    3    0  502 -0.47972458636E+03  0.14364499183E+03  0.18780720528E+03  0.53482811145E+03  0.25500000920E-02 0. -1.
</event>
<event>
 5   0  0.3569359E-03  0.1006601E+04  0.7818609E-02  0.9301335E-01
        1   -1    0    0  501    0  0.00000000000E+00  0.00000000000E+00  0.12175213589E+04  0.12175213589E+04  0.50400001928E-02 0.  1.
       -1   -1    0    0    0  501  0.00000000000E+00  0.00000000000E+00 -0.20805478891E+03  0.20805478897E+03  0.50400001928E-02 0. -1.
    10030    2    1    2    0    0  0.00000000000E+00  0.00000000000E+00  0.10094665700E+04  0.14255761479E+04  0.10066005154E+04 0.  0.
        4    1    3    3  502    0  0.56037101249E+01  0.50137345277E+03  0.44295592286E+03  0.66904282614E+03  0.12699999809E+01 0.  1.
       -4    1    3    3    0  502 -0.56037101249E+01 -0.50137345277E+03  0.56651064716E+03  0.75653332177E+03  0.12699999809E+01 0. -1.
</event>
<event>
 5   0  0.6022787E-03  0.1017517E+04  0.7818609E-02  0.9289539E-01
       -2   -1    0    0    0  501  0.00000000000E+00  0.00000000000E+00  0.33395190993E+03  0.33395190994E+03  0.25500000920E-02 0.  1.
        2   -1    0    0  501    0  0.00000000000E+00  0.00000000000E+00 -0.77506687994E+03  0.77506687994E+03  0.25500000920E-02 0. -1.
    10030    2    1    2    0    0  0.00000000000E+00  0.00000000000E+00 -0.44111497001E+03  0.11090187899E+04  0.10175167122E+04 0.  0.
        5    1    3    3  502    0  0.13834883243E+03 -0.31005924770E+03 -0.63348852360E+03  0.71875373811E+03  0.46999998093E+01 0. -1.
       -5    1    3    3    0  502 -0.13834883243E+03  0.31005924770E+03  0.19237355359E+03  0.39026505177E+03  0.46999998093E+01 0.  1.
</event>
<event>
 5   0  0.3643002E-03  0.9683529E+03  0.7818609E-02  0.9343952E-01
        1   -1    0    0  501    0  0.00000000000E+00  0.00000000000E+00  0.36365920138E+03  0.36365920141E+03  0.50400001928E-02 0. -1.
       -1   -1    0    0    0  501  0.00000000000E+00  0.00000000000E+00 -0.64463330912E+03  0.64463330914E+03  0.50400001928E-02 0.  1.
    10030    2    1    2    0    0  0.00000000000E+00  0.00000000000E+00 -0.28097410774E+03  0.10082925106E+04  0.96835289932E+03 0.  0.
        2    1    3    3  502    0  0.37101101376E+03 -0.71020633737E+02  0.17488079401E+03  0.41626481339E+03  0.25500000920E-02 0. -1.
       -2    1    3    3    0  502 -0.37101101376E+03  0.71020633737E+02 -0.45585490175E+03  0.59202769716E+03  0.25500000920E-02 0.  1.
</event>
<event>
 5   0  0.3608845E-03  0.9841753E+03  0.7818609E-02  0.9326073E-01
       -1   -1    0    0    0  501  0.00000000000E+00  0.00000000000E+00  0.29927218761E+03  0.29927218765E+03  0.50400001928E-02 0. -1.
        1   -1    0    0  501    0  0.00000000000E+00  0.00000000000E+00 -0.80913055297E+03  0.80913055299E+03  0.50400001928E-02 0.  1.
    10030    2    1    2    0    0  0.00000000000E+00  0.00000000000E+00 -0.50985836536E+03  0.11084027406E+04  0.98417533130E+03 0.  0.
        1    1    3    3  502    0 -0.26257198752E+03 -0.28039676298E+03  0.91435555891E+02  0.39487574530E+03  0.50400001928E-02 0. -1.
       -1    1    3    3    0  502  0.26257198752E+03  0.28039676298E+03 -0.60129392125E+03  0.71352699534E+03  0.50400001928E-02 0.  1.
</event>
<event>
 5   0  0.3640180E-03  0.9722135E+03  0.7818609E-02  0.9339557E-01
        1   -1    0    0  501    0  0.00000000000E+00  0.00000000000E+00  0.68730336068E+03  0.68730336070E+03  0.50400001928E-02 0. -1.
       -1   -1    0    0    0  501  0.00000000000E+00  0.00000000000E+00 -0.34380708810E+03  0.34380708814E+03  0.50400001928E-02 0.  1.
    10030    2    1    2    0    0  0.00000000000E+00  0.00000000000E+00  0.34349627257E+03  0.10311104488E+04  0.97221348912E+03 0.  0.
        5    1    3    3  502    0 -0.26798450515E+02 -0.34838415808E+03 -0.18664012463E+03  0.39616449194E+03  0.46999998093E+01 0.  1.
       -5    1    3    3    0  502  0.26798450515E+02  0.34838415808E+03  0.53013639720E+03  0.63494595690E+03  0.46999998093E+01 0. -1.
</event>
<event>
 5   0  0.3569359E-03  0.9988999E+03  0.7818609E-02  0.9309752E-01
       -1   -1    0    0    0  501  0.00000000000E+00  0.00000000000E+00  0.34307403792E+03  0.34307403796E+03  0.50400001928E-02 0.  1.
        1   -1    0    0  501    0  0.00000000000E+00  0.00000000000E+00 -0.72710327014E+03  0.72710327016E+03  0.50400001928E-02 0. -1.
    10030    2    1    2    0    0  0.00000000000E+00  0.00000000000E+00 -0.38402923222E+03  0.10701773081E+04  0.99889990470E+03 0.  0.
        4    1    3    3  502    0 -0.34708439023E+03  0.21931233247E+03  0.11267864237E+03  0.42575058716E+03  0.12699999809E+01 0.  1.
       -4    1    3    3    0  502  0.34708439023E+03 -0.21931233247E+03 -0.49670787459E+03  0.64442672097E+03  0.12699999809E+01 0. -1.
</event>
<event>
 5   0  0.6606947E-03  0.9735993E+03  0.7818609E-02  0.9337984E-01
        2   -1    0    0  501    0  0.00000000000E+00  0.00000000000E+00  0.92095355381E+03  0.92095355382E+03  0.25500000920E-02 0. -1.
       -2   -1    0    0    0  501  0.00000000000E+00  0.00000000000E+00 -0.25731362935E+03  0.25731362937E+03  0.25500000920E-02 0.  1.
    10030    2    1    2    0    0  0.00000000000E+00  0.00000000000E+00  0.66363992446E+03  0.11782671832E+04  0.97359930445E+03 0.  0.
        1    1    3    3  502    0 -0.45710911307E+03  0.11085981643E+03  0.18000991839E+03  0.50362904096E+03  0.50400001928E-02 0.  1.
       -1    1    3    3    0  502  0.45710911307E+03 -0.11085981643E+03  0.48363000607E+03  0.67463814222E+03  0.50400001928E-02 0. -1.
</event>
<event>
 5   0  0.3608845E-03  0.1002589E+04  0.7818609E-02  0.9305710E-01
       -1   -1    0    0    0  501  0.00000000000E+00  0.00000000000E+00  0.27259240146E+03  0.27259240150E+03  0.50400001928E-02 0. -1.
        1   -1    0    0  501    0  0.00000000000E+00  0.00000000000E+00 -0.92187532592E+03  0.92187532593E+03  0.50400001928E-02 0.  1.
    10030    2    1    2    0    0  0.00000000000E+00  0.00000000000E+00 -0.64928292446E+03  0.11944677274E+04  0.10025890663E+04 0.  0.
        1    1    3    3  502    0  0.22053783641E+03 -0.39851904685E+03 -0.75184374831E+02  0.46163520039E+03  0.50400001928E-02 0. -1.
       -1    1    3    3    0  502 -0.22053783641E+03  0.39851904685E+03 -0.57409854963E+03  0.73283252705E+03  0.50400001928E-02 0.  1.
</event>
<event>
 5   0  0.6376961E-03  0.9973108E+03  0.7818609E-02  0.9311499E-01
        2   -1    0    0  501    0  0.00000000000E+00  0.00000000000E+00  0.10402316461E+04  0.10402316461E+04  0.25500000920E-02 0.  1.
       -2   -1    0    0    0  501  0.00000000000E+00  0.00000000000E+00 -0.23904024546E+03  0.23904024548E+03  0.25500000920E-02 0. -1.
    10030    2    1    2    0    0  0.00000000000E+00  0.00000000000E+00  0.80119140059E+03  0.12792718915E+04  0.99731084026E+03 0.  0.
        3    1    3    3  502    0  0.19523029253E+03  0.34041834130E+03  0.79524405821E+03  0.88679909592E+03  0.10100000352E+00 0.  1.
       -3    1    3    3    0  502 -0.19523029253E+03 -0.34041834130E+03  0.59473423869E+01  0.39247279562E+03  0.10100000352E+00 0. -1.
</event>
<event>
 5   0  0.6606947E-03  0.9695677E+03  0.7818609E-02  0.9342567E-01
       -2   -1    0    0    0  501  0.00000000000E+00  0.00000000000E+00  0.27718293583E+03  0.27718293584E+03  0.25500000920E-02 0.  1.
        2   -1    0    0  501    0  0.00000000000E+00  0.00000000000E+00 -0.84787098806E+03  0.84787098806E+03  0.25500000920E-02 0. -1.
    10030    2    1    2    0    0  0.00000000000E+00  0.00000000000E+00 -0.57068805223E+03  0.11250539239E+04  0.96956767620E+03 0.  0.
        1    1    3    3  502    0 -0.18016229331E+03  0.14687718736E+03 -0.77898967459E+03  0.81293066940E+03  0.50400001928E-02 0. -1.
       -1    1    3    3    0  502  0.18016229331E+03 -0.14687718736E+03  0.20830162236E+03  0.31212325450E+03  0.50400001928E-02 0.  1.
</event>
<event>
 5   0  0.6606947E-03  0.9198010E+03  0.7818609E-02  0.9401162E-01
       -2   -1    0    0    0  501  0.00000000000E+00  0.00000000000E+00  0.15041379768E+03  0.15041379770E+03  0.25500000920E-02 0. -1.
        2   -1    0    0  501    0  0.00000000000E+00  0.00000000000E+00 -0.14061772590E+04  0.14061772590E+04  0.25500000920E-02 0.  1.
    10030    2    1    2    0    0  0.00000000000E+00  0.00000000000E+00 -0.12557634613E+04  0.15565910567E+04  0.91980098229E+03 0.  0.
        1    1    3    3  502    0  0.76777242916E+02  0.34795742520E+02  0.13722895246E+03  0.16105053289E+03  0.50400001928E-02 0. -1.
       -1    1    3    3    0  502 -0.76777242916E+02 -0.34795742520E+02 -0.13929924138E+04  0.13955405238E+04  0.50400001928E-02 0.  1.
</event>
<event>
 5   0  0.6022787E-03  0.9836471E+03  0.7818609E-02  0.9326664E-01
       -2   -1    0    0    0  501  0.00000000000E+00  0.00000000000E+00  0.17979107844E+03  0.17979107845E+03  0.25500000920E-02 0. -1.
        2   -1    0    0  501    0  0.00000000000E+00  0.00000000000E+00 -0.13453972000E+04  0.13453972000E+04  0.25500000920E-02 0.  1.
    10030    2    1    2    0    0  0.00000000000E+00  0.00000000000E+00 -0.11656061216E+04  0.15251882784E+04  0.98364711869E+03 0.  0.
        5    1    3    3  502    0 -0.17557462934E+03 -0.34726069554E+03 -0.11647350743E+03  0.40620759355E+03  0.46999998093E+01 0. -1.
       -5    1    3    3    0  502  0.17557462934E+03  0.34726069554E+03 -0.10491326141E+04  0.11189806849E+04  0.46999998093E+01 0.  1.
</event>
<event>
 5   0  0.3640180E-03  0.9863843E+03  0.7818609E-02  0.9323606E-01
       -1   -1    0    0    0  501  0.00000000000E+00  0.00000000000E+00  0.41825308390E+03  0.41825308393E+03  0.50400001928E-02 0.  1.
        1   -1    0    0  501    0  0.00000000000E+00  0.00000000000E+00 -0.58155816237E+03  0.58155816239E+03  0.50400001928E-02 0. -1.
    10030    2    1    2    0    0  0.00000000000E+00  0.00000000000E+00 -0.16330507847E+03  0.99981124632E+03  0.98638429611E+03 0.  0.
        5    1    3    3  502    0  0.47891581799E+03 -0.11219718942E+03 -0.45561181986E+02  0.49401060853E+03  0.46999998093E+01 0. -1.
       -5    1    3    3    0  502 -0.47891581799E+03  0.11219718942E+03 -0.11774389648E+03  0.50580063779E+03  0.46999998093E+01 0.  1.
</event>
<event>
 5   0  0.6376961E-03  0.9631651E+03  0.7818609E-02  0.9349894E-01
       -2   -1    0    0    0  501  0.00000000000E+00  0.00000000000E+00  0.29008931952E+03  0.29008931953E+03  0.25500000920E-02 0. -1.
        2   -1    0    0  501    0  0.00000000000E+00  0.00000000000E+00 -0.79948402282E+03  0.79948402282E+03  0.25500000920E-02 0.  1.
    10030    2    1    2    0    0  0.00000000000E+00  0.00000000000E+00 -0.50939470330E+03  0.10895733424E+04  0.96316514919E+03 0.  0.
        3    1    3    3  502    0 -0.46652051034E+03  0.10108113896E+03 -0.32680447956E+03  0.57849802185E+03  0.10100000352E+00 0.  1.
       -3    1    3    3    0  502  0.46652051034E+03 -0.10108113896E+03 -0.18259022374E+03  0.51107532051E+03  0.10100000352E+00 0. -1.
</event>
<event>
 5   0  0.3643002E-03  0.9993124E+03  0.7818609E-02  0.9309299E-01
        1   -1    0    0  501    0  0.00000000000E+00  0.00000000000E+00  0.11581880264E+04  0.11581880264E+04  0.50400001928E-02 0.  1.
       -1   -1    0    0    0  501  0.00000000000E+00  0.00000000000E+00 -0.21555767271E+03  0.21555767277E+03  0.50400001928E-02 0. -1.
    10030    2    1    2    0    0  0.00000000000E+00  0.00000000000E+00  0.94263035367E+03  0.13737456992E+04  0.99931239474E+03 0.  0.
        2    1    3    3  502    0 -0.96445615733E+01  0.39410326452E+03  0.89333838926E+03  0.97645474980E+03  0.25500000920E-02 0.  1.
       -2    1    3    3    0  502  0.96445615733E+01 -0.39410326452E+03  0.49291964406E+02  0.39729094935E+03  0.25500000920E-02 0. -1.
</event>
<event>
 5   0  0.3608845E-03  0.9973097E+03  0.7818609E-02  0.9311500E-01
       -1   -1    0    0    0  501  0.00000000000E+00  0.00000000000E+00  0.33768970033E+03  0.33768970037E+03  0.50400001928E-02 0. -1.
        1   -1    0    0  501    0  0.00000000000E+00  0.00000000000E+00 -0.73634663339E+03  0.73634663340E+03  0.50400001928E-02 0.  1.
    10030    2    1    2    0    0  0.00000000000E+00  0.00000000000E+00 -0.39865693306E+03  0.10740363338E+04  0.99730972921E+03 0.  0.
        1    1    3    3  502    0  0.37646958688E+02 -0.23668389237E+03  0.27160082679E+03  0.36222033011E+03  0.50400001928E-02 0. -1.
       -1    1    3    3    0  502 -0.37646958688E+02  0.23668389237E+03 -0.67025775985E+03  0.71181600366E+03  0.50400001928E-02 0.  1.
</event>
<event>
 5   0  0.3466598E-03  0.1005521E+04  0.7818609E-02  0.9302510E-01
        1   -1    0    0  501    0  0.00000000000E+00  0.00000000000E+00  0.11613497619E+04  0.11613497619E+04  0.50400001928E-02 0. -1.
       -1   -1    0    0    0  501  0.00000000000E+00  0.00000000000E+00 -0.21765025112E+03  0.21765025118E+03  0.50400001928E-02 0.  1.
    10030    2    1    2    0    0  0.00000000000E+00  0.00000000000E+00  0.94369951076E+03  0.13790000131E+04  0.10055208946E+04 0.  0.
        3    1    3    3  502    0  0.38730417776E+03  0.25599065646E+03  0.20722334240E+03  0.50840659530E+03  0.10100000352E+00 0.  1.
       -3    1    3    3    0  502 -0.38730417776E+03 -0.25599065646E+03  0.73647616836E+03  0.87059341778E+03  0.10100000352E+00 0. -1.
</event>
<event>
 5   0  0.3466598E-03  0.1000909E+04  0.7818609E-02  0.9307548E-01
        1   -1    0    0  501    0  0.00000000000E+00  0.00000000000E+00  0.69226496313E+03  0.69226496315E+03  0.50400001928E-02 0.  1.
       -1   -1    0    0    0  501  0.00000000000E+00  0.00000000000E+00 -0.36179050987E+03  0.36179050990E+03  0.50400001928E-02 0. -1.
    10030    2    1    2    0    0  0.00000000000E+00  0.00000000000E+00  0.33047445326E+03  0.10540554731E+04  0.10009093745E+04 0.  0.
        3    1    3    3  502    0 -0.14901563285E+03 -0.16824907164E+03 -0.30565352012E+03  0.37939095074E+03  0.10100000352E+00 0. -1.
       -3    1    3    3    0  502  0.14901563285E+03  0.16824907164E+03  0.63612797339E+03  0.67466452231E+03  0.10100000352E+00 0.  1.
</event>
<event>
 5   0  0.6199539E-03  0.9943564E+03  0.7818609E-02  0.9314756E-01
       -2   -1    0    0    0  501  0.00000000000E+00  0.00000000000E+00  0.22243613191E+03  0.22243613192E+03  0.25500000920E-02 0.  1.
        2   -1    0    0  501    0  0.00000000000E+00  0.00000000000E+00 -0.11112680432E+04  0.11112680432E+04  0.25500000920E-02 0. -1.
    10030    2    1    2    0    0  0.00000000000E+00  0.00000000000E+00 -0.88883191132E+03  0.13337041752E+04  0.99435640504E+03 0.  0.
        2    1    3    3  502    0 -0.60277519578E+02 -0.48473838217E+02  0.21431618388E+03  0.22784757852E+03  0.25500000920E-02 0.  1.
       -2    1    3    3    0  502  0.60277519578E+02  0.48473838217E+02 -0.11031480952E+04  0.11058565966E+04  0.25500000920E-02 0. -1.
</event>
<event>
 5   0  0.3640180E-03  0.9935341E+03  0.7818609E-02  0.9315665E-01
       -1   -1    0    0    0  501  0.00000000000E+00  0.00000000000E+00  0.19053525391E+03  0.19053525398E+03  0.50400001928E-02 0. -1.
        1   -1    0    0  501    0  0.00000000000E+00  0.00000000000E+00 -0.12951803498E+04  0.12951803498E+04  0.50400001928E-02 0.  1.
    10030    2    1    2    0    0  0.00000000000E+00  0.00000000000E+00 -0.11046450959E+04  0.14857156038E+04  0.99353413000E+03 0.  0.
        5    1    3    3  502    0  0.97526434928E+02 -0.36333758737E+03 -0.10374125297E+04  0.11035272787E+04  0.46999998093E+01 0.  1.
       -5    1    3    3    0  502 -0.97526434928E+02  0.36333758737E+03 -0.67232566137E+02  0.38218832511E+03  0.46999998093E+01 0. -1.
</event>
<event>
 5   0  0.6022787E-03  0.1003536E+04  0.7818609E-02  0.9304675E-01
        2   -1    0    0  501    0  0.00000000000E+00  0.00000000000E+00  0.52116845662E+03  0.52116845663E+03  0.25500000920E-02 0. -1.
       -2   -1    0    0    0  501  0.00000000000E+00  0.00000000000E+00 -0.48309006216E+03  0.48309006216E+03  0.25500000920E-02 0.  1.
    10030    2    1    2    0    0  0.00000000000E+00  0.00000000000E+00  0.38078394467E+02  0.10042585188E+04  0.10035363513E+04 0.  0.
        5    1    3    3  502    0 -0.27130199372E+03  0.14104745026E+03 -0.37905363074E+03  0.48703480368E+03  0.46999998093E+01 0.  1.
       -5    1    3    3    0  502  0.27130199372E+03 -0.14104745026E+03  0.41713202521E+03  0.51722371511E+03  0.46999998093E+01 0. -1.
</event>
<event>
 5   0  0.3643002E-03  0.1001895E+04  0.7818609E-02  0.9306469E-01
       -1   -1    0    0    0  501  0.00000000000E+00  0.00000000000E+00  0.22443652369E+03  0.22443652375E+03  0.50400001928E-02 0. -1.
        1   -1    0    0  501    0  0.00000000000E+00  0.00000000000E+00 -0.11181259594E+04  0.11181259594E+04  0.50400001928E-02 0.  1.
    10030    2    1    2    0    0  0.00000000000E+00  0.00000000000E+00 -0.89368943568E+03  0.13425624831E+04  0.10018948117E+04 0.  0.
        2    1    3    3  502    0  0.26474200554E+03 -0.34865487600E+03 -0.77316105360E+03  0.88849680183E+03  0.25500000920E-02 0.  1.
       -2    1    3    3    0  502 -0.26474200554E+03  0.34865487600E+03 -0.12052838208E+03  0.45406568131E+03  0.25500000920E-02 0. -1.
</event>
<event>
 5   0  0.2417750E-03  0.1033029E+04  0.7818609E-02  0.9273043E-01
        4   -1    0    0  501    0  0.00000000000E+00  0.00000000000E+00  0.10058100067E+04  0.10058108085E+04  0.12699999809E+01 0. -1.
       -4   -1    0    0    0  501  0.00000000000E+00  0.00000000000E+00 -0.26524388930E+03  0.26524692969E+03  0.12699999809E+01 0.  1.
    10030    2    1    2    0    0  0.00000000000E+00  0.00000000000E+00  0.74056611741E+03  0.12710577382E+04  0.10330293314E+04 0.  0.
        1    1    3    3  502    0  0.24073875818E+03 -0.79196927085E+02 -0.18348713209E+03  0.31288149612E+03  0.50400001928E-02 0.  1.
       -1    1    3    3    0  502 -0.24073875818E+03  0.79196927085E+02  0.92405324950E+03  0.95817624208E+03  0.50400001928E-02 0. -1.
</event>
<event>
 5   0  0.3608845E-03  0.9996888E+03  0.7818609E-02  0.9308886E-01
       -1   -1    0    0    0  501  0.00000000000E+00  0.00000000000E+00  0.21839520834E+03  0.21839520840E+03  0.50400001928E-02 0. -1.
        1   -1    0    0  501    0  0.00000000000E+00  0.00000000000E+00 -0.11440014319E+04  0.11440014319E+04  0.50400001928E-02 0.  1.
    10030    2    1    2    0    0  0.00000000000E+00  0.00000000000E+00 -0.92560622357E+03  0.13623966403E+04  0.99968881381E+03 0.  0.
        1    1    3    3  502    0  0.13532622269E+03  0.13322704242E+02 -0.11183096129E+04  0.11265465242E+04  0.50400001928E-02 0.  1.
       -1    1    3    3    0  502 -0.13532622269E+03 -0.13322704242E+02  0.19270338929E+03  0.23585011610E+03  0.50400001928E-02 0. -1.
</event>
<event>
 5   0  0.3643002E-03  0.1000008E+04  0.7818609E-02  0.9308536E-01
        1   -1    0    0  501    0  0.00000000000E+00  0.00000000000E+00  0.63047620732E+03  0.63047620734E+03  0.50400001928E-02 0. -1.
       -1   -1    0    0    0  501  0.00000000000E+00  0.00000000000E+00 -0.39653196390E+03  0.39653196393E+03  0.50400001928E-02 0.  1.
    10030    2    1    2    0    0  0.00000000000E+00  0.00000000000E+00  0.23394424342E+03  0.10270081713E+04  0.10000079374E+04 0.  0.
        2    1    3    3  502    0 -0.44010164523E+03 -0.23708534099E+03  0.10644591494E+03  0.51110629996E+03  0.25500000920E-02 0. -1.
       -2    1    3    3    0  502  0.44010164523E+03  0.23708534099E+03  0.12749832848E+03  0.51590187131E+03  0.25500000920E-02 0.  1.
</event>
<event>
 5   0  0.6606947E-03  0.9990799E+03  0.7818609E-02  0.9309555E-01
       -2   -1    0    0    0  501  0.00000000000E+00  0.00000000000E+00  0.17300276947E+03  0.17300276949E+03  0.25500000920E-02 0. -1.
        2   -1    0    0  501    0  0.00000000000E+00  0.00000000000E+00 -0.14424054458E+04  0.14424054458E+04  0.25500000920E-02 0.  1.
    10030    2    1    2    0    0  0.00000000000E+00  0.00000000000E+00 -0.12694026763E+04  0.16154082153E+04  0.99907985035E+03 0.  0.
        1    1    3    3  502    0  0.20065550375E+03 -0.45268553541E+03 -0.74138353919E+03  0.89153596526E+03  0.50400001928E-02 0. -1.
       -1    1    3    3    0  502 -0.20065550375E+03  0.45268553541E+03 -0.52801913713E+03  0.72387225002E+03  0.50400001928E-02 0.  1.
</event>
<event>
 5   0  0.6606947E-03  0.9911160E+03  0.7818609E-02  0.9318343E-01
       -2   -1    0    0    0  501  0.00000000000E+00  0.00000000000E+00  0.10590694716E+04  0.10590694716E+04  0.25500000920E-02 0.  1.
        2   -1    0    0  501    0  0.00000000000E+00  0.00000000000E+00 -0.23188065495E+03  0.23188065496E+03  0.25500000920E-02 0. -1.
    10030    2    1    2    0    0  0.00000000000E+00  0.00000000000E+00  0.82718881661E+03  0.12909501265E+04  0.99111598254E+03 0.  0.
        1    1    3    3  502    0 -0.25107265068E+03  0.49113000114E+02 -0.13921546526E+03  0.29125677416E+03  0.50400001928E-02 0. -1.
       -1    1    3    3    0  502  0.25107265068E+03 -0.49113000114E+02  0.96640428187E+03  0.99969335236E+03  0.50400001928E-02 0.  1.
</event>
<event>
 5   0  0.2417750E-03  0.9921323E+03  0.7818609E-02  0.9317216E-01
       -3   -1    0    0    0  501  0.00000000000E+00  0.00000000000E+00  0.38971807024E+03  0.38971808333E+03  0.10100000352E+00 0. -1.
        3   -1    0    0  501    0  0.00000000000E+00  0.00000000000E+00 -0.63143493418E+03  0.63143494226E+03  0.10100000352E+00 0.  1.
    10030    2    1    2    0    0  0.00000000000E+00  0.00000000000E+00 -0.24171686394E+03  0.10211530256E+04  0.99213227916E+03 0.  0.
        2    1    3    3  502    0 -0.12905827559E+03 -0.39576116542E+03 -0.39856297850E+03  0.57631188292E+03  0.25500000920E-02 0.  1.
       -2    1    3    3    0  502  0.12905827559E+03  0.39576116542E+03  0.15684611456E+03  0.44484114267E+03  0.25500000920E-02 0. -1.
</event>
<event>
 5   0  0.3569359E-03  0.1000310E+04  0.7818609E-02  0.9308205E-01
        1   -1    0    0  501    0  0.00000000000E+00  0.00000000000E+00  0.77200247738E+03  0.77200247740E+03  0.50400001928E-02 0. -1.
       -1   -1    0    0    0  501  0.00000000000E+00  0.00000000000E+00 -0.32403374914E+03  0.32403374918E+03  0.50400001928E-02 0.  1.
    10030    2    1    2    0    0  0.00000000000E+00  0.00000000000E+00  0.44796872825E+03  0.10960362266E+04  0.10003096663E+04 0.  0.
        4    1    3    3  502    0  0.17189610745E+03 -0.18548209327E+02  0.73821646496E+03  0.75819355699E+03  0.12699999809E+01 0. -1.
       -4    1    3    3    0  502 -0.17189610745E+03  0.18548209327E+02 -0.29024773671E+03  0.33784266959E+03  0.12699999809E+01 0.  1.
</event>
<event>
 5   0  0.6022787E-03  0.9958954E+03  0.7818609E-02  0.9313058E-01
        2   -1    0    0  501    0  0.00000000000E+00  0.00000000000E+00  0.10095977207E+04  0.10095977207E+04  0.25500000920E-02 0. -1.
       -2   -1    0    0    0  501  0.00000000000E+00  0.00000000000E+00 -0.24559474940E+03  0.24559474941E+03  0.25500000920E-02 0.  1.
    10030    2    1    2    0    0  0.00000000000E+00  0.00000000000E+00  0.76400297132E+03  0.12551924701E+04  0.99589537448E+03 0.  0.
        5    1    3    3  502    0 -0.16985578800E+03  0.31194479375E+02 -0.20661191154E+03  0.26932258770E+03  0.46999998093E+01 0.  1.
       -5    1    3    3    0  502  0.16985578800E+03 -0.31194479375E+02  0.97061488286E+03  0.98586988243E+03  0.46999998093E+01 0. -1.
</event>
<event>
 5   0  0.3640180E-03  0.9904693E+03  0.7818609E-02  0.9319060E-01
       -1   -1    0    0    0  501  0.00000000000E+00  0.00000000000E+00  0.48066729677E+03  0.48066729679E+03  0.50400001928E-02 0. -1.
        1   -1    0    0  501    0  0.00000000000E+00  0.00000000000E+00 -0.51024347819E+03  0.51024347822E+03  0.50400001928E-02 0.  1.
    10030    2    1    2    0    0  0.00000000000E+00  0.00000000000E+00 -0.29576181428E+02  0.99091077501E+03  0.99046928954E+03 0.  0.
        5    1    3    3  502    0  0.37054404092E+03 -0.30988431339E+03  0.94366404881E+02  0.49219740177E+03  0.46999998093E+01 0. -1.
       -5    1    3    3    0  502 -0.37054404092E+03  0.30988431339E+03 -0.12394258631E+03  0.49871337324E+03  0.46999998093E+01 0.  1.
</event>
<event>
 5   0  0.3643002E-03  0.9534645E+03  0.7818609E-02  0.9361110E-01
       -1   -1    0    0    0  501  0.00000000000E+00  0.00000000000E+00  0.11833768273E+03  0.11833768284E+03  0.50400001928E-02 0. -1.
        1   -1    0    0  501    0  0.00000000000E+00  0.00000000000E+00 -0.19205515810E+04  0.19205515811E+04  0.50400001928E-02 0.  1.
    10030    2    1    2    0    0  0.00000000000E+00  0.00000000000E+00 -0.18022138983E+04  0.20388892639E+04  0.95346446979E+03 0.  0.
        2    1    3    3  502    0 -0.17378409064E+02 -0.30766565985E+03 -0.12326540953E+03  0.33189535783E+03  0.25500000920E-02 0. -1.
       -2    1    3    3    0  502  0.17378409064E+02  0.30766565985E+03 -0.16789484888E+04  0.17069939061E+04  0.25500000920E-02 0.  1.
</event>
<event>
 5   0  0.6022787E-03  0.9995948E+03  0.7818609E-02  0.9308989E-01
       -2   -1    0    0    0  501  0.00000000000E+00  0.00000000000E+00  0.21703778993E+03  0.21703778995E+03  0.25500000920E-02 0. -1.
        2   -1    0    0  501    0  0.00000000000E+00  0.00000000000E+00 -0.11509397642E+04  0.11509397642E+04  0.25500000920E-02 0.  1.
    10030    2    1    2    0    0  0.00000000000E+00  0.00000000000E+00 -0.93390197424E+03  0.13679775541E+04  0.99959476345E+03 0.  0.
        5    1    3    3  502    0 -0.14487344403E+03 -0.50652582701E+02  0.18396026414E+03  0.23961942263E+03  0.46999998093E+01 0. -1.
       -5    1    3    3    0  502  0.14487344403E+03  0.50652582701E+02 -0.11178622384E+04  0.11283581315E+04  0.46999998093E+01 0.  1.
</event>
<event>
 5   0  0.6606947E-03  0.1001493E+04  0.7818609E-02  0.9306909E-01
        2   -1    0    0  501    0  0.00000000000E+00  0.00000000000E+00  0.59648991159E+03  0.59648991159E+03  0.25500000920E-02 0. -1.
       -2   -1    0    0    0  501  0.00000000000E+00  0.00000000000E+00 -0.42037065971E+03  0.42037065972E+03  0.25500000920E-02 0.  1.
    10030    2    1    2    0    0  0.00000000000E+00  0.00000000000E+00  0.17611925187E+03  0.10168605713E+04  0.10014926014E+04 0.  0.
        1    1    3    3  502    0 -0.26184069081E+03 -0.30754465498E+03  0.38857877428E+03  0.56047990689E+03  0.50400001928E-02 0. -1.
       -1    1    3    3    0  502  0.26184069081E+03  0.30754465498E+03 -0.21245952241E+03  0.45638066443E+03  0.50400001928E-02 0.  1.
</event>
<event>
 5   0  0.3643002E-03  0.9691260E+03  0.7818609E-02  0.9343070E-01
        1   -1    0    0  501    0  0.00000000000E+00  0.00000000000E+00  0.84623984875E+03  0.84623984877E+03  0.50400001928E-02 0. -1.
       -1   -1    0    0    0  501  0.00000000000E+00  0.00000000000E+00 -0.27746425234E+03  0.27746425239E+03  0.50400001928E-02 0.  1.
    10030    2    1    2    0    0  0.00000000000E+00  0.00000000000E+00  0.56877559641E+03  0.11237041012E+04  0.96912601239E+03 0.  0.
        2    1    3    3  502    0  0.23276276198E+03  0.23955456818E+02 -0.20761435035E+03  0.31281957380E+03  0.25500000920E-02 0.  1.
       -2    1    3    3    0  502 -0.23276276198E+03 -0.23955456818E+02  0.77638994676E+03  0.81088452736E+03  0.25500000920E-02 0. -1.
</event>
<event>
 5   0  0.3640180E-03  0.9957442E+03  0.7818609E-02  0.9313225E-01
       -1   -1    0    0    0  501  0.00000000000E+00  0.00000000000E+00  0.20410963339E+03  0.20410963346E+03  0.50400001928E-02 0. -1.
        1   -1    0    0  501    0  0.00000000000E+00  0.00000000000E+00 -0.12144289609E+04  0.12144289609E+04  0.50400001928E-02 0.  1.
    10030    2    1    2    0    0  0.00000000000E+00  0.00000000000E+00 -0.10103193275E+04  0.14185385944E+04  0.99574424436E+03 0.  0.
        5    1    3    3  502    0 -0.32049750580E+03 -0.26843901919E+03 -0.89026712148E+03  0.98355264009E+03  0.46999998093E+01 0.  1.
       -5    1    3    3    0  502  0.32049750580E+03  0.26843901919E+03 -0.12005220602E+03  0.43498595427E+03  0.46999998093E+01 0. -1.
</event>
<event>
 5   0  0.3466598E-03  0.1021890E+04  0.7818609E-02  0.9284857E-01
        1   -1    0    0  501    0  0.00000000000E+00  0.00000000000E+00  0.16501015388E+04  0.16501015388E+04  0.50400001928E-02 0. -1.
       -1   -1    0    0    0  501  0.00000000000E+00  0.00000000000E+00 -0.15821143471E+03  0.15821143479E+03  0.50400001928E-02 0.  1.
    10030    2    1    2    0    0  0.00000000000E+00  0.00000000000E+00  0.14918901040E+04  0.18083129736E+04  0.10218902719E+04 0.  0.
        3    1    3    3  502    0  0.12917258262E+03  0.44369765720E+03  0.11316630181E+04  0.12223806133E+04  0.10100000352E+00 0. -1.
       -3    1    3    3    0  502 -0.12917258262E+03 -0.44369765720E+03  0.36022708594E+03  0.58593236022E+03  0.10100000352E+00 0.  1.
</event>
<event>
 5   0  0.3466598E-03  0.9973131E+03  0.7818609E-02  0.9311497E-01
        1   -1    0    0  501    0  0.00000000000E+00  0.00000000000E+00  0.38628829734E+03  0.38628829738E+03  0.50400001928E-02 0.  1.
       -1   -1    0    0    0  501  0.00000000000E+00  0.00000000000E+00 -0.64371191189E+03  0.64371191191E+03  0.50400001928E-02 0. -1.
    10030    2    1    2    0    0  0.00000000000E+00  0.00000000000E+00 -0.25742361455E+03  0.10300002093E+04  0.99731314731E+03 0.  0.
        3    1    3    3  502    0  0.17699261647E+03  0.34275115819E+03 -0.45506486619E+03  0.59656415025E+03  0.10100000352E+00 0. -1.
       -3    1    3    3    0  502 -0.17699261647E+03 -0.34275115819E+03  0.19764125164E+03  0.43343605904E+03  0.10100000352E+00 0.  1.
</event>
<event>
 5   0  0.3640180E-03  0.1003341E+04  0.7818609E-02  0.9304888E-01
        1   -1    0    0  501    0  0.00000000000E+00  0.00000000000E+00  0.87058480002E+03  0.87058480003E+03  0.50400001928E-02 0.  1.
       -1   -1    0    0    0  501  0.00000000000E+00  0.00000000000E+00 -0.28908560146E+03  0.28908560150E+03  0.50400001928E-02 0. -1.
    10030    2    1    2    0    0  0.00000000000E+00  0.00000000000E+00  0.58149919856E+03  0.11596704015E+04  0.10033414784E+04 0.  0.
        5    1    3    3  502    0  0.33774394651E+03 -0.75607682700E+02 -0.12895993923E+03  0.36937819510E+03  0.46999998093E+01 0. -1.
       -5    1    3    3    0  502 -0.33774394651E+03  0.75607682700E+02  0.71045913779E+03  0.79029220644E+03  0.46999998093E+01 0.  1.
</event>
<event>
 5   0  0.3569359E-03  0.1016060E+04  0.7818609E-02  0.9291103E-01
        1   -1    0    0  501    0  0.00000000000E+00  0.00000000000E+00  0.21451129375E+04  0.21451129375E+04  0.50400001928E-02 0.  1.
       -1   -1    0    0    0  501  0.00000000000E+00  0.00000000000E+00 -0.12031754083E+03  0.12031754093E+03  0.50400001928E-02 0. -1.
    10030    2    1    2    0    0  0.00000000000E+00  0.00000000000E+00  0.20247953967E+04  0.22654304785E+04  0.10160604580E+04 0.  0.
        4    1    3    3  502    0 -0.49627104833E+03 -0.10295173386E+03  0.10899259696E+04  0.12020084214E+04  0.12699999809E+01 0.  1.
       -4    1    3    3    0  502  0.49627104833E+03  0.10295173386E+03  0.93486942708E+03  0.10634220571E+04  0.12699999809E+01 0. -1.
</event>
<event>
 5   0  0.3466598E-03  0.1002571E+04  0.7818609E-02  0.9305729E-01
       -1   -1    0    0    0  501  0.00000000000E+00  0.00000000000E+00  0.47094173034E+03  0.47094173037E+03  0.50400001928E-02 0. -1.
        1   -1    0    0  501    0  0.00000000000E+00  0.00000000000E+00 -0.53358447103E+03  0.53358447106E+03  0.50400001928E-02 0.  1.
    10030    2    1    2    0    0  0.00000000000E+00  0.00000000000E+00 -0.62642740694E+02  0.10045262014E+04  0.10025710830E+04 0.  0.
        3    1    3    3  502    0 -0.14409014592E+03 -0.43539737284E+03 -0.23408780670E+03  0.51490771394E+03  0.10100000352E+00 0.  1.
       -3    1    3    3    0  502  0.14409014592E+03  0.43539737284E+03  0.17144506600E+03  0.48961848749E+03  0.10100000352E+00 0. -1.
</event>
<event>
 5   0  0.6360455E-03  0.1027238E+04  0.7818609E-02  0.9279165E-01
        2   -1    0    0  501    0  0.00000000000E+00  0.00000000000E+00  0.10643507595E+04  0.10643507595E+04  0.25500000920E-02 0. -1.
       -2   -1    0    0    0  501  0.00000000000E+00  0.00000000000E+00 -0.24785472071E+03  0.24785472073E+03  0.25500000920E-02 0.  1.
    10030    2    1    2    0    0  0.00000000000E+00  0.00000000000E+00  0.81649603874E+03  0.13122054802E+04  0.10272377724E+04 0.  0.
        4    1    3    3  502    0 -0.52747921357E+01  0.43389063931E+03  0.57218098682E+02  0.43768074441E+03  0.12699999809E+01 0.  1.
       -4    1    3    3    0  502  0.52747921357E+01 -0.43389063931E+03  0.75927794006E+03  0.87452473577E+03  0.12699999809E+01 0. -1.
</event>
<event>
 5   0  0.3466598E-03  0.9981937E+03  0.7818609E-02  0.9310528E-01
       -1   -1    0    0    0  501  0.00000000000E+00  0.00000000000E+00  0.44246946018E+03  0.44246946021E+03  0.50400001928E-02 0. -1.
        1   -1    0    0  501    0  0.00000000000E+00  0.00000000000E+00 -0.56297142621E+03  0.56297142623E+03  0.50400001928E-02 0.  1.
    10030    2    1    2    0    0  0.00000000000E+00  0.00000000000E+00 -0.12050196603E+03  0.10054408864E+04  0.99819369479E+03 0.  0.
        3    1    3    3  502    0 -0.30211612755E+03  0.38372910613E+03 -0.16383472321E+03  0.51513494169E+03  0.10100000352E+00 0.  1.
       -3    1    3    3    0  502  0.30211612755E+03 -0.38372910613E+03  0.43332757184E+02  0.49030594475E+03  0.10100000352E+00 0. -1.
</event>
<event>
 5   0  0.6376961E-03  0.9973228E+03  0.7818609E-02  0.9311486E-01
        2   -1    0    0  501    0  0.00000000000E+00  0.00000000000E+00  0.53607579660E+03  0.53607579660E+03  0.25500000920E-02 0. -1.
       -2   -1    0    0    0  501  0.00000000000E+00  0.00000000000E+00 -0.46385823053E+03  0.46385823054E+03  0.25500000920E-02 0.  1.
    10030    2    1    2    0    0  0.00000000000E+00  0.00000000000E+00  0.72217566064E+02  0.99993402715E+03  0.99732275708E+03 0.  0.
        3    1    3    3  502    0 -0.41230777406E+03  0.14598335018E+03  0.27622345080E+03  0.51730865453E+03  0.10100000352E+00 0. -1.
       -3    1    3    3    0  502  0.41230777406E+03 -0.14598335018E+03 -0.20400588474E+03  0.48262537261E+03  0.10100000352E+00 0.  1.
</event>
<event>
 5   0  0.6376961E-03  0.9921823E+03  0.7818609E-02  0.9317161E-01
       -2   -1    0    0    0  501  0.00000000000E+00  0.00000000000E+00  0.53554075959E+03  0.53554075959E+03  0.25500000920E-02 0. -1.
        2   -1    0    0  501    0  0.00000000000E+00  0.00000000000E+00 -0.45954754723E+03  0.45954754724E+03  0.25500000920E-02 0.  1.
    10030    2    1    2    0    0  0.00000000000E+00  0.00000000000E+00  0.75993212352E+02  0.99508830683E+03  0.99218232703E+03 0.  0.
        3    1    3    3  502    0 -0.42821715963E+03  0.24996700648E+03  0.22044292053E+02  0.49632590215E+03  0.10100000352E+00 0. -1.
       -3    1    3    3    0  502  0.42821715963E+03 -0.24996700648E+03  0.53948920300E+02  0.49876240469E+03  0.10100000352E+00 0.  1.
</event>
<event>
 5   0  0.2417750E-03  0.1005742E+04  0.7818609E-02  0.9302269E-01
        4   -1    0    0  501    0  0.00000000000E+00  0.00000000000E+00  0.67224761619E+03  0.67224881582E+03  0.12699999809E+01 0.  1.
       -4   -1    0    0    0  501  0.00000000000E+00  0.00000000000E+00 -0.37616731985E+03  0.37616946370E+03  0.12699999809E+01 0. -1.
    10030    2    1    2    0    0  0.00000000000E+00  0.00000000000E+00  0.29608029634E+03  0.10484182795E+04  0.10057421871E+04 0.  0.
        3    1    3    3  502    0  0.35660682258E+03  0.18498396965E+03  0.46335111620E+03  0.61325505462E+03  0.10100000352E+00 0.  1.
       -3    1    3    3    0  502 -0.35660682258E+03 -0.18498396965E+03 -0.16727081986E+03  0.43516322491E+03  0.10100000352E+00 0. -1.
</event>
<event>
 5   0  0.6022787E-03  0.1013743E+04  0.7818609E-02  0.9293599E-01
       -2   -1    0    0    0  501  0.00000000000E+00  0.00000000000E+00  0.49439928498E+03  0.49439928498E+03  0.25500000920E-02 0.  1.
        2   -1    0    0  501    0  0.00000000000E+00  0.00000000000E+00 -0.51965819276E+03  0.51965819276E+03  0.25500000920E-02 0. -1.
    10030    2    1    2    0    0  0.00000000000E+00  0.00000000000E+00 -0.25258907780E+02  0.10140574777E+04  0.10137428450E+04 0.  0.
        5    1    3    3  502    0  0.75456617483E+02  0.44203522426E+03 -0.24893932566E+03  0.51291492323E+03  0.46999998093E+01 0. -1.
       -5    1    3    3    0  502 -0.75456617483E+02 -0.44203522426E+03  0.22368041788E+03  0.50114255452E+03  0.46999998093E+01 0.  1.
</event>
<event>
 5   0  0.3640180E-03  0.9997156E+03  0.7818609E-02  0.9308857E-01
        1   -1    0    0  501    0  0.00000000000E+00  0.00000000000E+00  0.10180428637E+04  0.10180428637E+04  0.50400001928E-02 0.  1.
       -1   -1    0    0    0  501  0.00000000000E+00  0.00000000000E+00 -0.24542958659E+03  0.24542958664E+03  0.50400001928E-02 0. -1.
    10030    2    1    2    0    0  0.00000000000E+00  0.00000000000E+00  0.77261327713E+03  0.12634724504E+04  0.99971563798E+03 0.  0.
        5    1    3    3  502    0 -0.48055339136E+03 -0.19946943522E+01  0.21255752874E+03  0.52548866189E+03  0.46999998093E+01 0. -1.
       -5    1    3    3    0  502  0.48055339136E+03  0.19946943522E+01  0.56005574839E+03  0.73798378848E+03  0.46999998093E+01 0.  1.
</event>
<event>
 5   0  0.3643002E-03  0.1000827E+04  0.7818609E-02  0.9307638E-01
       -1   -1    0    0    0  501  0.00000000000E+00  0.00000000000E+00  0.32435762780E+03  0.32435762784E+03  0.50400001928E-02 0. -1.
        1   -1    0    0  501    0  0.00000000000E+00  0.00000000000E+00 -0.77202951077E+03  0.77202951079E+03  0.50400001928E-02 0.  1.
    10030    2    1    2    0    0  0.00000000000E+00  0.00000000000E+00 -0.44767188297E+03  0.10963871386E+04  0.10008269795E+04 0.  0.
        2    1    3    3  502    0 -0.11871651017E+03  0.48432485183E+03 -0.26965651462E+03  0.56690282039E+03  0.25500000920E-02 0.  1.
       -2    1    3    3    0  502  0.11871651017E+03 -0.48432485183E+03 -0.17801536834E+03  0.52948431824E+03  0.25500000920E-02 0. -1.
</event>
<event>
 5   0  0.6022787E-03  0.9976417E+03  0.7818609E-02  0.9311135E-01
        2   -1    0    0  501    0  0.00000000000E+00  0.00000000000E+00  0.16546908679E+04  0.16546908679E+04  0.25500000920E-02 0.  1.
       -2   -1    0    0    0  501  0.00000000000E+00  0.00000000000E+00 -0.15037385914E+03  0.15037385916E+03  0.25500000920E-02 0. -1.
    10030    2    1    2    0    0  0.00000000000E+00  0.00000000000E+00  0.15043170088E+04  0.18050647271E+04  0.99764172229E+03 0.  0.
        5    1    3    3  502    0 -0.20534878423E+03  0.10322629480E+03 -0.48818469300E+02  0.23500877445E+03  0.46999998093E+01 0. -1.
       -5    1    3    3    0  502  0.20534878423E+03 -0.10322629480E+03  0.15531354781E+04  0.15700559527E+04  0.46999998093E+01 0.  1.
</event>
<event>
 5   0  0.6606947E-03  0.1004862E+04  0.7818609E-02  0.9303228E-01
       -2   -1    0    0    0  501  0.00000000000E+00  0.00000000000E+00  0.18780729388E+03  0.18780729389E+03  0.25500000920E-02 0.  1.
        2   -1    0    0  501    0  0.00000000000E+00  0.00000000000E+00 -0.13441271440E+04  0.13441271440E+04  0.25500000920E-02 0. -1.
    10030    2    1    2    0    0  0.00000000000E+00  0.00000000000E+00 -0.11563198501E+04  0.15319344379E+04  0.10048619439E+04 0.  0.
        1    1    3    3  502    0 -0.10962666634E+03  0.43476187860E+03 -0.92379634556E+03  0.10268571396E+04  0.50400001928E-02 0. -1.
       -1    1    3    3    0  502  0.10962666634E+03 -0.43476187860E+03 -0.23252350457E+03  0.50507729830E+03  0.50400001928E-02 0.  1.
</event>
<event>
 5   0  0.3643002E-03  0.8783217E+03  0.7818609E-02  0.9453094E-01
       -1   -1    0    0    0  501  0.00000000000E+00  0.00000000000E+00  0.19319146931E+03  0.19319146938E+03  0.50400001928E-02 0. -1.
        1   -1    0    0  501    0  0.00000000000E+00  0.00000000000E+00 -0.99829593655E+03  0.99829593656E+03  0.50400001928E-02 0.  1.
    10030    2    1    2    0    0  0.00000000000E+00  0.00000000000E+00 -0.80510446724E+03  0.11914874059E+04  0.87832171517E+03 0.  0.
        2    1    3    3  502    0  0.29856025192E+03  0.25794034932E+03 -0.14094264345E+03  0.41897049608E+03  0.25500000920E-02 0. -1.
       -2    1    3    3    0  502 -0.29856025192E+03 -0.25794034932E+03 -0.66416182378E+03  0.77251690986E+03  0.25500000920E-02 0.  1.
</event>
<event>
 5   0  0.6606947E-03  0.1003543E+04  0.7818609E-02  0.9304667E-01
        2   -1    0    0  501    0  0.00000000000E+00  0.00000000000E+00  0.22593098970E+03  0.22593098971E+03  0.25500000920E-02 0. -1.
       -2   -1    0    0    0  501  0.00000000000E+00  0.00000000000E+00 -0.11143876474E+04  0.11143876474E+04  0.25500000920E-02 0.  1.
    10030    2    1    2    0    0  0.00000000000E+00  0.00000000000E+00 -0.88845665771E+03  0.13403186371E+04  0.10035431313E+04 0.  0.
        1    1    3    3  502    0  0.41836012945E+03  0.26846712225E+03 -0.53554680608E+03  0.73069157322E+03  0.50400001928E-02 0. -1.
       -1    1    3    3    0  502 -0.41836012945E+03 -0.26846712225E+03 -0.35290985163E+03  0.60962706391E+03  0.50400001928E-02 0.  1.
</event>
<event>
 5   0  0.3569359E-03  0.9358918E+03  0.7818609E-02  0.9381795E-01
        1   -1    0    0  501    0  0.00000000000E+00  0.00000000000E+00  0.88290473737E+03  0.88290473738E+03  0.50400001928E-02 0. -1.
       -1   -1    0    0    0  501  0.00000000000E+00  0.00000000000E+00 -0.24801470405E+03  0.24801470411E+03  0.50400001928E-02 0.  1.
    10030    2    1    2    0    0  0.00000000000E+00  0.00000000000E+00  0.63489003331E+03  0.11309194415E+04  0.93589178260E+03 0.  0.
        4    1    3    3  502    0 -0.14964922686E+03 -0.33047252581E+02  0.85171707020E+03  0.86539620554E+03  0.12699999809E+01 0. -1.
       -4    1    3    3    0  502  0.14964922686E+03  0.33047252581E+02 -0.21682703688E+03  0.26552323594E+03  0.12699999809E+01 0.  1.
</event>
<event>
 5   0  0.2417750E-03  0.1010762E+04  0.7818609E-02  0.9296820E-01
        3   -1    0    0  501    0  0.00000000000E+00  0.00000000000E+00  0.76449981528E+03  0.76449982195E+03  0.10100000352E+00 0. -1.
       -3   -1    0    0    0  501  0.00000000000E+00  0.00000000000E+00 -0.33408740363E+03  0.33408741889E+03  0.10100000352E+00 0.  1.
    10030    2    1    2    0    0  0.00000000000E+00  0.00000000000E+00  0.43041241165E+03  0.10985872408E+04  0.10107616344E+04 0.  0.
        5    1    3    3  502    0  0.25008890215E+03 -0.24445394554E+03  0.61171347679E+03  0.70464009122E+03  0.46999998093E+01 0. -1.
       -5    1    3    3    0  502 -0.25008890215E+03  0.24445394554E+03 -0.18130106514E+03  0.39394714962E+03  0.46999998093E+01 0.  1.
</event>
<event>
 5   0  0.6376961E-03  0.1004511E+04  0.7818609E-02  0.9303611E-01
        2   -1    0    0  501    0  0.00000000000E+00  0.00000000000E+00  0.66493033276E+03  0.66493033277E+03  0.25500000920E-02 0. -1.
       -2   -1    0    0    0  501  0.00000000000E+00  0.00000000000E+00 -0.37937906076E+03  0.37937906077E+03  0.25500000920E-02 0.  1.
    10030    2    1    2    0    0  0.00000000000E+00  0.00000000000E+00  0.28555127201E+03  0.10443093935E+04  0.10045111152E+04 0.  0.
        3    1    3    3  502    0 -0.34099521107E+03  0.50191009368E+02 -0.23702537937E+03  0.41830361229E+03  0.10100000352E+00 0.  1.
       -3    1    3    3    0  502  0.34099521107E+03 -0.50191009368E+02  0.52257665137E+03  0.62600578124E+03  0.10100000352E+00 0. -1.
</event>
<event>
 5   0  0.3569359E-03  0.9824418E+03  0.7818609E-02  0.9328015E-01
       -1   -1    0    0    0  501  0.00000000000E+00  0.00000000000E+00  0.13003827026E+04  0.13003827026E+04  0.50400001928E-02 0.  1.
        1   -1    0    0  501    0  0.00000000000E+00  0.00000000000E+00 -0.18555919151E+03  0.18555919157E+03  0.50400001928E-02 0. -1.
    10030    2    1    2    0    0  0.00000000000E+00  0.00000000000E+00  0.11148235111E+04  0.14859418942E+04  0.98244178047E+03 0.  0.
        4    1    3    3  502    0 -0.48760844199E+03  0.40417103018E+02  0.62335418606E+03  0.79244406054E+03  0.12699999809E+01 0. -1.
       -4    1    3    3    0  502  0.48760844199E+03 -0.40417103018E+02  0.49146932506E+03  0.69349783366E+03  0.12699999809E+01 0.  1.
</event>
<event>
 5   0  0.6376961E-03  0.1006120E+04  0.7818609E-02  0.9301858E-01
       -2   -1    0    0    0  501  0.00000000000E+00  0.00000000000E+00  0.74305383553E+02  0.74305383597E+02  0.25500000920E-02 0.  1.
        2   -1    0    0  501    0  0.00000000000E+00  0.00000000000E+00 -0.34057989957E+04  0.34057989957E+04  0.25500000920E-02 0. -1.
    10030    2    1    2    0    0  0.00000000000E+00  0.00000000000E+00 -0.33314936122E+04  0.34801043793E+04  0.10061196763E+04 0.  0.
        3    1    3    3  502    0  0.23032584162E+03 -0.23595249529E+03 -0.29798952602E+04  0.29980826115E+04  0.10100000352E+00 0. -1.
       -3    1    3    3    0  502 -0.23032584162E+03  0.23595249529E+03 -0.35159835197E+03  0.48202176783E+03  0.10100000352E+00 0.  1.
</event>
<event>
 5   0  0.6360455E-03  0.9992276E+03  0.7818609E-02  0.9309392E-01
        2   -1    0    0  501    0  0.00000000000E+00  0.00000000000E+00  0.53953458191E+03  0.53953458192E+03  0.25500000920E-02 0.  1.
       -2   -1    0    0    0  501  0.00000000000E+00  0.00000000000E+00 -0.46264684657E+03  0.46264684658E+03  0.25500000920E-02 0. -1.
    10030    2    1    2    0    0  0.00000000000E+00  0.00000000000E+00  0.76887735340E+02  0.10021814285E+04  0.99922764762E+03 0.  0.
        4    1    3    3  502    0  0.51987420305E+02 -0.34597954494E+03 -0.31927250485E+03  0.47364657989E+03  0.12699999809E+01 0. -1.
       -4    1    3    3    0  502 -0.51987420305E+02  0.34597954494E+03  0.39616024019E+03  0.52853484861E+03  0.12699999809E+01 0.  1.
</event>
<event>
 5   0  0.6199539E-03  0.9806067E+03  0.7818609E-02  0.9330075E-01
        2   -1    0    0  501    0  0.00000000000E+00  0.00000000000E+00  0.33559934395E+03  0.33559934396E+03  0.25500000920E-02 0.  1.
       -2   -1    0    0    0  501  0.00000000000E+00  0.00000000000E+00 -0.71632250213E+03  0.71632250213E+03  0.25500000920E-02 0. -1.
    10030    2    1    2    0    0  0.00000000000E+00  0.00000000000E+00 -0.38072315818E+03  0.10519218461E+04  0.98060667299E+03 0.  0.
        2    1    3    3  502    0 -0.48952183859E+03  0.13093549631E+02 -0.16421060065E+03  0.51649607246E+03  0.25500000920E-02 0. -1.
       -2    1    3    3    0  502  0.48952183859E+03 -0.13093549631E+02 -0.21651255753E+03  0.53542577363E+03  0.25500000920E-02 0.  1.
</event>
<event>
 5   0  0.6199539E-03  0.1022811E+04  0.7818609E-02  0.9283874E-01
        2   -1    0    0  501    0  0.00000000000E+00  0.00000000000E+00  0.50896613742E+03  0.50896613742E+03  0.25500000920E-02 0. -1.
       -2   -1    0    0    0  501  0.00000000000E+00  0.00000000000E+00 -0.51385683599E+03  0.51385683600E+03  0.25500000920E-02 0.  1.
    10030    2    1    2    0    0  0.00000000000E+00  0.00000000000E+00 -0.48906985740E+01  0.10228229734E+04  0.10228112807E+04 0.  0.
        2    1    3    3  502    0  0.24370012822E+03 -0.17465874859E+03  0.41185432778E+03  0.50943048424E+03  0.25500000920E-02 0. -1.
       -2    1    3    3    0  502 -0.24370012822E+03  0.17465874859E+03 -0.41674502636E+03  0.51339248918E+03  0.25500000920E-02 0.  1.
</event>
<event>
 5   0  0.3569359E-03  0.1001313E+04  0.7818609E-02  0.9307105E-01
        1   -1    0    0  501    0  0.00000000000E+00  0.00000000000E+00  0.83566344422E+03  0.83566344423E+03  0.50400001928E-02 0.  1.
       -1   -1    0    0    0  501  0.00000000000E+00  0.00000000000E+00 -0.29994984036E+03  0.29994984040E+03  0.50400001928E-02 0. -1.
    10030    2    1    2    0    0  0.00000000000E+00  0.00000000000E+00  0.53571360386E+03  0.11356132846E+04  0.10013133710E+04 0.  0.
        4    1    3    3  502    0 -0.32204441957E+03 -0.59951606549E+02  0.69725214393E+03  0.77036937142E+03  0.12699999809E+01 0.  1.
       -4    1    3    3    0  502  0.32204441957E+03  0.59951606549E+02 -0.16153854007E+03  0.36524391321E+03  0.12699999809E+01 0. -1.
</event>
<event>
 5   0  0.6199539E-03  0.1033627E+04  0.7818609E-02  0.9272413E-01
       -2   -1    0    0    0  501  0.00000000000E+00  0.00000000000E+00  0.43356550160E+03  0.43356550161E+03  0.25500000920E-02 0. -1.
        2   -1    0    0  501    0  0.00000000000E+00  0.00000000000E+00 -0.61604564465E+03  0.61604564466E+03  0.25500000920E-02 0.  1.
    10030    2    1    2    0    0  0.00000000000E+00  0.00000000000E+00 -0.18248014305E+03  0.10496111463E+04  0.10336268939E+04 0.  0.
        2    1    3    3  502    0  0.32011081123E+02 -0.17559478784E+03  0.40127358850E+03  0.43917961207E+03  0.25500000920E-02 0. -1.
       -2    1    3    3    0  502 -0.32011081123E+02  0.17559478784E+03 -0.58375373155E+03  0.61043153419E+03  0.25500000920E-02 0.  1.
</event>
<event>
 5   0  0.6022787E-03  0.9914246E+03  0.7818609E-02  0.9318001E-01
       -2   -1    0    0    0  501  0.00000000000E+00  0.00000000000E+00  0.41750726074E+03  0.41750726075E+03  0.25500000920E-02 0. -1.
        2   -1    0    0  501    0  0.00000000000E+00  0.00000000000E+00 -0.58856620805E+03  0.58856620806E+03  0.25500000920E-02 0.  1.
    10030    2    1    2    0    0  0.00000000000E+00  0.00000000000E+00 -0.17105894732E+03  0.10060734688E+04  0.99142456151E+03 0.  0.
        5    1    3    3  502    0 -0.24257483444E+03  0.10090002970E+03 -0.51207964401E+03  0.57556148074E+03  0.46999998093E+01 0.  1.
       -5    1    3    3    0  502  0.24257483444E+03 -0.10090002970E+03  0.34102069670E+03  0.43051198807E+03  0.46999998093E+01 0. -1.
</event>
<event>
 5   0  0.6022787E-03  0.8198648E+03  0.7818609E-02  0.9531700E-01
        2   -1    0    0  501    0  0.00000000000E+00  0.00000000000E+00  0.10699969768E+04  0.10699969768E+04  0.25500000920E-02 0. -1.
       -2   -1    0    0    0  501  0.00000000000E+00  0.00000000000E+00 -0.15705146331E+03  0.15705146333E+03  0.25500000920E-02 0.  1.
    10030    2    1    2    0    0  0.00000000000E+00  0.00000000000E+00  0.91294551352E+03  0.12270484402E+04  0.81986484486E+03 0.  0.
        5    1    3    3  502    0 -0.37924899387E+03 -0.10913090017E+03  0.29060029519E+03  0.49011220581E+03  0.46999998093E+01 0.  1.
       -5    1    3    3    0  502  0.37924899387E+03  0.10913090017E+03  0.62234521832E+03  0.73693623434E+03  0.46999998093E+01 0. -1.
</event>
<event>
 5   0  0.6376961E-03  0.1029558E+04  0.7818609E-02  0.9276707E-01
        2   -1    0    0  501    0  0.00000000000E+00  0.00000000000E+00  0.51646274265E+03  0.51646274266E+03  0.25500000920E-02 0.  1.
       -2   -1    0    0    0  501  0.00000000000E+00  0.00000000000E+00 -0.51310078308E+03  0.51310078309E+03  0.25500000920E-02 0. -1.
    10030    2    1    2    0    0  0.00000000000E+00  0.00000000000E+00  0.33619595698E+01  0.10295635257E+04  0.10295580366E+04 0.  0.
        3    1    3    3  502    0  0.41921603756E+03 -0.42797184103E+02 -0.29399565876E+03  0.51381625382E+03  0.10100000352E+00 0. -1.
       -3    1    3    3    0  502 -0.41921603756E+03  0.42797184103E+02  0.29735761833E+03  0.51574727192E+03  0.10100000352E+00 0.  1.
</event>
<event>
 5   0  0.3640180E-03  0.9920963E+03  0.7818609E-02  0.9317256E-01
       -1   -1    0    0    0  501  0.00000000000E+00  0.00000000000E+00  0.35231712499E+03  0.35231712502E+03  0.50400001928E-02 0.  1.
        1   -1    0    0  501    0  0.00000000000E+00  0.00000000000E+00 -0.69841554449E+03  0.69841554451E+03  0.50400001928E-02 0. -1.
    10030    2    1    2    0    0  0.00000000000E+00  0.00000000000E+00 -0.34609841951E+03  0.10507326695E+04  0.99209627902E+03 0.  0.
        5    1    3    3  502    0 -0.97339622431E+02  0.45161637211E+03 -0.36430265469E+03  0.58836286751E+03  0.46999998093E+01 0. -1.
       -5    1    3    3    0  502  0.97339622431E+02 -0.45161637211E+03  0.18204235183E+02  0.46236980203E+03  0.46999998093E+01 0.  1.
</event>
<event>
 5   0  0.3608845E-03  0.9375089E+03  0.7818609E-02  0.9379871E-01
       -1   -1    0    0    0  501  0.00000000000E+00  0.00000000000E+00  0.28773658386E+03  0.28773658391E+03  0.50400001928E-02 0.  1.
        1   -1    0    0  501    0  0.00000000000E+00  0.00000000000E+00 -0.76365240345E+03  0.76365240347E+03  0.50400001928E-02 0. -1.
    10030    2    1    2    0    0  0.00000000000E+00  0.00000000000E+00 -0.47591581959E+03  0.10513889874E+04  0.93750889886E+03 0.  0.
        1    1    3    3  502    0  0.41536771045E+02 -0.70033340613E+02  0.27974490467E+03  0.29135405242E+03  0.50400001928E-02 0.  1.
       -1    1    3    3    0  502 -0.41536771045E+02  0.70033340613E+02 -0.75566072426E+03  0.76003493496E+03  0.50400001928E-02 0. -1.
</event>
<event>
 5   0  0.6376961E-03  0.9911530E+03  0.7818609E-02  0.9318302E-01
        2   -1    0    0  501    0  0.00000000000E+00  0.00000000000E+00  0.76852862483E+03  0.76852862483E+03  0.25500000920E-02 0.  1.
       -2   -1    0    0    0  501  0.00000000000E+00  0.00000000000E+00 -0.31956658992E+03  0.31956658993E+03  0.25500000920E-02 0. -1.
    10030    2    1    2    0    0  0.00000000000E+00  0.00000000000E+00  0.44896203490E+03  0.10880952148E+04  0.99115300918E+03 0.  0.
        3    1    3    3  502    0 -0.26011261050E+03 -0.21961281996E+03 -0.17089386625E+03  0.38091086169E+03  0.10100000352E+00 0. -1.
       -3    1    3    3    0  502  0.26011261050E+03  0.21961281996E+03  0.61985590116E+03  0.70718435307E+03  0.10100000352E+00 0.  1.
</event>
<event>
 5   0  0.3643002E-03  0.9920435E+03  0.7818609E-02  0.9317315E-01
        1   -1    0    0  501    0  0.00000000000E+00  0.00000000000E+00  0.15247530701E+03  0.15247530709E+03  0.50400001928E-02 0.  1.
       -1   -1    0    0    0  501  0.00000000000E+00  0.00000000000E+00 -0.16136223565E+04  0.16136223565E+04  0.50400001928E-02 0. -1.
    10030    2    1    2    0    0  0.00000000000E+00  0.00000000000E+00 -0.14611470495E+04  0.17660976636E+04  0.99204347543E+03 0.  0.
        2    1    3    3  502    0  0.23688369227E+03  0.10224736339E+03 -0.14847603172E+04  0.15070108183E+04  0.25500000920E-02 0. -1.
       -2    1    3    3    0  502 -0.23688369227E+03 -0.10224736339E+03  0.23613267703E+02  0.25908684529E+03  0.25500000920E-02 0.  1.
</event>
<event>
 5   0  0.6360455E-03  0.9676781E+03  0.7818609E-02  0.9344723E-01
        2   -1    0    0  501    0  0.00000000000E+00  0.00000000000E+00  0.69329745802E+03  0.69329745803E+03  0.25500000920E-02 0. -1.
       -2   -1    0    0    0  501  0.00000000000E+00  0.00000000000E+00 -0.33766204545E+03  0.33766204546E+03  0.25500000920E-02 0.  1.
    10030    2    1    2    0    0  0.00000000000E+00  0.00000000000E+00  0.35563541258E+03  0.10309595035E+04  0.96767812373E+03 0.  0.
        4    1    3    3  502    0 -0.83449479917E+02 -0.39922356041E+03  0.45513854529E+03  0.61114317078E+03  0.12699999809E+01 0. -1.
       -4    1    3    3    0  502  0.83449479917E+02  0.39922356041E+03 -0.99503132712E+02  0.41981633270E+03  0.12699999809E+01 0.  1.
</event>
<event>
 5   0  0.2417750E-03  0.9992764E+03  0.7818609E-02  0.9309339E-01
        3   -1    0    0  501    0  0.00000000000E+00  0.00000000000E+00  0.75032736378E+03  0.75032737058E+03  0.10100000352E+00 0.  1.
       -3   -1    0    0    0  501  0.00000000000E+00  0.00000000000E+00 -0.33270585635E+03  0.33270587168E+03  0.10100000352E+00 0. -1.
    10030    2    1    2    0    0  0.00000000000E+00  0.00000000000E+00  0.41762150743E+03  0.10830332423E+04  0.99927637837E+03 0.  0.
        1    1    3    3  502    0  0.20831102486E+03  0.11315670346E+03 -0.26787234459E+03  0.35770590663E+03  0.50400001928E-02 0. -1.
       -1    1    3    3    0  502 -0.20831102486E+03 -0.11315670346E+03  0.68549385202E+03  0.72532733562E+03  0.50400001928E-02 0.  1.
</event>
<event>
 5   0  0.3569359E-03  0.1001547E+04  0.7818609E-02  0.9306850E-01
        1   -1    0    0  501    0  0.00000000000E+00  0.00000000000E+00  0.14913999353E+04  0.14913999353E+04  0.50400001928E-02 0. -1.
       -1   -1    0    0    0  501  0.00000000000E+00  0.00000000000E+00 -0.16814670349E+03  0.16814670356E+03  0.50400001928E-02 0.  1.
    10030    2    1    2    0    0  0.00000000000E+00  0.00000000000E+00  0.13232532319E+04  0.16595466389E+04  0.10015467693E+04 0.  0.
        4    1    3    3  502    0  0.39230855628E+03  0.29512738546E+00  0.14591782180E+03  0.41856864914E+03  0.12699999809E+01 0.  1.
       -4    1    3    3    0  502 -0.39230855628E+03 -0.29512738546E+00  0.11773354100E+04  0.12409779898E+04  0.12699999809E+01 0. -1.
</event>
<event>
 5   0  0.6360455E-03  0.1001351E+04  0.7818609E-02  0.9307064E-01
       -2   -1    0    0    0  501  0.00000000000E+00  0.00000000000E+00  0.47060130027E+03  0.47060130028E+03  0.25500000920E-02 0.  1.
        2   -1    0    0  501    0  0.00000000000E+00  0.00000000000E+00 -0.53267142427E+03  0.53267142428E+03  0.25500000920E-02 0. -1.
    10030    2    1    2    0    0  0.00000000000E+00  0.00000000000E+00 -0.62070123999E+02  0.10032727246E+04  0.10013508174E+04 0.  0.
        4    1    3    3  502    0 -0.10326043285E+03 -0.42716592297E+03 -0.27137211498E+03  0.51650545053E+03  0.12699999809E+01 0. -1.
       -4    1    3    3    0  502  0.10326043285E+03  0.42716592297E+03  0.20930199098E+03  0.48676727403E+03  0.12699999809E+01 0.  1.
</event>
<event>
 5   0  0.6606947E-03  0.9961183E+03  0.7818609E-02  0.9312812E-01
        2   -1    0    0  501    0  0.00000000000E+00  0.00000000000E+00  0.10176088796E+04  0.10176088796E+04  0.25500000920E-02 0. -1.
       -2   -1    0    0    0  501  0.00000000000E+00  0.00000000000E+00 -0.24377038074E+03  0.24377038075E+03  0.25500000920E-02 0.  1.
    10030    2    1    2    0    0  0.00000000000E+00  0.00000000000E+00  0.77383849888E+03  0.12613792604E+04  0.99611827418E+03 0.  0.
        1    1    3    3  502    0 -0.43121975393E+03  0.24412933986E+03  0.45040209147E+03  0.66963546411E+03  0.50400001928E-02 0.  1.
       -1    1    3    3    0  502  0.43121975393E+03 -0.24412933986E+03  0.32343640740E+03  0.59174379627E+03  0.50400001928E-02 0. -1.
</event>
<event>
 5   0  0.6199539E-03  0.1012348E+04  0.7818609E-02  0.9295104E-01
       -2   -1    0    0    0  501  0.00000000000E+00  0.00000000000E+00  0.25616162097E+03  0.25616162098E+03  0.25500000920E-02 0. -1.
        2   -1    0    0  501    0  0.00000000000E+00  0.00000000000E+00 -0.10001972834E+04  0.10001972834E+04  0.25500000920E-02 0.  1.
    10030    2    1    2    0    0  0.00000000000E+00  0.00000000000E+00 -0.74403566245E+03  0.12563589044E+04  0.10123480773E+04 0.  0.
        2    1    3    3  502    0 -0.13609287698E+02 -0.72835373916E+02  0.24939474858E+03  0.26016907009E+03  0.25500000920E-02 0. -1.
       -2    1    3    3    0  502  0.13609287698E+02  0.72835373916E+02 -0.99343041103E+03  0.99618983431E+03  0.25500000920E-02 0.  1.
</event>
<event>
 5   0  0.3466598E-03  0.9842569E+03  0.7818609E-02  0.9325982E-01
       -1   -1    0    0    0  501  0.00000000000E+00  0.00000000000E+00  0.53830221673E+03  0.53830221675E+03  0.50400001928E-02 0.  1.
        1   -1    0    0  501    0  0.00000000000E+00  0.00000000000E+00 -0.44991527572E+03  0.44991527575E+03  0.50400001928E-02 0. -1.
    10030    2    1    2    0    0  0.00000000000E+00  0.00000000000E+00  0.88386941006E+02  0.98821749250E+03  0.98425685731E+03 0.  0.
        3    1    3    3  502    0 -0.20369367256E+03  0.12404719331E+03 -0.38801706194E+03  0.45545150013E+03  0.10100000352E+00 0. -1.
       -3    1    3    3    0  502  0.20369367256E+03 -0.12404719331E+03  0.47640400295E+03  0.53276599238E+03  0.10100000352E+00 0.  1.
</event>
<event>
 5   0  0.2417750E-03  0.1009320E+04  0.7818609E-02  0.9298382E-01
       -3   -1    0    0    0  501  0.00000000000E+00  0.00000000000E+00  0.79674300602E+03  0.79674301242E+03  0.10100000352E+00 0. -1.
        3   -1    0    0  501    0  0.00000000000E+00  0.00000000000E+00 -0.31965332307E+03  0.31965333902E+03  0.10100000352E+00 0.  1.
    10030    2    1    2    0    0  0.00000000000E+00  0.00000000000E+00  0.47708968295E+03  0.11163963514E+04  0.10093196956E+04 0.  0.
        1    1    3    3  502    0  0.40947627946E+03 -0.25667980257E+03  0.39931318370E+03  0.62690219587E+03  0.50400001928E-02 0.  1.
       -1    1    3    3    0  502 -0.40947627946E+03  0.25667980257E+03  0.77776499252E+02  0.48949415558E+03  0.50400001928E-02 0. -1.
</event>
<event>
 5   0  0.3608845E-03  0.1000453E+04  0.7818609E-02  0.9308048E-01
       -1   -1    0    0    0  501  0.00000000000E+00  0.00000000000E+00  0.63167637864E+03  0.63167637866E+03  0.50400001928E-02 0. -1.
        1   -1    0    0  501    0  0.00000000000E+00  0.00000000000E+00 -0.39613072050E+03  0.39613072053E+03  0.50400001928E-02 0.  1.
    10030    2    1    2    0    0  0.00000000000E+00  0.00000000000E+00  0.23554565815E+03  0.10278070992E+04  0.10004527356E+04 0.  0.
        1    1    3    3  502    0  0.87664954292E+01  0.14344795237E+03 -0.37446471443E+03  0.40109598460E+03  0.50400001928E-02 0.  1.
       -1    1    3    3    0  502 -0.87664954292E+01 -0.14344795237E+03  0.61001037257E+03  0.62671111459E+03  0.50400001928E-02 0. -1.
</event>
<event>
 5   0  0.3643002E-03  0.9877851E+03  0.7818609E-02  0.9322044E-01
       -1   -1    0    0    0  501  0.00000000000E+00  0.00000000000E+00  0.50374365365E+03  0.50374365367E+03  0.50400001928E-02 0. -1.
        1   -1    0    0  501    0  0.00000000000E+00  0.00000000000E+00 -0.48423407819E+03  0.48423407822E+03  0.50400001928E-02 0.  1.
    10030    2    1    2    0    0  0.00000000000E+00  0.00000000000E+00  0.19509575455E+02  0.98797773189E+03  0.98778508552E+03 0.  0.
        2    1    3    3  502    0 -0.64310502638E+02 -0.33587202243E+03  0.36617241277E+03  0.50102703728E+03  0.25500000920E-02 0. -1.
       -2    1    3    3    0  502  0.64310502638E+02  0.33587202243E+03 -0.34666283732E+03  0.48695069461E+03  0.25500000920E-02 0.  1.
</event>
<event>
 5   0  0.6199539E-03  0.1010061E+04  0.7818609E-02  0.9297578E-01
       -2   -1    0    0    0  501  0.00000000000E+00  0.00000000000E+00  0.93335468499E+03  0.93335468499E+03  0.25500000920E-02 0.  1.
        2   -1    0    0  501    0  0.00000000000E+00  0.00000000000E+00 -0.27326799049E+03  0.27326799050E+03  0.25500000920E-02 0. -1.
    10030    2    1    2    0    0  0.00000000000E+00  0.00000000000E+00  0.66008669450E+03  0.12066226755E+04  0.10100613035E+04 0.  0.
        2    1    3    3  502    0  0.19036078103E+02  0.38022382174E+03 -0.66384011438E+02  0.38644451590E+03  0.25500000920E-02 0. -1.
       -2    1    3    3    0  502 -0.19036078103E+02 -0.38022382174E+03  0.72647070594E+03  0.82017815960E+03  0.25500000920E-02 0.  1.
</event>
<event>
 5   0  0.6022787E-03  0.1011988E+04  0.7818609E-02  0.9295493E-01
        2   -1    0    0  501    0  0.00000000000E+00  0.00000000000E+00  0.17983607598E+03  0.17983607599E+03  0.25500000920E-02 0. -1.
       -2   -1    0    0    0  501  0.00000000000E+00  0.00000000000E+00 -0.14236861716E+04  0.14236861716E+04  0.25500000920E-02 0.  1.
    10030    2    1    2    0    0  0.00000000000E+00  0.00000000000E+00 -0.12438500956E+04  0.16035222476E+04  0.10119884081E+04 0.  0.
        5    1    3    3  502    0 -0.11231978625E+03 -0.16425142180E+03 -0.13590513498E+04  0.13735490254E+04  0.46999998093E+01 0.  1.
       -5    1    3    3    0  502  0.11231978625E+03  0.16425142180E+03  0.11520125416E+03  0.22997322215E+03  0.46999998093E+01 0. -1.
</event>
<event>
 5   0  0.3608845E-03  0.1010626E+04  0.7818609E-02  0.9296966E-01
        1   -1    0    0  501    0  0.00000000000E+00  0.00000000000E+00  0.93792433351E+03  0.93792433352E+03  0.50400001928E-02 0.  1.
       -1   -1    0    0    0  501  0.00000000000E+00  0.00000000000E+00 -0.27224080228E+03  0.27224080233E+03  0.50400001928E-02 0. -1.
    10030    2    1    2    0    0  0.00000000000E+00  0.00000000000E+00  0.66568353123E+03  0.12101651359E+04  0.10106260893E+04 0.  0.
        1    1    3    3  502    0  0.13609036012E+03  0.47185591373E+03  0.47539601828E+03  0.68349832747E+03  0.50400001928E-02 0.  1.
       -1    1    3    3    0  502 -0.13609036012E+03 -0.47185591373E+03  0.19028751295E+03  0.52666680838E+03  0.50400001928E-02 0. -1.
</event>
<event>
 5   0  0.6606947E-03  0.1041439E+04  0.7818609E-02  0.9264228E-01
        2   -1    0    0  501    0  0.00000000000E+00  0.00000000000E+00  0.10130546699E+04  0.10130546699E+04  0.25500000920E-02 0.  1.
       -2   -1    0    0    0  501  0.00000000000E+00  0.00000000000E+00 -0.26765457761E+03  0.26765457763E+03  0.25500000920E-02 0. -1.
    10030    2    1    2    0    0  0.00000000000E+00  0.00000000000E+00  0.74540009232E+03  0.12807092476E+04  0.10414388504E+04 0.  0.
        1    1    3    3  502    0  0.97141350374E+02 -0.45285786638E+03  0.66534958081E+03  0.81068289350E+03  0.50400001928E-02 0.  1.
       -1    1    3    3    0  502 -0.97141350374E+02  0.45285786638E+03  0.80050511512E+02  0.47002635407E+03  0.50400001928E-02 0. -1.
</event>
<event>
 5   0  0.3608845E-03  0.9926018E+03  0.7818609E-02  0.9316696E-01
       -1   -1    0    0    0  501  0.00000000000E+00  0.00000000000E+00  0.12897913752E+04  0.12897913752E+04  0.50400001928E-02 0. -1.
        1   -1    0    0  501    0  0.00000000000E+00  0.00000000000E+00 -0.19097240355E+03  0.19097240362E+03  0.50400001928E-02 0.  1.
    10030    2    1    2    0    0  0.00000000000E+00  0.00000000000E+00  0.10988189716E+04  0.14807637788E+04  0.99260175108E+03 0.  0.
        1    1    3    3  502    0  0.23928146407E+03  0.30924379393E+03  0.10053912234E+04  0.10787487451E+04  0.50400001928E-02 0. -1.
       -1    1    3    3    0  502 -0.23928146407E+03 -0.30924379393E+03  0.93427748288E+02  0.40201503368E+03  0.50400001928E-02 0.  1.
</event>
<event>
 5   0  0.6022787E-03  0.1000458E+04  0.7818609E-02  0.9308042E-01
        2   -1    0    0  501    0  0.00000000000E+00  0.00000000000E+00  0.77768223350E+03  0.77768223350E+03  0.25500000920E-02 0.  1.
       -2   -1    0    0    0  501  0.00000000000E+00  0.00000000000E+00 -0.32176267795E+03  0.32176267796E+03  0.25500000920E-02 0. -1.
    10030    2    1    2    0    0  0.00000000000E+00  0.00000000000E+00  0.45591955554E+03  0.10994449115E+04  0.10004581312E+04 0.  0.
        5    1    3    3  502    0 -0.74604319808E+02  0.22440481608E+02  0.77094990564E+03  0.77489046113E+03  0.46999998093E+01 0.  1.
       -5    1    3    3    0  502  0.74604319808E+02 -0.22440481608E+02 -0.31503035010E+03  0.32455445033E+03  0.46999998093E+01 0. -1.
</event>
<event>
 5   0  0.6606947E-03  0.9936146E+03  0.7818609E-02  0.9315576E-01
       -2   -1    0    0    0  501  0.00000000000E+00  0.00000000000E+00  0.57271371968E+03  0.57271371968E+03  0.25500000920E-02 0.  1.
        2   -1    0    0  501    0  0.00000000000E+00  0.00000000000E+00 -0.43096137503E+03  0.43096137504E+03  0.25500000920E-02 0. -1.
    10030    2    1    2    0    0  0.00000000000E+00  0.00000000000E+00  0.14175234465E+03  0.10036750947E+04  0.99361459759E+03 0.  0.
        1    1    3    3  502    0 -0.39791533633E+03  0.90253170579E+02  0.35718071488E+03  0.54227328239E+03  0.50400001928E-02 0.  1.
       -1    1    3    3    0  502  0.39791533633E+03 -0.90253170579E+02 -0.21542837024E+03  0.46140181232E+03  0.50400001928E-02 0. -1.
</event>
<event>
 5   0  0.6022787E-03  0.1000599E+04  0.7818609E-02  0.9307888E-01
       -2   -1    0    0    0  501  0.00000000000E+00  0.00000000000E+00  0.21627915537E+03  0.21627915539E+03  0.25500000920E-02 0.  1.
        2   -1    0    0  501    0  0.00000000000E+00  0.00000000000E+00 -0.11572997732E+04  0.11572997732E+04  0.25500000920E-02 0. -1.
    10030    2    1    2    0    0  0.00000000000E+00  0.00000000000E+00 -0.94102061781E+03  0.13735789286E+04  0.10005994553E+04 0.  0.
        5    1    3    3  502    0  0.25772896453E+02 -0.22802944348E+03 -0.10807556520E+04  0.11048604159E+04  0.46999998093E+01 0. -1.
       -5    1    3    3    0  502 -0.25772896453E+02  0.22802944348E+03  0.13973503418E+03  0.26871851269E+03  0.46999998093E+01 0.  1.
</event>
<event>
 5   0  0.6022787E-03  0.1029893E+04  0.7818609E-02  0.9276353E-01
        2   -1    0    0  501    0  0.00000000000E+00  0.00000000000E+00  0.17825872286E+04  0.17825872286E+04  0.25500000920E-02 0.  1.
       -2   -1    0    0    0  501  0.00000000000E+00  0.00000000000E+00 -0.14875549520E+03  0.14875549522E+03  0.25500000920E-02 0. -1.
    10030    2    1    2    0    0  0.00000000000E+00  0.00000000000E+00  0.16338317334E+04  0.19313427238E+04  0.10298925108E+04 0.  0.
        5    1    3    3  502    0  0.19145704886E+03  0.17901326326E+03  0.16480843162E+04  0.16688036294E+04  0.46999998093E+01 0.  1.
       -5    1    3    3    0  502 -0.19145704886E+03 -0.17901326326E+03 -0.14252582865E+02  0.26253909441E+03  0.46999998093E+01 0. -1.
</event>
<event>
 5   0  0.2417750E-03  0.9956783E+03  0.7818609E-02  0.9313298E-01
       -4   -1    0    0    0  501  0.00000000000E+00  0.00000000000E+00  0.25642529634E+03  0.25642844129E+03  0.12699999809E+01 0.  1.
        4   -1    0    0  501    0  0.00000000000E+00  0.00000000000E+00 -0.96652470222E+03  0.96652553660E+03  0.12699999809E+01 0. -1.
    10030    2    1    2    0    0  0.00000000000E+00  0.00000000000E+00 -0.71009940588E+03  0.12229539779E+04  0.99567829434E+03 0.  0.
        3    1    3    3  502    0  0.20504996546E+03  0.45271523942E+03 -0.31929841302E+03  0.59071826034E+03  0.10100000352E+00 0.  1.
       -3    1    3    3    0  502 -0.20504996546E+03 -0.45271523942E+03 -0.39080099286E+03  0.63223571756E+03  0.10100000352E+00 0. -1.
</event>
<event>
 5   0  0.6376961E-03  0.9999101E+03  0.7818609E-02  0.9308643E-01
        2   -1    0    0  501    0  0.00000000000E+00  0.00000000000E+00  0.13210253045E+04  0.13210253045E+04  0.25500000920E-02 0.  1.
       -2   -1    0    0    0  501  0.00000000000E+00  0.00000000000E+00 -0.18921291729E+03  0.18921291731E+03  0.25500000920E-02 0. -1.
    10030    2    1    2    0    0  0.00000000000E+00  0.00000000000E+00  0.11318123872E+04  0.15102382218E+04  0.99991009936E+03 0.  0.
        3    1    3    3  502    0  0.45596989602E+03  0.14045060108E+03  0.34025750973E+03  0.58601203106E+03  0.10100000352E+00 0. -1.
       -3    1    3    3    0  502 -0.45596989602E+03 -0.14045060108E+03  0.79155487750E+03  0.92422619077E+03  0.10100000352E+00 0.  1.
</event>
<event>
 5   0  0.3643002E-03  0.9993519E+03  0.7818609E-02  0.9309256E-01
       -1   -1    0    0    0  501  0.00000000000E+00  0.00000000000E+00  0.87512418994E+02  0.87512419139E+02  0.50400001928E-02 0.  1.
        1   -1    0    0  501    0  0.00000000000E+00  0.00000000000E+00 -0.28530357377E+04  0.28530357377E+04  0.50400001928E-02 0. -1.
    10030    2    1    2    0    0  0.00000000000E+00  0.00000000000E+00 -0.27655233187E+04  0.29405481568E+04  0.99935190819E+03 0.  0.
        2    1    3    3  502    0 -0.47822649401E+03 -0.14407789149E+03 -0.14261107949E+04  0.15110430231E+04  0.25500000920E-02 0. -1.
       -2    1    3    3    0  502  0.47822649401E+03  0.14407789149E+03 -0.13394125238E+04  0.14295051337E+04  0.25500000920E-02 0.  1.
</event>
<event>
 5   0  0.6360455E-03  0.1005113E+04  0.7818609E-02  0.9302955E-01
       -2   -1    0    0    0  501  0.00000000000E+00  0.00000000000E+00  0.48311704387E+03  0.48311704388E+03  0.25500000920E-02 0.  1.
        2   -1    0    0  501    0  0.00000000000E+00  0.00000000000E+00 -0.52277815778E+03  0.52277815778E+03  0.25500000920E-02 0. -1.
    10030    2    1    2    0    0  0.00000000000E+00  0.00000000000E+00 -0.39661113903E+02  0.10058952017E+04  0.10051130050E+04 0.  0.
        4    1    3    3  502    0 -0.43949298235E+03  0.75728460115E+02 -0.25168420568E+03  0.51208928274E+03  0.12699999809E+01 0. -1.
       -4    1    3    3    0  502  0.43949298235E+03 -0.75728460115E+02  0.21202309178E+03  0.49380591892E+03  0.12699999809E+01 0.  1.
</event>
<event>
 5   0  0.3466598E-03  0.1025701E+04  0.7818609E-02  0.9280797E-01
       -1   -1    0    0    0  501  0.00000000000E+00  0.00000000000E+00  0.40101668699E+03  0.40101668702E+03  0.50400001928E-02 0.  1.
        1   -1    0    0  501    0  0.00000000000E+00  0.00000000000E+00 -0.65587257449E+03  0.65587257451E+03  0.50400001928E-02 0. -1.
    10030    2    1    2    0    0  0.00000000000E+00  0.00000000000E+00 -0.25485588750E+03  0.10568892615E+04  0.10257014126E+04 0.  0.
        3    1    3    3  502    0 -0.39835510742E+03 -0.25398036416E+03  0.78196919384E+02  0.47886071607E+03  0.10100000352E+00 0.  1.
       -3    1    3    3    0  502  0.39835510742E+03  0.25398036416E+03 -0.33305280688E+03  0.57802854546E+03  0.10100000352E+00 0. -1.
</event>
<event>
 5   0  0.6376961E-03  0.1018540E+04  0.7818609E-02  0.9288441E-01
       -2   -1    0    0    0  501  0.00000000000E+00  0.00000000000E+00  0.14941273226E+03  0.14941273229E+03  0.25500000920E-02 0.  1.
        2   -1    0    0  501    0  0.00000000000E+00  0.00000000000E+00 -0.17358370588E+04  0.17358370588E+04  0.25500000920E-02 0. -1.
    10030    2    1    2    0    0  0.00000000000E+00  0.00000000000E+00 -0.15864243265E+04  0.18852497911E+04  0.10185404415E+04 0.  0.
        3    1    3    3  502    0  0.29135310024E+03  0.23546126975E+03 -0.15463365768E+03  0.40526561273E+03  0.10100000352E+00 0.  1.
       -3    1    3    3    0  502 -0.29135310024E+03 -0.23546126975E+03 -0.14317906688E+04  0.14799841783E+04  0.10100000352E+00 0. -1.
</event>
<event>
 5   0  0.3569359E-03  0.1001744E+04  0.7818609E-02  0.9306634E-01
        1   -1    0    0  501    0  0.00000000000E+00  0.00000000000E+00  0.44941622317E+03  0.44941622320E+03  0.50400001928E-02 0. -1.
       -1   -1    0    0    0  501  0.00000000000E+00  0.00000000000E+00 -0.55821900632E+03  0.55821900635E+03  0.50400001928E-02 0.  1.
    10030    2    1    2    0    0  0.00000000000E+00  0.00000000000E+00 -0.10880278315E+03  0.10076352295E+04  0.10017438346E+04 0.  0.
        4    1    3    3  502    0  0.99159228892E+02  0.31249291510E+03 -0.43529271936E+03  0.54494562948E+03  0.12699999809E+01 0.  1.
       -4    1    3    3    0  502 -0.99159228892E+02 -0.31249291510E+03  0.32648993620E+03  0.46268960006E+03  0.12699999809E+01 0. -1.
</event>
<event>
 5   0  0.6606947E-03  0.1003991E+04  0.7818609E-02  0.9304179E-01
        2   -1    0    0  501    0  0.00000000000E+00  0.00000000000E+00  0.20858426424E+03  0.20858426426E+03  0.25500000920E-02 0. -1.
       -2   -1    0    0    0  501  0.00000000000E+00  0.00000000000E+00 -0.12081414952E+04  0.12081414952E+04  0.25500000920E-02 0.  1.
    10030    2    1    2    0    0  0.00000000000E+00  0.00000000000E+00 -0.99955723095E+03  0.14167257595E+04  0.10039906471E+04 0.  0.
        1    1    3    3  502    0 -0.25198328547E+03 -0.42519349637E+03 -0.37584129134E+03  0.62092009293E+03  0.50400001928E-02 0.  1.
       -1    1    3    3    0  502  0.25198328547E+03  0.42519349637E+03 -0.62371593961E+03  0.79580566652E+03  0.50400001928E-02 0. -1.
</event>
<event>
 5   0  0.3640180E-03  0.9938879E+03  0.7818609E-02  0.9315274E-01
       -1   -1    0    0    0  501  0.00000000000E+00  0.00000000000E+00  0.11330846342E+03  0.11330846353E+03  0.50400001928E-02 0.  1.
        1   -1    0    0  501    0  0.00000000000E+00  0.00000000000E+00 -0.21794777228E+04  0.21794777228E+04  0.50400001928E-02 0. -1.
    10030    2    1    2    0    0  0.00000000000E+00  0.00000000000E+00 -0.20661692593E+04  0.22927861863E+04  0.99388786482E+03 0.  0.
        5    1    3    3  502    0 -0.32241883289E+03 -0.78592225658E+02 -0.17984685427E+03  0.37748857298E+03  0.46999998093E+01 0.  1.
       -5    1    3    3    0  502  0.32241883289E+03  0.78592225658E+02 -0.18863224051E+04  0.19152976133E+04  0.46999998093E+01 0. -1.
</event>
<event>
 5   0  0.3569359E-03  0.1003478E+04  0.7818609E-02  0.9304738E-01
       -1   -1    0    0    0  501  0.00000000000E+00  0.00000000000E+00  0.19176059264E+03  0.19176059271E+03  0.50400001928E-02 0.  1.
        1   -1    0    0  501    0  0.00000000000E+00  0.00000000000E+00 -0.13127938599E+04  0.13127938600E+04  0.50400001928E-02 0. -1.
    10030    2    1    2    0    0  0.00000000000E+00  0.00000000000E+00 -0.11210332673E+04  0.15045544527E+04  0.10034782083E+04 0.  0.
        4    1    3    3  502    0 -0.52826028766E+02  0.88306329844E+02 -0.12968005696E+04  0.13008773684E+04  0.12699999809E+01 0. -1.
       -4    1    3    3    0  502  0.52826028766E+02 -0.88306329844E+02  0.17576730232E+03  0.20367708431E+03  0.12699999809E+01 0.  1.
</event>
<event>
 5   0  0.6376961E-03  0.1009555E+04  0.7818609E-02  0.9298127E-01
        2   -1    0    0  501    0  0.00000000000E+00  0.00000000000E+00  0.31261136887E+03  0.31261136888E+03  0.25500000920E-02 0. -1.
       -2   -1    0    0    0  501  0.00000000000E+00  0.00000000000E+00 -0.81507021449E+03  0.81507021449E+03  0.25500000920E-02 0.  1.
    10030    2    1    2    0    0  0.00000000000E+00  0.00000000000E+00 -0.50245884562E+03  0.11276815834E+04  0.10095547840E+04 0.  0.
        3    1    3    3  502    0 -0.21589796407E+03 -0.13723965491E+03  0.23483442918E+03  0.34726628557E+03  0.10100000352E+00 0. -1.
       -3    1    3    3    0  502  0.21589796407E+03  0.13723965491E+03 -0.73729327480E+03  0.78041529779E+03  0.10100000352E+00 0.  1.
</event>
<event>
 5   0  0.3640180E-03  0.9707341E+03  0.7818609E-02  0.9341239E-01
       -1   -1    0    0    0  501  0.00000000000E+00  0.00000000000E+00  0.61464408039E+03  0.61464408041E+03  0.50400001928E-02 0. -1.
        1   -1    0    0  501    0  0.00000000000E+00  0.00000000000E+00 -0.38328066832E+03  0.38328066836E+03  0.50400001928E-02 0.  1.
    10030    2    1    2    0    0  0.00000000000E+00  0.00000000000E+00  0.23136341206E+03  0.99792474876E+03  0.97073414267E+03 0.  0.
        5    1    3    3  502    0  0.42642620345E+03  0.16754653695E+03  0.28031734714E+03  0.53713225014E+03  0.46999998093E+01 0. -1.
       -5    1    3    3    0  502 -0.42642620345E+03 -0.16754653695E+03 -0.48953935073E+02  0.46079249863E+03  0.46999998093E+01 0.  1.
</event>
<event>
 5   0  0.3466598E-03  0.9927521E+03  0.7818609E-02  0.9316530E-01
       -1   -1    0    0    0  501  0.00000000000E+00  0.00000000000E+00  0.49082490138E+03  0.49082490141E+03  0.50400001928E-02 0.  1.
        1   -1    0    0  501    0  0.00000000000E+00  0.00000000000E+00 -0.50198999001E+03  0.50198999004E+03  0.50400001928E-02 0. -1.
    10030    2    1    2    0    0  0.00000000000E+00  0.00000000000E+00 -0.11165088630E+02  0.99281489144E+03  0.99275210877E+03 0.  0.
        3    1    3    3  502    0 -0.36612118887E+03  0.74977013912E+02 -0.33228791398E+03  0.50008153889E+03  0.10100000352E+00 0. -1.
       -3    1    3    3    0  502  0.36612118887E+03 -0.74977013912E+02  0.32112282535E+03  0.49273335255E+03  0.10100000352E+00 0.  1.
</event>
<event>
 5   0  0.3643002E-03  0.9970127E+03  0.7818609E-02  0.9311827E-01
       -1   -1    0    0    0  501  0.00000000000E+00  0.00000000000E+00  0.34248917820E+03  0.34248917824E+03  0.50400001928E-02 0.  1.
        1   -1    0    0  501    0  0.00000000000E+00  0.00000000000E+00 -0.72559540987E+03  0.72559540988E+03  0.50400001928E-02 0. -1.
    10030    2    1    2    0    0  0.00000000000E+00  0.00000000000E+00 -0.38310623167E+03  0.10680845881E+04  0.99701268931E+03 0.  0.
        2    1    3    3  502    0 -0.19821138967E+03 -0.38649084910E+03 -0.45362548567E+03  0.62804379839E+03  0.25500000920E-02 0. -1.
       -2    1    3    3    0  502  0.19821138967E+03  0.38649084910E+03  0.70519254005E+02  0.44004078973E+03  0.25500000920E-02 0.  1.
</event>
<event>
 5   0  0.6199539E-03  0.1026522E+04  0.7818609E-02  0.9279925E-01
       -2   -1    0    0    0  501  0.00000000000E+00  0.00000000000E+00  0.18360262590E+04  0.18360262590E+04  0.25500000920E-02 0. -1.
        2   -1    0    0  501    0  0.00000000000E+00  0.00000000000E+00 -0.14348207141E+03  0.14348207143E+03  0.25500000920E-02 0.  1.
    10030    2    1    2    0    0  0.00000000000E+00  0.00000000000E+00  0.16925441876E+04  0.19795083304E+04  0.10265219936E+04 0.  0.
        2    1    3    3  502    0  0.13665149311E+03 -0.18583051963E+03 -0.37899720382E+02  0.23375842532E+03  0.25500000920E-02 0.  1.
       -2    1    3    3    0  502 -0.13665149311E+03  0.18583051963E+03  0.17304439080E+04  0.17457499051E+04  0.25500000920E-02 0. -1.
</event>
<event>
 5   0  0.3643002E-03  0.9990693E+03  0.7818609E-02  0.9309566E-01
        1   -1    0    0  501    0  0.00000000000E+00  0.00000000000E+00  0.15660014594E+04  0.15660014594E+04  0.50400001928E-02 0.  1.
       -1   -1    0    0    0  501  0.00000000000E+00  0.00000000000E+00 -0.15934523390E+03  0.15934523398E+03  0.50400001928E-02 0. -1.
    10030    2    1    2    0    0  0.00000000000E+00  0.00000000000E+00  0.14066562255E+04  0.17253466934E+04  0.99906930471E+03 0.  0.
        2    1    3    3  502    0  0.39376740745E+03 -0.19418363196E+03  0.29183874042E+03  0.52719057703E+03  0.25500000920E-02 0. -1.
       -2    1    3    3    0  502 -0.39376740745E+03  0.19418363196E+03  0.11148174851E+04  0.11981561163E+04  0.25500000920E-02 0.  1.
</event>
<event>
 5   0  0.3643002E-03  0.9955652E+03  0.7818609E-02  0.9313422E-01
       -1   -1    0    0    0  501  0.00000000000E+00  0.00000000000E+00  0.28464106396E+03  0.28464106401E+03  0.50400001928E-02 0.  1.
        1   -1    0    0  501    0  0.00000000000E+00  0.00000000000E+00 -0.87052626783E+03  0.87052626784E+03  0.50400001928E-02 0. -1.
    10030    2    1    2    0    0  0.00000000000E+00  0.00000000000E+00 -0.58588520386E+03  0.11551673319E+04  0.99556521256E+03 0.  0.
        2    1    3    3  502    0 -0.30237781814E+03  0.27400376186E+03  0.37852697736E+02  0.40980877631E+03  0.25500000920E-02 0.  1.
       -2    1    3    3    0  502  0.30237781814E+03 -0.27400376186E+03 -0.62373790160E+03  0.74535855554E+03  0.25500000920E-02 0. -1.
</event>
<event>
 5   0  0.3466598E-03  0.9995090E+03  0.7818609E-02  0.9309083E-01
        1   -1    0    0  501    0  0.00000000000E+00  0.00000000000E+00  0.14637114829E+04  0.14637114829E+04  0.50400001928E-02 0.  1.
       -1   -1    0    0    0  501  0.00000000000E+00  0.00000000000E+00 -0.17063101249E+03  0.17063101256E+03  0.50400001928E-02 0. -1.
    10030    2    1    2    0    0  0.00000000000E+00  0.00000000000E+00  0.12930804704E+04  0.16343424955E+04  0.99950902423E+03 0.  0.
        3    1    3    3  502    0  0.10731881055E+03 -0.44922386537E+03  0.95865668442E+03  0.10641156221E+04  0.10100000352E+00 0.  1.
       -3    1    3    3    0  502 -0.10731881055E+03  0.44922386537E+03  0.33442378599E+03  0.57022687341E+03  0.10100000352E+00 0. -1.
</event>
<event>
 5   0  0.6606947E-03  0.1000429E+04  0.7818609E-02  0.9308075E-01
       -2   -1    0    0    0  501  0.00000000000E+00  0.00000000000E+00  0.10360347112E+04  0.10360347112E+04  0.25500000920E-02 0. -1.
        2   -1    0    0  501    0  0.00000000000E+00  0.00000000000E+00 -0.24151166738E+03  0.24151166739E+03  0.25500000920E-02 0.  1.
    10030    2    1    2    0    0  0.00000000000E+00  0.00000000000E+00  0.79452304379E+03  0.12775463786E+04  0.10004288492E+04 0.  0.
        1    1    3    3  502    0  0.33492545233E+03  0.11073939898E+03  0.85014835931E+03  0.92042952254E+03  0.50400001928E-02 0. -1.
       -1    1    3    3    0  502 -0.33492545233E+03 -0.11073939898E+03 -0.55625315524E+02  0.35711685602E+03  0.50400001928E-02 0.  1.
</event>
<event>
 5   0  0.2417750E-03  0.9936968E+03  0.7818609E-02  0.9315485E-01
       -3   -1    0    0    0  501  0.00000000000E+00  0.00000000000E+00  0.24174982821E+03  0.24174984931E+03  0.10100000352E+00 0. -1.
        3   -1    0    0  501    0  0.00000000000E+00  0.00000000000E+00 -0.10211312922E+04  0.10211312972E+04  0.10100000352E+00 0.  1.
    10030    2    1    2    0    0  0.00000000000E+00  0.00000000000E+00 -0.77938146397E+03  0.12628811465E+04  0.99369679670E+03 0.  0.
        5    1    3    3  502    0 -0.37446837561E+03 -0.17307800120E+02  0.24686502161E+02  0.37570951234E+03  0.46999998093E+01 0. -1.
       -5    1    3    3    0  502  0.37446837561E+03  0.17307800120E+02 -0.80406796614E+03  0.88717163415E+03  0.46999998093E+01 0.  1.
</event>
<event>
 5   0  0.6360455E-03  0.9938825E+03  0.7818609E-02  0.9315280E-01
        2   -1    0    0  501    0  0.00000000000E+00  0.00000000000E+00  0.51596108626E+03  0.51596108627E+03  0.25500000920E-02 0.  1.
       -2   -1    0    0    0  501  0.00000000000E+00  0.00000000000E+00 -0.47862249823E+03  0.47862249824E+03  0.25500000920E-02 0. -1.
    10030    2    1    2    0    0  0.00000000000E+00  0.00000000000E+00  0.37338588028E+02  0.99458358450E+03  0.99388245603E+03 0.  0.
        4    1    3    3  502    0  0.23658675331E+02  0.17761158473E+02  0.51507747743E+03  0.51592791388E+03  0.12699999809E+01 0.  1.
       -4    1    3    3    0  502 -0.23658675331E+02 -0.17761158473E+02 -0.47773888940E+03  0.47865567062E+03  0.12699999809E+01 0. -1.
</event>
<event>
 5   0  0.3608845E-03  0.1000609E+04  0.7818609E-02  0.9307877E-01
        1   -1    0    0  501    0  0.00000000000E+00  0.00000000000E+00  0.10009959021E+04  0.10009959021E+04  0.50400001928E-02 0.  1.
       -1   -1    0    0    0  501  0.00000000000E+00  0.00000000000E+00 -0.25005550882E+03  0.25005550887E+03  0.50400001928E-02 0. -1.
    10030    2    1    2    0    0  0.00000000000E+00  0.00000000000E+00  0.75094039329E+03  0.12510514110E+04  0.10006088940E+04 0.  0.
        1    1    3    3  502    0  0.46269544029E+02 -0.36768895917E+03  0.79570254094E+03  0.87776908984E+03  0.50400001928E-02 0.  1.
       -1    1    3    3    0  502 -0.46269544029E+02  0.36768895917E+03 -0.44762147646E+02  0.37328232116E+03  0.50400001928E-02 0. -1.
</event>
<event>
 5   0  0.6606947E-03  0.1008787E+04  0.7818609E-02  0.9298959E-01
       -2   -1    0    0    0  501  0.00000000000E+00  0.00000000000E+00  0.19098053830E+03  0.19098053832E+03  0.25500000920E-02 0.  1.
        2   -1    0    0  501    0  0.00000000000E+00  0.00000000000E+00 -0.13321402240E+04  0.13321402240E+04  0.25500000920E-02 0. -1.
    10030    2    1    2    0    0  0.00000000000E+00  0.00000000000E+00 -0.11411596857E+04  0.15231207623E+04  0.10087871075E+04 0.  0.
        1    1    3    3  502    0 -0.10997727981E+03  0.10152407876E+03  0.15667871018E+03  0.21668031496E+03  0.50400001928E-02 0.  1.
       -1    1    3    3    0  502  0.10997727981E+03 -0.10152407876E+03 -0.12978383959E+04  0.13064404473E+04  0.50400001928E-02 0. -1.
</event>
<event>
 5   0  0.6360455E-03  0.1000729E+04  0.7818609E-02  0.9307745E-01
        2   -1    0    0  501    0  0.00000000000E+00  0.00000000000E+00  0.11466242398E+04  0.11466242398E+04  0.25500000920E-02 0. -1.
       -2   -1    0    0    0  501  0.00000000000E+00  0.00000000000E+00 -0.21834947772E+03  0.21834947774E+03  0.25500000920E-02 0.  1.
    10030    2    1    2    0    0  0.00000000000E+00  0.00000000000E+00  0.92827476211E+03  0.13649737176E+04  0.10007293419E+04 0.  0.
        4    1    3    3  502    0  0.39267572250E+03 -0.28800353119E+03  0.62098270320E+03  0.78915232217E+03  0.12699999809E+01 0. -1.
       -4    1    3    3    0  502 -0.39267572250E+03  0.28800353119E+03  0.30729205891E+03  0.57582139539E+03  0.12699999809E+01 0.  1.
</event>
<event>
 5   0  0.6022787E-03  0.9971979E+03  0.7818609E-02  0.9311623E-01
       -2   -1    0    0    0  501  0.00000000000E+00  0.00000000000E+00  0.60129496497E+03  0.60129496497E+03  0.25500000920E-02 0. -1.
        2   -1    0    0  501    0  0.00000000000E+00  0.00000000000E+00 -0.41344249720E+03  0.41344249721E+03  0.25500000920E-02 0.  1.
    10030    2    1    2    0    0  0.00000000000E+00  0.00000000000E+00  0.18785246777E+03  0.10147374622E+04  0.99719785775E+03 0.  0.
        5    1    3    3  502    0  0.32935948611E+03  0.24813068818E+03 -0.19123894578E+03  0.45457775340E+03  0.46999998093E+01 0.  1.
       -5    1    3    3    0  502 -0.32935948611E+03 -0.24813068818E+03  0.37909141354E+03  0.56015970877E+03  0.46999998093E+01 0. -1.
</event>
<event>
 5   0  0.6606947E-03  0.9237299E+03  0.7818609E-02  0.9396395E-01
        2   -1    0    0  501    0  0.00000000000E+00  0.00000000000E+00  0.31241234972E+03  0.31241234973E+03  0.25500000920E-02 0. -1.
       -2   -1    0    0    0  501  0.00000000000E+00  0.00000000000E+00 -0.68281301886E+03  0.68281301887E+03  0.25500000920E-02 0.  1.
    10030    2    1    2    0    0  0.00000000000E+00  0.00000000000E+00 -0.37040066914E+03  0.99522536860E+03  0.92372987318E+03 0.  0.
        1    1    3    3  502    0 -0.40569128376E+03  0.85029923879E+02  0.34292288991E+02  0.41592242880E+03  0.50400001928E-02 0.  1.
       -1    1    3    3    0  502  0.40569128376E+03 -0.85029923879E+02 -0.40469295813E+03  0.57930293980E+03  0.50400001928E-02 0. -1.
</event>
<event>
 5   0  0.6022787E-03  0.9950658E+03  0.7818609E-02  0.9313973E-01
       -2   -1    0    0    0  501  0.00000000000E+00  0.00000000000E+00  0.49241788198E+03  0.49241788199E+03  0.25500000920E-02 0. -1.
        2   -1    0    0  501    0  0.00000000000E+00  0.00000000000E+00 -0.50270109404E+03  0.50270109404E+03  0.25500000920E-02 0.  1.
    10030    2    1    2    0    0  0.00000000000E+00  0.00000000000E+00 -0.10283212054E+02  0.99511897603E+03  0.99506584305E+03 0.  0.
        5    1    3    3  502    0  0.25494500884E+03  0.40275874645E+03 -0.14764606615E+03  0.49903207935E+03  0.46999998093E+01 0.  1.
       -5    1    3    3    0  502 -0.25494500884E+03 -0.40275874645E+03  0.13736285410E+03  0.49608689668E+03  0.46999998093E+01 0. -1.
</event>
<event>
 5   0  0.6606947E-03  0.1001912E+04  0.7818609E-02  0.9306450E-01
       -2   -1    0    0    0  501  0.00000000000E+00  0.00000000000E+00  0.24881473761E+03  0.24881473762E+03  0.25500000920E-02 0.  1.
        2   -1    0    0  501    0  0.00000000000E+00  0.00000000000E+00 -0.10086100777E+04  0.10086100777E+04  0.25500000920E-02 0. -1.
    10030    2    1    2    0    0  0.00000000000E+00  0.00000000000E+00 -0.75979534007E+03  0.12574248153E+04  0.10019122753E+04 0.  0.
        1    1    3    3  502    0  0.37555836827E+03  0.16681833490E+03 -0.73946745547E+03  0.84598141975E+03  0.50400001928E-02 0. -1.
       -1    1    3    3    0  502 -0.37555836827E+03 -0.16681833490E+03 -0.20327884600E+02  0.41144339556E+03  0.50400001928E-02 0.  1.
</event>
<event>
 5   0  0.3569359E-03  0.1009780E+04  0.7818609E-02  0.9297883E-01
        1   -1    0    0  501    0  0.00000000000E+00  0.00000000000E+00  0.28674730228E+03  0.28674730232E+03  0.50400001928E-02 0. -1.
       -1   -1    0    0    0  501  0.00000000000E+00  0.00000000000E+00 -0.88898473962E+03  0.88898473963E+03  0.50400001928E-02 0.  1.
    10030    2    1    2    0    0  0.00000000000E+00  0.00000000000E+00 -0.60223743734E+03  0.11757320420E+04  0.10097801263E+04 0.  0.
        4    1    3    3  502    0  0.54979302697E+02  0.15410689612E+03 -0.85725717054E+03  0.87273313704E+03  0.12699999809E+01 0.  1.
       -4    1    3    3    0  502 -0.54979302697E+02 -0.15410689612E+03  0.25501973320E+03  0.30299890491E+03  0.12699999809E+01 0. -1.
</event>
<event>
 5   0  0.3466598E-03  0.9762151E+03  0.7818609E-02  0.9335023E-01
        1   -1    0    0  501    0  0.00000000000E+00  0.00000000000E+00  0.87411611871E+03  0.87411611873E+03  0.50400001928E-02 0.  1.
       -1   -1    0    0    0  501  0.00000000000E+00  0.00000000000E+00 -0.27255987490E+03  0.27255987494E+03  0.50400001928E-02 0. -1.
    10030    2    1    2    0    0  0.00000000000E+00  0.00000000000E+00  0.60155624382E+03  0.11466759937E+04  0.97621509924E+03 0.  0.
        3    1    3    3  502    0  0.28764888636E+03  0.27826724491E+03 -0.27430213388E+02  0.40115703686E+03  0.10100000352E+00 0.  1.
       -3    1    3    3    0  502 -0.28764888636E+03 -0.27826724491E+03  0.62898645720E+03  0.74551895681E+03  0.10100000352E+00 0. -1.
</event>
<event>
 5   0  0.6606947E-03  0.1003428E+04  0.7818609E-02  0.9304794E-01
        2   -1    0    0  501    0  0.00000000000E+00  0.00000000000E+00  0.95776052820E+03  0.95776052821E+03  0.25500000920E-02 0.  1.
       -2   -1    0    0    0  501  0.00000000000E+00  0.00000000000E+00 -0.26281798250E+03  0.26281798251E+03  0.25500000920E-02 0. -1.
    10030    2    1    2    0    0  0.00000000000E+00  0.00000000000E+00  0.69494254570E+03  0.12205785107E+04  0.10034275056E+04 0.  0.
        1    1    3    3  502    0  0.37420923938E+03  0.25577472686E+03  0.85834608237E+02  0.46132509766E+03  0.50400001928E-02 0. -1.
       -1    1    3    3    0  502 -0.37420923938E+03 -0.25577472686E+03  0.60910793746E+03  0.75925341306E+03  0.50400001928E-02 0.  1.
</event>
<event>
 5   0  0.3643002E-03  0.9951007E+03  0.7818609E-02  0.9313935E-01
       -1   -1    0    0    0  501  0.00000000000E+00  0.00000000000E+00  0.31368568843E+03  0.31368568847E+03  0.50400001928E-02 0.  1.
        1   -1    0    0  501    0  0.00000000000E+00  0.00000000000E+00 -0.78918597213E+03  0.78918597215E+03  0.50400001928E-02 0. -1.
    10030    2    1    2    0    0  0.00000000000E+00  0.00000000000E+00 -0.47550028370E+03  0.11028716606E+04  0.99510068837E+03 0.  0.
        2    1    3    3  502    0 -0.31817599525E+03 -0.17831564535E+03 -0.61281470858E+03  0.71314395488E+03  0.25500000920E-02 0. -1.
       -2    1    3    3    0  502  0.31817599525E+03  0.17831564535E+03  0.13731442488E+03  0.38972770573E+03  0.25500000920E-02 0.  1.
</event>
<event>
 5   0  0.6199539E-03  0.9924765E+03  0.7818609E-02  0.9316835E-01
        2   -1    0    0  501    0  0.00000000000E+00  0.00000000000E+00  0.24396047041E+04  0.24396047041E+04  0.25500000920E-02 0.  1.
       -2   -1    0    0    0  501  0.00000000000E+00  0.00000000000E+00 -0.10093946249E+03  0.10093946252E+03  0.25500000920E-02 0. -1.
    10030    2    1    2    0    0  0.00000000000E+00  0.00000000000E+00  0.23386652416E+04  0.25405441666E+04  0.99247647339E+03 0.  0.
        2    1    3    3  502    0 -0.34334033820E+03 -0.31648386893E+03  0.15992557716E+04  0.16660323077E+04  0.25500000920E-02 0.  1.
       -2    1    3    3    0  502  0.34334033820E+03  0.31648386893E+03  0.73940946998E+03  0.87451185894E+03  0.25500000920E-02 0. -1.
</event>
<event>
 5   0  0.3569359E-03  0.9983363E+03  0.7818609E-02  0.9310371E-01
       -1   -1    0    0    0  501  0.00000000000E+00  0.00000000000E+00  0.84416438367E+03  0.84416438369E+03  0.50400001928E-02 0. -1.
        1   -1    0    0  501    0  0.00000000000E+00  0.00000000000E+00 -0.29516627429E+03  0.29516627433E+03  0.50400001928E-02 0.  1.
    10030    2    1    2    0    0  0.00000000000E+00  0.00000000000E+00  0.54899810938E+03  0.11393306580E+04  0.99833632819E+03 0.  0.
        4    1    3    3  502    0  0.38716036537E+03 -0.20183441233E+03  0.55061278826E+03  0.70271355047E+03  0.12699999809E+01 0.  1.
       -4    1    3    3    0  502 -0.38716036537E+03  0.20183441233E+03 -0.16146788755E+01  0.43661710755E+03  0.12699999809E+01 0. -1.
</event>
<event>
 5   0  0.6022787E-03  0.1008357E+04  0.7818609E-02  0.9299426E-01
        2   -1    0    0  501    0  0.00000000000E+00  0.00000000000E+00  0.37633576404E+03  0.37633576405E+03  0.25500000920E-02 0.  1.
       -2   -1    0    0    0  501  0.00000000000E+00  0.00000000000E+00 -0.67545022842E+03  0.67545022842E+03  0.25500000920E-02 0. -1.
    10030    2    1    2    0    0  0.00000000000E+00  0.00000000000E+00 -0.29911446438E+03  0.10517859925E+04  0.10083572339E+04 0.  0.
        5    1    3    3  502    0 -0.24229590897E+03  0.43741864319E+03 -0.21660320093E+03  0.54496001098E+03  0.46999998093E+01 0. -1.
       -5    1    3    3    0  502  0.24229590897E+03 -0.43741864319E+03 -0.82511263445E+02  0.50682598149E+03  0.46999998093E+01 0.  1.
</event>
<event>
 5   0  0.3569359E-03  0.1009927E+04  0.7818609E-02  0.9297724E-01
        1   -1    0    0  501    0  0.00000000000E+00  0.00000000000E+00  0.15546143623E+03  0.15546143631E+03  0.50400001928E-02 0.  1.
       -1   -1    0    0    0  501  0.00000000000E+00  0.00000000000E+00 -0.16402010438E+04  0.16402010438E+04  0.50400001928E-02 0. -1.
    10030    2    1    2    0    0  0.00000000000E+00  0.00000000000E+00 -0.14847396075E+04  0.17956624801E+04  0.10099267499E+04 0.  0.
        4    1    3    3  502    0 -0.45058452124E+03  0.19803017733E+03 -0.94308872514E+03  0.10637952427E+04  0.12699999809E+01 0. -1.
       -4    1    3    3    0  502  0.45058452124E+03 -0.19803017733E+03 -0.54165088240E+03  0.73186723743E+03  0.12699999809E+01 0.  1.
</event>
<event>
 5   0  0.6606947E-03  0.9895830E+03  0.7818609E-02  0.9320044E-01
        2   -1    0    0  501    0  0.00000000000E+00  0.00000000000E+00  0.41882652109E+03  0.41882652110E+03  0.25500000920E-02 0. -1.
       -2   -1    0    0    0  501  0.00000000000E+00  0.00000000000E+00 -0.58453462733E+03  0.58453462733E+03  0.25500000920E-02 0.  1.
    10030    2    1    2    0    0  0.00000000000E+00  0.00000000000E+00 -0.16570810623E+03  0.10033611484E+04  0.98958295141E+03 0.  0.
        1    1    3    3  502    0  0.10872892092E+03  0.31171058187E+03  0.29083290835E+03  0.43996505054E+03  0.50400001928E-02 0. -1.
       -1    1    3    3    0  502 -0.10872892092E+03 -0.31171058187E+03 -0.45654101458E+03  0.56339609789E+03  0.50400001928E-02 0.  1.
</event>
<event>
 5   0  0.3643002E-03  0.1002147E+04  0.7818609E-02  0.9306194E-01
        1   -1    0    0  501    0  0.00000000000E+00  0.00000000000E+00  0.74086423488E+03  0.74086423490E+03  0.50400001928E-02 0.  1.
       -1   -1    0    0    0  501  0.00000000000E+00  0.00000000000E+00 -0.33889400586E+03  0.33889400590E+03  0.50400001928E-02 0. -1.
    10030    2    1    2    0    0  0.00000000000E+00  0.00000000000E+00  0.40197022902E+03  0.10797582408E+04  0.10021465928E+04 0.  0.
        2    1    3    3  502    0 -0.18921995873E+03 -0.45643119414E+03  0.29074880158E+03  0.57329616552E+03  0.25500000920E-02 0.  1.
       -2    1    3    3    0  502  0.18921995873E+03  0.45643119414E+03  0.11122142744E+03  0.50646207528E+03  0.25500000920E-02 0. -1.
</event>
<event>
 5   0  0.3643002E-03  0.9967793E+03  0.7818609E-02  0.9312084E-01
       -1   -1    0    0    0  501  0.00000000000E+00  0.00000000000E+00  0.30878860124E+03  0.30878860128E+03  0.50400001928E-02 0. -1.
        1   -1    0    0  501    0  0.00000000000E+00  0.00000000000E+00 -0.80440877924E+03  0.80440877926E+03  0.50400001928E-02 0.  1.
    10030    2    1    2    0    0  0.00000000000E+00  0.00000000000E+00 -0.49562017800E+03  0.11131973805E+04  0.99677933726E+03 0.  0.
        2    1    3    3  502    0 -0.26368038090E+03 -0.17139611469E+03 -0.67960422153E+03  0.74884302049E+03  0.25500000920E-02 0.  1.
       -2    1    3    3    0  502  0.26368038090E+03  0.17139611469E+03  0.18398404353E+03  0.36435436005E+03  0.25500000920E-02 0. -1.
</event>
<event>
 5   0  0.3466598E-03  0.1006751E+04  0.7818609E-02  0.9301171E-01
       -1   -1    0    0    0  501  0.00000000000E+00  0.00000000000E+00  0.26714842919E+03  0.26714842923E+03  0.50400001928E-02 0. -1.
        1   -1    0    0  501    0  0.00000000000E+00  0.00000000000E+00 -0.94848776944E+03  0.94848776945E+03  0.50400001928E-02 0.  1.
    10030    2    1    2    0    0  0.00000000000E+00  0.00000000000E+00 -0.68133934025E+03  0.12156361987E+04  0.10067512458E+04 0.  0.
        3    1    3    3  502    0 -0.26370845802E+02 -0.45670648261E+03 -0.87067017930E+02  0.46567897588E+03  0.10100000352E+00 0. -1.
       -3    1    3    3    0  502  0.26370845802E+02  0.45670648261E+03 -0.59427232232E+03  0.74995722281E+03  0.10100000352E+00 0.  1.
</event>
<event>
 5   0  0.3640180E-03  0.1015934E+04  0.7818609E-02  0.9291239E-01
       -1   -1    0    0    0  501  0.00000000000E+00  0.00000000000E+00  0.25669101123E+03  0.25669101128E+03  0.50400001928E-02 0.  1.
        1   -1    0    0  501    0  0.00000000000E+00  0.00000000000E+00 -0.10052178884E+04  0.10052178884E+04  0.50400001928E-02 0. -1.
    10030    2    1    2    0    0  0.00000000000E+00  0.00000000000E+00 -0.74852687716E+03  0.12619088997E+04  0.10159338489E+04 0.  0.
        5    1    3    3  502    0  0.44792835599E+03 -0.16890018951E+03 -0.16331836463E+03  0.50582809762E+03  0.46999998093E+01 0. -1.
       -5    1    3    3    0  502 -0.44792835599E+03  0.16890018951E+03 -0.58520851253E+03  0.75608080206E+03  0.46999998093E+01 0.  1.
</event>
<event>
 5   0  0.3569359E-03  0.1001459E+04  0.7818609E-02  0.9306946E-01
       -1   -1    0    0    0  501  0.00000000000E+00  0.00000000000E+00  0.24679221283E+03  0.24679221288E+03  0.50400001928E-02 0. -1.
        1   -1    0    0  501    0  0.00000000000E+00  0.00000000000E+00 -0.10159553611E+04  0.10159553611E+04  0.50400001928E-02 0.  1.
    10030    2    1    2    0    0  0.00000000000E+00  0.00000000000E+00 -0.76916314822E+03  0.12627475740E+04  0.10014586796E+04 0.  0.
        4    1    3    3  502    0  0.13494273949E+03 -0.47877161029E+03 -0.31218675555E+03  0.58727674992E+03  0.12699999809E+01 0.  1.
       -4    1    3    3    0  502 -0.13494273949E+03  0.47877161029E+03 -0.45697639267E+03  0.67547082403E+03  0.12699999809E+01 0. -1.
</event>
<event>
 5   0  0.6360455E-03  0.9968465E+03  0.7818609E-02  0.9312010E-01
        2   -1    0    0  501    0  0.00000000000E+00  0.00000000000E+00  0.12598010184E+04  0.12598010184E+04  0.25500000920E-02 0. -1.
       -2   -1    0    0    0  501  0.00000000000E+00  0.00000000000E+00 -0.19719441760E+03  0.19719441762E+03  0.25500000920E-02 0.  1.
    10030    2    1    2    0    0  0.00000000000E+00  0.00000000000E+00  0.10626066008E+04  0.14569954360E+04  0.99684648392E+03 0.  0.
        4    1    3    3  502    0 -0.20004447162E+03 -0.45343442549E+03  0.45391349002E+03  0.67205627604E+03  0.12699999809E+01 0. -1.
       -4    1    3    3    0  502  0.20004447162E+03  0.45343442549E+03  0.60869311074E+03  0.78493915994E+03  0.12699999809E+01 0.  1.
</event>
<event>
 5   0  0.6606947E-03  0.9915431E+03  0.7818609E-02  0.9317869E-01
       -2   -1    0    0    0  501  0.00000000000E+00  0.00000000000E+00  0.13414471704E+03  0.13414471706E+03  0.25500000920E-02 0.  1.
        2   -1    0    0  501    0  0.00000000000E+00  0.00000000000E+00 -0.18322707964E+04  0.18322707964E+04  0.25500000920E-02 0. -1.
    10030    2    1    2    0    0  0.00000000000E+00  0.00000000000E+00 -0.16981260794E+04  0.19664155135E+04  0.99154313582E+03 0.  0.
        1    1    3    3  502    0  0.54287366836E+02  0.23309860413E+03 -0.17101120000E+04  0.17267788306E+04  0.50400001928E-02 0. -1.
       -1    1    3    3    0  502 -0.54287366836E+02 -0.23309860413E+03  0.11985920598E+02  0.23963668284E+03  0.50400001928E-02 0.  1.
</event>
<event>
 5   0  0.6022787E-03  0.9975723E+03  0.7818609E-02  0.9311211E-01
        2   -1    0    0  501    0  0.00000000000E+00  0.00000000000E+00  0.13020841914E+04  0.13020841914E+04  0.25500000920E-02 0.  1.
       -2   -1    0    0    0  501  0.00000000000E+00  0.00000000000E+00 -0.19106875859E+03  0.19106875860E+03  0.25500000920E-02 0. -1.
    10030    2    1    2    0    0  0.00000000000E+00  0.00000000000E+00  0.11110154328E+04  0.14931529500E+04  0.99757227316E+03 0.  0.
        5    1    3    3  502    0 -0.27499831044E+03 -0.24984164358E+03  0.10535590955E+04  0.11171632716E+04  0.46999998093E+01 0.  1.
       -5    1    3    3    0  502  0.27499831044E+03  0.24984164358E+03  0.57456337317E+02  0.37598967845E+03  0.46999998093E+01 0. -1.
</event>
<event>
 5   0  0.6199539E-03  0.9987158E+03  0.7818609E-02  0.9309954E-01
       -2   -1    0    0    0  501  0.00000000000E+00  0.00000000000E+00  0.42973716846E+03  0.42973716847E+03  0.25500000920E-02 0. -1.
        2   -1    0    0  501    0  0.00000000000E+00  0.00000000000E+00 -0.58025778143E+03  0.58025778144E+03  0.25500000920E-02 0.  1.
    10030    2    1    2    0    0  0.00000000000E+00  0.00000000000E+00 -0.15052061297E+03  0.10099949499E+04  0.99871584743E+03 0.  0.
        2    1    3    3  502    0 -0.47610751655E+02 -0.15350370698E+03 -0.55338743595E+03  0.57625326550E+03  0.25500000920E-02 0.  1.
       -2    1    3    3    0  502  0.47610751655E+02  0.15350370698E+03  0.40286682298E+03  0.43374168440E+03  0.25500000920E-02 0. -1.
</event>
<event>
 5   0  0.3643002E-03  0.1006673E+04  0.7818609E-02  0.9301256E-01
       -1   -1    0    0    0  501  0.00000000000E+00  0.00000000000E+00  0.21866288972E+03  0.21866288978E+03  0.50400001928E-02 0.  1.
        1   -1    0    0  501    0  0.00000000000E+00  0.00000000000E+00 -0.11586220599E+04  0.11586220599E+04  0.50400001928E-02 0. -1.
    10030    2    1    2    0    0  0.00000000000E+00  0.00000000000E+00 -0.93995917018E+03  0.13772849497E+04  0.10066730308E+04 0.  0.
        2    1    3    3  502    0  0.31596779284E+03 -0.38971528988E+03 -0.41467506102E+03  0.65089865534E+03  0.25500000920E-02 0.  1.
       -2    1    3    3    0  502 -0.31596779284E+03  0.38971528988E+03 -0.52528410915E+03  0.72638629435E+03  0.25500000920E-02 0. -1.
</event>
<event>
 5   0  0.3608845E-03  0.9892892E+03  0.7818609E-02  0.9320371E-01
       -1   -1    0    0    0  501  0.00000000000E+00  0.00000000000E+00  0.24419484135E+03  0.24419484140E+03  0.50400001928E-02 0. -1.
        1   -1    0    0  501    0  0.00000000000E+00  0.00000000000E+00 -0.10019591972E+04  0.10019591972E+04  0.50400001928E-02 0.  1.
    10030    2    1    2    0    0  0.00000000000E+00  0.00000000000E+00 -0.75776435588E+03  0.12461540386E+04  0.98928917358E+03 0.  0.
        1    1    3    3  502    0  0.97741120122E+02 -0.21332288416E+03  0.16962568457E+03  0.28953903425E+03  0.50400001928E-02 0. -1.
       -1    1    3    3    0  502 -0.97741120122E+02  0.21332288416E+03 -0.92739004044E+03  0.95661500438E+03  0.50400001928E-02 0.  1.
</event>
<event>
 5   0  0.6022787E-03  0.1006081E+04  0.7818609E-02  0.9301901E-01
        2   -1    0    0  501    0  0.00000000000E+00  0.00000000000E+00  0.28079766330E+04  0.28079766330E+04  0.25500000920E-02 0. -1.
       -2   -1    0    0    0  501  0.00000000000E+00  0.00000000000E+00 -0.90118122516E+02  0.90118122552E+02  0.25500000920E-02 0.  1.
    10030    2    1    2    0    0  0.00000000000E+00  0.00000000000E+00  0.27178585105E+04  0.28980947556E+04  0.10060806773E+04 0.  0.
        5    1    3    3  502    0 -0.67427174285E+02 -0.39514534350E+03  0.22342709007E+04  0.22699503990E+04  0.46999998093E+01 0. -1.
       -5    1    3    3    0  502  0.67427174285E+02  0.39514534350E+03  0.48358760984E+03  0.62814435659E+03  0.46999998093E+01 0.  1.
</event>
<event>
 5   0  0.6606947E-03  0.1004367E+04  0.7818609E-02  0.9303769E-01
       -2   -1    0    0    0  501  0.00000000000E+00  0.00000000000E+00  0.44232034906E+03  0.44232034906E+03  0.25500000920E-02 0. -1.
        2   -1    0    0  501    0  0.00000000000E+00  0.00000000000E+00 -0.57014803143E+03  0.57014803144E+03  0.25500000920E-02 0.  1.
    10030    2    1    2    0    0  0.00000000000E+00  0.00000000000E+00 -0.12782768238E+03  0.10124683805E+04  0.10043666189E+04 0.  0.
        1    1    3    3  502    0 -0.33386708435E+03  0.19385102065E+03 -0.38766273665E+03  0.54710862325E+03  0.50400001928E-02 0.  1.
       -1    1    3    3    0  502  0.33386708435E+03 -0.19385102065E+03  0.25983505427E+03  0.46535975726E+03  0.50400001928E-02 0. -1.
</event>
<event>
 5   0  0.3640180E-03  0.1003474E+04  0.7818609E-02  0.9304743E-01
       -1   -1    0    0    0  501  0.00000000000E+00  0.00000000000E+00  0.61751394554E+03  0.61751394556E+03  0.50400001928E-02 0.  1.
        1   -1    0    0  501    0  0.00000000000E+00  0.00000000000E+00 -0.40766676233E+03  0.40766676236E+03  0.50400001928E-02 0. -1.
    10030    2    1    2    0    0  0.00000000000E+00  0.00000000000E+00  0.20984718321E+03  0.10251807079E+04  0.10034737882E+04 0.  0.
        5    1    3    3  502    0  0.10424158829E+03  0.44271270949E+03 -0.11145254129E+03  0.46829970193E+03  0.46999998093E+01 0. -1.
       -5    1    3    3    0  502 -0.10424158829E+03 -0.44271270949E+03  0.32129972450E+03  0.55688100599E+03  0.46999998093E+01 0.  1.
</event>
<event>
 5   0  0.3466598E-03  0.1002738E+04  0.7818609E-02  0.9305547E-01
       -1   -1    0    0    0  501  0.00000000000E+00  0.00000000000E+00  0.68092231995E+03  0.68092231997E+03  0.50400001928E-02 0. -1.
        1   -1    0    0  501    0  0.00000000000E+00  0.00000000000E+00 -0.36916211562E+03  0.36916211566E+03  0.50400001928E-02 0.  1.
    10030    2    1    2    0    0  0.00000000000E+00  0.00000000000E+00  0.31176020432E+03  0.10500844356E+04  0.10027377010E+04 0.  0.
        3    1    3    3  502    0  0.67783253181E+02  0.25445180161E+03  0.60267568347E+03  0.65769162865E+03  0.10100000352E+00 0. -1.
       -3    1    3    3    0  502 -0.67783253181E+02 -0.25445180161E+03 -0.29091547915E+03  0.39239280697E+03  0.10100000352E+00 0.  1.
</event>
<event>
 5   0  0.6022787E-03  0.1012262E+04  0.7818609E-02  0.9295197E-01
       -2   -1    0    0    0  501  0.00000000000E+00  0.00000000000E+00  0.13770469523E+03  0.13770469525E+03  0.25500000920E-02 0. -1.
        2   -1    0    0  501    0  0.00000000000E+00  0.00000000000E+00 -0.18602750693E+04  0.18602750693E+04  0.25500000920E-02 0.  1.
    10030    2    1    2    0    0  0.00000000000E+00  0.00000000000E+00 -0.17225703741E+04  0.19979797646E+04  0.10122620441E+04 0.  0.
        5    1    3    3  502    0  0.48075642606E+02  0.64931710745E+02 -0.18474217527E+04  0.18491935044E+04  0.46999998093E+01 0.  1.
       -5    1    3    3    0  502 -0.48075642606E+02 -0.64931710745E+02  0.12485137860E+03  0.14878626015E+03  0.46999998093E+01 0. -1.
</event>
<event>
 5   0  0.3466598E-03  0.9964519E+03  0.7818609E-02  0.9312445E-01
       -1   -1    0    0    0  501  0.00000000000E+00  0.00000000000E+00  0.38447043507E+03  0.38447043510E+03  0.50400001928E-02 0. -1.
        1   -1    0    0  501    0  0.00000000000E+00  0.00000000000E+00 -0.64563902135E+03  0.64563902137E+03  0.50400001928E-02 0.  1.
    10030    2    1    2    0    0  0.00000000000E+00  0.00000000000E+00 -0.26116858628E+03  0.10301094565E+04  0.99645193655E+03 0.  0.
        3    1    3    3  502    0  0.41913996151E+03  0.46863980993E+02  0.14361931187E+03  0.44553457441E+03  0.10100000352E+00 0. -1.
       -3    1    3    3    0  502 -0.41913996151E+03 -0.46863980993E+02 -0.40478789815E+03  0.58457488207E+03  0.10100000352E+00 0.  1.
</event>
<event>
 5   0  0.6022787E-03  0.1001404E+04  0.7818609E-02  0.9307006E-01
        2   -1    0    0  501    0  0.00000000000E+00  0.00000000000E+00  0.36175584544E+03  0.36175584544E+03  0.25500000920E-02 0.  1.
       -2   -1    0    0    0  501  0.00000000000E+00  0.00000000000E+00 -0.69301567916E+03  0.69301567916E+03  0.25500000920E-02 0. -1.
    10030    2    1    2    0    0  0.00000000000E+00  0.00000000000E+00 -0.33125983372E+03  0.10547715246E+04  0.10014039603E+04 0.  0.
        5    1    3    3  502    0  0.41021427215E+03  0.20127023814E+03  0.49960673243E+02  0.45967773136E+03  0.46999998093E+01 0.  1.
       -5    1    3    3    0  502 -0.41021427215E+03 -0.20127023814E+03 -0.38122050696E+03  0.59509379325E+03  0.46999998093E+01 0. -1.
</event>
<event>
 5   0  0.3643002E-03  0.9850829E+03  0.7818609E-02  0.9325059E-01
        1   -1    0    0  501    0  0.00000000000E+00  0.00000000000E+00  0.16902765180E+04  0.16902765180E+04  0.50400001928E-02 0. -1.
       -1   -1    0    0    0  501  0.00000000000E+00  0.00000000000E+00 -0.14352508853E+03  0.14352508862E+03  0.50400001928E-02 0.  1.
    10030    2    1    2    0    0  0.00000000000E+00  0.00000000000E+00  0.15467514295E+04  0.18338016067E+04  0.98508291422E+03 0.  0.
        2    1    3    3  502    0  0.42404505270E+02 -0.24221510512E+03  0.15678342686E+04  0.15870005019E+04  0.25500000920E-02 0. -1.
       -2    1    3    3    0  502 -0.42404505270E+02  0.24221510512E+03 -0.21082839070E+02  0.24680110479E+03  0.25500000920E-02 0.  1.
</event>
<event>
 5   0  0.6606947E-03  0.1012713E+04  0.7818609E-02  0.9294710E-01
        2   -1    0    0  501    0  0.00000000000E+00  0.00000000000E+00  0.67820498721E+03  0.67820498722E+03  0.25500000920E-02 0.  1.
       -2   -1    0    0    0  501  0.00000000000E+00  0.00000000000E+00 -0.37805221546E+03  0.37805221547E+03  0.25500000920E-02 0. -1.
    10030    2    1    2    0    0  0.00000000000E+00  0.00000000000E+00  0.30015277175E+03  0.10562572027E+04  0.10127129859E+04 0.  0.
        1    1    3    3  502    0  0.13700298992E+03  0.13463062312E+03  0.63873124631E+03  0.66698787768E+03  0.50400001928E-02 0.  1.
       -1    1    3    3    0  502 -0.13700298992E+03 -0.13463062312E+03 -0.33857847456E+03  0.38926932501E+03  0.50400001928E-02 0. -1.
</event>
<event>
 5   0  0.3643002E-03  0.9338557E+03  0.7818609E-02  0.9384222E-01
       -1   -1    0    0    0  501  0.00000000000E+00  0.00000000000E+00  0.24124002768E+03  0.24124002773E+03  0.50400001928E-02 0.  1.
        1   -1    0    0  501    0  0.00000000000E+00  0.00000000000E+00 -0.90375385613E+03  0.90375385615E+03  0.50400001928E-02 0. -1.
    10030    2    1    2    0    0  0.00000000000E+00  0.00000000000E+00 -0.66251382846E+03  0.11449938839E+04  0.93385567473E+03 0.  0.
        2    1    3    3  502    0  0.11133278106E+03  0.35077955431E+02  0.22306208559E+03  0.25175810837E+03  0.25500000920E-02 0.  1.
       -2    1    3    3    0  502 -0.11133278106E+03 -0.35077955431E+02 -0.88557591405E+03  0.89323577551E+03  0.25500000920E-02 0. -1.
</event>
<event>
 5   0  0.6360455E-03  0.9997053E+03  0.7818609E-02  0.9308868E-01
       -2   -1    0    0    0  501  0.00000000000E+00  0.00000000000E+00  0.34939266965E+03  0.34939266966E+03  0.25500000920E-02 0.  1.
        2   -1    0    0  501    0  0.00000000000E+00  0.00000000000E+00 -0.71510565541E+03  0.71510565541E+03  0.25500000920E-02 0. -1.
    10030    2    1    2    0    0  0.00000000000E+00  0.00000000000E+00 -0.36571298576E+03  0.10644983251E+04  0.99970530465E+03 0.  0.
        4    1    3    3  502    0  0.42955684547E+03 -0.11026872338E+03  0.62680930973E+02  0.44789372272E+03  0.12699999809E+01 0. -1.
       -4    1    3    3    0  502 -0.42955684547E+03  0.11026872338E+03 -0.42839391673E+03  0.61660460235E+03  0.12699999809E+01 0.  1.
</event>
<event>
 5   0  0.3569359E-03  0.1000633E+04  0.7818609E-02  0.9307851E-01
        1   -1    0    0  501    0  0.00000000000E+00  0.00000000000E+00  0.60020050750E+03  0.60020050752E+03  0.50400001928E-02 0. -1.
       -1   -1    0    0    0  501  0.00000000000E+00  0.00000000000E+00 -0.41705479699E+03  0.41705479702E+03  0.50400001928E-02 0.  1.
    10030    2    1    2    0    0  0.00000000000E+00  0.00000000000E+00  0.18314571051E+03  0.10172553045E+04  0.10006328014E+04 0.  0.
        4    1    3    3  502    0 -0.43994959680E+03 -0.16188206154E+03  0.26927197376E+03  0.54062043832E+03  0.12699999809E+01 0. -1.
       -4    1    3    3    0  502  0.43994959680E+03  0.16188206154E+03 -0.86126263249E+02  0.47663486622E+03  0.12699999809E+01 0.  1.
</event>
<event>
 5   0  0.2417750E-03  0.1011324E+04  0.7818609E-02  0.9296211E-01
        4   -1    0    0  501    0  0.00000000000E+00  0.00000000000E+00  0.59586505594E+03  0.59586640935E+03  0.12699999809E+01 0. -1.
       -4   -1    0    0    0  501  0.00000000000E+00  0.00000000000E+00 -0.42911134304E+03  0.42911322239E+03  0.12699999809E+01 0.  1.
    10030    2    1    2    0    0  0.00000000000E+00  0.00000000000E+00  0.16675371290E+03  0.10249796317E+04  0.10113241047E+04 0.  0.
        3    1    3    3  502    0 -0.24471367044E+03  0.63600660814E+02 -0.36044504488E+03  0.44028452747E+03  0.10100000352E+00 0.  1.
       -3    1    3    3    0  502  0.24471367044E+03 -0.63600660814E+02  0.52719875777E+03  0.58469510427E+03  0.10100000352E+00 0. -1.
</event>
<event>
 5   0  0.3466598E-03  0.9289698E+03  0.7818609E-02  0.9390075E-01
       -1   -1    0    0    0  501  0.00000000000E+00  0.00000000000E+00  0.20689928642E+03  0.20689928648E+03  0.50400001928E-02 0. -1.
        1   -1    0    0  501    0  0.00000000000E+00  0.00000000000E+00 -0.10427595442E+04  0.10427595442E+04  0.50400001928E-02 0.  1.
    10030    2    1    2    0    0  0.00000000000E+00  0.00000000000E+00 -0.83586025781E+03  0.12496588307E+04  0.92896976410E+03 0.  0.
        3    1    3    3  502    0  0.36213581956E+03  0.22319104271E+03 -0.16702206785E+03  0.45700434868E+03  0.10100000352E+00 0. -1.
       -3    1    3    3    0  502 -0.36213581956E+03 -0.22319104271E+03 -0.66883818996E+03  0.79265448205E+03  0.10100000352E+00 0.  1.
</event>
<event>
 5   0  0.3643002E-03  0.1006359E+04  0.7818609E-02  0.9301598E-01
       -1   -1    0    0    0  501  0.00000000000E+00  0.00000000000E+00  0.19306758543E+03  0.19306758550E+03  0.50400001928E-02 0.  1.
        1   -1    0    0  501    0  0.00000000000E+00  0.00000000000E+00 -0.13114041185E+04  0.13114041185E+04  0.50400001928E-02 0. -1.
    10030    2    1    2    0    0  0.00000000000E+00  0.00000000000E+00 -0.11183365330E+04  0.15044717040E+04  0.10063590348E+04 0.  0.
        2    1    3    3  502    0  0.18333733492E+03 -0.31460043213E+03 -0.10783402396E+04  0.11381580218E+04  0.25500000920E-02 0. -1.
       -2    1    3    3    0  502 -0.18333733492E+03  0.31460043213E+03 -0.39996293480E+02  0.36631368220E+03  0.25500000920E-02 0.  1.
</event>
<event>
 5   0  0.3466598E-03  0.1004986E+04  0.7818609E-02  0.9303093E-01
       -1   -1    0    0    0  501  0.00000000000E+00  0.00000000000E+00  0.84152953641E+03  0.84152953642E+03  0.50400001928E-02 0.  1.
        1   -1    0    0  501    0  0.00000000000E+00  0.00000000000E+00 -0.30004794726E+03  0.30004794730E+03  0.50400001928E-02 0. -1.
    10030    2    1    2    0    0  0.00000000000E+00  0.00000000000E+00  0.54148158915E+03  0.11415774837E+04  0.10049859899E+04 0.  0.
        3    1    3    3  502    0  0.47485626636E+03  0.35629476626E+02  0.88493813875E+02  0.48434398788E+03  0.10100000352E+00 0. -1.
       -3    1    3    3    0  502 -0.47485626636E+03 -0.35629476626E+02  0.45298777527E+03  0.65723349584E+03  0.10100000352E+00 0.  1.
</event>
<event>
 5   0  0.3640180E-03  0.1064568E+04  0.7818609E-02  0.9240432E-01
       -1   -1    0    0    0  501  0.00000000000E+00  0.00000000000E+00  0.52888202529E+03  0.52888202531E+03  0.50400001928E-02 0. -1.
        1   -1    0    0  501    0  0.00000000000E+00  0.00000000000E+00 -0.53570740711E+03  0.53570740713E+03  0.50400001928E-02 0.  1.
    10030    2    1    2    0    0  0.00000000000E+00  0.00000000000E+00 -0.68253818183E+01  0.10645894324E+04  0.10645675525E+04 0.  0.
        5    1    3    3  502    0  0.44516422174E+03  0.29169991071E+03 -0.10039005087E+02  0.53233719938E+03  0.46999998093E+01 0.  1.
       -5    1    3    3    0  502 -0.44516422174E+03 -0.29169991071E+03  0.32136232689E+01  0.53225223306E+03  0.46999998093E+01 0. -1.
</event>
<event>
 5   0  0.3640180E-03  0.9787302E+03  0.7818609E-02  0.9332186E-01
        1   -1    0    0  501    0  0.00000000000E+00  0.00000000000E+00  0.18862064235E+04  0.18862064235E+04  0.50400001928E-02 0. -1.
       -1   -1    0    0    0  501  0.00000000000E+00  0.00000000000E+00 -0.12696287341E+03  0.12696287351E+03  0.50400001928E-02 0.  1.
    10030    2    1    2    0    0  0.00000000000E+00  0.00000000000E+00  0.17592435501E+04  0.20131692970E+04  0.97873017214E+03 0.  0.
        5    1    3    3  502    0 -0.51198208678E+01  0.48583967753E+03  0.99937783015E+03  0.11112355926E+04  0.46999998093E+01 0. -1.
       -5    1    3    3    0  502  0.51198208678E+01 -0.48583967753E+03  0.75986571991E+03  0.90193370439E+03  0.46999998093E+01 0.  1.
</event>
<event>
 5   0  0.3640180E-03  0.9952229E+03  0.7818609E-02  0.9313800E-01
        1   -1    0    0  501    0  0.00000000000E+00  0.00000000000E+00  0.40916838094E+03  0.40916838097E+03  0.50400001928E-02 0.  1.
       -1   -1    0    0    0  501  0.00000000000E+00  0.00000000000E+00 -0.60517181149E+03  0.60517181151E+03  0.50400001928E-02 0. -1.
    10030    2    1    2    0    0  0.00000000000E+00  0.00000000000E+00 -0.19600343055E+03  0.10143401925E+04  0.99522293045E+03 0.  0.
        5    1    3    3  502    0 -0.31098730954E+03  0.14224107089E+03  0.27039610830E+03  0.43598368584E+03  0.46999998093E+01 0.  1.
       -5    1    3    3    0  502  0.31098730954E+03 -0.14224107089E+03 -0.46639953885E+03  0.57835650664E+03  0.46999998093E+01 0. -1.
</event>
<event>
 5   0  0.6360455E-03  0.1046568E+04  0.7818609E-02  0.9258895E-01
       -2   -1    0    0    0  501  0.00000000000E+00  0.00000000000E+00  0.55002130156E+03  0.55002130156E+03  0.25500000920E-02 0.  1.
        2   -1    0    0  501    0  0.00000000000E+00  0.00000000000E+00 -0.49784628216E+03  0.49784628216E+03  0.25500000920E-02 0. -1.
    10030    2    1    2    0    0  0.00000000000E+00  0.00000000000E+00  0.52175019400E+02  0.10478675837E+04  0.10465678384E+04 0.  0.
        4    1    3    3  502    0 -0.84701928071E+02 -0.44681643156E+03 -0.23308741062E+03  0.51102905399E+03  0.12699999809E+01 0. -1.
       -4    1    3    3    0  502  0.84701928071E+02  0.44681643156E+03  0.28526243002E+03  0.53683852974E+03  0.12699999809E+01 0.  1.
</event>
<event>
 5   0  0.3569359E-03  0.9958811E+03  0.7818609E-02  0.9313074E-01
        1   -1    0    0  501    0  0.00000000000E+00  0.00000000000E+00  0.11470329637E+04  0.11470329637E+04  0.50400001928E-02 0. -1.
       -1   -1    0    0    0  501  0.00000000000E+00  0.00000000000E+00 -0.21616187643E+03  0.21616187649E+03  0.50400001928E-02 0.  1.
    10030    2    1    2    0    0  0.00000000000E+00  0.00000000000E+00  0.93087108729E+03  0.13631948402E+04  0.99588111302E+03 0.  0.
        4    1    3    3  502    0 -0.19587570593E+02 -0.15537150781E+03  0.11124450924E+04  0.11234142935E+04  0.12699999809E+01 0. -1.
       -4    1    3    3    0  502  0.19587570593E+02  0.15537150781E+03 -0.18157400510E+03  0.23978054673E+03  0.12699999809E+01 0.  1.
</event>
<event>
 5   0  0.6376961E-03  0.9922400E+03  0.7818609E-02  0.9317097E-01
        2   -1    0    0  501    0  0.00000000000E+00  0.00000000000E+00  0.80481685745E+03  0.80481685746E+03  0.25500000920E-02 0. -1.
       -2   -1    0    0    0  501  0.00000000000E+00  0.00000000000E+00 -0.30582739886E+03  0.30582739887E+03  0.25500000920E-02 0.  1.
    10030    2    1    2    0    0  0.00000000000E+00  0.00000000000E+00  0.49898945859E+03  0.11106442563E+04  0.99223998324E+03 0.  0.
        3    1    3    3  502    0 -0.12191696461E+03  0.61014723884E+02 -0.28444868413E+03  0.31543241257E+03  0.10100000352E+00 0.  1.
       -3    1    3    3    0  502  0.12191696461E+03 -0.61014723884E+02  0.78343814272E+03  0.79521184377E+03  0.10100000352E+00 0. -1.
</event>
<event>
 5   0  0.6606947E-03  0.1004861E+04  0.7818609E-02  0.9303229E-01
       -2   -1    0    0    0  501  0.00000000000E+00  0.00000000000E+00  0.77084024861E+03  0.77084024861E+03  0.25500000920E-02 0.  1.
        2   -1    0    0  501    0  0.00000000000E+00  0.00000000000E+00 -0.32748233224E+03  0.32748233225E+03  0.25500000920E-02 0. -1.
    10030    2    1    2    0    0  0.00000000000E+00  0.00000000000E+00  0.44335791637E+03  0.10983225809E+04  0.10048613087E+04 0.  0.
        1    1    3    3  502    0  0.44655784334E+03 -0.22765203380E+03  0.18386010894E+03  0.53389502304E+03  0.50400001928E-02 0.  1.
       -1    1    3    3    0  502 -0.44655784334E+03  0.22765203380E+03  0.25949780743E+03  0.56442755782E+03  0.50400001928E-02 0. -1.
</event>
<event>
 5   0  0.3569359E-03  0.1002515E+04  0.7818609E-02  0.9305790E-01
       -1   -1    0    0    0  501  0.00000000000E+00  0.00000000000E+00  0.94454079905E+03  0.94454079907E+03  0.50400001928E-02 0.  1.
        1   -1    0    0  501    0  0.00000000000E+00  0.00000000000E+00 -0.26601201672E+03  0.26601201677E+03  0.50400001928E-02 0. -1.
    10030    2    1    2    0    0  0.00000000000E+00  0.00000000000E+00  0.67852878233E+03  0.12105528158E+04  0.10025152425E+04 0.  0.
        4    1    3    3  502    0 -0.65524976926E+02  0.25732705616E+03 -0.17410282460E+03  0.31752817649E+03  0.12699999809E+01 0. -1.
       -4    1    3    3    0  502  0.65524976926E+02 -0.25732705616E+03  0.85263160693E+03  0.89302463934E+03  0.12699999809E+01 0.  1.
</event>
<event>
 5   0  0.6606947E-03  0.1007102E+04  0.7818609E-02  0.9300790E-01
        2   -1    0    0  501    0  0.00000000000E+00  0.00000000000E+00  0.12571984389E+04  0.12571984389E+04  0.25500000920E-02 0. -1.
       -2   -1    0    0    0  501  0.00000000000E+00  0.00000000000E+00 -0.20168940630E+03  0.20168940632E+03  0.25500000920E-02 0.  1.
    10030    2    1    2    0    0  0.00000000000E+00  0.00000000000E+00  0.10555090326E+04  0.14588878452E+04  0.10071019944E+04 0.  0.
        1    1    3    3  502    0 -0.22870509915E+03  0.33203549443E+03  0.90742838372E+02  0.41326487231E+03  0.50400001928E-02 0.  1.
       -1    1    3    3    0  502  0.22870509915E+03 -0.33203549443E+03  0.96476619422E+03  0.10456229729E+04  0.50400001928E-02 0. -1.
</event>
<event>
 5   0  0.6376961E-03  0.8683314E+03  0.7818609E-02  0.9466058E-01
       -2   -1    0    0    0  501  0.00000000000E+00  0.00000000000E+00  0.11572506971E+03  0.11572506974E+03  0.25500000920E-02 0. -1.
        2   -1    0    0  501    0  0.00000000000E+00  0.00000000000E+00 -0.16288592309E+04  0.16288592309E+04  0.25500000920E-02 0.  1.
    10030    2    1    2    0    0  0.00000000000E+00  0.00000000000E+00 -0.15131341612E+04  0.17445843006E+04  0.86833138391E+03 0.  0.
        3    1    3    3  502    0  0.24066784293E+02  0.25279633701E+03 -0.49040206960E+02  0.25863130168E+03  0.10100000352E+00 0. -1.
       -3    1    3    3    0  502 -0.24066784293E+02 -0.25279633701E+03 -0.14640939542E+04  0.14859529989E+04  0.10100000352E+00 0.  1.
</event>
<event>
 5   0  0.3643002E-03  0.1006564E+04  0.7818609E-02  0.9301375E-01
        1   -1    0    0  501    0  0.00000000000E+00  0.00000000000E+00  0.82697193480E+03  0.82697193481E+03  0.50400001928E-02 0.  1.
       -1   -1    0    0    0  501  0.00000000000E+00  0.00000000000E+00 -0.30628913924E+03  0.30628913928E+03  0.50400001928E-02 0. -1.
    10030    2    1    2    0    0  0.00000000000E+00  0.00000000000E+00  0.52068279556E+03  0.11332610741E+04  0.10065635044E+04 0.  0.
        2    1    3    3  502    0 -0.42403373413E+03 -0.15695390172E+03  0.50919053070E+03  0.68096558760E+03  0.25500000920E-02 0. -1.
       -2    1    3    3    0  502  0.42403373413E+03  0.15695390172E+03  0.11492264861E+02  0.45229548649E+03  0.25500000920E-02 0.  1.
</event>
<event>
 5   0  0.6376961E-03  0.9935737E+03  0.7818609E-02  0.9315621E-01
        2   -1    0    0  501    0  0.00000000000E+00  0.00000000000E+00  0.15728967170E+04  0.15728967170E+04  0.25500000920E-02 0. -1.
       -2   -1    0    0    0  501  0.00000000000E+00  0.00000000000E+00 -0.15690616098E+03  0.15690616100E+03  0.25500000920E-02 0.  1.
    10030    2    1    2    0    0  0.00000000000E+00  0.00000000000E+00  0.14159905561E+04  0.17298028780E+04  0.99357372250E+03 0.  0.
        3    1    3    3  502    0 -0.39868752306E+01 -0.41669691966E+03  0.23713862237E+03  0.47946527972E+03  0.10100000352E+00 0.  1.
       -3    1    3    3    0  502  0.39868752306E+01  0.41669691966E+03  0.11788519337E+04  0.12503375983E+04  0.10100000352E+00 0. -1.
</event>
<event>
 5   0  0.3569359E-03  0.1043595E+04  0.7818609E-02  0.9261982E-01
        1   -1    0    0  501    0  0.00000000000E+00  0.00000000000E+00  0.11310814443E+04  0.11310814443E+04  0.50400001928E-02 0. -1.
       -1   -1    0    0    0  501  0.00000000000E+00  0.00000000000E+00 -0.24071877797E+03  0.24071877802E+03  0.50400001928E-02 0.  1.
    10030    2    1    2    0    0  0.00000000000E+00  0.00000000000E+00  0.89036266634E+03  0.13718002223E+04  0.10435948315E+04 0.  0.
        4    1    3    3  502    0 -0.33807275709E+03 -0.27018795243E+03  0.82836556710E+03  0.93460464603E+03  0.12699999809E+01 0. -1.
       -4    1    3    3    0  502  0.33807275709E+03  0.27018795243E+03  0.61997099236E+02  0.43719557630E+03  0.12699999809E+01 0.  1.
</event>
<event>
 5   0  0.3643002E-03  0.1007253E+04  0.7818609E-02  0.9300625E-01
        1   -1    0    0  501    0  0.00000000000E+00  0.00000000000E+00  0.14948592256E+04  0.14948592256E+04  0.50400001928E-02 0.  1.
       -1   -1    0    0    0  501  0.00000000000E+00  0.00000000000E+00 -0.16967462820E+03  0.16967462827E+03  0.50400001928E-02 0. -1.
    10030    2    1    2    0    0  0.00000000000E+00  0.00000000000E+00  0.13251845974E+04  0.16645338539E+04  0.10072530633E+04 0.  0.
        2    1    3    3  502    0  0.19530069213E+03  0.15732797265E+03  0.13843324745E+04  0.14068656123E+04  0.25500000920E-02 0.  1.
       -2    1    3    3    0  502 -0.19530069213E+03 -0.15732797265E+03 -0.59147877066E+02  0.25766824154E+03  0.25500000920E-02 0. -1.
</event>
<event>
 5   0  0.3569359E-03  0.1002493E+04  0.7818609E-02  0.9305815E-01
        1   -1    0    0  501    0  0.00000000000E+00  0.00000000000E+00  0.41769360158E+03  0.41769360161E+03  0.50400001928E-02 0.  1.
       -1   -1    0    0    0  501  0.00000000000E+00  0.00000000000E+00 -0.60151244719E+03  0.60151244721E+03  0.50400001928E-02 0. -1.
    10030    2    1    2    0    0  0.00000000000E+00  0.00000000000E+00 -0.18381884561E+03  0.10192060488E+04  0.10024926942E+04 0.  0.
        4    1    3    3  502    0  0.18828127217E+03  0.23348417941E+03 -0.50020358624E+03  0.58324089369E+03  0.12699999809E+01 0. -1.
       -4    1    3    3    0  502 -0.18828127217E+03 -0.23348417941E+03  0.31638474063E+03  0.43596515513E+03  0.12699999809E+01 0.  1.
</event>
<event>
 5   0  0.6606947E-03  0.9880355E+03  0.7818609E-02  0.9321765E-01
       -2   -1    0    0    0  501  0.00000000000E+00  0.00000000000E+00  0.34889092941E+03  0.34889092941E+03  0.25500000920E-02 0. -1.
        2   -1    0    0  501    0  0.00000000000E+00  0.00000000000E+00 -0.69951235576E+03  0.69951235577E+03  0.25500000920E-02 0.  1.
    10030    2    1    2    0    0  0.00000000000E+00  0.00000000000E+00 -0.35062142636E+03  0.10484032852E+04  0.98803545673E+03 0.  0.
        1    1    3    3  502    0 -0.35739606503E+02 -0.49242662385E+03 -0.15717192539E+03  0.51813542004E+03  0.50400001928E-02 0. -1.
       -1    1    3    3    0  502  0.35739606503E+02  0.49242662385E+03 -0.19344950097E+03  0.53026786514E+03  0.50400001928E-02 0.  1.
</event>
<event>
 5   0  0.3608845E-03  0.1003215E+04  0.7818609E-02  0.9305025E-01
        1   -1    0    0  501    0  0.00000000000E+00  0.00000000000E+00  0.62854130843E+03  0.62854130845E+03  0.50400001928E-02 0.  1.
       -1   -1    0    0    0  501  0.00000000000E+00  0.00000000000E+00 -0.40030824138E+03  0.40030824141E+03  0.50400001928E-02 0. -1.
    10030    2    1    2    0    0  0.00000000000E+00  0.00000000000E+00  0.22823306705E+03  0.10288495499E+04  0.10032153624E+04 0.  0.
        1    1    3    3  502    0 -0.12651160519E+03  0.41184256392E+03 -0.14933415367E+03  0.45598264570E+03  0.50400001928E-02 0. -1.
       -1    1    3    3    0  502  0.12651160519E+03 -0.41184256392E+03  0.37756722072E+03  0.57286690417E+03  0.50400001928E-02 0.  1.
</event>
<event>
 5   0  0.3569359E-03  0.9916614E+03  0.7818609E-02  0.9317738E-01
       -1   -1    0    0    0  501  0.00000000000E+00  0.00000000000E+00  0.52822902639E+03  0.52822902642E+03  0.50400001928E-02 0.  1.
        1   -1    0    0  501    0  0.00000000000E+00  0.00000000000E+00 -0.46541949831E+03  0.46541949834E+03  0.50400001928E-02 0. -1.
    10030    2    1    2    0    0  0.00000000000E+00  0.00000000000E+00  0.62809528083E+02  0.99364852476E+03  0.99166141093E+03 0.  0.
        4    1    3    3  502    0  0.25770631963E+03  0.42319486843E+03  0.12927864081E+02  0.49565631885E+03  0.12699999809E+01 0. -1.
       -4    1    3    3    0  502 -0.25770631963E+03 -0.42319486843E+03  0.49881664002E+02  0.49799220591E+03  0.12699999809E+01 0.  1.
</event>
<event>
 5   0  0.6199539E-03  0.1010270E+04  0.7818609E-02  0.9297352E-01
        2   -1    0    0  501    0  0.00000000000E+00  0.00000000000E+00  0.42941262824E+03  0.42941262825E+03  0.25500000920E-02 0. -1.
       -2   -1    0    0    0  501  0.00000000000E+00  0.00000000000E+00 -0.59421019283E+03  0.59421019284E+03  0.25500000920E-02 0.  1.
    10030    2    1    2    0    0  0.00000000000E+00  0.00000000000E+00 -0.16479756459E+03  0.10236228211E+04  0.10102699850E+04 0.  0.
        2    1    3    3  502    0 -0.25872074308E+03 -0.35795104480E+03 -0.33078371436E+03  0.55179999916E+03  0.25500000920E-02 0.  1.
       -2    1    3    3    0  502  0.25872074308E+03  0.35795104480E+03  0.16598614977E+03  0.47182282194E+03  0.25500000920E-02 0. -1.
</event>
<event>
 5   0  0.6199539E-03  0.9928882E+03  0.7818609E-02  0.9316379E-01
        2   -1    0    0  501    0  0.00000000000E+00  0.00000000000E+00  0.10948202479E+04  0.10948202479E+04  0.25500000920E-02 0.  1.
       -2   -1    0    0    0  501  0.00000000000E+00  0.00000000000E+00 -0.22511159840E+03  0.22511159842E+03  0.25500000920E-02 0. -1.
    10030    2    1    2    0    0  0.00000000000E+00  0.00000000000E+00  0.86970864948E+03  0.13199318463E+04  0.99288818299E+03 0.  0.
        2    1    3    3  502    0  0.43087547507E+03  0.24113526924E+03  0.50337696704E+03  0.70511578060E+03  0.25500000920E-02 0. -1.
       -2    1    3    3    0  502 -0.43087547507E+03 -0.24113526924E+03  0.36633168244E+03  0.61481606571E+03  0.25500000920E-02 0.  1.
</event>
<event>
 5   0  0.2417750E-03  0.1007539E+04  0.7818609E-02  0.9300315E-01
       -4   -1    0    0    0  501  0.00000000000E+00  0.00000000000E+00  0.21131621758E+03  0.21132003386E+03  0.12699999809E+01 0.  1.
        4   -1    0    0  501    0  0.00000000000E+00  0.00000000000E+00 -0.12009515940E+04  0.12009522655E+04  0.12699999809E+01 0. -1.
    10030    2    1    2    0    0  0.00000000000E+00  0.00000000000E+00 -0.98963537643E+03  0.14122722994E+04  0.10075390163E+04 0.  0.
        4    1    3    3  502    0 -0.28397827023E+03  0.35757860716E+03 -0.19656076926E+03  0.49713566274E+03  0.12699999809E+01 0. -1.
       -4    1    3    3    0  502  0.28397827023E+03 -0.35757860716E+03 -0.79307460717E+03  0.91513663663E+03  0.12699999809E+01 0.  1.
</event>
<event>
 5   0  0.6606947E-03  0.9979718E+03  0.7818609E-02  0.9310772E-01
        2   -1    0    0  501    0  0.00000000000E+00  0.00000000000E+00  0.67264336828E+03  0.67264336829E+03  0.25500000920E-02 0.  1.
       -2   -1    0    0    0  501  0.00000000000E+00  0.00000000000E+00 -0.37016187939E+03  0.37016187940E+03  0.25500000920E-02 0. -1.
    10030    2    1    2    0    0  0.00000000000E+00  0.00000000000E+00  0.30248148890E+03  0.10428052477E+04  0.99797180996E+03 0.  0.
        1    1    3    3  502    0 -0.40680668584E+03 -0.12311546713E+03  0.42439976294E+03  0.60063654293E+03  0.50400001928E-02 0.  1.
       -1    1    3    3    0  502  0.40680668584E+03  0.12311546713E+03 -0.12191827404E+03  0.44216870475E+03  0.50400001928E-02 0. -1.
</event>
<event>
 5   0  0.3466598E-03  0.1004804E+04  0.7818609E-02  0.9303292E-01
       -1   -1    0    0    0  501  0.00000000000E+00  0.00000000000E+00  0.62492472057E+03  0.62492472059E+03  0.50400001928E-02 0. -1.
        1   -1    0    0  501    0  0.00000000000E+00  0.00000000000E+00 -0.40390103532E+03  0.40390103535E+03  0.50400001928E-02 0.  1.
    10030    2    1    2    0    0  0.00000000000E+00  0.00000000000E+00  0.22102368525E+03  0.10288257559E+04  0.10048039444E+04 0.  0.
        3    1    3    3  502    0 -0.59210399787E+02  0.36355827310E+03 -0.23930974707E+03  0.43926034948E+03  0.10100000352E+00 0.  1.
       -3    1    3    3    0  502  0.59210399787E+02 -0.36355827310E+03  0.46033343232E+03  0.58956540646E+03  0.10100000352E+00 0. -1.
</event>
<event>
 5   0  0.6360455E-03  0.1000258E+04  0.7818609E-02  0.9308262E-01
        2   -1    0    0  501    0  0.00000000000E+00  0.00000000000E+00  0.68369084878E+03  0.68369084879E+03  0.25500000920E-02 0. -1.
       -2   -1    0    0    0  501  0.00000000000E+00  0.00000000000E+00 -0.36585091914E+03  0.36585091915E+03  0.25500000920E-02 0.  1.
    10030    2    1    2    0    0  0.00000000000E+00  0.00000000000E+00  0.31783992964E+03  0.10495417679E+04  0.10002578177E+04 0.  0.
        4    1    3    3  502    0 -0.61164585999E+02 -0.34564629419E+03 -0.21488406979E+03  0.41156924523E+03  0.12699999809E+01 0.  1.
       -4    1    3    3    0  502  0.61164585999E+02  0.34564629419E+03  0.53272399943E+03  0.63797252271E+03  0.12699999809E+01 0. -1.
</event>
<event>
 5   0  0.6022787E-03  0.1018516E+04  0.7818609E-02  0.9288466E-01
       -2   -1    0    0    0  501  0.00000000000E+00  0.00000000000E+00  0.66198805742E+03  0.66198805742E+03  0.25500000920E-02 0.  1.
        2   -1    0    0  501    0  0.00000000000E+00  0.00000000000E+00 -0.39176527562E+03  0.39176527563E+03  0.25500000920E-02 0. -1.
    10030    2    1    2    0    0  0.00000000000E+00  0.00000000000E+00  0.27022278180E+03  0.10537533331E+04  0.10185164383E+04 0.  0.
        5    1    3    3  502    0 -0.21368505064E+03 -0.14884290391E+03 -0.31764281008E+03  0.41077311950E+03  0.46999998093E+01 0. -1.
       -5    1    3    3    0  502  0.21368505064E+03  0.14884290391E+03  0.58786559188E+03  0.64298021355E+03  0.46999998093E+01 0.  1.
</event>
<event>
 5   0  0.6376961E-03  0.1029414E+04  0.7818609E-02  0.9276860E-01
        2   -1    0    0  501    0  0.00000000000E+00  0.00000000000E+00  0.11647983272E+04  0.11647983272E+04  0.25500000920E-02 0.  1.
       -2   -1    0    0    0  501  0.00000000000E+00  0.00000000000E+00 -0.22744113011E+03  0.22744113012E+03  0.25500000920E-02 0. -1.
    10030    2    1    2    0    0  0.00000000000E+00  0.00000000000E+00  0.93735719707E+03  0.13922394573E+04  0.10294135183E+04 0.  0.
        3    1    3    3  502    0  0.50534913199E+03  0.59487827712E+02  0.57349626346E+03  0.76669062943E+03  0.10100000352E+00 0. -1.
       -3    1    3    3    0  502 -0.50534913199E+03 -0.59487827712E+02  0.36386093362E+03  0.62554882788E+03  0.10100000352E+00 0.  1.
</event>
<event>
 5   0  0.3608845E-03  0.1001034E+04  0.7818609E-02  0.9307412E-01
       -1   -1    0    0    0  501  0.00000000000E+00  0.00000000000E+00  0.72186953449E+03  0.72186953451E+03  0.50400001928E-02 0. -1.
        1   -1    0    0  501    0  0.00000000000E+00  0.00000000000E+00 -0.34703947507E+03  0.34703947510E+03  0.50400001928E-02 0.  1.
    10030    2    1    2    0    0  0.00000000000E+00  0.00000000000E+00  0.37483005943E+03  0.10689090096E+04  0.10010339142E+04 0.  0.
        1    1    3    3  502    0 -0.15533832084E+03 -0.45901334512E+03  0.32118495529E+03  0.58136307111E+03  0.50400001928E-02 0.  1.
       -1    1    3    3    0  502  0.15533832084E+03  0.45901334512E+03  0.53645104136E+02  0.48754593850E+03  0.50400001928E-02 0. -1.
</event>
<event>
 5   0  0.2417750E-03  0.1014642E+04  0.7818609E-02  0.9292630E-01
       -4   -1    0    0    0  501  0.00000000000E+00  0.00000000000E+00  0.32051487675E+03  0.32051739285E+03  0.12699999809E+01 0. -1.
        4   -1    0    0  501    0  0.00000000000E+00  0.00000000000E+00 -0.80299669473E+03  0.80299769903E+03  0.12699999809E+01 0.  1.
    10030    2    1    2    0    0  0.00000000000E+00  0.00000000000E+00 -0.48248181798E+03  0.11235150919E+04  0.10146415411E+04 0.  0.
        5    1    3    3  502    0 -0.30164379426E+02 -0.44187181967E+03  0.32671973319E+02  0.44412852041E+03  0.46999998093E+01 0. -1.
       -5    1    3    3    0  502  0.30164379426E+02  0.44187181967E+03 -0.51515379130E+03  0.67938657147E+03  0.46999998093E+01 0.  1.
</event>
<event>
 5   0  0.3643002E-03  0.9937237E+03  0.7818609E-02  0.9315455E-01
        1   -1    0    0  501    0  0.00000000000E+00  0.00000000000E+00  0.11520019944E+04  0.11520019944E+04  0.50400001928E-02 0. -1.
       -1   -1    0    0    0  501  0.00000000000E+00  0.00000000000E+00 -0.21429795771E+03  0.21429795777E+03  0.50400001928E-02 0.  1.
    10030    2    1    2    0    0  0.00000000000E+00  0.00000000000E+00  0.93770403669E+03  0.13662999522E+04  0.99372365318E+03 0.  0.
        2    1    3    3  502    0  0.15274398508E+03 -0.18712022094E+03  0.10658421782E+04  0.10928697319E+04  0.25500000920E-02 0. -1.
       -2    1    3    3    0  502 -0.15274398508E+03  0.18712022094E+03 -0.12813814148E+03  0.27343022030E+03  0.25500000920E-02 0.  1.
</event>
<event>
 5   0  0.6199539E-03  0.1004169E+04  0.7818609E-02  0.9303984E-01
        2   -1    0    0  501    0  0.00000000000E+00  0.00000000000E+00  0.14337931207E+04  0.14337931207E+04  0.25500000920E-02 0. -1.
       -2   -1    0    0    0  501  0.00000000000E+00  0.00000000000E+00 -0.17581966452E+03  0.17581966454E+03  0.25500000920E-02 0.  1.
    10030    2    1    2    0    0  0.00000000000E+00  0.00000000000E+00  0.12579734562E+04  0.16096127853E+04  0.10041693592E+04 0.  0.
        2    1    3    3  502    0  0.20120717590E+03  0.38147581584E+01 -0.10834371617E+03  0.22855467804E+03  0.25500000920E-02 0.  1.
       -2    1    3    3    0  502 -0.20120717590E+03 -0.38147581584E+01  0.13663171724E+04  0.13810581072E+04  0.25500000920E-02 0. -1.
</event>
<event>
 5   0  0.6360455E-03  0.9961064E+03  0.7818609E-02  0.9312826E-01
       -2   -1    0    0    0  501  0.00000000000E+00  0.00000000000E+00  0.25086646471E+03  0.25086646473E+03  0.25500000920E-02 0.  1.
        2   -1    0    0  501    0  0.00000000000E+00  0.00000000000E+00 -0.98880101169E+03  0.98880101169E+03  0.25500000920E-02 0. -1.
    10030    2    1    2    0    0  0.00000000000E+00  0.00000000000E+00 -0.73793454698E+03  0.12396674764E+04  0.99610644836E+03 0.  0.
        4    1    3    3  502    0 -0.45510010957E+03  0.13682352269E+03 -0.55447326831E+03  0.73025954582E+03  0.12699999809E+01 0. -1.
       -4    1    3    3    0  502  0.45510010957E+03 -0.13682352269E+03 -0.18346127867E+03  0.50940793060E+03  0.12699999809E+01 0.  1.
</event>
<event>
 5   0  0.6022787E-03  0.9977966E+03  0.7818609E-02  0.9310965E-01
       -2   -1    0    0    0  501  0.00000000000E+00  0.00000000000E+00  0.17767560477E+03  0.17767560478E+03  0.25500000920E-02 0.  1.
        2   -1    0    0  501    0  0.00000000000E+00  0.00000000000E+00 -0.14008648866E+04  0.14008648866E+04  0.25500000920E-02 0. -1.
    10030    2    1    2    0    0  0.00000000000E+00  0.00000000000E+00 -0.12231892818E+04  0.15785404914E+04  0.99779660440E+03 0.  0.
        5    1    3    3  502    0 -0.35555948012E+03 -0.23210013123E+03 -0.19728369065E+03  0.46822639761E+03  0.46999998093E+01 0.  1.
       -5    1    3    3    0  502  0.35555948012E+03  0.23210013123E+03 -0.10259055912E+04  0.11103140938E+04  0.46999998093E+01 0. -1.
</event>
<event>
 5   0  0.3569359E-03  0.9940089E+03  0.7818609E-02  0.9315140E-01
        1   -1    0    0  501    0  0.00000000000E+00  0.00000000000E+00  0.23767407414E+03  0.23767407419E+03  0.50400001928E-02 0. -1.
       -1   -1    0    0    0  501  0.00000000000E+00  0.00000000000E+00 -0.10392947782E+04  0.10392947782E+04  0.50400001928E-02 0.  1.
    10030    2    1    2    0    0  0.00000000000E+00  0.00000000000E+00 -0.80162070409E+03  0.12769688524E+04  0.99400890179E+03 0.  0.
        4    1    3    3  502    0  0.32214410802E+03  0.33028466302E+03 -0.16341813562E+03  0.48946081039E+03  0.12699999809E+01 0.  1.
       -4    1    3    3    0  502 -0.32214410802E+03 -0.33028466302E+03 -0.63820256847E+03  0.78750804203E+03  0.12699999809E+01 0. -1.
</event>
<event>
 5   0  0.3569359E-03  0.1002248E+04  0.7818609E-02  0.9306082E-01
        1   -1    0    0  501    0  0.00000000000E+00  0.00000000000E+00  0.27401033703E+03  0.27401033707E+03  0.50400001928E-02 0. -1.
       -1   -1    0    0    0  501  0.00000000000E+00  0.00000000000E+00 -0.91648174173E+03  0.91648174175E+03  0.50400001928E-02 0.  1.
    10030    2    1    2    0    0  0.00000000000E+00  0.00000000000E+00 -0.64247140471E+03  0.11904920788E+04  0.10022484142E+04 0.  0.
        4    1    3    3  502    0  0.34270464741E+03 -0.21930696685E+03  0.26253996306E+02  0.40771669857E+03  0.12699999809E+01 0. -1.
       -4    1    3    3    0  502 -0.34270464741E+03  0.21930696685E+03 -0.66872540101E+03  0.78277538025E+03  0.12699999809E+01 0.  1.
</event>
<event>
 5   0  0.6199539E-03  0.1000989E+04  0.7818609E-02  0.9307461E-01
       -2   -1    0    0    0  501  0.00000000000E+00  0.00000000000E+00  0.73899838094E+03  0.73899838094E+03  0.25500000920E-02 0. -1.
        2   -1    0    0  501    0  0.00000000000E+00  0.00000000000E+00 -0.33896494180E+03  0.33896494181E+03  0.25500000920E-02 0.  1.
    10030    2    1    2    0    0  0.00000000000E+00  0.00000000000E+00  0.40003343914E+03  0.10779633228E+04  0.10009885977E+04 0.  0.
        2    1    3    3  502    0  0.44929367783E+03 -0.67491964313E+02  0.42610023161E+03  0.62288151487E+03  0.25500000920E-02 0. -1.
       -2    1    3    3    0  502 -0.44929367783E+03  0.67491964313E+02 -0.26066792473E+02  0.45508180788E+03  0.25500000920E-02 0.  1.
</event>
<event>
 5   0  0.6606947E-03  0.1019914E+04  0.7818609E-02  0.9286969E-01
        2   -1    0    0  501    0  0.00000000000E+00  0.00000000000E+00  0.83632899281E+03  0.83632899282E+03  0.25500000920E-02 0.  1.
       -2   -1    0    0    0  501  0.00000000000E+00  0.00000000000E+00 -0.31094946718E+03  0.31094946719E+03  0.25500000920E-02 0. -1.
    10030    2    1    2    0    0  0.00000000000E+00  0.00000000000E+00  0.52537952563E+03  0.11472784600E+04  0.10199138291E+04 0.  0.
        1    1    3    3  502    0 -0.47008060194E+03  0.48672370178E+02  0.47821847761E+03  0.67233747798E+03  0.50400001928E-02 0.  1.
       -1    1    3    3    0  502  0.47008060194E+03 -0.48672370178E+02  0.47161048023E+02  0.47494098203E+03  0.50400001928E-02 0. -1.
</event>
<event>
 5   0  0.6606947E-03  0.1011827E+04  0.7818609E-02  0.9295668E-01
       -2   -1    0    0    0  501  0.00000000000E+00  0.00000000000E+00  0.21917822268E+03  0.21917822269E+03  0.25500000920E-02 0. -1.
        2   -1    0    0  501    0  0.00000000000E+00  0.00000000000E+00 -0.11677639112E+04  0.11677639112E+04  0.25500000920E-02 0.  1.
    10030    2    1    2    0    0  0.00000000000E+00  0.00000000000E+00 -0.94858568854E+03  0.13869421339E+04  0.10118268994E+04 0.  0.
        1    1    3    3  502    0 -0.19654380456E+03  0.29427784229E+03  0.21296904918E+02  0.35451724043E+03  0.50400001928E-02 0. -1.
       -1    1    3    3    0  502  0.19654380456E+03 -0.29427784229E+03 -0.96988259346E+03  0.10324248935E+04  0.50400001928E-02 0.  1.
</event>
<event>
 5   0  0.3643002E-03  0.9768804E+03  0.7818609E-02  0.9334272E-01
        1   -1    0    0  501    0  0.00000000000E+00  0.00000000000E+00  0.26396076326E+04  0.26396076326E+04  0.50400001928E-02 0. -1.
       -1   -1    0    0    0  501  0.00000000000E+00  0.00000000000E+00 -0.90382299447E+02  0.90382299588E+02  0.50400001928E-02 0.  1.
    10030    2    1    2    0    0  0.00000000000E+00  0.00000000000E+00  0.25492253331E+04  0.27299899322E+04  0.97688035638E+03 0.  0.
        2    1    3    3  502    0 -0.29612974713E+03  0.13881419296E+03  0.22884464381E+04  0.23116983599E+04  0.25500000920E-02 0. -1.
       -2    1    3    3    0  502  0.29612974713E+03 -0.13881419296E+03  0.26077889505E+03  0.41829157225E+03  0.25500000920E-02 0.  1.
</event>
<event>
 5   0  0.6022787E-03  0.9985077E+03  0.7818609E-02  0.9310183E-01
       -2   -1    0    0    0  501  0.00000000000E+00  0.00000000000E+00  0.14467889659E+03  0.14467889661E+03  0.25500000920E-02 0. -1.
        2   -1    0    0  501    0  0.00000000000E+00  0.00000000000E+00 -0.17228112217E+04  0.17228112218E+04  0.25500000920E-02 0.  1.
    10030    2    1    2    0    0  0.00000000000E+00  0.00000000000E+00 -0.15781323252E+04  0.18674901184E+04  0.99850773982E+03 0.  0.
        5    1    3    3  502    0  0.47637754399E+03  0.11206942010E+03 -0.97362052163E+03  0.10897036888E+04  0.46999998093E+01 0.  1.
       -5    1    3    3    0  502 -0.47637754399E+03 -0.11206942010E+03 -0.60451180353E+03  0.77778642952E+03  0.46999998093E+01 0. -1.
</event>
<event>
 5   0  0.3569359E-03  0.1002683E+04  0.7818609E-02  0.9305607E-01
        1   -1    0    0  501    0  0.00000000000E+00  0.00000000000E+00  0.99790118016E+03  0.99790118017E+03  0.50400001928E-02 0.  1.
       -1   -1    0    0    0  501  0.00000000000E+00  0.00000000000E+00 -0.25187189388E+03  0.25187189393E+03  0.50400001928E-02 0. -1.
    10030    2    1    2    0    0  0.00000000000E+00  0.00000000000E+00  0.74602928628E+03  0.12497730741E+04  0.10026829213E+04 0.  0.
        4    1    3    3  502    0  0.13547369445E+03  0.23306875804E+03 -0.15383938071E+03  0.31039061812E+03  0.12699999809E+01 0. -1.
       -4    1    3    3    0  502 -0.13547369445E+03 -0.23306875804E+03  0.89986866699E+03  0.93938245598E+03  0.12699999809E+01 0.  1.
</event>
<event>
 5   0  0.3608845E-03  0.1008766E+04  0.7818609E-02  0.9298983E-01
       -1   -1    0    0    0  501  0.00000000000E+00  0.00000000000E+00  0.53793673220E+03  0.53793673223E+03  0.50400001928E-02 0.  1.
        1   -1    0    0  501    0  0.00000000000E+00  0.00000000000E+00 -0.47292192596E+03  0.47292192599E+03  0.50400001928E-02 0. -1.
    10030    2    1    2    0    0  0.00000000000E+00  0.00000000000E+00  0.65014806238E+02  0.10108586582E+04  0.10087657319E+04 0.  0.
        1    1    3    3  502    0  0.10800494590E+03 -0.46275509573E+03 -0.13694319381E+03  0.49453087398E+03  0.50400001928E-02 0. -1.
       -1    1    3    3    0  502 -0.10800494590E+03  0.46275509573E+03  0.20195800004E+03  0.51632778423E+03  0.50400001928E-02 0.  1.
</event>
<event>
 5   0  0.3608845E-03  0.9925513E+03  0.7818609E-02  0.9316752E-01
        1   -1    0    0  501    0  0.00000000000E+00  0.00000000000E+00  0.66975476007E+03  0.66975476009E+03  0.50400001928E-02 0.  1.
       -1   -1    0    0    0  501  0.00000000000E+00  0.00000000000E+00 -0.36773090299E+03  0.36773090302E+03  0.50400001928E-02 0. -1.
    10030    2    1    2    0    0  0.00000000000E+00  0.00000000000E+00  0.30202385708E+03  0.10374856631E+04  0.99255130392E+03 0.  0.
        1    1    3    3  502    0  0.36875997147E+03 -0.29474175294E+03 -0.89962596654E+01  0.47216263109E+03  0.50400001928E-02 0. -1.
       -1    1    3    3    0  502 -0.36875997147E+03  0.29474175294E+03  0.31102011675E+03  0.56532303202E+03  0.50400001928E-02 0.  1.
</event>
<event>
 5   0  0.3643002E-03  0.1018846E+04  0.7818609E-02  0.9288113E-01
       -1   -1    0    0    0  501  0.00000000000E+00  0.00000000000E+00  0.33762034968E+03  0.33762034972E+03  0.50400001928E-02 0. -1.
        1   -1    0    0  501    0  0.00000000000E+00  0.00000000000E+00 -0.76864972548E+03  0.76864972549E+03  0.50400001928E-02 0.  1.
    10030    2    1    2    0    0  0.00000000000E+00  0.00000000000E+00 -0.43102937580E+03  0.11062700752E+04  0.10188459925E+04 0.  0.
        2    1    3    3  502    0 -0.50264024072E+03 -0.65115426495E+02 -0.15988831106E+03  0.53146166595E+03  0.25500000920E-02 0.  1.
       -2    1    3    3    0  502  0.50264024072E+03  0.65115426495E+02 -0.27114106474E+03  0.57480840926E+03  0.25500000920E-02 0. -1.
</event>
<event>
 5   0  0.2417750E-03  0.1000299E+04  0.7818609E-02  0.9308217E-01
        3   -1    0    0  501    0  0.00000000000E+00  0.00000000000E+00  0.18466946274E+03  0.18466949036E+03  0.10100000352E+00 0.  1.
       -3   -1    0    0    0  501  0.00000000000E+00  0.00000000000E+00 -0.13545806402E+04  0.13545806439E+04  0.10100000352E+00 0. -1.
    10030    2    1    2    0    0  0.00000000000E+00  0.00000000000E+00 -0.11699111774E+04  0.15392501343E+04  0.10002993616E+04 0.  0.
        5    1    3    3  502    0  0.13185411135E+03  0.19163458176E+03  0.96327346139E+02  0.25181415214E+03  0.46999998093E+01 0.  1.
       -5    1    3    3    0  502 -0.13185411135E+03 -0.19163458176E+03 -0.12662385236E+04  0.12874359822E+04  0.46999998093E+01 0. -1.
</event>
<event>
 5   0  0.3608845E-03  0.9998908E+03  0.7818609E-02  0.9308665E-01
       -1   -1    0    0    0  501  0.00000000000E+00  0.00000000000E+00  0.16423038585E+03  0.16423038593E+03  0.50400001928E-02 0.  1.
        1   -1    0    0  501    0  0.00000000000E+00  0.00000000000E+00 -0.15219193635E+04  0.15219193635E+04  0.50400001928E-02 0. -1.
    10030    2    1    2    0    0  0.00000000000E+00  0.00000000000E+00 -0.13576889777E+04  0.16861497495E+04  0.99989080279E+03 0.  0.
        1    1    3    3  502    0 -0.89158028310E+02 -0.41111879605E+02 -0.15055026039E+04  0.15087005770E+04  0.50400001928E-02 0. -1.
       -1    1    3    3    0  502  0.89158028310E+02  0.41111879605E+02  0.14781362627E+03  0.17744917242E+03  0.50400001928E-02 0.  1.
</event>
<event>
 5   0  0.6376961E-03  0.9958277E+03  0.7818609E-02  0.9313133E-01
        2   -1    0    0  501    0  0.00000000000E+00  0.00000000000E+00  0.32354723319E+03  0.32354723320E+03  0.25500000920E-02 0. -1.
       -2   -1    0    0    0  501  0.00000000000E+00  0.00000000000E+00 -0.76625046220E+03  0.76625046220E+03  0.25500000920E-02 0.  1.
    10030    2    1    2    0    0  0.00000000000E+00  0.00000000000E+00 -0.44270322900E+03  0.10897976954E+04  0.99582773005E+03 0.  0.
        3    1    3    3  502    0  0.47783923410E+03 -0.88419022259E+02 -0.34007847173E+03  0.59312868273E+03  0.10100000352E+00 0.  1.
       -3    1    3    3    0  502 -0.47783923410E+03  0.88419022259E+02 -0.10262475728E+03  0.49666901267E+03  0.10100000352E+00 0. -1.
</event>
<event>
 5   0  0.3466598E-03  0.1001279E+04  0.7818609E-02  0.9307143E-01
        1   -1    0    0  501    0  0.00000000000E+00  0.00000000000E+00  0.80165582421E+03  0.80165582423E+03  0.50400001928E-02 0.  1.
       -1   -1    0    0    0  501  0.00000000000E+00  0.00000000000E+00 -0.31265286291E+03  0.31265286296E+03  0.50400001928E-02 0. -1.
    10030    2    1    2    0    0  0.00000000000E+00  0.00000000000E+00  0.48900296130E+03  0.11143086872E+04  0.10012791590E+04 0.  0.
        3    1    3    3  502    0 -0.10381966227E+03 -0.73623584566E+01 -0.30047968769E+03  0.31799493630E+03  0.10100000352E+00 0. -1.
       -3    1    3    3    0  502  0.10381966227E+03  0.73623584566E+01  0.78948264899E+03  0.79631375089E+03  0.10100000352E+00 0.  1.
</event>
<event>
 5   0  0.6360455E-03  0.9959356E+03  0.7818609E-02  0.9313014E-01
        2   -1    0    0  501    0  0.00000000000E+00  0.00000000000E+00  0.13766355906E+04  0.13766355906E+04  0.25500000920E-02 0.  1.
       -2   -1    0    0    0  501  0.00000000000E+00  0.00000000000E+00 -0.18012896040E+03  0.18012896042E+03  0.25500000920E-02 0. -1.
    10030    2    1    2    0    0  0.00000000000E+00  0.00000000000E+00  0.11965066302E+04  0.15567645510E+04  0.99593561598E+03 0.  0.
        4    1    3    3  502    0 -0.48007120332E+03  0.67066336469E+02  0.42000257624E+03  0.64138134576E+03  0.12699999809E+01 0. -1.
       -4    1    3    3    0  502  0.48007120332E+03 -0.67066336469E+02  0.77650405393E+03  0.91538320522E+03  0.12699999809E+01 0.  1.
</event>
<event>
 5   0  0.6376961E-03  0.9605813E+03  0.7818609E-02  0.9352867E-01
       -2   -1    0    0    0  501  0.00000000000E+00  0.00000000000E+00  0.25524424710E+03  0.25524424711E+03  0.25500000920E-02 0.  1.
        2   -1    0    0  501    0  0.00000000000E+00  0.00000000000E+00 -0.90375834148E+03  0.90375834149E+03  0.25500000920E-02 0. -1.
    10030    2    1    2    0    0  0.00000000000E+00  0.00000000000E+00 -0.64851409438E+03  0.11590025886E+04  0.96058131866E+03 0.  0.
        3    1    3    3  502    0 -0.27495256279E+03  0.24761784456E+03 -0.69372096802E+03  0.78623298099E+03  0.10100000352E+00 0. -1.
       -3    1    3    3    0  502  0.27495256279E+03 -0.24761784456E+03  0.45206873641E+02  0.37276960760E+03  0.10100000352E+00 0.  1.
</event>
<event>
 5   0  0.6199539E-03  0.9478059E+03  0.7818609E-02  0.9367719E-01
        2   -1    0    0  501    0  0.00000000000E+00  0.00000000000E+00  0.61277207953E+03  0.61277207954E+03  0.25500000920E-02 0. -1.
       -2   -1    0    0    0  501  0.00000000000E+00  0.00000000000E+00 -0.36650498989E+03  0.36650498990E+03  0.25500000920E-02 0.  1.
    10030    2    1    2    0    0  0.00000000000E+00  0.00000000000E+00  0.24626708964E+03  0.97927706944E+03  0.94780593968E+03 0.  0.
        2    1    3    3  502    0 -0.16068066721E+03 -0.38268669980E+03 -0.11318949923E+03  0.43020837947E+03  0.25500000920E-02 0.  1.
       -2    1    3    3    0  502  0.16068066721E+03  0.38268669980E+03  0.35945658887E+03  0.54906868997E+03  0.25500000920E-02 0. -1.
</event>
<event>
 5   0  0.3640180E-03  0.9616270E+03  0.7818609E-02  0.9351663E-01
        1   -1    0    0  501    0  0.00000000000E+00  0.00000000000E+00  0.36591628997E+03  0.36591629000E+03  0.50400001928E-02 0. -1.
       -1   -1    0    0    0  501  0.00000000000E+00  0.00000000000E+00 -0.63178828905E+03  0.63178828907E+03  0.50400001928E-02 0.  1.
    10030    2    1    2    0    0  0.00000000000E+00  0.00000000000E+00 -0.26587199908E+03  0.99770457907E+03  0.96162701044E+03 0.  0.
        5    1    3    3  502    0 -0.43912646512E+03  0.17964845100E+03 -0.52209969232E+02  0.47734011899E+03  0.46999998093E+01 0. -1.
       -5    1    3    3    0  502  0.43912646512E+03 -0.17964845100E+03 -0.21366202985E+03  0.52036446008E+03  0.46999998093E+01 0.  1.
</event>
<event>
 5   0  0.3608845E-03  0.9647936E+03  0.7818609E-02  0.9348024E-01
       -1   -1    0    0    0  501  0.00000000000E+00  0.00000000000E+00  0.19944274048E+03  0.19944274054E+03  0.50400001928E-02 0.  1.
        1   -1    0    0  501    0  0.00000000000E+00  0.00000000000E+00 -0.11667844346E+04  0.11667844346E+04  0.50400001928E-02 0. -1.
    10030    2    1    2    0    0  0.00000000000E+00  0.00000000000E+00 -0.96734169413E+03  0.13662271752E+04  0.96479362608E+03 0.  0.
        1    1    3    3  502    0 -0.43744381861E+02  0.40786847983E+03 -0.84313384081E+03  0.93762729340E+03  0.50400001928E-02 0. -1.
       -1    1    3    3    0  502  0.43744381861E+02 -0.40786847983E+03 -0.12420785331E+03  0.42859988175E+03  0.50400001928E-02 0.  1.
</event>
<event>
 5   0  0.6606947E-03  0.9945098E+03  0.7818609E-02  0.9314587E-01
       -2   -1    0    0    0  501  0.00000000000E+00  0.00000000000E+00  0.35196584681E+03  0.35196584682E+03  0.25500000920E-02 0. -1.
        2   -1    0    0  501    0  0.00000000000E+00  0.00000000000E+00 -0.70251825302E+03  0.70251825302E+03  0.25500000920E-02 0.  1.
    10030    2    1    2    0    0  0.00000000000E+00  0.00000000000E+00 -0.35055240621E+03  0.10544840998E+04  0.99450979247E+03 0.  0.
        1    1    3    3  502    0 -0.42169329063E+03  0.33823668751E+02  0.10181298213E+03  0.43512659684E+03  0.50400001928E-02 0. -1.
       -1    1    3    3    0  502  0.42169329063E+03 -0.33823668751E+02 -0.45236538834E+03  0.61935750300E+03  0.50400001928E-02 0.  1.
</event>
<event>
 5   0  0.6360455E-03  0.9949568E+03  0.7818609E-02  0.9314093E-01
       -2   -1    0    0    0  501  0.00000000000E+00  0.00000000000E+00  0.17129423235E+03  0.17129423237E+03  0.25500000920E-02 0. -1.
        2   -1    0    0  501    0  0.00000000000E+00  0.00000000000E+00 -0.14447931567E+04  0.14447931567E+04  0.25500000920E-02 0.  1.
    10030    2    1    2    0    0  0.00000000000E+00  0.00000000000E+00 -0.12734989244E+04  0.16160873891E+04  0.99495675223E+03 0.  0.
        4    1    3    3  502    0 -0.34358033189E+03  0.24839924255E+03 -0.10594787870E+04  0.11411601733E+04  0.12699999809E+01 0.  1.
       -4    1    3    3    0  502  0.34358033189E+03 -0.24839924255E+03 -0.21402013733E+03  0.47492721573E+03  0.12699999809E+01 0. -1.
</event>
<event>
 5   0  0.2417750E-03  0.9971875E+03  0.7818609E-02  0.9311635E-01
        4   -1    0    0  501    0  0.00000000000E+00  0.00000000000E+00  0.88679901599E+03  0.88679992538E+03  0.12699999809E+01 0. -1.
       -4   -1    0    0    0  501  0.00000000000E+00  0.00000000000E+00 -0.28032678679E+03  0.28032966360E+03  0.12699999809E+01 0.  1.
    10030    2    1    2    0    0  0.00000000000E+00  0.00000000000E+00  0.60647222919E+03  0.11671295890E+04  0.99718750127E+03 0.  0.
        2    1    3    3  502    0 -0.31251473252E+03  0.19598678664E+03 -0.89369089951E+02  0.37955646856E+03  0.25500000920E-02 0.  1.
       -2    1    3    3    0  502  0.31251473252E+03 -0.19598678664E+03  0.69584131915E+03  0.78757312042E+03  0.25500000920E-02 0. -1.
</event>
<event>
 5   0  0.6376961E-03  0.9879964E+03  0.7818609E-02  0.9321809E-01
        2   -1    0    0  501    0  0.00000000000E+00  0.00000000000E+00  0.82940782621E+03  0.82940782622E+03  0.25500000920E-02 0. -1.
       -2   -1    0    0    0  501  0.00000000000E+00  0.00000000000E+00 -0.29422702650E+03  0.29422702651E+03  0.25500000920E-02 0.  1.
    10030    2    1    2    0    0  0.00000000000E+00  0.00000000000E+00  0.53518079971E+03  0.11236348527E+04  0.98799635318E+03 0.  0.
        3    1    3    3  502    0 -0.31346942349E+03  0.30350746147E+03  0.41561448654E+01  0.43634521009E+03  0.10100000352E+00 0.  1.
       -3    1    3    3    0  502  0.31346942349E+03 -0.30350746147E+03  0.53102465484E+03  0.68728964264E+03  0.10100000352E+00 0. -1.
</event>
<event>
 5   0  0.6360455E-03  0.9893123E+03  0.7818609E-02  0.9320345E-01
       -2   -1    0    0    0  501  0.00000000000E+00  0.00000000000E+00  0.90316024425E+02  0.90316024461E+02  0.25500000920E-02 0.  1.
        2   -1    0    0  501    0  0.00000000000E+00  0.00000000000E+00 -0.27092060902E+04  0.27092060902E+04  0.25500000920E-02 0. -1.
    10030    2    1    2    0    0  0.00000000000E+00  0.00000000000E+00 -0.26188900658E+04  0.27995221147E+04  0.98931233383E+03 0.  0.
        4    1    3    3  502    0 -0.18750701391E+02 -0.18078049502E+03 -0.75992274523E+01  0.18191354358E+03  0.12699999809E+01 0.  1.
       -4    1    3    3    0  502  0.18750701391E+02  0.18078049502E+03 -0.26112908384E+04  0.26176085711E+04  0.12699999809E+01 0. -1.
</event>
<event>
 5   0  0.3640180E-03  0.9864834E+03  0.7818609E-02  0.9323495E-01
       -1   -1    0    0    0  501  0.00000000000E+00  0.00000000000E+00  0.72972137227E+03  0.72972137228E+03  0.50400001928E-02 0. -1.
        1   -1    0    0  501    0  0.00000000000E+00  0.00000000000E+00 -0.33339759807E+03  0.33339759811E+03  0.50400001928E-02 0.  1.
    10030    2    1    2    0    0  0.00000000000E+00  0.00000000000E+00  0.39632377420E+03  0.10631189704E+04  0.98648335577E+03 0.  0.
        5    1    3    3  502    0  0.27112231580E+03 -0.41043105790E+03  0.15924117730E+03  0.51705010005E+03  0.46999998093E+01 0. -1.
       -5    1    3    3    0  502 -0.27112231580E+03  0.41043105790E+03  0.23708259690E+03  0.54606887034E+03  0.46999998093E+01 0.  1.
</event>
<event>
 5   0  0.3643002E-03  0.1000442E+04  0.7818609E-02  0.9308060E-01
        1   -1    0    0  501    0  0.00000000000E+00  0.00000000000E+00  0.48774460659E+03  0.48774460661E+03  0.50400001928E-02 0.  1.
       -1   -1    0    0    0  501  0.00000000000E+00  0.00000000000E+00 -0.51301666509E+03  0.51301666512E+03  0.50400001928E-02 0. -1.
    10030    2    1    2    0    0  0.00000000000E+00  0.00000000000E+00 -0.25272058507E+02  0.10007612717E+04  0.10004421253E+04 0.  0.
        2    1    3    3  502    0 -0.38269697689E+03 -0.67676575354E+02  0.30239937686E+03  0.49242509898E+03  0.25500000920E-02 0.  1.
       -2    1    3    3    0  502  0.38269697689E+03  0.67676575354E+02 -0.32767143537E+03  0.50833617276E+03  0.25500000920E-02 0. -1.
</event>
<event>
 5   0  0.2417750E-03  0.9664688E+03  0.7818609E-02  0.9346106E-01
       -3   -1    0    0    0  501  0.00000000000E+00  0.00000000000E+00  0.54563073078E+03  0.54563074012E+03  0.10100000352E+00 0.  1.
        3   -1    0    0  501    0  0.00000000000E+00  0.00000000000E+00 -0.42797346899E+03  0.42797348091E+03  0.10100000352E+00 0. -1.
    10030    2    1    2    0    0  0.00000000000E+00  0.00000000000E+00  0.11765726179E+03  0.97360422103E+03  0.96646880341E+03 0.  0.
        3    1    3    3  502    0 -0.56085138023E+02  0.10306294696E+02 -0.42457216493E+03  0.42838451869E+03  0.10100000352E+00 0. -1.
       -3    1    3    3    0  502  0.56085138023E+02 -0.10306294696E+02  0.54222942672E+03  0.54521970234E+03  0.10100000352E+00 0.  1.
</event>
<event>
 5   0  0.6360455E-03  0.1009556E+04  0.7818609E-02  0.9298126E-01
        2   -1    0    0  501    0  0.00000000000E+00  0.00000000000E+00  0.81495429223E+03  0.81495429223E+03  0.25500000920E-02 0.  1.
       -2   -1    0    0    0  501  0.00000000000E+00  0.00000000000E+00 -0.31265639354E+03  0.31265639355E+03  0.25500000920E-02 0. -1.
    10030    2    1    2    0    0  0.00000000000E+00  0.00000000000E+00  0.50229789869E+03  0.11276106858E+04  0.10095556843E+04 0.  0.
        4    1    3    3  502    0  0.26341794918E+03 -0.19653705396E+03  0.67907341869E+03  0.75442570900E+03  0.12699999809E+01 0.  1.
       -4    1    3    3    0  502 -0.26341794918E+03  0.19653705396E+03 -0.17677552000E+03  0.37318497679E+03  0.12699999809E+01 0. -1.
</event>
<event>
 5   0  0.6376961E-03  0.9993173E+03  0.7818609E-02  0.9309294E-01
       -2   -1    0    0    0  501  0.00000000000E+00  0.00000000000E+00  0.74326673085E+03  0.74326673085E+03  0.25500000920E-02 0.  1.
        2   -1    0    0  501    0  0.00000000000E+00  0.00000000000E+00 -0.33589391813E+03  0.33589391814E+03  0.25500000920E-02 0. -1.
    10030    2    1    2    0    0  0.00000000000E+00  0.00000000000E+00  0.40737281272E+03  0.10791606490E+04  0.99931731587E+03 0.  0.
        3    1    3    3  502    0 -0.78840827504E+02 -0.20843528528E+03 -0.27925573298E+03  0.35727429076E+03  0.10100000352E+00 0. -1.
       -3    1    3    3    0  502  0.78840827504E+02  0.20843528528E+03  0.68662854570E+03  0.72188635823E+03  0.10100000352E+00 0.  1.
</event>
<event>
 5   0  0.3640180E-03  0.9954255E+03  0.7818609E-02  0.9313576E-01
       -1   -1    0    0    0  501  0.00000000000E+00  0.00000000000E+00  0.16526956353E+03  0.16526956361E+03  0.50400001928E-02 0. -1.
        1   -1    0    0  501    0  0.00000000000E+00  0.00000000000E+00 -0.14988724452E+04  0.14988724452E+04  0.50400001928E-02 0.  1.
    10030    2    1    2    0    0  0.00000000000E+00  0.00000000000E+00 -0.13336028817E+04  0.16641420088E+04  0.99542552687E+03 0.  0.
        5    1    3    3  502    0  0.14097336547E+03  0.40476519540E+03 -0.10896933312E+04  0.11709662674E+04  0.46999998093E+01 0.  1.
       -5    1    3    3    0  502 -0.14097336547E+03 -0.40476519540E+03 -0.24390955045E+03  0.49317574147E+03  0.46999998093E+01 0. -1.
</event>
<event>
 5   0  0.6199539E-03  0.1050187E+04  0.7818609E-02  0.9255151E-01
        2   -1    0    0  501    0  0.00000000000E+00  0.00000000000E+00  0.12016323620E+04  0.12016323620E+04  0.25500000920E-02 0. -1.
       -2   -1    0    0    0  501  0.00000000000E+00  0.00000000000E+00 -0.22945707772E+03  0.22945707773E+03  0.25500000920E-02 0.  1.
    10030    2    1    2    0    0  0.00000000000E+00  0.00000000000E+00  0.97217528426E+03  0.14310894397E+04  0.10501867458E+04 0.  0.
        2    1    3    3  502    0  0.75037672509E+02  0.49307594892E+03  0.70987146717E+03  0.86756673726E+03  0.25500000920E-02 0. -1.
       -2    1    3    3    0  502 -0.75037672509E+02 -0.49307594892E+03  0.26230381709E+03  0.56352270244E+03  0.25500000920E-02 0.  1.
</event>
<event>
 5   0  0.6360455E-03  0.1002998E+04  0.7818609E-02  0.9305262E-01
        2   -1    0    0  501    0  0.00000000000E+00  0.00000000000E+00  0.55795377068E+03  0.55795377068E+03  0.25500000920E-02 0.  1.
       -2   -1    0    0    0  501  0.00000000000E+00  0.00000000000E+00 -0.45075675746E+03  0.45075675746E+03  0.25500000920E-02 0. -1.
    10030    2    1    2    0    0  0.00000000000E+00  0.00000000000E+00  0.10719701322E+03  0.10087105281E+04  0.10029983699E+04 0.  0.
        4    1    3    3  502    0 -0.39656682422E+03  0.15287558133E+03  0.32131678569E+03  0.53280604267E+03  0.12699999809E+01 0.  1.
       -4    1    3    3    0  502  0.39656682422E+03 -0.15287558133E+03 -0.21411977247E+03  0.47590448548E+03  0.12699999809E+01 0. -1.
</event>
<event>
 5   0  0.3608845E-03  0.9333335E+03  0.7818609E-02  0.9384846E-01
       -1   -1    0    0    0  501  0.00000000000E+00  0.00000000000E+00  0.17985687088E+03  0.17985687095E+03  0.50400001928E-02 0. -1.
        1   -1    0    0  501    0  0.00000000000E+00  0.00000000000E+00 -0.12108397252E+04  0.12108397252E+04  0.50400001928E-02 0.  1.
    10030    2    1    2    0    0  0.00000000000E+00  0.00000000000E+00 -0.10309828544E+04  0.13906965962E+04  0.93333347560E+03 0.  0.
        1    1    3    3  502    0 -0.28769787089E+03  0.22279374458E+03 -0.80129910136E+02  0.37259618901E+03  0.50400001928E-02 0. -1.
       -1    1    3    3    0  502  0.28769787089E+03 -0.22279374458E+03 -0.95085294422E+03  0.10181004072E+04  0.50400001928E-02 0.  1.
</event>
<event>
 5   0  0.6199539E-03  0.1000741E+04  0.7818609E-02  0.9307732E-01
        2   -1    0    0  501    0  0.00000000000E+00  0.00000000000E+00  0.15813129256E+04  0.15813129256E+04  0.25500000920E-02 0. -1.
       -2   -1    0    0    0  501  0.00000000000E+00  0.00000000000E+00 -0.15833086298E+03  0.15833086300E+03  0.25500000920E-02 0.  1.
    10030    2    1    2    0    0  0.00000000000E+00  0.00000000000E+00  0.14229820626E+04  0.17396437886E+04  0.10007410058E+04 0.  0.
        2    1    3    3  502    0 -0.39680546775E+03  0.20435710909E+03  0.31832189055E+03  0.54822005917E+03  0.25500000920E-02 0.  1.
       -2    1    3    3    0  502  0.39680546775E+03 -0.20435710909E+03  0.11046601721E+04  0.11914237294E+04  0.25500000920E-02 0. -1.
</event>
<event>
 5   0  0.3640180E-03  0.9980922E+03  0.7818609E-02  0.9310640E-01
        1   -1    0    0  501    0  0.00000000000E+00  0.00000000000E+00  0.70095435983E+03  0.70095435985E+03  0.50400001928E-02 0. -1.
       -1   -1    0    0    0  501  0.00000000000E+00  0.00000000000E+00 -0.35529706418E+03  0.35529706422E+03  0.50400001928E-02 0.  1.
    10030    2    1    2    0    0  0.00000000000E+00  0.00000000000E+00  0.34565729565E+03  0.10562514241E+04  0.99809223262E+03 0.  0.
        5    1    3    3  502    0  0.99206817265E+02 -0.48036708937E+03  0.75661198819E+02  0.49632775477E+03  0.46999998093E+01 0.  1.
       -5    1    3    3    0  502 -0.99206817265E+02  0.48036708937E+03  0.26999609683E+03  0.55992366930E+03  0.46999998093E+01 0. -1.
</event>
<event>
 5   0  0.2417750E-03  0.9973563E+03  0.7818609E-02  0.9311449E-01
        3   -1    0    0  501    0  0.00000000000E+00  0.00000000000E+00  0.18402142406E+03  0.18402145178E+03  0.10100000352E+00 0. -1.
       -3   -1    0    0    0  501  0.00000000000E+00  0.00000000000E+00 -0.13513636805E+04  0.13513636843E+04  0.10100000352E+00 0.  1.
    10030    2    1    2    0    0  0.00000000000E+00  0.00000000000E+00 -0.11673422565E+04  0.15353851361E+04  0.99735629159E+03 0.  0.
        1    1    3    3  502    0 -0.37835708689E+03 -0.15329651909E+02 -0.10832018843E+04  0.11474822028E+04  0.50400001928E-02 0.  1.
       -1    1    3    3    0  502  0.37835708689E+03  0.15329651909E+02 -0.84140372140E+02  0.38790293332E+03  0.50400001928E-02 0. -1.
</event>
<event>
 5   0  0.3466598E-03  0.1007017E+04  0.7818609E-02  0.9300882E-01
        1   -1    0    0  501    0  0.00000000000E+00  0.00000000000E+00  0.36822194796E+03  0.36822194799E+03  0.50400001928E-02 0.  1.
       -1   -1    0    0    0  501  0.00000000000E+00  0.00000000000E+00 -0.68850026726E+03  0.68850026728E+03  0.50400001928E-02 0. -1.
    10030    2    1    2    0    0  0.00000000000E+00  0.00000000000E+00 -0.32027831931E+03  0.10567222153E+04  0.10070171987E+04 0.  0.
        3    1    3    3  502    0  0.39580505308E+03  0.24030324216E+02 -0.48574790188E+03  0.62704874683E+03  0.10100000352E+00 0. -1.
       -3    1    3    3    0  502 -0.39580505308E+03 -0.24030324216E+02  0.16546958257E+03  0.42967346844E+03  0.10100000352E+00 0.  1.
</event>
<event>
 5   0  0.6022787E-03  0.9972354E+03  0.7818609E-02  0.9311582E-01
       -2   -1    0    0    0  501  0.00000000000E+00  0.00000000000E+00  0.12406949240E+03  0.12406949243E+03  0.25500000920E-02 0.  1.
        2   -1    0    0  501    0  0.00000000000E+00  0.00000000000E+00 -0.20038740121E+04  0.20038740121E+04  0.25500000920E-02 0. -1.
    10030    2    1    2    0    0  0.00000000000E+00  0.00000000000E+00 -0.18798045197E+04  0.21279435045E+04  0.99723544168E+03 0.  0.
        5    1    3    3  502    0  0.17702502843E+03  0.58540749047E+01 -0.19344318338E+04  0.19425294696E+04  0.46999998093E+01 0. -1.
       -5    1    3    3    0  502 -0.17702502843E+03 -0.58540749047E+01  0.54627314092E+02  0.18541403487E+03  0.46999998093E+01 0.  1.
</event>
<event>
 5   0  0.3640180E-03  0.9960268E+03  0.7818609E-02  0.9312913E-01
       -1   -1    0    0    0  501  0.00000000000E+00  0.00000000000E+00  0.42016965599E+03  0.42016965602E+03  0.50400001928E-02 0. -1.
        1   -1    0    0  501    0  0.00000000000E+00  0.00000000000E+00 -0.59027906974E+03  0.59027906976E+03  0.50400001928E-02 0.  1.
    10030    2    1    2    0    0  0.00000000000E+00  0.00000000000E+00 -0.17010941375E+03  0.10104487258E+04  0.99602681428E+03 0.  0.
        5    1    3    3  502    0  0.21199828191E+03 -0.45046972800E+03 -0.96577707193E+02  0.50716426422E+03  0.46999998093E+01 0.  1.
       -5    1    3    3    0  502 -0.21199828191E+03  0.45046972800E+03 -0.73531706559E+02  0.50328446156E+03  0.46999998093E+01 0. -1.
</event>
<event>
 5   0  0.6376961E-03  0.9996570E+03  0.7818609E-02  0.9308921E-01
       -2   -1    0    0    0  501  0.00000000000E+00  0.00000000000E+00  0.30258915630E+03  0.30258915631E+03  0.25500000920E-02 0. -1.
        2   -1    0    0  501    0  0.00000000000E+00  0.00000000000E+00 -0.82563608850E+03  0.82563608851E+03  0.25500000920E-02 0.  1.
    10030    2    1    2    0    0  0.00000000000E+00  0.00000000000E+00 -0.52304693220E+03  0.11282252448E+04  0.99965699605E+03 0.  0.
        3    1    3    3  502    0  0.22761417703E+03 -0.73538821573E+02  0.23379767319E+03  0.33448099207E+03  0.10100000352E+00 0. -1.
       -3    1    3    3    0  502 -0.22761417703E+03  0.73538821573E+02 -0.75684460539E+03  0.79374425275E+03  0.10100000352E+00 0.  1.
</event>
<event>
 5   0  0.3608845E-03  0.9887430E+03  0.7818609E-02  0.9320978E-01
       -1   -1    0    0    0  501  0.00000000000E+00  0.00000000000E+00  0.64407548156E+03  0.64407548158E+03  0.50400001928E-02 0. -1.
        1   -1    0    0  501    0  0.00000000000E+00  0.00000000000E+00 -0.37946359204E+03  0.37946359208E+03  0.50400001928E-02 0.  1.
    10030    2    1    2    0    0  0.00000000000E+00  0.00000000000E+00  0.26461188952E+03  0.10235390737E+04  0.98874303195E+03 0.  0.
        1    1    3    3  502    0  0.25918297563E+03  0.41480521448E+03  0.57915914254E+02  0.49253774877E+03  0.50400001928E-02 0.  1.
       -1    1    3    3    0  502 -0.25918297563E+03 -0.41480521448E+03  0.20669597527E+03  0.53100132489E+03  0.50400001928E-02 0. -1.
</event>
<event>
 5   0  0.3466598E-03  0.9982825E+03  0.7818609E-02  0.9310430E-01
       -1   -1    0    0    0  501  0.00000000000E+00  0.00000000000E+00  0.15203003382E+04  0.15203003383E+04  0.50400001928E-02 0.  1.
        1   -1    0    0  501    0  0.00000000000E+00  0.00000000000E+00 -0.16387683416E+03  0.16387683424E+03  0.50400001928E-02 0. -1.
    10030    2    1    2    0    0  0.00000000000E+00  0.00000000000E+00  0.13564235041E+04  0.16841771725E+04  0.99828253813E+03 0.  0.
        3    1    3    3  502    0 -0.75844068883E+02 -0.38094129253E+03  0.14933764594E+03  0.41613739778E+03  0.10100000352E+00 0. -1.
       -3    1    3    3    0  502  0.75844068883E+02  0.38094129253E+03  0.12070858581E+04  0.12680397747E+04  0.10100000352E+00 0.  1.
</event>
<event>
 5   0  0.6376961E-03  0.1002366E+04  0.7818609E-02  0.9305953E-01
       -2   -1    0    0    0  501  0.00000000000E+00  0.00000000000E+00  0.41478319720E+03  0.41478319721E+03  0.25500000920E-02 0. -1.
        2   -1    0    0  501    0  0.00000000000E+00  0.00000000000E+00 -0.60558030560E+03  0.60558030561E+03  0.25500000920E-02 0.  1.
    10030    2    1    2    0    0  0.00000000000E+00  0.00000000000E+00 -0.19079710840E+03  0.10203635028E+04  0.10023662710E+04 0.  0.
        3    1    3    3  502    0 -0.28561031853E+03  0.83340283511E+02  0.31516124501E+03  0.43341144132E+03  0.10100000352E+00 0. -1.
       -3    1    3    3    0  502  0.28561031853E+03 -0.83340283511E+02 -0.50595835341E+03  0.58695206150E+03  0.10100000352E+00 0.  1.
</event>
<event>
 5   0  0.6022787E-03  0.9923369E+03  0.7818609E-02  0.9316990E-01
        2   -1    0    0  501    0  0.00000000000E+00  0.00000000000E+00  0.46635910381E+03  0.46635910382E+03  0.25500000920E-02 0. -1.
       -2   -1    0    0    0  501  0.00000000000E+00  0.00000000000E+00 -0.52788317543E+03  0.52788317544E+03  0.25500000920E-02 0.  1.
    10030    2    1    2    0    0  0.00000000000E+00  0.00000000000E+00 -0.61524071624E+02  0.99424227926E+03  0.99233688759E+03 0.  0.
        5    1    3    3  502    0  0.25193963792E+02 -0.16935791491E+03  0.43579741641E+03  0.46825027208E+03  0.46999998093E+01 0. -1.
       -5    1    3    3    0  502 -0.25193963792E+02  0.16935791491E+03 -0.49732148803E+03  0.52599200718E+03  0.46999998093E+01 0.  1.
</event>
<event>
 5   0  0.6022787E-03  0.9730155E+03  0.7818609E-02  0.9338646E-01
       -2   -1    0    0    0  501  0.00000000000E+00  0.00000000000E+00  0.10039238696E+04  0.10039238696E+04  0.25500000920E-02 0. -1.
        2   -1    0    0  501    0  0.00000000000E+00  0.00000000000E+00 -0.23576465893E+03  0.23576465894E+03  0.25500000920E-02 0.  1.
    10030    2    1    2    0    0  0.00000000000E+00  0.00000000000E+00  0.76815921069E+03  0.12396885286E+04  0.97301545460E+03 0.  0.
        5    1    3    3  502    0  0.43417798263E+03  0.57665788275E+02  0.65384485526E+03  0.78700130145E+03  0.46999998093E+01 0. -1.
       -5    1    3    3    0  502 -0.43417798263E+03 -0.57665788275E+02  0.11431435543E+03  0.45268722711E+03  0.46999998093E+01 0.  1.
</event>
<event>
 5   0  0.3569359E-03  0.1039827E+04  0.7818609E-02  0.9265910E-01
        1   -1    0    0  501    0  0.00000000000E+00  0.00000000000E+00  0.41770015651E+03  0.41770015654E+03  0.50400001928E-02 0.  1.
       -1   -1    0    0    0  501  0.00000000000E+00  0.00000000000E+00 -0.64713920624E+03  0.64713920626E+03  0.50400001928E-02 0. -1.
    10030    2    1    2    0    0  0.00000000000E+00  0.00000000000E+00 -0.22943904973E+03  0.10648393628E+04  0.10398271929E+04 0.  0.
        4    1    3    3  502    0  0.30938726866E+03 -0.40799933988E+03 -0.22414850757E+02  0.51253095691E+03  0.12699999809E+01 0.  1.
       -4    1    3    3    0  502 -0.30938726866E+03  0.40799933988E+03 -0.20702419898E+03  0.55230840589E+03  0.12699999809E+01 0. -1.
</event>
<event>
 5   0  0.3640180E-03  0.9945240E+03  0.7818609E-02  0.9314571E-01
       -1   -1    0    0    0  501  0.00000000000E+00  0.00000000000E+00  0.54057796184E+03  0.54057796186E+03  0.50400001928E-02 0. -1.
        1   -1    0    0  501    0  0.00000000000E+00  0.00000000000E+00 -0.45741687638E+03  0.45741687641E+03  0.50400001928E-02 0.  1.
    10030    2    1    2    0    0  0.00000000000E+00  0.00000000000E+00  0.83161085459E+02  0.99799483827E+03  0.99452397209E+03 0.  0.
        5    1    3    3  502    0 -0.10019808337E+03  0.11952683819E+03  0.51537349959E+03  0.53847772010E+03  0.46999998093E+01 0. -1.
       -5    1    3    3    0  502  0.10019808337E+03 -0.11952683819E+03 -0.43221241413E+03  0.45951711817E+03  0.46999998093E+01 0.  1.
</event>
<event>
 5   0  0.3569359E-03  0.1005656E+04  0.7818609E-02  0.9302363E-01
        1   -1    0    0  501    0  0.00000000000E+00  0.00000000000E+00  0.99493419406E+03  0.99493419407E+03  0.50400001928E-02 0.  1.
       -1   -1    0    0    0  501  0.00000000000E+00  0.00000000000E+00 -0.25412337483E+03  0.25412337488E+03  0.50400001928E-02 0. -1.
    10030    2    1    2    0    0  0.00000000000E+00  0.00000000000E+00  0.74081081922E+03  0.12490575690E+04  0.10056560748E+04 0.  0.
        4    1    3    3  502    0  0.11752053275E+03  0.19124429611E+03 -0.18843880002E+03  0.29308062144E+03  0.12699999809E+01 0. -1.
       -4    1    3    3    0  502 -0.11752053275E+03 -0.19124429611E+03  0.92924961925E+03  0.95597694752E+03  0.12699999809E+01 0.  1.
</event>
<event>
 5   0  0.3466598E-03  0.9506372E+03  0.7818609E-02  0.9364406E-01
       -1   -1    0    0    0  501  0.00000000000E+00  0.00000000000E+00  0.14697953088E+03  0.14697953097E+03  0.50400001928E-02 0.  1.
        1   -1    0    0  501    0  0.00000000000E+00  0.00000000000E+00 -0.15371376847E+04  0.15371376847E+04  0.50400001928E-02 0. -1.
    10030    2    1    2    0    0  0.00000000000E+00  0.00000000000E+00 -0.13901581538E+04  0.16841172157E+04  0.95063720920E+03 0.  0.
        3    1    3    3  502    0  0.14322947554E+03 -0.20930396745E+03  0.17092787242E+02  0.25419482101E+03  0.10100000352E+00 0.  1.
       -3    1    3    3    0  502 -0.14322947554E+03  0.20930396745E+03 -0.14072509410E+04  0.14299223946E+04  0.10100000352E+00 0. -1.
</event>
<event>
 5   0  0.2417750E-03  0.9990078E+03  0.7818609E-02  0.9309634E-01
       -3   -1    0    0    0  501  0.00000000000E+00  0.00000000000E+00  0.86236138645E+03  0.86236139236E+03  0.10100000352E+00 0.  1.
        3   -1    0    0  501    0  0.00000000000E+00  0.00000000000E+00 -0.28932665330E+03  0.28932667093E+03  0.10100000352E+00 0. -1.
    10030    2    1    2    0    0  0.00000000000E+00  0.00000000000E+00  0.57303473315E+03  0.11516880633E+04  0.99900780265E+03 0.  0.
        5    1    3    3  502    0  0.17241878018E+03  0.61556388209E+02 -0.24922661740E+03  0.30927887336E+03  0.46999998093E+01 0. -1.
       -5    1    3    3    0  502 -0.17241878018E+03 -0.61556388209E+02  0.82226135055E+03  0.84240918994E+03  0.46999998093E+01 0.  1.
</event>
<event>
 5   0  0.3569359E-03  0.9604962E+03  0.7818609E-02  0.9352966E-01
        1   -1    0    0  501    0  0.00000000000E+00  0.00000000000E+00  0.17195367549E+04  0.17195367549E+04  0.50400001928E-02 0. -1.
       -1   -1    0    0    0  501  0.00000000000E+00  0.00000000000E+00 -0.13412812920E+03  0.13412812930E+03  0.50400001928E-02 0.  1.
    10030    2    1    2    0    0  0.00000000000E+00  0.00000000000E+00  0.15854086257E+04  0.18536648842E+04  0.96049622201E+03 0.  0.
        4    1    3    3  502    0  0.24078979743E+03 -0.17623206431E+03  0.15189204797E+04  0.15479530044E+04  0.12699999809E+01 0. -1.
       -4    1    3    3    0  502 -0.24078979743E+03  0.17623206431E+03  0.66488145981E+02  0.30571187987E+03  0.12699999809E+01 0.  1.
</event>
<event>
 5   0  0.6022787E-03  0.1010613E+04  0.7818609E-02  0.9296981E-01
        2   -1    0    0  501    0  0.00000000000E+00  0.00000000000E+00  0.10041664886E+04  0.10041664886E+04  0.25500000920E-02 0.  1.
       -2   -1    0    0    0  501  0.00000000000E+00  0.00000000000E+00 -0.25427514813E+03  0.25427514815E+03  0.25500000920E-02 0. -1.
    10030    2    1    2    0    0  0.00000000000E+00  0.00000000000E+00  0.74989134048E+03  0.12584416368E+04  0.10106128490E+04 0.  0.
        5    1    3    3  502    0  0.14213535308E+03  0.29507786308E+03 -0.10416568598E+03  0.34372370301E+03  0.46999998093E+01 0. -1.
       -5    1    3    3    0  502 -0.14213535308E+03 -0.29507786308E+03  0.85405702646E+03  0.91471793374E+03  0.46999998093E+01 0.  1.
</event>
<event>
 5   0  0.6022787E-03  0.1000607E+04  0.7818609E-02  0.9307879E-01
       -2   -1    0    0    0  501  0.00000000000E+00  0.00000000000E+00  0.29714452420E+03  0.29714452421E+03  0.25500000920E-02 0. -1.
        2   -1    0    0  501    0  0.00000000000E+00  0.00000000000E+00 -0.84236346194E+03  0.84236346194E+03  0.25500000920E-02 0.  1.
    10030    2    1    2    0    0  0.00000000000E+00  0.00000000000E+00 -0.54521893773E+03  0.11395079862E+04  0.10006071959E+04 0.  0.
        5    1    3    3  502    0  0.26963405057E+02 -0.48414911047E+03 -0.13241836496E+03  0.50267693378E+03  0.46999998093E+01 0. -1.
       -5    1    3    3    0  502 -0.26963405057E+02  0.48414911047E+03 -0.41280057278E+03  0.63683105237E+03  0.46999998093E+01 0.  1.
</event>
<event>
 5   0  0.6022787E-03  0.1004147E+04  0.7818609E-02  0.9304008E-01
        2   -1    0    0  501    0  0.00000000000E+00  0.00000000000E+00  0.72579104202E+03  0.72579104202E+03  0.25500000920E-02 0. -1.
       -2   -1    0    0    0  501  0.00000000000E+00  0.00000000000E+00 -0.34731459669E+03  0.34731459669E+03  0.25500000920E-02 0.  1.
    10030    2    1    2    0    0  0.00000000000E+00  0.00000000000E+00  0.37847644533E+03  0.10731056387E+04  0.10041470471E+04 0.  0.
        5    1    3    3  502    0 -0.96288253708E+02  0.31649043400E+03 -0.21434443927E+03  0.39421219065E+03  0.46999998093E+01 0.  1.
       -5    1    3    3    0  502  0.96288253708E+02 -0.31649043400E+03  0.59282088460E+03  0.67889344807E+03  0.46999998093E+01 0. -1.
</event>
<event>
 5   0  0.3608845E-03  0.9944703E+03  0.7818609E-02  0.9314631E-01
        1   -1    0    0  501    0  0.00000000000E+00  0.00000000000E+00  0.58346769665E+03  0.58346769668E+03  0.50400001928E-02 0.  1.
       -1   -1    0    0    0  501  0.00000000000E+00  0.00000000000E+00 -0.42374719116E+03  0.42374719119E+03  0.50400001928E-02 0. -1.
    10030    2    1    2    0    0  0.00000000000E+00  0.00000000000E+00  0.15972050549E+03  0.10072148879E+04  0.99447030648E+03 0.  0.
        1    1    3    3  502    0  0.34958702917E+03 -0.32986261465E+03 -0.49139049657E+02  0.48315119966E+03  0.50400001928E-02 0.  1.
       -1    1    3    3    0  502 -0.34958702917E+03  0.32986261465E+03  0.20885955515E+03  0.52406368821E+03  0.50400001928E-02 0. -1.
</event>
<event>
 5   0  0.6606947E-03  0.9329201E+03  0.7818609E-02  0.9385340E-01
        2   -1    0    0  501    0  0.00000000000E+00  0.00000000000E+00  0.22012980957E+04  0.22012980957E+04  0.25500000920E-02 0.  1.
       -2   -1    0    0    0  501  0.00000000000E+00  0.00000000000E+00 -0.98843949100E+02  0.98843949133E+02  0.25500000920E-02 0. -1.
    10030    2    1    2    0    0  0.00000000000E+00  0.00000000000E+00  0.21024541466E+04  0.23001420449E+04  0.93292014013E+03 0.  0.
        1    1    3    3  502    0 -0.37611986636E+03  0.10384213149E+03  0.16814371047E+04  0.17261170526E+04  0.50400001928E-02 0.  1.
       -1    1    3    3    0  502  0.37611986636E+03 -0.10384213149E+03  0.42101704195E+03  0.57402499230E+03  0.50400001928E-02 0. -1.
</event>
<event>
 5   0  0.6606947E-03  0.1002796E+04  0.7818609E-02  0.9305483E-01
        2   -1    0    0  501    0  0.00000000000E+00  0.00000000000E+00  0.86507665158E+03  0.86507665158E+03  0.25500000920E-02 0.  1.
       -2   -1    0    0    0  501  0.00000000000E+00  0.00000000000E+00 -0.29061005976E+03  0.29061005977E+03  0.25500000920E-02 0. -1.
    10030    2    1    2    0    0  0.00000000000E+00  0.00000000000E+00  0.57446659182E+03  0.11556867114E+04  0.10027960459E+04 0.  0.
        1    1    3    3  502    0 -0.75664856559E+02  0.49368827221E+03  0.33808162198E+03  0.60311894662E+03  0.50400001928E-02 0.  1.
       -1    1    3    3    0  502  0.75664856559E+02 -0.49368827221E+03  0.23638496984E+03  0.55256776473E+03  0.50400001928E-02 0. -1.
</event>
<event>
 5   0  0.3466598E-03  0.9952225E+03  0.7818609E-02  0.9313800E-01
        1   -1    0    0  501    0  0.00000000000E+00  0.00000000000E+00  0.20089896788E+04  0.20089896788E+04  0.50400001928E-02 0.  1.
       -1   -1    0    0    0  501  0.00000000000E+00  0.00000000000E+00 -0.12325445806E+03  0.12325445817E+03  0.50400001928E-02 0. -1.
    10030    2    1    2    0    0  0.00000000000E+00  0.00000000000E+00  0.18857352207E+04  0.21322441369E+04  0.99522245599E+03 0.  0.
        3    1    3    3  502    0 -0.27359658289E+03 -0.14734713812E+03  0.17755474850E+04  0.18025357558E+04  0.10100000352E+00 0.  1.
       -3    1    3    3    0  502  0.27359658289E+03  0.14734713812E+03  0.11018773569E+03  0.32970838112E+03  0.10100000352E+00 0. -1.
</event>
<event>
 5   0  0.6360455E-03  0.1002224E+04  0.7818609E-02  0.9306109E-01
       -2   -1    0    0    0  501  0.00000000000E+00  0.00000000000E+00  0.66040579352E+03  0.66040579353E+03  0.25500000920E-02 0. -1.
        2   -1    0    0  501    0  0.00000000000E+00  0.00000000000E+00 -0.38024098140E+03  0.38024098140E+03  0.25500000920E-02 0.  1.
    10030    2    1    2    0    0  0.00000000000E+00  0.00000000000E+00  0.28016481212E+03  0.10406467749E+04  0.10022242205E+04 0.  0.
        4    1    3    3  502    0  0.47358096919E+03  0.13873292625E+03  0.23051899030E+03  0.54467088869E+03  0.12699999809E+01 0. -1.
       -4    1    3    3    0  502 -0.47358096919E+03 -0.13873292625E+03  0.49645821829E+02  0.49597588624E+03  0.12699999809E+01 0.  1.
</event>
<event>
 5   0  0.3643002E-03  0.1010293E+04  0.7818609E-02  0.9297327E-01
       -1   -1    0    0    0  501  0.00000000000E+00  0.00000000000E+00  0.45834058150E+03  0.45834058153E+03  0.50400001928E-02 0.  1.
        1   -1    0    0  501    0  0.00000000000E+00  0.00000000000E+00 -0.55673213207E+03  0.55673213210E+03  0.50400001928E-02 0. -1.
    10030    2    1    2    0    0  0.00000000000E+00  0.00000000000E+00 -0.98391550573E+02  0.10150727136E+04  0.10102928866E+04 0.  0.
        2    1    3    3  502    0  0.19957030880E+03 -0.52615467746E+02  0.41404546144E+03  0.46263413162E+03  0.25500000920E-02 0.  1.
       -2    1    3    3    0  502 -0.19957030880E+03  0.52615467746E+02 -0.51243701201E+03  0.55243858200E+03  0.25500000920E-02 0. -1.
</event>
<event>
 5   0  0.6199539E-03  0.1002090E+04  0.7818609E-02  0.9306255E-01
       -2   -1    0    0    0  501  0.00000000000E+00  0.00000000000E+00  0.85550980107E+03  0.85550980107E+03  0.25500000920E-02 0. -1.
        2   -1    0    0  501    0  0.00000000000E+00  0.00000000000E+00 -0.29344630817E+03  0.29344630818E+03  0.25500000920E-02 0.  1.
    10030    2    1    2    0    0  0.00000000000E+00  0.00000000000E+00  0.56206349290E+03  0.11489561092E+04  0.10020902010E+04 0.  0.
        2    1    3    3  502    0  0.16531977897E+03 -0.15612077925E+03  0.79294442122E+03  0.82490313503E+03  0.25500000920E-02 0. -1.
       -2    1    3    3    0  502 -0.16531977897E+03  0.15612077925E+03 -0.23088092832E+03  0.32405297422E+03  0.25500000920E-02 0.  1.
</event>
<event>
 5   0  0.3608845E-03  0.9967252E+03  0.7818609E-02  0.9312144E-01
        1   -1    0    0  501    0  0.00000000000E+00  0.00000000000E+00  0.11047945632E+04  0.11047945632E+04  0.50400001928E-02 0.  1.
       -1   -1    0    0    0  501  0.00000000000E+00  0.00000000000E+00 -0.22480673593E+03  0.22480673599E+03  0.50400001928E-02 0. -1.
    10030    2    1    2    0    0  0.00000000000E+00  0.00000000000E+00  0.87998782727E+03  0.13296012992E+04  0.99672515704E+03 0.  0.
        1    1    3    3  502    0 -0.89189903629E+02  0.48756006394E+03  0.50925257929E+03  0.71063903945E+03  0.50400001928E-02 0. -1.
       -1    1    3    3    0  502  0.89189903629E+02 -0.48756006394E+03  0.37073524798E+03  0.61896225974E+03  0.50400001928E-02 0.  1.
</event>
<event>
 5   0  0.6199539E-03  0.1001122E+04  0.7818609E-02  0.9307315E-01
        2   -1    0    0  501    0  0.00000000000E+00  0.00000000000E+00  0.14315725030E+04  0.14315725030E+04  0.25500000920E-02 0. -1.
       -2   -1    0    0    0  501  0.00000000000E+00  0.00000000000E+00 -0.17502511497E+03  0.17502511499E+03  0.25500000920E-02 0.  1.
    10030    2    1    2    0    0  0.00000000000E+00  0.00000000000E+00  0.12565473880E+04  0.16065976180E+04  0.10011216548E+04 0.  0.
        2    1    3    3  502    0 -0.20313141737E+03 -0.40736971533E+03  0.96239811808E+03  0.10646232176E+04  0.25500000920E-02 0. -1.
       -2    1    3    3    0  502  0.20313141737E+03  0.40736971533E+03  0.29414926995E+03  0.54197440042E+03  0.25500000920E-02 0.  1.
</event>
<event>
 5   0  0.6022787E-03  0.1008224E+04  0.7818609E-02  0.9299570E-01
        2   -1    0    0  501    0  0.00000000000E+00  0.00000000000E+00  0.14820204434E+04  0.14820204434E+04  0.25500000920E-02 0.  1.
       -2   -1    0    0    0  501  0.00000000000E+00  0.00000000000E+00 -0.17147478744E+03  0.17147478746E+03  0.25500000920E-02 0. -1.
    10030    2    1    2    0    0  0.00000000000E+00  0.00000000000E+00  0.13105456560E+04  0.16534952309E+04  0.10082244602E+04 0.  0.
        5    1    3    3  502    0 -0.19919736911E+03  0.22919362574E+02 -0.10322318751E+03  0.22557040027E+03  0.46999998093E+01 0. -1.
       -5    1    3    3    0  502  0.19919736911E+03 -0.22919362574E+02  0.14137688435E+04  0.14279248306E+04  0.46999998093E+01 0.  1.
</event>
<event>
 5   0  0.6022787E-03  0.9940174E+03  0.7818609E-02  0.9315131E-01
       -2   -1    0    0    0  501  0.00000000000E+00  0.00000000000E+00  0.14887901730E+03  0.14887901732E+03  0.25500000920E-02 0. -1.
        2   -1    0    0  501    0  0.00000000000E+00  0.00000000000E+00 -0.16591837788E+04  0.16591837788E+04  0.25500000920E-02 0.  1.
    10030    2    1    2    0    0  0.00000000000E+00  0.00000000000E+00 -0.15103047615E+04  0.18080627961E+04  0.99401740533E+03 0.  0.
        5    1    3    3  502    0  0.34254955997E+03  0.34107858196E+03 -0.54521777707E+03  0.72866955100E+03  0.46999998093E+01 0. -1.
       -5    1    3    3    0  502 -0.34254955997E+03 -0.34107858196E+03 -0.96508698445E+03  0.10793932451E+04  0.46999998093E+01 0.  1.
</event>
<event>
 5   0  0.2417750E-03  0.1045100E+04  0.7818609E-02  0.9260417E-01
        4   -1    0    0  501    0  0.00000000000E+00  0.00000000000E+00  0.24546684752E+03  0.24547013287E+03  0.12699999809E+01 0. -1.
       -4   -1    0    0    0  501  0.00000000000E+00  0.00000000000E+00 -0.11123941101E+04  0.11123948351E+04  0.12699999809E+01 0.  1.
    10030    2    1    2    0    0  0.00000000000E+00  0.00000000000E+00 -0.86692726261E+03  0.13578649680E+04  0.10451001830E+04 0.  0.
        4    1    3    3  502    0 -0.25961950212E+03 -0.46635241449E+02 -0.10195469607E+04  0.10531166837E+04  0.12699999809E+01 0.  1.
       -4    1    3    3    0  502  0.25961950212E+03  0.46635241449E+02  0.15261969805E+03  0.30474828426E+03  0.12699999809E+01 0. -1.
</event>
<event>
 5   0  0.3608845E-03  0.1006257E+04  0.7818609E-02  0.9301708E-01
       -1   -1    0    0    0  501  0.00000000000E+00  0.00000000000E+00  0.20019140505E+03  0.20019140511E+03  0.50400001928E-02 0. -1.
        1   -1    0    0  501    0  0.00000000000E+00  0.00000000000E+00 -0.12644822880E+04  0.12644822880E+04  0.50400001928E-02 0.  1.
    10030    2    1    2    0    0  0.00000000000E+00  0.00000000000E+00 -0.10642908829E+04  0.14646736931E+04  0.10062573944E+04 0.  0.
        1    1    3    3  502    0 -0.34387069305E+03  0.99213495522E+02 -0.17426238892E+02  0.35832114794E+03  0.50400001928E-02 0. -1.
       -1    1    3    3    0  502  0.34387069305E+03 -0.99213495522E+02 -0.10468646441E+04  0.11063525452E+04  0.50400001928E-02 0.  1.
</event>
<event>
 5   0  0.3466598E-03  0.1016410E+04  0.7818609E-02  0.9290727E-01
       -1   -1    0    0    0  501  0.00000000000E+00  0.00000000000E+00  0.52584024058E+03  0.52584024061E+03  0.50400001928E-02 0.  1.
        1   -1    0    0  501    0  0.00000000000E+00  0.00000000000E+00 -0.49116164112E+03  0.49116164115E+03  0.50400001928E-02 0. -1.
    10030    2    1    2    0    0  0.00000000000E+00  0.00000000000E+00  0.34678599461E+02  0.10170018818E+04  0.10164104595E+04 0.  0.
        3    1    3    3  502    0  0.45945294389E+03  0.14325686644E+03 -0.14601318511E+03  0.50293080822E+03  0.10100000352E+00 0.  1.
       -3    1    3    3    0  502 -0.45945294389E+03 -0.14325686644E+03  0.18069178457E+03  0.51407107353E+03  0.10100000352E+00 0. -1.
</event>
<event>
 5   0  0.3466598E-03  0.9991863E+03  0.7818609E-02  0.9309438E-01
        1   -1    0    0  501    0  0.00000000000E+00  0.00000000000E+00  0.50903012088E+03  0.50903012091E+03  0.50400001928E-02 0. -1.
       -1   -1    0    0    0  501  0.00000000000E+00  0.00000000000E+00 -0.49033117109E+03  0.49033117112E+03  0.50400001928E-02 0.  1.
    10030    2    1    2    0    0  0.00000000000E+00  0.00000000000E+00  0.18698949786E+02  0.99936129203E+03  0.99918633962E+03 0.  0.
        3    1    3    3  502    0  0.45436175402E+02  0.31457847180E+03 -0.37616485188E+03  0.49246732577E+03  0.10100000352E+00 0.  1.
       -3    1    3    3    0  502 -0.45436175402E+02 -0.31457847180E+03  0.39486380167E+03  0.50689396626E+03  0.10100000352E+00 0. -1.
</event>
<event>
 5   0  0.6606947E-03  0.1000706E+04  0.7818609E-02  0.9307771E-01
       -2   -1    0    0    0  501  0.00000000000E+00  0.00000000000E+00  0.31559276992E+03  0.31559276993E+03  0.25500000920E-02 0. -1.
        2   -1    0    0  501    0  0.00000000000E+00  0.00000000000E+00 -0.79327871183E+03  0.79327871183E+03  0.25500000920E-02 0.  1.
    10030    2    1    2    0    0  0.00000000000E+00  0.00000000000E+00 -0.47768594191E+03  0.11088714818E+04  0.10007058029E+04 0.  0.
        1    1    3    3  502    0  0.48854269587E+03  0.10615797267E+03 -0.21641832091E+03  0.54477552304E+03  0.50400001928E-02 0. -1.
       -1    1    3    3    0  502 -0.48854269587E+03 -0.10615797267E+03 -0.26126762099E+03  0.56409595873E+03  0.50400001928E-02 0.  1.
</event>
<event>
 5   0  0.3640180E-03  0.1003160E+04  0.7818609E-02  0.9305086E-01
       -1   -1    0    0    0  501  0.00000000000E+00  0.00000000000E+00  0.31257044004E+03  0.31257044008E+03  0.50400001928E-02 0.  1.
        1   -1    0    0  501    0  0.00000000000E+00  0.00000000000E+00 -0.80488219305E+03  0.80488219307E+03  0.50400001928E-02 0. -1.
    10030    2    1    2    0    0  0.00000000000E+00  0.00000000000E+00 -0.49231175301E+03  0.11174526332E+04  0.10031597705E+04 0.  0.
        5    1    3    3  502    0  0.33986523131E+02  0.85405049368E+02  0.30308327301E+03  0.31675016430E+03  0.46999998093E+01 0.  1.
       -5    1    3    3    0  502 -0.33986523131E+02 -0.85405049368E+02 -0.79539502601E+03  0.80070246885E+03  0.46999998093E+01 0. -1.
</event>
<event>
 5   0  0.6606947E-03  0.1000978E+04  0.7818609E-02  0.9307473E-01
       -2   -1    0    0    0  501  0.00000000000E+00  0.00000000000E+00  0.59735116263E+03  0.59735116264E+03  0.25500000920E-02 0. -1.
        2   -1    0    0  501    0  0.00000000000E+00  0.00000000000E+00 -0.41933291899E+03  0.41933291900E+03  0.25500000920E-02 0.  1.
    10030    2    1    2    0    0  0.00000000000E+00  0.00000000000E+00  0.17801824364E+03  0.10166840816E+04  0.10009775356E+04 0.  0.
        1    1    3    3  502    0 -0.99874550589E+02  0.47154682455E+03  0.22587392873E+03  0.53230664593E+03  0.50400001928E-02 0. -1.
       -1    1    3    3    0  502  0.99874550589E+02 -0.47154682455E+03 -0.47855685088E+02  0.48437743570E+03  0.50400001928E-02 0.  1.
</event>
<event>
 5   0  0.6376961E-03  0.1006079E+04  0.7818609E-02  0.9301902E-01
        2   -1    0    0  501    0  0.00000000000E+00  0.00000000000E+00  0.10948521807E+04  0.10948521807E+04  0.25500000920E-02 0.  1.
       -2   -1    0    0    0  501  0.00000000000E+00  0.00000000000E+00 -0.23112612561E+03  0.23112612562E+03  0.25500000920E-02 0. -1.
    10030    2    1    2    0    0  0.00000000000E+00  0.00000000000E+00  0.86372605504E+03  0.13259783063E+04  0.10060794057E+04 0.  0.
        3    1    3    3  502    0  0.27220112074E+03 -0.10148429671E+03 -0.10939655499E+03  0.31041927945E+03  0.10100000352E+00 0. -1.
       -3    1    3    3    0  502 -0.27220112074E+03  0.10148429671E+03  0.97312261004E+03  0.10155590268E+04  0.10100000352E+00 0.  1.
</event>
<event>
 5   0  0.6199539E-03  0.9973971E+03  0.7818609E-02  0.9311404E-01
       -2   -1    0    0    0  501  0.00000000000E+00  0.00000000000E+00  0.12717903634E+03  0.12717903636E+03  0.25500000920E-02 0. -1.
        2   -1    0    0  501    0  0.00000000000E+00  0.00000000000E+00 -0.19555128596E+04  0.19555128596E+04  0.25500000920E-02 0.  1.
    10030    2    1    2    0    0  0.00000000000E+00  0.00000000000E+00 -0.18283338232E+04  0.20826918959E+04  0.99739709456E+03 0.  0.
        2    1    3    3  502    0  0.85530523653E+01  0.20047731212E+03 -0.18674968336E+04  0.18782461849E+04  0.25500000920E-02 0.  1.
       -2    1    3    3    0  502 -0.85530523653E+01 -0.20047731212E+03  0.39163010397E+02  0.20444571106E+03  0.25500000920E-02 0. -1.
</event>
<event>
 5   0  0.3643002E-03  0.1000019E+04  0.7818609E-02  0.9308524E-01
       -1   -1    0    0    0  501  0.00000000000E+00  0.00000000000E+00  0.57029640330E+03  0.57029640332E+03  0.50400001928E-02 0.  1.
        1   -1    0    0  501    0  0.00000000000E+00  0.00000000000E+00 -0.43838535756E+03  0.43838535759E+03  0.50400001928E-02 0. -1.
    10030    2    1    2    0    0  0.00000000000E+00  0.00000000000E+00  0.13191104574E+03  0.10086817609E+04  0.10000191852E+04 0.  0.
        2    1    3    3  502    0 -0.33683470593E+03  0.19828215260E+03  0.38048383125E+03  0.54547353466E+03  0.25500000920E-02 0.  1.
       -2    1    3    3    0  502  0.33683470593E+03 -0.19828215260E+03 -0.24857278551E+03  0.46320822625E+03  0.25500000920E-02 0. -1.
</event>
<event>
 5   0  0.6022787E-03  0.9986716E+03  0.7818609E-02  0.9310003E-01
        2   -1    0    0  501    0  0.00000000000E+00  0.00000000000E+00  0.61843259413E+03  0.61843259413E+03  0.25500000920E-02 0. -1.
       -2   -1    0    0    0  501  0.00000000000E+00  0.00000000000E+00 -0.40317446060E+03  0.40317446061E+03  0.25500000920E-02 0.  1.
    10030    2    1    2    0    0  0.00000000000E+00  0.00000000000E+00  0.21525813353E+03  0.10216070547E+04  0.99867157276E+03 0.  0.
        5    1    3    3  502    0  0.20505694252E+03  0.35914279787E+03 -0.17858621214E+03  0.45049641963E+03  0.46999998093E+01 0.  1.
       -5    1    3    3    0  502 -0.20505694252E+03 -0.35914279787E+03  0.39384434566E+03  0.57111063511E+03  0.46999998093E+01 0. -1.
</event>
<event>
 5   0  0.2417750E-03  0.1004570E+04  0.7818609E-02  0.9303547E-01
       -3   -1    0    0    0  501  0.00000000000E+00  0.00000000000E+00  0.93854234281E+03  0.93854234825E+03  0.10100000352E+00 0.  1.
        3   -1    0    0  501    0  0.00000000000E+00  0.00000000000E+00 -0.26881054650E+03  0.26881056547E+03  0.10100000352E+00 0. -1.
    10030    2    1    2    0    0  0.00000000000E+00  0.00000000000E+00  0.66973179631E+03  0.12073529137E+04  0.10045697483E+04 0.  0.
        2    1    3    3  502    0 -0.15729397575E+03  0.28643397368E+03  0.79331594465E+03  0.85798368524E+03  0.25500000920E-02 0.  1.
       -2    1    3    3    0  502  0.15729397575E+03 -0.28643397368E+03 -0.12358414834E+03  0.34936922848E+03  0.25500000920E-02 0. -1.
</event>
<event>
 5   0  0.6022787E-03  0.9876852E+03  0.7818609E-02  0.9322156E-01
       -2   -1    0    0    0  501  0.00000000000E+00  0.00000000000E+00  0.21163962745E+03  0.21163962747E+03  0.25500000920E-02 0. -1.
        2   -1    0    0  501    0  0.00000000000E+00  0.00000000000E+00 -0.11523385554E+04  0.11523385554E+04  0.25500000920E-02 0.  1.
    10030    2    1    2    0    0  0.00000000000E+00  0.00000000000E+00 -0.94069892791E+03  0.13639781828E+04  0.98768517772E+03 0.  0.
        5    1    3    3  502    0 -0.14886484276E+03  0.23495499033E+03 -0.10338417188E+04  0.10706144864E+04  0.46999998093E+01 0.  1.
       -5    1    3    3    0  502  0.14886484276E+03 -0.23495499033E+03  0.93142790919E+02  0.29336369644E+03  0.46999998093E+01 0. -1.
</event>
<event>
 5   0  0.6606947E-03  0.1006760E+04  0.7818609E-02  0.9301161E-01
        2   -1    0    0  501    0  0.00000000000E+00  0.00000000000E+00  0.93381574579E+03  0.93381574580E+03  0.25500000920E-02 0. -1.
       -2   -1    0    0    0  501  0.00000000000E+00  0.00000000000E+00 -0.27135062775E+03  0.27135062776E+03  0.25500000920E-02 0.  1.
    10030    2    1    2    0    0  0.00000000000E+00  0.00000000000E+00  0.66246511805E+03  0.12051663736E+04  0.10067601280E+04 0.  0.
        1    1    3    3  502    0  0.35021911187E+03  0.14101135951E+03 -0.67329915234E+02  0.38349830161E+03  0.50400001928E-02 0.  1.
       -1    1    3    3    0  502 -0.35021911187E+03 -0.14101135951E+03  0.72979503328E+03  0.82166807194E+03  0.50400001928E-02 0. -1.
</event>
<event>
 5   0  0.6360455E-03  0.9961271E+03  0.7818609E-02  0.9312803E-01
       -2   -1    0    0    0  501  0.00000000000E+00  0.00000000000E+00  0.27340497553E+03  0.27340497555E+03  0.25500000920E-02 0. -1.
        2   -1    0    0  501    0  0.00000000000E+00  0.00000000000E+00 -0.90732549128E+03  0.90732549128E+03  0.25500000920E-02 0.  1.
    10030    2    1    2    0    0  0.00000000000E+00  0.00000000000E+00 -0.63392051575E+03  0.11807304668E+04  0.99612710786E+03 0.  0.
        4    1    3    3  502    0 -0.14263442401E+03  0.36261194555E+03 -0.68466529369E+03  0.78778180942E+03  0.12699999809E+01 0. -1.
       -4    1    3    3    0  502  0.14263442401E+03 -0.36261194555E+03  0.50744777946E+02  0.39294865741E+03  0.12699999809E+01 0.  1.
</event>
<event>
 5   0  0.3643002E-03  0.8701400E+03  0.7818609E-02  0.9463697E-01
        1   -1    0    0  501    0  0.00000000000E+00  0.00000000000E+00  0.77273231204E+03  0.77273231206E+03  0.50400001928E-02 0. -1.
       -1   -1    0    0    0  501  0.00000000000E+00  0.00000000000E+00 -0.24495665700E+03  0.24495665705E+03  0.50400001928E-02 0.  1.
    10030    2    1    2    0    0  0.00000000000E+00  0.00000000000E+00  0.52777565504E+03  0.10176889691E+04  0.87014004379E+03 0.  0.
        2    1    3    3  502    0  0.36724555278E+03 -0.92448426180E+02  0.51437753533E+03  0.63874897761E+03  0.25500000920E-02 0. -1.
       -2    1    3    3    0  502 -0.36724555278E+03  0.92448426180E+02  0.13398119708E+02  0.37893999150E+03  0.25500000920E-02 0.  1.
</event>
<event>
 5   0  0.3643002E-03  0.1000330E+04  0.7818609E-02  0.9308183E-01
        1   -1    0    0  501    0  0.00000000000E+00  0.00000000000E+00  0.11530920303E+04  0.11530920303E+04  0.50400001928E-02 0.  1.
       -1   -1    0    0    0  501  0.00000000000E+00  0.00000000000E+00 -0.21695162309E+03  0.21695162315E+03  0.50400001928E-02 0. -1.
    10030    2    1    2    0    0  0.00000000000E+00  0.00000000000E+00  0.93614040724E+03  0.13700436535E+04  0.10003303206E+04 0.  0.
        2    1    3    3  502    0  0.81877072682E+01 -0.19780098965E+03 -0.16100754939E+03  0.25517778317E+03  0.25500000920E-02 0. -1.
       -2    1    3    3    0  502 -0.81877072682E+01  0.19780098965E+03  0.10971479566E+04  0.11148658703E+04  0.25500000920E-02 0.  1.
</event>
<event>
 5   0  0.6022787E-03  0.1003740E+04  0.7818609E-02  0.9304452E-01
       -2   -1    0    0    0  501  0.00000000000E+00  0.00000000000E+00  0.10337508040E+04  0.10337508040E+04  0.25500000920E-02 0. -1.
        2   -1    0    0  501    0  0.00000000000E+00  0.00000000000E+00 -0.24365009253E+03  0.24365009254E+03  0.25500000920E-02 0.  1.
    10030    2    1    2    0    0  0.00000000000E+00  0.00000000000E+00  0.79010071148E+03  0.12774008965E+04  0.10037399644E+04 0.  0.
        5    1    3    3  502    0 -0.24512427117E+03  0.58325313355E+02  0.94738786345E+03  0.98033341487E+03  0.46999998093E+01 0. -1.
       -5    1    3    3    0  502  0.24512427117E+03 -0.58325313355E+02 -0.15728715198E+03  0.29706748168E+03  0.46999998093E+01 0.  1.
</event>
<event>
 5   0  0.6376961E-03  0.1004225E+04  0.7818609E-02  0.9303923E-01
       -2   -1    0    0    0  501  0.00000000000E+00  0.00000000000E+00  0.39578285873E+03  0.39578285874E+03  0.25500000920E-02 0. -1.
        2   -1    0    0  501    0  0.00000000000E+00  0.00000000000E+00 -0.63700869104E+03  0.63700869104E+03  0.25500000920E-02 0.  1.
    10030    2    1    2    0    0  0.00000000000E+00  0.00000000000E+00 -0.24122583230E+03  0.10327915498E+04  0.10042253149E+04 0.  0.
        3    1    3    3  502    0  0.47442301224E+03 -0.15840319279E+03 -0.75217250140E+02  0.50579285379E+03  0.10100000352E+00 0. -1.
       -3    1    3    3    0  502 -0.47442301224E+03  0.15840319279E+03 -0.16600858216E+03  0.52699869599E+03  0.10100000352E+00 0.  1.
</event>
<event>
 5   0  0.3643002E-03  0.9921082E+03  0.7818609E-02  0.9317243E-01
        1   -1    0    0  501    0  0.00000000000E+00  0.00000000000E+00  0.63391172231E+03  0.63391172233E+03  0.50400001928E-02 0.  1.
       -1   -1    0    0    0  501  0.00000000000E+00  0.00000000000E+00 -0.38817654124E+03  0.38817654127E+03  0.50400001928E-02 0. -1.
    10030    2    1    2    0    0  0.00000000000E+00  0.00000000000E+00  0.24573518108E+03  0.10220882636E+04  0.99210817927E+03 0.  0.
        2    1    3    3  502    0  0.27092183331E+03 -0.16151853678E+03 -0.27156323793E+03  0.41621325025E+03  0.25500000920E-02 0. -1.
       -2    1    3    3    0  502 -0.27092183331E+03  0.16151853678E+03  0.51729841900E+03  0.60587501334E+03  0.25500000920E-02 0.  1.
</event>
<event>
 5   0  0.6360455E-03  0.1009475E+04  0.7818609E-02  0.9298213E-01
       -2   -1    0    0    0  501  0.00000000000E+00  0.00000000000E+00  0.80892124287E+03  0.80892124288E+03  0.25500000920E-02 0.  1.
        2   -1    0    0  501    0  0.00000000000E+00  0.00000000000E+00 -0.31493806922E+03  0.31493806923E+03  0.25500000920E-02 0. -1.
    10030    2    1    2    0    0  0.00000000000E+00  0.00000000000E+00  0.49398317365E+03  0.11238593121E+04  0.10094752981E+04 0.  0.
        4    1    3    3  502    0  0.21875137975E+03  0.34179105290E+03  0.58114273310E+03  0.70880306088E+03  0.12699999809E+01 0.  1.
       -4    1    3    3    0  502 -0.21875137975E+03 -0.34179105290E+03 -0.87159559449E+02  0.41505625123E+03  0.12699999809E+01 0. -1.
</event>
<event>
 5   0  0.3569359E-03  0.9774566E+03  0.7818609E-02  0.9333621E-01
       -1   -1    0    0    0  501  0.00000000000E+00  0.00000000000E+00  0.25521417463E+03  0.25521417468E+03  0.50400001928E-02 0.  1.
        1   -1    0    0  501    0  0.00000000000E+00  0.00000000000E+00 -0.93590163642E+03  0.93590163643E+03  0.50400001928E-02 0. -1.
    10030    2    1    2    0    0  0.00000000000E+00  0.00000000000E+00 -0.68068746178E+03  0.11911158111E+04  0.97745662556E+03 0.  0.
        4    1    3    3  502    0  0.35989661036E+03 -0.26407175746E+03 -0.58282196546E+03  0.73412704593E+03  0.12699999809E+01 0. -1.
       -4    1    3    3    0  502 -0.35989661036E+03  0.26407175746E+03 -0.97865496321E+02  0.45698876519E+03  0.12699999809E+01 0.  1.
</event>
<event>
 5   0  0.3466598E-03  0.9990112E+03  0.7818609E-02  0.9309630E-01
        1   -1    0    0  501    0  0.00000000000E+00  0.00000000000E+00  0.51356301260E+03  0.51356301262E+03  0.50400001928E-02 0.  1.
       -1   -1    0    0    0  501  0.00000000000E+00  0.00000000000E+00 -0.48583300667E+03  0.48583300669E+03  0.50400001928E-02 0. -1.
    10030    2    1    2    0    0  0.00000000000E+00  0.00000000000E+00  0.27730005931E+02  0.99939601931E+03  0.99901123627E+03 0.  0.
        3    1    3    3  502    0 -0.30743756709E+03 -0.46979095952E+02 -0.37715759652E+03  0.48884839770E+03  0.10100000352E+00 0. -1.
       -3    1    3    3    0  502  0.30743756709E+03  0.46979095952E+02  0.40488760246E+03  0.51054762162E+03  0.10100000352E+00 0.  1.
</event>
<event>
 5   0  0.6376961E-03  0.9921796E+03  0.7818609E-02  0.9317164E-01
       -2   -1    0    0    0  501  0.00000000000E+00  0.00000000000E+00  0.11256623956E+03  0.11256623959E+03  0.25500000920E-02 0.  1.
        2   -1    0    0  501    0  0.00000000000E+00  0.00000000000E+00 -0.21863134348E+04  0.21863134348E+04  0.25500000920E-02 0. -1.
    10030    2    1    2    0    0  0.00000000000E+00  0.00000000000E+00 -0.20737471953E+04  0.22988796744E+04  0.99217958435E+03 0.  0.
        3    1    3    3  502    0  0.13246958736E+03  0.27155991491E+03 -0.12522305524E+03  0.32706849852E+03  0.10100000352E+00 0.  1.
       -3    1    3    3    0  502 -0.13246958736E+03 -0.27155991491E+03 -0.19485241400E+04  0.19718111759E+04  0.10100000352E+00 0. -1.
</event>
<event>
 5   0  0.3643002E-03  0.1005851E+04  0.7818609E-02  0.9302150E-01
       -1   -1    0    0    0  501  0.00000000000E+00  0.00000000000E+00  0.25636023633E+03  0.25636023638E+03  0.50400001928E-02 0. -1.
        1   -1    0    0  501    0  0.00000000000E+00  0.00000000000E+00 -0.98663620909E+03  0.98663620910E+03  0.50400001928E-02 0.  1.
    10030    2    1    2    0    0  0.00000000000E+00  0.00000000000E+00 -0.73027597276E+03  0.12429964455E+04  0.10058514637E+04 0.  0.
        2    1    3    3  502    0 -0.11103600601E+03  0.38355218044E+03 -0.74299338659E+03  0.84349300073E+03  0.25500000920E-02 0.  1.
       -2    1    3    3    0  502  0.11103600601E+03 -0.38355218044E+03  0.12717413824E+02  0.39950344476E+03  0.25500000920E-02 0. -1.
</event>
<event>
 5   0  0.6606947E-03  0.9145196E+03  0.7818609E-02  0.9407611E-01
        2   -1    0    0  501    0  0.00000000000E+00  0.00000000000E+00  0.35389038554E+03  0.35389038555E+03  0.25500000920E-02 0.  1.
       -2   -1    0    0    0  501  0.00000000000E+00  0.00000000000E+00 -0.59082289630E+03  0.59082289630E+03  0.25500000920E-02 0. -1.
    10030    2    1    2    0    0  0.00000000000E+00  0.00000000000E+00 -0.23693251075E+03  0.94471328185E+03  0.91451963908E+03 0.  0.
        1    1    3    3  502    0 -0.26321364083E+03  0.53243100458E+02  0.26384772458E+03  0.37647293430E+03  0.50400001928E-02 0.  1.
       -1    1    3    3    0  502  0.26321364083E+03 -0.53243100458E+02 -0.50078023534E+03  0.56824034756E+03  0.50400001928E-02 0. -1.
</event>
<event>
 5   0  0.6376961E-03  0.9952018E+03  0.7818609E-02  0.9313823E-01
        2   -1    0    0  501    0  0.00000000000E+00  0.00000000000E+00  0.62912180050E+03  0.62912180051E+03  0.25500000920E-02 0.  1.
       -2   -1    0    0    0  501  0.00000000000E+00  0.00000000000E+00 -0.39357503583E+03  0.39357503584E+03  0.25500000920E-02 0. -1.
    10030    2    1    2    0    0  0.00000000000E+00  0.00000000000E+00  0.23554676467E+03  0.10226968363E+04  0.99520175880E+03 0.  0.
        3    1    3    3  502    0 -0.99451126495E+02 -0.48157722831E+03  0.19603160678E+03  0.52937279345E+03  0.10100000352E+00 0. -1.
       -3    1    3    3    0  502  0.99451126495E+02  0.48157722831E+03  0.39515157890E+02  0.49332404289E+03  0.10100000352E+00 0.  1.
</event>
<event>
 5   0  0.3608845E-03  0.1006256E+04  0.7818609E-02  0.9301710E-01
        1   -1    0    0  501    0  0.00000000000E+00  0.00000000000E+00  0.11167381442E+04  0.11167381443E+04  0.50400001928E-02 0. -1.
       -1   -1    0    0    0  501  0.00000000000E+00  0.00000000000E+00 -0.22667582278E+03  0.22667582284E+03  0.50400001928E-02 0.  1.
    10030    2    1    2    0    0  0.00000000000E+00  0.00000000000E+00  0.89006232146E+03  0.13434139671E+04  0.10062555098E+04 0.  0.
        1    1    3    3  502    0  0.30328115525E+03  0.31269794954E+03  0.10892916137E+03  0.44902675755E+03  0.50400001928E-02 0.  1.
       -1    1    3    3    0  502 -0.30328115525E+03 -0.31269794954E+03  0.78113316009E+03  0.89438720954E+03  0.50400001928E-02 0. -1.
</event>
<event>
 5   0  0.3608845E-03  0.9994982E+03  0.7818609E-02  0.9309095E-01
       -1   -1    0    0    0  501  0.00000000000E+00  0.00000000000E+00  0.41408531780E+03  0.41408531783E+03  0.50400001928E-02 0.  1.
        1   -1    0    0  501    0  0.00000000000E+00  0.00000000000E+00 -0.60313458474E+03  0.60313458476E+03  0.50400001928E-02 0. -1.
    10030    2    1    2    0    0  0.00000000000E+00  0.00000000000E+00 -0.18904926694E+03  0.10172199026E+04  0.99949822657E+03 0.  0.
        1    1    3    3  502    0  0.33565999129E+03  0.81730559533E+02  0.27298978691E+03  0.44030777634E+03  0.50400001928E-02 0.  1.
       -1    1    3    3    0  502 -0.33565999129E+03 -0.81730559533E+02 -0.46203905385E+03  0.57691212626E+03  0.50400001928E-02 0. -1.
</event>
<event>
 5   0  0.6606947E-03  0.1022740E+04  0.7818609E-02  0.9283949E-01
        2   -1    0    0  501    0  0.00000000000E+00  0.00000000000E+00  0.59811293550E+03  0.59811293550E+03  0.25500000920E-02 0.  1.
       -2   -1    0    0    0  501  0.00000000000E+00  0.00000000000E+00 -0.43720753018E+03  0.43720753019E+03  0.25500000920E-02 0. -1.
    10030    2    1    2    0    0  0.00000000000E+00  0.00000000000E+00  0.16090540532E+03  0.10353204657E+04  0.10227403958E+04 0.  0.
        1    1    3    3  502    0 -0.45212230992E+03  0.10486356971E+03 -0.13687035533E+03  0.48388474410E+03  0.50400001928E-02 0. -1.
       -1    1    3    3    0  502  0.45212230992E+03 -0.10486356971E+03  0.29777576065E+03  0.55143572159E+03  0.50400001928E-02 0.  1.
</event>
<event>
 5   0  0.3643002E-03  0.1003055E+04  0.7818609E-02  0.9305201E-01
       -1   -1    0    0    0  501  0.00000000000E+00  0.00000000000E+00  0.42922405216E+03  0.42922405219E+03  0.50400001928E-02 0.  1.
        1   -1    0    0  501    0  0.00000000000E+00  0.00000000000E+00 -0.58601048772E+03  0.58601048774E+03  0.50400001928E-02 0. -1.
    10030    2    1    2    0    0  0.00000000000E+00  0.00000000000E+00 -0.15678643556E+03  0.10152345399E+04  0.10030549261E+04 0.  0.
        2    1    3    3  502    0  0.43605269489E+03  0.75727267128E+02  0.16038067261E+03  0.47074253245E+03  0.25500000920E-02 0. -1.
       -2    1    3    3    0  502 -0.43605269489E+03 -0.75727267128E+02 -0.31716710816E+03  0.54449200748E+03  0.25500000920E-02 0.  1.
</event>
<event>
 5   0  0.3608845E-03  0.1047056E+04  0.7818609E-02  0.9258389E-01
       -1   -1    0    0    0  501  0.00000000000E+00  0.00000000000E+00  0.27158749688E+03  0.27158749693E+03  0.50400001928E-02 0.  1.
        1   -1    0    0  501    0  0.00000000000E+00  0.00000000000E+00 -0.10091826415E+04  0.10091826415E+04  0.50400001928E-02 0. -1.
    10030    2    1    2    0    0  0.00000000000E+00  0.00000000000E+00 -0.73759514457E+03  0.12807701384E+04  0.10470556576E+04 0.  0.
        1    1    3    3  502    0  0.37728032078E+03 -0.36209738861E+03 -0.33818237353E+03  0.62275378527E+03  0.50400001928E-02 0. -1.
       -1    1    3    3    0  502 -0.37728032078E+03  0.36209738861E+03 -0.39941277104E+03  0.65801635312E+03  0.50400001928E-02 0.  1.
</event>
<event>
 5   0  0.6376961E-03  0.1010955E+04  0.7818609E-02  0.9296610E-01
       -2   -1    0    0    0  501  0.00000000000E+00  0.00000000000E+00  0.44887609149E+03  0.44887609150E+03  0.25500000920E-02 0.  1.
        2   -1    0    0  501    0  0.00000000000E+00  0.00000000000E+00 -0.56921632514E+03  0.56921632514E+03  0.25500000920E-02 0. -1.
    10030    2    1    2    0    0  0.00000000000E+00  0.00000000000E+00 -0.12034023365E+03  0.10180924166E+04  0.10109551904E+04 0.  0.
        3    1    3    3  502    0 -0.49295394828E+03 -0.93606156229E+01  0.52045336441E+02  0.49578215326E+03  0.10100000352E+00 0.  1.
       -3    1    3    3    0  502  0.49295394828E+03  0.93606156229E+01 -0.17238557009E+03  0.52231026337E+03  0.10100000352E+00 0. -1.
</event>
<event>
 5   0  0.3569359E-03  0.9900210E+03  0.7818609E-02  0.9319558E-01
        1   -1    0    0  501    0  0.00000000000E+00  0.00000000000E+00  0.24103152366E+04  0.24103152366E+04  0.50400001928E-02 0.  1.
       -1   -1    0    0    0  501  0.00000000000E+00  0.00000000000E+00 -0.10166113995E+03  0.10166114008E+03  0.50400001928E-02 0. -1.
    10030    2    1    2    0    0  0.00000000000E+00  0.00000000000E+00  0.23086540966E+04  0.25119763767E+04  0.99002099928E+03 0.  0.
        4    1    3    3  502    0 -0.16051877997E+03 -0.54526740626E+02  0.23343588714E+04  0.23405068677E+04  0.12699999809E+01 0.  1.
       -4    1    3    3    0  502  0.16051877997E+03  0.54526740626E+02 -0.25704774788E+02  0.17146950899E+03  0.12699999809E+01 0. -1.
</event>
<event>
 5   0  0.3569359E-03  0.9969394E+03  0.7818609E-02  0.9311908E-01
        1   -1    0    0  501    0  0.00000000000E+00  0.00000000000E+00  0.64082522021E+03  0.64082522023E+03  0.50400001928E-02 0. -1.
       -1   -1    0    0    0  501  0.00000000000E+00  0.00000000000E+00 -0.38773764178E+03  0.38773764182E+03  0.50400001928E-02 0.  1.
    10030    2    1    2    0    0  0.00000000000E+00  0.00000000000E+00  0.25308757843E+03  0.10285628620E+04  0.99693943589E+03 0.  0.
        4    1    3    3  502    0 -0.48371325788E+03  0.55160356422E+02  0.16148412177E+02  0.48711760888E+03  0.12699999809E+01 0.  1.
       -4    1    3    3    0  502  0.48371325788E+03 -0.55160356422E+02  0.23693916625E+03  0.54144525316E+03  0.12699999809E+01 0. -1.
</event>
<event>
 5   0  0.3569359E-03  0.1020351E+04  0.7818609E-02  0.9286501E-01
       -1   -1    0    0    0  501  0.00000000000E+00  0.00000000000E+00  0.25665677272E+03  0.25665677277E+03  0.50400001928E-02 0. -1.
        1   -1    0    0  501    0  0.00000000000E+00  0.00000000000E+00 -0.10141140477E+04  0.10141140477E+04  0.50400001928E-02 0.  1.
    10030    2    1    2    0    0  0.00000000000E+00  0.00000000000E+00 -0.75745727495E+03  0.12707708205E+04  0.10203513879E+04 0.  0.
        4    1    3    3  502    0 -0.42099568904E+03 -0.12266354906E+03 -0.70348112048E+03  0.82895778917E+03  0.12699999809E+01 0.  1.
       -4    1    3    3    0  502  0.42099568904E+03  0.12266354906E+03 -0.53976154477E+02  0.44181303128E+03  0.12699999809E+01 0. -1.
</event>
<event>
 5   0  0.6199539E-03  0.9966062E+03  0.7818609E-02  0.9312275E-01
        2   -1    0    0  501    0  0.00000000000E+00  0.00000000000E+00  0.46026612957E+03  0.46026612958E+03  0.25500000920E-02 0.  1.
       -2   -1    0    0    0  501  0.00000000000E+00  0.00000000000E+00 -0.53948344321E+03  0.53948344321E+03  0.25500000920E-02 0. -1.
    10030    2    1    2    0    0  0.00000000000E+00  0.00000000000E+00 -0.79217313632E+02  0.99974957279E+03  0.99660615367E+03 0.  0.
        2    1    3    3  502    0 -0.31305227457E+03 -0.18532801466E+02 -0.42807776309E+03  0.53065597387E+03  0.25500000920E-02 0. -1.
       -2    1    3    3    0  502  0.31305227457E+03  0.18532801466E+02  0.34886044946E+03  0.46909359892E+03  0.25500000920E-02 0.  1.
</event>
<event>
 5   0  0.6360455E-03  0.9987277E+03  0.7818609E-02  0.9309941E-01
       -2   -1    0    0    0  501  0.00000000000E+00  0.00000000000E+00  0.50250880736E+03  0.50250880736E+03  0.25500000920E-02 0.  1.
        2   -1    0    0  501    0  0.00000000000E+00  0.00000000000E+00 -0.49623856098E+03  0.49623856098E+03  0.25500000920E-02 0. -1.
    10030    2    1    2    0    0  0.00000000000E+00  0.00000000000E+00  0.62702463819E+01  0.99874736835E+03  0.99872768550E+03 0.  0.
        4    1    3    3  502    0  0.23453486690E+03 -0.36549043837E+03 -0.24339107348E+03  0.49782596546E+03  0.12699999809E+01 0. -1.
       -4    1    3    3    0  502 -0.23453486690E+03  0.36549043837E+03  0.24966131986E+03  0.50092140289E+03  0.12699999809E+01 0.  1.
</event>
<event>
 5   0  0.6376961E-03  0.1001021E+04  0.7818609E-02  0.9307426E-01
       -2   -1    0    0    0  501  0.00000000000E+00  0.00000000000E+00  0.22923784718E+03  0.22923784719E+03  0.25500000920E-02 0.  1.
        2   -1    0    0  501    0  0.00000000000E+00  0.00000000000E+00 -0.10927981520E+04  0.10927981520E+04  0.25500000920E-02 0. -1.
    10030    2    1    2    0    0  0.00000000000E+00  0.00000000000E+00 -0.86356030483E+03  0.13220359992E+04  0.10010208705E+04 0.  0.
        3    1    3    3  502    0 -0.47341160363E+03 -0.15259350428E+03 -0.35816011319E+03  0.61292903413E+03  0.10100000352E+00 0. -1.
       -3    1    3    3    0  502  0.47341160363E+03  0.15259350428E+03 -0.50540019163E+03  0.70910696506E+03  0.10100000352E+00 0.  1.
</event>
<event>
 5   0  0.3466598E-03  0.1019289E+04  0.7818609E-02  0.9287638E-01
       -1   -1    0    0    0  501  0.00000000000E+00  0.00000000000E+00  0.61257268644E+03  0.61257268646E+03  0.50400001928E-02 0.  1.
        1   -1    0    0  501    0  0.00000000000E+00  0.00000000000E+00 -0.42401127803E+03  0.42401127806E+03  0.50400001928E-02 0. -1.
    10030    2    1    2    0    0  0.00000000000E+00  0.00000000000E+00  0.18856140841E+03  0.10365839645E+04  0.10192894146E+04 0.  0.
        3    1    3    3  502    0  0.23675287695E+03 -0.17104847703E+03  0.51901304949E+03  0.59555357608E+03  0.10100000352E+00 0.  1.
       -3    1    3    3    0  502 -0.23675287695E+03  0.17104847703E+03 -0.33045164108E+03  0.44103038844E+03  0.10100000352E+00 0. -1.
</event>
<event>
 5   0  0.6022787E-03  0.1025907E+04  0.7818609E-02  0.9280578E-01
       -2   -1    0    0    0  501  0.00000000000E+00  0.00000000000E+00  0.56160381943E+03  0.56160381944E+03  0.25500000920E-02 0. -1.
        2   -1    0    0  501    0  0.00000000000E+00  0.00000000000E+00 -0.46851797644E+03  0.46851797645E+03  0.25500000920E-02 0.  1.
    10030    2    1    2    0    0  0.00000000000E+00  0.00000000000E+00  0.93085842986E+02  0.10301217959E+04  0.10259073741E+04 0.  0.
        5    1    3    3  502    0  0.18278352248E+03  0.11651327864E+03 -0.42024768904E+03  0.47287986881E+03  0.46999998093E+01 0.  1.
       -5    1    3    3    0  502 -0.18278352248E+03 -0.11651327864E+03  0.51333353202E+03  0.55724192707E+03  0.46999998093E+01 0. -1.
</event>
<event>
 5   0  0.2417750E-03  0.9980915E+03  0.7818609E-02  0.9310640E-01
       -3   -1    0    0    0  501  0.00000000000E+00  0.00000000000E+00  0.62274389217E+03  0.62274390036E+03  0.10100000352E+00 0.  1.
        3   -1    0    0  501    0  0.00000000000E+00  0.00000000000E+00 -0.39991827164E+03  0.39991828439E+03  0.10100000352E+00 0. -1.
    10030    2    1    2    0    0  0.00000000000E+00  0.00000000000E+00  0.22282562053E+03  0.10226621848E+04  0.99809152234E+03 0.  0.
        5    1    3    3  502    0  0.33094167665E+03  0.20280671294E+03 -0.20995084205E+03  0.44130987099E+03  0.46999998093E+01 0. -1.
       -5    1    3    3    0  502 -0.33094167665E+03 -0.20280671294E+03  0.43277646258E+03  0.58135231376E+03  0.46999998093E+01 0.  1.
</event>
<event>
 5   0  0.6199539E-03  0.9955907E+03  0.7818609E-02  0.9313394E-01
        2   -1    0    0  501    0  0.00000000000E+00  0.00000000000E+00  0.59229669725E+03  0.59229669725E+03  0.25500000920E-02 0. -1.
       -2   -1    0    0    0  501  0.00000000000E+00  0.00000000000E+00 -0.41837178909E+03  0.41837178910E+03  0.25500000920E-02 0.  1.
    10030    2    1    2    0    0  0.00000000000E+00  0.00000000000E+00  0.17392490816E+03  0.10106684864E+04  0.99559073701E+03 0.  0.
        2    1    3    3  502    0 -0.22822815655E+03 -0.14887988576E+03 -0.33593622486E+03  0.43255804120E+03  0.25500000920E-02 0.  1.
       -2    1    3    3    0  502  0.22822815655E+03  0.14887988576E+03  0.50986113302E+03  0.57811044515E+03  0.25500000920E-02 0. -1.
</event>
<event>
 5   0  0.3466598E-03  0.9974549E+03  0.7818609E-02  0.9311341E-01
        1   -1    0    0  501    0  0.00000000000E+00  0.00000000000E+00  0.12019335884E+04  0.12019335884E+04  0.50400001928E-02 0. -1.
       -1   -1    0    0    0  501  0.00000000000E+00  0.00000000000E+00 -0.20694075679E+03  0.20694075685E+03  0.50400001928E-02 0.  1.
    10030    2    1    2    0    0  0.00000000000E+00  0.00000000000E+00  0.99499283164E+03  0.14088743453E+04  0.99745485401E+03 0.  0.
        3    1    3    3  502    0 -0.49490111700E+03 -0.41319976913E+01  0.41059973458E+03  0.64306791340E+03  0.10100000352E+00 0.  1.
       -3    1    3    3    0  502  0.49490111700E+03  0.41319976913E+01  0.58439309706E+03  0.76580643188E+03  0.10100000352E+00 0. -1.
</event>
<event>
 5   0  0.6022787E-03  0.9779409E+03  0.7818609E-02  0.9333075E-01
        2   -1    0    0  501    0  0.00000000000E+00  0.00000000000E+00  0.43361956242E+03  0.43361956243E+03  0.25500000920E-02 0. -1.
       -2   -1    0    0    0  501  0.00000000000E+00  0.00000000000E+00 -0.55138675877E+03  0.55138675877E+03  0.25500000920E-02 0.  1.
    10030    2    1    2    0    0  0.00000000000E+00  0.00000000000E+00 -0.11776719634E+03  0.98500632120E+03  0.97794086747E+03 0.  0.
        5    1    3    3  502    0 -0.42687613284E+03  0.20279093065E+03  0.67412116576E+02  0.47740326539E+03  0.46999998093E+01 0. -1.
       -5    1    3    3    0  502  0.42687613284E+03 -0.20279093065E+03 -0.18517931292E+03  0.50760305582E+03  0.46999998093E+01 0.  1.
</event>
<event>
 5   0  0.3640180E-03  0.1026203E+04  0.7818609E-02  0.9280264E-01
        1   -1    0    0  501    0  0.00000000000E+00  0.00000000000E+00  0.16709516250E+04  0.16709516250E+04  0.50400001928E-02 0. -1.
       -1   -1    0    0    0  501  0.00000000000E+00  0.00000000000E+00 -0.15755884794E+03  0.15755884802E+03  0.50400001928E-02 0.  1.
    10030    2    1    2    0    0  0.00000000000E+00  0.00000000000E+00  0.15133927770E+04  0.18285104730E+04  0.10262031243E+04 0.  0.
        5    1    3    3  502    0  0.18826851973E+03 -0.29208506101E+03  0.84091565060E+02  0.35756425954E+03  0.46999998093E+01 0.  1.
       -5    1    3    3    0  502 -0.18826851973E+03  0.29208506101E+03  0.14293012120E+04  0.14709462135E+04  0.46999998093E+01 0. -1.
</event>
<event>
 5   0  0.6022787E-03  0.1007613E+04  0.7818609E-02  0.9300234E-01
        2   -1    0    0  501    0  0.00000000000E+00  0.00000000000E+00  0.10078937755E+04  0.10078937755E+04  0.25500000920E-02 0.  1.
       -2   -1    0    0    0  501  0.00000000000E+00  0.00000000000E+00 -0.25183307185E+03  0.25183307187E+03  0.25500000920E-02 0. -1.
    10030    2    1    2    0    0  0.00000000000E+00  0.00000000000E+00  0.75606070368E+03  0.12597268474E+04  0.10076129924E+04 0.  0.
        5    1    3    3  502    0 -0.22917710624E+03 -0.27776066673E+03 -0.62436864308E+02  0.36550456363E+03  0.46999998093E+01 0. -1.
       -5    1    3    3    0  502  0.22917710624E+03  0.27776066673E+03  0.81849756799E+03  0.89422228378E+03  0.46999998093E+01 0.  1.
</event>
<event>
 5   0  0.6606947E-03  0.1003595E+04  0.7818609E-02  0.9304611E-01
       -2   -1    0    0    0  501  0.00000000000E+00  0.00000000000E+00  0.18675167924E+03  0.18675167926E+03  0.25500000920E-02 0.  1.
        2   -1    0    0  501    0  0.00000000000E+00  0.00000000000E+00 -0.13483175852E+04  0.13483175852E+04  0.25500000920E-02 0. -1.
    10030    2    1    2    0    0  0.00000000000E+00  0.00000000000E+00 -0.11615659060E+04  0.15350692645E+04  0.10035946855E+04 0.  0.
        1    1    3    3  502    0 -0.44361710021E+03  0.65983080607E+02 -0.23654223365E+03  0.50705239063E+03  0.50400001928E-02 0. -1.
       -1    1    3    3    0  502  0.44361710021E+03 -0.65983080607E+02 -0.92502367231E+03  0.10280168738E+04  0.50400001928E-02 0.  1.
</event>
<event>
 5   0  0.6360455E-03  0.1000429E+04  0.7818609E-02  0.9308074E-01
       -2   -1    0    0    0  501  0.00000000000E+00  0.00000000000E+00  0.26840347532E+03  0.26840347533E+03  0.25500000920E-02 0.  1.
        2   -1    0    0  501    0  0.00000000000E+00  0.00000000000E+00 -0.93223377492E+03  0.93223377492E+03  0.25500000920E-02 0. -1.
    10030    2    1    2    0    0  0.00000000000E+00  0.00000000000E+00 -0.66383029960E+03  0.12006372503E+04  0.10004294778E+04 0.  0.
        4    1    3    3  502    0  0.31263618746E+03  0.13813937737E+03  0.10639934062E+03  0.35797528668E+03  0.12699999809E+01 0. -1.
       -4    1    3    3    0  502 -0.31263618746E+03 -0.13813937737E+03 -0.77022964022E+03  0.84266196358E+03  0.12699999809E+01 0.  1.
</event>
<event>
 5   0  0.3466598E-03  0.9989525E+03  0.7818609E-02  0.9309694E-01
        1   -1    0    0  501    0  0.00000000000E+00  0.00000000000E+00  0.87202964235E+03  0.87202964237E+03  0.50400001928E-02 0. -1.
       -1   -1    0    0    0  501  0.00000000000E+00  0.00000000000E+00 -0.28608723228E+03  0.28608723232E+03  0.50400001928E-02 0.  1.
    10030    2    1    2    0    0  0.00000000000E+00  0.00000000000E+00  0.58594241007E+03  0.11581168747E+04  0.99895254517E+03 0.  0.
        3    1    3    3  502    0 -0.57943576434E+02 -0.49395298526E+03  0.34647062887E+03  0.60612615566E+03  0.10100000352E+00 0.  1.
       -3    1    3    3    0  502  0.57943576434E+02  0.49395298526E+03  0.23947178120E+03  0.55199071903E+03  0.10100000352E+00 0. -1.
</event>
<event>
 5   0  0.3569359E-03  0.1002302E+04  0.7818609E-02  0.9306024E-01
        1   -1    0    0  501    0  0.00000000000E+00  0.00000000000E+00  0.14872685411E+04  0.14872685411E+04  0.50400001928E-02 0.  1.
       -1   -1    0    0    0  501  0.00000000000E+00  0.00000000000E+00 -0.16886816648E+03  0.16886816656E+03  0.50400001928E-02 0. -1.
    10030    2    1    2    0    0  0.00000000000E+00  0.00000000000E+00  0.13184003746E+04  0.16561367077E+04  0.10023019738E+04 0.  0.
        4    1    3    3  502    0 -0.11135336297E+03 -0.42344439492E+03  0.25633586031E+03  0.50736024008E+03  0.12699999809E+01 0. -1.
       -4    1    3    3    0  502  0.11135336297E+03  0.42344439492E+03  0.10620645143E+04  0.11487764676E+04  0.12699999809E+01 0.  1.
</event>
<event>
 5   0  0.6606947E-03  0.9996159E+03  0.7818609E-02  0.9308966E-01
        2   -1    0    0  501    0  0.00000000000E+00  0.00000000000E+00  0.17853408358E+04  0.17853408358E+04  0.25500000920E-02 0.  1.
       -2   -1    0    0    0  501  0.00000000000E+00  0.00000000000E+00 -0.13992173403E+03  0.13992173406E+03  0.25500000920E-02 0. -1.
    10030    2    1    2    0    0  0.00000000000E+00  0.00000000000E+00  0.16454191018E+04  0.19252625699E+04  0.99961589746E+03 0.  0.
        1    1    3    3  502    0 -0.19543607380E+03 -0.45953338555E+03  0.78222709794E+03  0.92803309432E+03  0.50400001928E-02 0.  1.
       -1    1    3    3    0  502  0.19543607380E+03  0.45953338555E+03  0.86319200384E+03  0.99722947555E+03  0.50400001928E-02 0. -1.
</event>
<event>
 5   0  0.3608845E-03  0.9983479E+03  0.7818609E-02  0.9310359E-01
       -1   -1    0    0    0  501  0.00000000000E+00  0.00000000000E+00  0.33116571569E+03  0.33116571573E+03  0.50400001928E-02 0.  1.
        1   -1    0    0  501    0  0.00000000000E+00  0.00000000000E+00 -0.75241681942E+03  0.75241681944E+03  0.50400001928E-02 0. -1.
    10030    2    1    2    0    0  0.00000000000E+00  0.00000000000E+00 -0.42125110374E+03  0.10835825352E+04  0.99834794442E+03 0.  0.
        1    1    3    3  502    0  0.32873915156E+03  0.88628072757E+02  0.18557415427E+03  0.38776556295E+03  0.50400001928E-02 0.  1.
       -1    1    3    3    0  502 -0.32873915156E+03 -0.88628072757E+02 -0.60682525801E+03  0.69581697222E+03  0.50400001928E-02 0. -1.
</event>
<event>
 5   0  0.6360455E-03  0.1009311E+04  0.7818609E-02  0.9298391E-01
       -2   -1    0    0    0  501  0.00000000000E+00  0.00000000000E+00  0.17563978926E+03  0.17563978928E+03  0.25500000920E-02 0. -1.
        2   -1    0    0  501    0  0.00000000000E+00  0.00000000000E+00 -0.14499980669E+04  0.14499980670E+04  0.25500000920E-02 0.  1.
    10030    2    1    2    0    0  0.00000000000E+00  0.00000000000E+00 -0.12743582777E+04  0.16256378562E+04  0.10093113592E+04 0.  0.
        4    1    3    3  502    0  0.48693429870E+03 -0.13120041586E+03 -0.66761903857E+03  0.83668115428E+03  0.12699999809E+01 0.  1.
       -4    1    3    3    0  502 -0.48693429870E+03  0.13120041586E+03 -0.60673923912E+03  0.78895670195E+03  0.12699999809E+01 0. -1.
</event>
<event>
 5   0  0.6022787E-03  0.1003048E+04  0.7818609E-02  0.9305208E-01
       -2   -1    0    0    0  501  0.00000000000E+00  0.00000000000E+00  0.14642461254E+03  0.14642461256E+03  0.25500000920E-02 0. -1.
        2   -1    0    0  501    0  0.00000000000E+00  0.00000000000E+00 -0.17177888617E+04  0.17177888618E+04  0.25500000920E-02 0.  1.
    10030    2    1    2    0    0  0.00000000000E+00  0.00000000000E+00 -0.15713642492E+04  0.18642134743E+04  0.10030484904E+04 0.  0.
        5    1    3    3  502    0  0.50344072801E+02 -0.48516896673E+03 -0.56909132042E+03  0.74954017432E+03  0.46999998093E+01 0.  1.
       -5    1    3    3    0  502 -0.50344072801E+02  0.48516896673E+03 -0.10022729288E+04  0.11146733000E+04  0.46999998093E+01 0. -1.
</event>
<event>
 5   0  0.6022787E-03  0.9899524E+03  0.7818609E-02  0.9319634E-01
        2   -1    0    0  501    0  0.00000000000E+00  0.00000000000E+00  0.16220060684E+04  0.16220060684E+04  0.25500000920E-02 0. -1.
       -2   -1    0    0    0  501  0.00000000000E+00  0.00000000000E+00 -0.15104840173E+03  0.15104840175E+03  0.25500000920E-02 0.  1.
    10030    2    1    2    0    0  0.00000000000E+00  0.00000000000E+00  0.14709576666E+04  0.17730544701E+04  0.98995237108E+03 0.  0.
        5    1    3    3  502    0 -0.45098238752E+03 -0.96045713580E+02  0.10577158138E+04  0.11538607913E+04  0.46999998093E+01 0. -1.
       -5    1    3    3    0  502  0.45098238752E+03  0.96045713580E+02  0.41324185282E+03  0.61919367881E+03  0.46999998093E+01 0.  1.
</event>
<event>
 5   0  0.3569359E-03  0.9959460E+03  0.7818609E-02  0.9313002E-01
       -1   -1    0    0    0  501  0.00000000000E+00  0.00000000000E+00  0.24658715206E+03  0.24658715211E+03  0.50400001928E-02 0.  1.
        1   -1    0    0  501    0  0.00000000000E+00  0.00000000000E+00 -0.10056368511E+04  0.10056368511E+04  0.50400001928E-02 0. -1.
    10030    2    1    2    0    0  0.00000000000E+00  0.00000000000E+00 -0.75904969906E+03  0.12522240032E+04  0.99594603701E+03 0.  0.
        4    1    3    3  502    0  0.48391174871E+03 -0.10287304791E+03 -0.30815518021E+03  0.58285047183E+03  0.12699999809E+01 0. -1.
       -4    1    3    3    0  502 -0.48391174871E+03  0.10287304791E+03 -0.45089451885E+03  0.66937353141E+03  0.12699999809E+01 0.  1.
</event>
<event>
 5   0  0.3569359E-03  0.9766728E+03  0.7818609E-02  0.9334506E-01
       -1   -1    0    0    0  501  0.00000000000E+00  0.00000000000E+00  0.17814717470E+04  0.17814717470E+04  0.50400001928E-02 0. -1.
        1   -1    0    0  501    0  0.00000000000E+00  0.00000000000E+00 -0.13386259791E+03  0.13386259800E+03  0.50400001928E-02 0.  1.
    10030    2    1    2    0    0  0.00000000000E+00  0.00000000000E+00  0.16476091491E+04  0.19153343450E+04  0.97667279321E+03 0.  0.
        4    1    3    3  502    0 -0.18034943101E+03  0.45122674763E+03  0.91865539545E+03  0.10392597575E+04  0.12699999809E+01 0.  1.
       -4    1    3    3    0  502  0.18034943101E+03 -0.45122674763E+03  0.72895375363E+03  0.87607458751E+03  0.12699999809E+01 0. -1.
</event>
<event>
 5   0  0.2417750E-03  0.1005650E+04  0.7818609E-02  0.9302370E-01
        3   -1    0    0  501    0  0.00000000000E+00  0.00000000000E+00  0.50487034002E+03  0.50487035012E+03  0.10100000352E+00 0. -1.
       -3   -1    0    0    0  501  0.00000000000E+00  0.00000000000E+00 -0.50078769322E+03  0.50078770341E+03  0.10100000352E+00 0.  1.
    10030    2    1    2    0    0  0.00000000000E+00  0.00000000000E+00  0.40826467991E+01  0.10056580535E+04  0.10056497664E+04 0.  0.
        3    1    3    3  502    0  0.58176576779E+02  0.18820274153E+03  0.46467681101E+03  0.50470717738E+03  0.10100000352E+00 0. -1.
       -3    1    3    3    0  502 -0.58176576779E+02 -0.18820274153E+03 -0.46059416421E+03  0.50095087615E+03  0.10100000352E+00 0.  1.
</event>
<event>
 5   0  0.3608845E-03  0.9899661E+03  0.7818609E-02  0.9319619E-01
       -1   -1    0    0    0  501  0.00000000000E+00  0.00000000000E+00  0.35255322034E+03  0.35255322038E+03  0.50400001928E-02 0.  1.
        1   -1    0    0  501    0  0.00000000000E+00  0.00000000000E+00 -0.69495384874E+03  0.69495384876E+03  0.50400001928E-02 0. -1.
    10030    2    1    2    0    0  0.00000000000E+00  0.00000000000E+00 -0.34240062840E+03  0.10475070691E+04  0.98996609516E+03 0.  0.
        1    1    3    3  502    0 -0.32307411439E+03  0.15159490129E+03 -0.53413894603E+03  0.64238797558E+03  0.50400001928E-02 0. -1.
       -1    1    3    3    0  502  0.32307411439E+03 -0.15159490129E+03  0.19173831763E+03  0.40511909355E+03  0.50400001928E-02 0.  1.
</event>
<event>
 5   0  0.6022787E-03  0.1001297E+04  0.7818609E-02  0.9307124E-01
        2   -1    0    0  501    0  0.00000000000E+00  0.00000000000E+00  0.20854985217E+03  0.20854985219E+03  0.25500000920E-02 0. -1.
       -2   -1    0    0    0  501  0.00000000000E+00  0.00000000000E+00 -0.12018646779E+04  0.12018646779E+04  0.25500000920E-02 0.  1.
    10030    2    1    2    0    0  0.00000000000E+00  0.00000000000E+00 -0.99331482569E+03  0.14104145301E+04  0.10012965613E+04 0.  0.
        5    1    3    3  502    0  0.48127237635E+02 -0.49785378550E+03 -0.46671080824E+03  0.68411672342E+03  0.46999998093E+01 0. -1.
       -5    1    3    3    0  502 -0.48127237635E+02  0.49785378550E+03 -0.52660401745E+03  0.72629780664E+03  0.46999998093E+01 0.  1.
</event>
<event>
 5   0  0.6360455E-03  0.1026192E+04  0.7818609E-02  0.9280276E-01
        2   -1    0    0  501    0  0.00000000000E+00  0.00000000000E+00  0.16243288716E+04  0.16243288716E+04  0.25500000920E-02 0. -1.
       -2   -1    0    0    0  501  0.00000000000E+00  0.00000000000E+00 -0.16207759379E+03  0.16207759381E+03  0.25500000920E-02 0.  1.
    10030    2    1    2    0    0  0.00000000000E+00  0.00000000000E+00  0.14622512778E+04  0.17864064654E+04  0.10261916294E+04 0.  0.
        4    1    3    3  502    0  0.26518342334E+03 -0.36253125042E+03  0.11628839714E+04  0.12466161796E+04  0.12699999809E+01 0. -1.
       -4    1    3    3    0  502 -0.26518342334E+03  0.36253125042E+03  0.29936730640E+03  0.53979028575E+03  0.12699999809E+01 0.  1.
</event>
<event>
 5   0  0.6606947E-03  0.9908047E+03  0.7818609E-02  0.9318688E-01
       -2   -1    0    0    0  501  0.00000000000E+00  0.00000000000E+00  0.32265889764E+03  0.32265889765E+03  0.25500000920E-02 0.  1.
        2   -1    0    0  501    0  0.00000000000E+00  0.00000000000E+00 -0.76062828552E+03  0.76062828552E+03  0.25500000920E-02 0. -1.
    10030    2    1    2    0    0  0.00000000000E+00  0.00000000000E+00 -0.43796938788E+03  0.10832871832E+04  0.99080469140E+03 0.  0.
        1    1    3    3  502    0  0.27080788717E+03 -0.38660020141E+03 -0.54521900366E+02  0.47515183377E+03  0.50400001928E-02 0.  1.
       -1    1    3    3    0  502 -0.27080788717E+03  0.38660020141E+03 -0.38344748752E+03  0.60813534940E+03  0.50400001928E-02 0. -1.
</event>
<event>
 5   0  0.6606947E-03  0.1033101E+04  0.7818609E-02  0.9272967E-01
        2   -1    0    0  501    0  0.00000000000E+00  0.00000000000E+00  0.90122658141E+03  0.90122658141E+03  0.25500000920E-02 0. -1.
       -2   -1    0    0    0  501  0.00000000000E+00  0.00000000000E+00 -0.29606824160E+03  0.29606824161E+03  0.25500000920E-02 0.  1.
    10030    2    1    2    0    0  0.00000000000E+00  0.00000000000E+00  0.60515833981E+03  0.11972948230E+04  0.10331012908E+04 0.  0.
        1    1    3    3  502    0 -0.19491258824E+02  0.37461618409E+03 -0.10897636121E+03  0.39063159355E+03  0.50400001928E-02 0.  1.
       -1    1    3    3    0  502  0.19491258824E+02 -0.37461618409E+03  0.71413470102E+03  0.80666322947E+03  0.50400001928E-02 0. -1.
</event>
<event>
 5   0  0.3643002E-03  0.1004726E+04  0.7818609E-02  0.9303377E-01
        1   -1    0    0  501    0  0.00000000000E+00  0.00000000000E+00  0.10565175984E+04  0.10565175984E+04  0.50400001928E-02 0.  1.
       -1   -1    0    0    0  501  0.00000000000E+00  0.00000000000E+00 -0.23886815262E+03  0.23886815267E+03  0.50400001928E-02 0. -1.
    10030    2    1    2    0    0  0.00000000000E+00  0.00000000000E+00  0.81764944574E+03  0.12953857510E+04  0.10047256481E+04 0.  0.
        2    1    3    3  502    0 -0.36012788359E+02 -0.49826955516E+03  0.34061470796E+03  0.60463861092E+03  0.25500000920E-02 0. -1.
       -2    1    3    3    0  502  0.36012788359E+02  0.49826955516E+03  0.47703473779E+03  0.69074714013E+03  0.25500000920E-02 0.  1.
</event>
<event>
 5   0  0.3640180E-03  0.1008313E+04  0.7818609E-02  0.9299474E-01
       -1   -1    0    0    0  501  0.00000000000E+00  0.00000000000E+00  0.15245532670E+03  0.15245532678E+03  0.50400001928E-02 0.  1.
        1   -1    0    0  501    0  0.00000000000E+00  0.00000000000E+00 -0.16672029534E+04  0.16672029534E+04  0.50400001928E-02 0. -1.
    10030    2    1    2    0    0  0.00000000000E+00  0.00000000000E+00 -0.15147476267E+04  0.18196582802E+04  0.10083133858E+04 0.  0.
        5    1    3    3  502    0 -0.11472363562E+02  0.38707909939E+03 -0.17485842744E+03  0.42492282118E+03  0.46999998093E+01 0.  1.
       -5    1    3    3    0  502  0.11472363562E+02 -0.38707909939E+03 -0.13398891993E+04  0.13947354590E+04  0.46999998093E+01 0. -1.
</event>
<event>
 5   0  0.6022787E-03  0.9920131E+03  0.7818609E-02  0.9317348E-01
        2   -1    0    0  501    0  0.00000000000E+00  0.00000000000E+00  0.12289184763E+04  0.12289184763E+04  0.25500000920E-02 0.  1.
       -2   -1    0    0    0  501  0.00000000000E+00  0.00000000000E+00 -0.20019433216E+03  0.20019433217E+03  0.25500000920E-02 0. -1.
    10030    2    1    2    0    0  0.00000000000E+00  0.00000000000E+00  0.10287241441E+04  0.14291128084E+04  0.99201313226E+03 0.  0.
        5    1    3    3  502    0 -0.10665849565E+03  0.10251154343E+03  0.11963635268E+04  0.12054843133E+04  0.46999998093E+01 0.  1.
       -5    1    3    3    0  502  0.10665849565E+03 -0.10251154343E+03 -0.16763938270E+03  0.22362849519E+03  0.46999998093E+01 0. -1.
</event>
<event>
 5   0  0.3569359E-03  0.9984927E+03  0.7818609E-02  0.9310200E-01
        1   -1    0    0  501    0  0.00000000000E+00  0.00000000000E+00  0.43394691173E+03  0.43394691176E+03  0.50400001928E-02 0. -1.
       -1   -1    0    0    0  501  0.00000000000E+00  0.00000000000E+00 -0.57437190098E+03  0.57437190100E+03  0.50400001928E-02 0.  1.
    10030    2    1    2    0    0  0.00000000000E+00  0.00000000000E+00 -0.14042498925E+03  0.10083188128E+04  0.99849268929E+03 0.  0.
        4    1    3    3  502    0 -0.36411684566E+03 -0.33529719848E+03 -0.44563291639E+01  0.49500177815E+03  0.12699999809E+01 0. -1.
       -4    1    3    3    0  502  0.36411684566E+03  0.33529719848E+03 -0.13596866009E+03  0.51331703462E+03  0.12699999809E+01 0.  1.
</event>
<event>
 5   0  0.6199539E-03  0.9902049E+03  0.7818609E-02  0.9319354E-01
        2   -1    0    0  501    0  0.00000000000E+00  0.00000000000E+00  0.72307698122E+03  0.72307698122E+03  0.25500000920E-02 0. -1.
       -2   -1    0    0    0  501  0.00000000000E+00  0.00000000000E+00 -0.33900459705E+03  0.33900459706E+03  0.25500000920E-02 0.  1.
    10030    2    1    2    0    0  0.00000000000E+00  0.00000000000E+00  0.38407238416E+03  0.10620815783E+04  0.99020486903E+03 0.  0.
        2    1    3    3  502    0  0.64100250723E+02  0.34032663940E+03 -0.18747704658E+03  0.39380033853E+03  0.25500000920E-02 0.  1.
       -2    1    3    3    0  502 -0.64100250723E+02 -0.34032663940E+03  0.57154943074E+03  0.66828123976E+03  0.25500000920E-02 0. -1.
</event>
<event>
 5   0  0.3608845E-03  0.9938249E+03  0.7818609E-02  0.9315344E-01
       -1   -1    0    0    0  501  0.00000000000E+00  0.00000000000E+00  0.29758866475E+03  0.29758866479E+03  0.50400001928E-02 0.  1.
        1   -1    0    0  501    0  0.00000000000E+00  0.00000000000E+00 -0.82974258625E+03  0.82974258626E+03  0.50400001928E-02 0. -1.
    10030    2    1    2    0    0  0.00000000000E+00  0.00000000000E+00 -0.53215392150E+03  0.11273312511E+04  0.99382491085E+03 0.  0.
        1    1    3    3  502    0  0.30782138201E+03  0.13742528827E+03  0.14804462365E+03  0.36818055855E+03  0.50400001928E-02 0.  1.
       -1    1    3    3    0  502 -0.30782138201E+03 -0.13742528827E+03 -0.68019854515E+03  0.75915069250E+03  0.50400001928E-02 0. -1.
</event>
<event>
 5   0  0.6376961E-03  0.1005579E+04  0.7818609E-02  0.9302447E-01
        2   -1    0    0  501    0  0.00000000000E+00  0.00000000000E+00  0.11347342809E+04  0.11347342809E+04  0.25500000920E-02 0. -1.
       -2   -1    0    0    0  501  0.00000000000E+00  0.00000000000E+00 -0.22278097564E+03  0.22278097565E+03  0.25500000920E-02 0.  1.
    10030    2    1    2    0    0  0.00000000000E+00  0.00000000000E+00  0.91195330524E+03  0.13575152565E+04  0.10055788586E+04 0.  0.
        3    1    3    3  502    0 -0.33300520037E+03  0.32773622613E+03  0.70670214472E+03  0.84719031447E+03  0.10100000352E+00 0. -1.
       -3    1    3    3    0  502  0.33300520037E+03 -0.32773622613E+03  0.20525116052E+03  0.51032494206E+03  0.10100000352E+00 0.  1.
</event>
<event>
 5   0  0.6022787E-03  0.1004408E+04  0.7818609E-02  0.9303723E-01
        2   -1    0    0  501    0  0.00000000000E+00  0.00000000000E+00  0.10278475386E+04  0.10278475386E+04  0.25500000920E-02 0.  1.
       -2   -1    0    0    0  501  0.00000000000E+00  0.00000000000E+00 -0.24537587186E+03  0.24537587187E+03  0.25500000920E-02 0. -1.
    10030    2    1    2    0    0  0.00000000000E+00  0.00000000000E+00  0.78247166669E+03  0.12732234104E+04  0.10044082555E+04 0.  0.
        5    1    3    3  502    0 -0.91606424967E+02 -0.16236125892E+03  0.98233187329E+03  0.99987544963E+03  0.46999998093E+01 0.  1.
       -5    1    3    3    0  502  0.91606424967E+02  0.16236125892E+03 -0.19986020660E+03  0.27334796080E+03  0.46999998093E+01 0. -1.
</event>
<event>
 5   0  0.3608845E-03  0.1012798E+04  0.7818609E-02  0.9294618E-01
        1   -1    0    0  501    0  0.00000000000E+00  0.00000000000E+00  0.13444274919E+04  0.13444274919E+04  0.50400001928E-02 0.  1.
       -1   -1    0    0    0  501  0.00000000000E+00  0.00000000000E+00 -0.19074299453E+03  0.19074299460E+03  0.50400001928E-02 0. -1.
    10030    2    1    2    0    0  0.00000000000E+00  0.00000000000E+00  0.11536844974E+04  0.15351704865E+04  0.10127983527E+04 0.  0.
        1    1    3    3  502    0  0.48957675004E+03 -0.12062762103E+03  0.64799811535E+03  0.82105905674E+03  0.50400001928E-02 0. -1.
       -1    1    3    3    0  502 -0.48957675004E+03  0.12062762103E+03  0.50568638202E+03  0.71411142977E+03  0.50400001928E-02 0.  1.
</event>
<event>
 5   0  0.3569359E-03  0.1011579E+04  0.7818609E-02  0.9295935E-01
       -1   -1    0    0    0  501  0.00000000000E+00  0.00000000000E+00  0.29434344047E+03  0.29434344052E+03  0.50400001928E-02 0. -1.
        1   -1    0    0  501    0  0.00000000000E+00  0.00000000000E+00 -0.86913120916E+03  0.86913120918E+03  0.50400001928E-02 0.  1.
    10030    2    1    2    0    0  0.00000000000E+00  0.00000000000E+00 -0.57478776869E+03  0.11634746497E+04  0.10115791029E+04 0.  0.
        4    1    3    3  502    0  0.39280019809E+02  0.50375283655E+03 -0.31340923205E+03  0.59458960630E+03  0.12699999809E+01 0.  1.
       -4    1    3    3    0  502 -0.39280019809E+02 -0.50375283655E+03 -0.26137853663E+03  0.56888504339E+03  0.12699999809E+01 0. -1.
</event>
<event>
 5   0  0.3640180E-03  0.9947517E+03  0.7818609E-02  0.9314320E-01
        1   -1    0    0  501    0  0.00000000000E+00  0.00000000000E+00  0.11690228065E+04  0.11690228065E+04  0.50400001928E-02 0. -1.
       -1   -1    0    0    0  501  0.00000000000E+00  0.00000000000E+00 -0.21161495986E+03  0.21161495992E+03  0.50400001928E-02 0.  1.
    10030    2    1    2    0    0  0.00000000000E+00  0.00000000000E+00  0.95740784668E+03  0.13806377665E+04  0.99475165609E+03 0.  0.
        5    1    3    3  502    0 -0.44120237173E+03 -0.22310773190E+03  0.55375485702E+03  0.74236320257E+03  0.46999998093E+01 0.  1.
       -5    1    3    3    0  502  0.44120237173E+03  0.22310773190E+03  0.40365298966E+03  0.63827456389E+03  0.46999998093E+01 0. -1.
</event>
<event>
 5   0  0.3640180E-03  0.1001788E+04  0.7818609E-02  0.9306586E-01
        1   -1    0    0  501    0  0.00000000000E+00  0.00000000000E+00  0.12924434354E+03  0.12924434363E+03  0.50400001928E-02 0. -1.
       -1   -1    0    0    0  501  0.00000000000E+00  0.00000000000E+00 -0.19412447254E+04  0.19412447254E+04  0.50400001928E-02 0.  1.
    10030    2    1    2    0    0  0.00000000000E+00  0.00000000000E+00 -0.18120003818E+04  0.20704890690E+04  0.10017882017E+04 0.  0.
        5    1    3    3  502    0 -0.18459538766E+03  0.46560000592E+03 -0.89827037812E+03  0.10284797445E+04  0.46999998093E+01 0.  1.
       -5    1    3    3    0  502  0.18459538766E+03 -0.46560000592E+03 -0.91373000373E+03  0.10420093245E+04  0.46999998093E+01 0. -1.
</event>
<event>
 5   0  0.6022787E-03  0.1003637E+04  0.7818609E-02  0.9304565E-01
        2   -1    0    0  501    0  0.00000000000E+00  0.00000000000E+00  0.12315206850E+04  0.12315206850E+04  0.25500000920E-02 0. -1.
       -2   -1    0    0    0  501  0.00000000000E+00  0.00000000000E+00 -0.20448018352E+03  0.20448018353E+03  0.25500000920E-02 0.  1.
    10030    2    1    2    0    0  0.00000000000E+00  0.00000000000E+00  0.10270405015E+04  0.14360008686E+04  0.10036365392E+04 0.  0.
        5    1    3    3  502    0  0.15206838408E+03  0.15036578070E+03 -0.13598126646E+03  0.25347121388E+03  0.46999998093E+01 0.  1.
       -5    1    3    3    0  502 -0.15206838408E+03 -0.15036578070E+03  0.11630217680E+04  0.11825296547E+04  0.46999998093E+01 0. -1.
</event>
<event>
 5   0  0.6022787E-03  0.9951867E+03  0.7818609E-02  0.9313840E-01
        2   -1    0    0  501    0  0.00000000000E+00  0.00000000000E+00  0.14616068479E+04  0.14616068479E+04  0.25500000920E-02 0.  1.
       -2   -1    0    0    0  501  0.00000000000E+00  0.00000000000E+00 -0.16940201635E+03  0.16940201637E+03  0.25500000920E-02 0. -1.
    10030    2    1    2    0    0  0.00000000000E+00  0.00000000000E+00  0.12922048316E+04  0.16310088643E+04  0.99518671045E+03 0.  0.
        5    1    3    3  502    0 -0.11668267539E+02  0.12702110779E+03  0.14343192683E+04  0.14399876262E+04  0.46999998093E+01 0.  1.
       -5    1    3    3    0  502  0.11668267539E+02 -0.12702110779E+03 -0.14211443669E+03  0.19102123810E+03  0.46999998093E+01 0. -1.
</event>
<event>
 5   0  0.6022787E-03  0.9905263E+03  0.7818609E-02  0.9318997E-01
       -2   -1    0    0    0  501  0.00000000000E+00  0.00000000000E+00  0.63789992632E+03  0.63789992632E+03  0.25500000920E-02 0.  1.
        2   -1    0    0  501    0  0.00000000000E+00  0.00000000000E+00 -0.38452045956E+03  0.38452045957E+03  0.25500000920E-02 0. -1.
    10030    2    1    2    0    0  0.00000000000E+00  0.00000000000E+00  0.25337946676E+03  0.10224203859E+04  0.99052626988E+03 0.  0.
        5    1    3    3  502    0  0.92571136290E+02 -0.26717836173E+03 -0.29298496801E+03  0.40720507576E+03  0.46999998093E+01 0. -1.
       -5    1    3    3    0  502 -0.92571136290E+02  0.26717836173E+03  0.54636443476E+03  0.61521531013E+03  0.46999998093E+01 0.  1.
</event>
<event>
 5   0  0.6022787E-03  0.1002340E+04  0.7818609E-02  0.9305982E-01
        2   -1    0    0  501    0  0.00000000000E+00  0.00000000000E+00  0.13627923005E+04  0.13627923005E+04  0.25500000920E-02 0. -1.
       -2   -1    0    0    0  501  0.00000000000E+00  0.00000000000E+00 -0.18430647493E+03  0.18430647495E+03  0.25500000920E-02 0.  1.
    10030    2    1    2    0    0  0.00000000000E+00  0.00000000000E+00  0.11784858256E+04  0.15470987755E+04  0.10023401518E+04 0.  0.
        5    1    3    3  502    0 -0.14891333728E+03  0.12917555513E+03  0.13003999025E+04  0.13152655634E+04  0.46999998093E+01 0. -1.
       -5    1    3    3    0  502  0.14891333728E+03 -0.12917555513E+03 -0.12191407687E+03  0.23183321203E+03  0.46999998093E+01 0.  1.
</event>
<event>
 5   0  0.3643002E-03  0.1011182E+04  0.7818609E-02  0.9296365E-01
       -1   -1    0    0    0  501  0.00000000000E+00  0.00000000000E+00  0.38513202372E+03  0.38513202376E+03  0.50400001928E-02 0.  1.
        1   -1    0    0  501    0  0.00000000000E+00  0.00000000000E+00 -0.66372610627E+03  0.66372610629E+03  0.50400001928E-02 0. -1.
    10030    2    1    2    0    0  0.00000000000E+00  0.00000000000E+00 -0.27859408254E+03  0.10488581300E+04  0.10111818403E+04 0.  0.
        2    1    3    3  502    0 -0.32166664502E+03  0.24444879090E+03 -0.45459247695E+03  0.60817675226E+03  0.25500000920E-02 0. -1.
       -2    1    3    3    0  502  0.32166664502E+03 -0.24444879090E+03  0.17599839440E+03  0.44068137778E+03  0.25500000920E-02 0.  1.
</event>
<event>
 5   0  0.6376961E-03  0.9576815E+03  0.7818609E-02  0.9356217E-01
        2   -1    0    0  501    0  0.00000000000E+00  0.00000000000E+00  0.28367660685E+03  0.28367660686E+03  0.25500000920E-02 0.  1.
       -2   -1    0    0    0  501  0.00000000000E+00  0.00000000000E+00 -0.80827415930E+03  0.80827415930E+03  0.25500000920E-02 0. -1.
    10030    2    1    2    0    0  0.00000000000E+00  0.00000000000E+00 -0.52459755245E+03  0.10919507662E+04  0.95768151474E+03 0.  0.
        3    1    3    3  502    0 -0.18389433249E+03  0.33211030841E+03 -0.59506226876E+03  0.70584240194E+03  0.10100000352E+00 0. -1.
       -3    1    3    3    0  502  0.18389433249E+03 -0.33211030841E+03  0.70464716308E+02  0.38610836422E+03  0.10100000352E+00 0.  1.
</event>
<event>
 5   0  0.6199539E-03  0.1009031E+04  0.7818609E-02  0.9298695E-01
       -2   -1    0    0    0  501  0.00000000000E+00  0.00000000000E+00  0.12903437567E+03  0.12903437570E+03  0.25500000920E-02 0. -1.
        2   -1    0    0  501    0  0.00000000000E+00  0.00000000000E+00 -0.19726196283E+04  0.19726196283E+04  0.25500000920E-02 0.  1.
    10030    2    1    2    0    0  0.00000000000E+00  0.00000000000E+00 -0.18435852526E+04  0.21016540040E+04  0.10090307076E+04 0.  0.
        2    1    3    3  502    0 -0.16686939492E+03  0.16390375271E+03  0.92782299086E+01  0.23408528504E+03  0.25500000920E-02 0. -1.
       -2    1    3    3    0  502  0.16686939492E+03 -0.16390375271E+03 -0.18528634825E+04  0.18675687190E+04  0.25500000920E-02 0.  1.
</event>
<event>
 5   0  0.6376961E-03  0.1009503E+04  0.7818609E-02  0.9298183E-01
       -2   -1    0    0    0  501  0.00000000000E+00  0.00000000000E+00  0.32142210438E+03  0.32142210439E+03  0.25500000920E-02 0.  1.
        2   -1    0    0  501    0  0.00000000000E+00  0.00000000000E+00 -0.79264706134E+03  0.79264706135E+03  0.25500000920E-02 0. -1.
    10030    2    1    2    0    0  0.00000000000E+00  0.00000000000E+00 -0.47122495697E+03  0.11140691657E+04  0.10095034155E+04 0.  0.
        3    1    3    3  502    0  0.35678612525E+03  0.30040852061E+03 -0.22668001033E+02  0.46696409594E+03  0.10100000352E+00 0.  1.
       -3    1    3    3    0  502 -0.35678612525E+03 -0.30040852061E+03 -0.44855695593E+03  0.64710506979E+03  0.10100000352E+00 0. -1.
</event>
<event>
 5   0  0.3643002E-03  0.1001546E+04  0.7818609E-02  0.9306850E-01
        1   -1    0    0  501    0  0.00000000000E+00  0.00000000000E+00  0.50284450714E+03  0.50284450717E+03  0.50400001928E-02 0. -1.
       -1   -1    0    0    0  501  0.00000000000E+00  0.00000000000E+00 -0.49871046120E+03  0.49871046122E+03  0.50400001928E-02 0.  1.
    10030    2    1    2    0    0  0.00000000000E+00  0.00000000000E+00  0.41340459449E+01  0.10015549684E+04  0.10015464365E+04 0.  0.
        2    1    3    3  502    0  0.22692950092E+03  0.34909713224E+03  0.28029234318E+03  0.50192589471E+03  0.25500000920E-02 0. -1.
       -2    1    3    3    0  502 -0.22692950092E+03 -0.34909713224E+03 -0.27615829724E+03  0.49962907368E+03  0.25500000920E-02 0.  1.
</event>
<event>
 5   0  0.6199539E-03  0.9985050E+03  0.7818609E-02  0.9310186E-01
        2   -1    0    0  501    0  0.00000000000E+00  0.00000000000E+00  0.16236175857E+04  0.16236175857E+04  0.25500000920E-02 0. -1.
       -2   -1    0    0    0  501  0.00000000000E+00  0.00000000000E+00 -0.15351710065E+03  0.15351710067E+03  0.25500000920E-02 0.  1.
    10030    2    1    2    0    0  0.00000000000E+00  0.00000000000E+00  0.14701004851E+04  0.17771346864E+04  0.99850501120E+03 0.  0.
        2    1    3    3  502    0 -0.13277401806E+03  0.12996668446E+03 -0.89693964127E+02  0.20631356269E+03  0.25500000920E-02 0.  1.
       -2    1    3    3    0  502  0.13277401806E+03 -0.12996668446E+03  0.15597944492E+04  0.15708211237E+04  0.25500000920E-02 0. -1.
</event>
<event>
 5   0  0.3569359E-03  0.1002890E+04  0.7818609E-02  0.9305381E-01
       -1   -1    0    0    0  501  0.00000000000E+00  0.00000000000E+00  0.23788025936E+03  0.23788025942E+03  0.50400001928E-02 0. -1.
        1   -1    0    0  501    0  0.00000000000E+00  0.00000000000E+00 -0.10570323905E+04  0.10570323905E+04  0.50400001928E-02 0.  1.
    10030    2    1    2    0    0  0.00000000000E+00  0.00000000000E+00 -0.81915213111E+03  0.12949126499E+04  0.10028901021E+04 0.  0.
        4    1    3    3  502    0 -0.19377289593E+03  0.25991159476E+03  0.84363627286E+02  0.33499374143E+03  0.12699999809E+01 0. -1.
       -4    1    3    3    0  502  0.19377289593E+03 -0.25991159476E+03 -0.90351575839E+03  0.95991890848E+03  0.12699999809E+01 0.  1.
</event>
<event>
 5   0  0.3569359E-03  0.1014306E+04  0.7818609E-02  0.9292992E-01
        1   -1    0    0  501    0  0.00000000000E+00  0.00000000000E+00  0.10250805623E+04  0.10250805623E+04  0.50400001928E-02 0. -1.
       -1   -1    0    0    0  501  0.00000000000E+00  0.00000000000E+00 -0.25091103146E+03  0.25091103151E+03  0.50400001928E-02 0.  1.
    10030    2    1    2    0    0  0.00000000000E+00  0.00000000000E+00  0.77416953085E+03  0.12759915938E+04  0.10143057158E+04 0.  0.
        4    1    3    3  502    0  0.40712482634E+03  0.16151306361E+03  0.70871185274E+03  0.83313336091E+03  0.12699999809E+01 0. -1.
       -4    1    3    3    0  502 -0.40712482634E+03 -0.16151306361E+03  0.65457678108E+02  0.44285823292E+03  0.12699999809E+01 0.  1.
</event>
<event>
 5   0  0.6360455E-03  0.9985528E+03  0.7818609E-02  0.9310133E-01
       -2   -1    0    0    0  501  0.00000000000E+00  0.00000000000E+00  0.25400860345E+03  0.25400860346E+03  0.25500000920E-02 0.  1.
        2   -1    0    0  501    0  0.00000000000E+00  0.00000000000E+00 -0.98137200323E+03  0.98137200324E+03  0.25500000920E-02 0. -1.
    10030    2    1    2    0    0  0.00000000000E+00  0.00000000000E+00 -0.72736339978E+03  0.12353806067E+04  0.99855281686E+03 0.  0.
        4    1    3    3  502    0  0.13033301382E+03  0.10912693456E+03 -0.94446720014E+03  0.95964331258E+03  0.12699999809E+01 0. -1.
       -4    1    3    3    0  502 -0.13033301382E+03 -0.10912693456E+03  0.21710380036E+03  0.27573729412E+03  0.12699999809E+01 0.  1.
</event>
<event>
 5   0  0.3466598E-03  0.9976030E+03  0.7818609E-02  0.9311178E-01
       -1   -1    0    0    0  501  0.00000000000E+00  0.00000000000E+00  0.15777156397E+03  0.15777156405E+03  0.50400001928E-02 0. -1.
        1   -1    0    0  501    0  0.00000000000E+00  0.00000000000E+00 -0.15769820494E+04  0.15769820494E+04  0.50400001928E-02 0.  1.
    10030    2    1    2    0    0  0.00000000000E+00  0.00000000000E+00 -0.14192104854E+04  0.17347536134E+04  0.99760297586E+03 0.  0.
        3    1    3    3  502    0  0.21109310118E+03 -0.25856107998E+03 -0.13541538967E+04  0.13946852389E+04  0.10100000352E+00 0.  1.
       -3    1    3    3    0  502 -0.21109310118E+03  0.25856107998E+03 -0.65056588744E+02  0.34006837457E+03  0.10100000352E+00 0. -1.
</event>
<event>
 5   0  0.2417750E-03  0.9955592E+03  0.7818609E-02  0.9313429E-01
        4   -1    0    0  501    0  0.00000000000E+00  0.00000000000E+00  0.64169195875E+03  0.64169321550E+03  0.12699999809E+01 0.  1.
       -4   -1    0    0    0  501  0.00000000000E+00  0.00000000000E+00 -0.38613984650E+03  0.38614193498E+03  0.12699999809E+01 0. -1.
    10030    2    1    2    0    0  0.00000000000E+00  0.00000000000E+00  0.25555211225E+03  0.10278351505E+04  0.99555924711E+03 0.  0.
        5    1    3    3  502    0  0.23268509555E+03  0.30574089111E+03  0.45448861149E+03  0.59514858158E+03  0.46999998093E+01 0.  1.
       -5    1    3    3    0  502 -0.23268509555E+03 -0.30574089111E+03 -0.19893649924E+03  0.43268656891E+03  0.46999998093E+01 0. -1.
</event>
<event>
 5   0  0.6376961E-03  0.9979658E+03  0.7818609E-02  0.9310779E-01
       -2   -1    0    0    0  501  0.00000000000E+00  0.00000000000E+00  0.40864258044E+03  0.40864258045E+03  0.25500000920E-02 0.  1.
        2   -1    0    0  501    0  0.00000000000E+00  0.00000000000E+00 -0.60929516113E+03  0.60929516114E+03  0.25500000920E-02 0. -1.
    10030    2    1    2    0    0  0.00000000000E+00  0.00000000000E+00 -0.20065258070E+03  0.10179377416E+04  0.99796582487E+03 0.  0.
        3    1    3    3  502    0 -0.44211775033E+03 -0.27651802286E+01 -0.33627394178E+03  0.55547810533E+03  0.10100000352E+00 0. -1.
       -3    1    3    3    0  502  0.44211775033E+03  0.27651802286E+01  0.13562136108E+03  0.46245963625E+03  0.10100000352E+00 0.  1.
</event>
<event>
 5   0  0.6376961E-03  0.9877550E+03  0.7818609E-02  0.9322078E-01
       -2   -1    0    0    0  501  0.00000000000E+00  0.00000000000E+00  0.19963855885E+03  0.19963855887E+03  0.25500000920E-02 0. -1.
        2   -1    0    0  501    0  0.00000000000E+00  0.00000000000E+00 -0.12217828285E+04  0.12217828285E+04  0.25500000920E-02 0.  1.
    10030    2    1    2    0    0  0.00000000000E+00  0.00000000000E+00 -0.10221442696E+04  0.14214213874E+04  0.98775495568E+03 0.  0.
        3    1    3    3  502    0  0.23755652042E+03  0.67662972701E+02  0.10436645621E+03  0.26814873793E+03  0.10100000352E+00 0. -1.
       -3    1    3    3    0  502 -0.23755652042E+03 -0.67662972701E+02 -0.11265107258E+04  0.11532726494E+04  0.10100000352E+00 0.  1.
</event>
<event>
 5   0  0.6360455E-03  0.1018109E+04  0.7818609E-02  0.9288903E-01
        2   -1    0    0  501    0  0.00000000000E+00  0.00000000000E+00  0.42979792516E+03  0.42979792516E+03  0.25500000920E-02 0.  1.
       -2   -1    0    0    0  501  0.00000000000E+00  0.00000000000E+00 -0.60292640430E+03  0.60292640431E+03  0.25500000920E-02 0. -1.
    10030    2    1    2    0    0  0.00000000000E+00  0.00000000000E+00 -0.17312847915E+03  0.10327243295E+04  0.10181090661E+04 0.  0.
        4    1    3    3  502    0 -0.34092576082E+03  0.34997691149E+03 -0.23151661219E+03  0.54066234156E+03  0.12699999809E+01 0.  1.
       -4    1    3    3    0  502  0.34092576082E+03 -0.34997691149E+03  0.58388133042E+02  0.49206198791E+03  0.12699999809E+01 0. -1.
</event>
<event>
 5   0  0.3608845E-03  0.1027120E+04  0.7818609E-02  0.9279291E-01
        1   -1    0    0  501    0  0.00000000000E+00  0.00000000000E+00  0.89534028560E+03  0.89534028561E+03  0.50400001928E-02 0.  1.
       -1   -1    0    0    0  501  0.00000000000E+00  0.00000000000E+00 -0.29457370125E+03  0.29457370129E+03  0.50400001928E-02 0. -1.
    10030    2    1    2    0    0  0.00000000000E+00  0.00000000000E+00  0.60076658435E+03  0.11899139869E+04  0.10271196655E+04 0.  0.
        1    1    3    3  502    0 -0.13046253509E+03 -0.49001803009E+03  0.20622700801E+03  0.54741914630E+03  0.50400001928E-02 0. -1.
       -1    1    3    3    0  502  0.13046253509E+03  0.49001803009E+03  0.39453957634E+03  0.64249484060E+03  0.50400001928E-02 0.  1.
</event>
<event>
 5   0  0.6360455E-03  0.9986033E+03  0.7818609E-02  0.9310078E-01
        2   -1    0    0  501    0  0.00000000000E+00  0.00000000000E+00  0.11020787168E+04  0.11020787168E+04  0.25500000920E-02 0.  1.
       -2   -1    0    0    0  501  0.00000000000E+00  0.00000000000E+00 -0.22621082477E+03  0.22621082478E+03  0.25500000920E-02 0. -1.
    10030    2    1    2    0    0  0.00000000000E+00  0.00000000000E+00  0.87586789203E+03  0.13282895416E+04  0.99860329561E+03 0.  0.
        4    1    3    3  502    0  0.61998007086E+02 -0.39921079025E+03  0.82820814694E+03  0.92148974790E+03  0.12699999809E+01 0.  1.
       -4    1    3    3    0  502 -0.61998007086E+02  0.39921079025E+03  0.47659745093E+02  0.40679979368E+03  0.12699999809E+01 0. -1.
</event>
<event>
 5   0  0.3466598E-03  0.9969378E+03  0.7818609E-02  0.9311910E-01
        1   -1    0    0  501    0  0.00000000000E+00  0.00000000000E+00  0.56825817829E+03  0.56825817831E+03  0.50400001928E-02 0. -1.
       -1   -1    0    0    0  501  0.00000000000E+00  0.00000000000E+00 -0.43725064837E+03  0.43725064840E+03  0.50400001928E-02 0.  1.
    10030    2    1    2    0    0  0.00000000000E+00  0.00000000000E+00  0.13100752992E+03  0.10055088267E+04  0.99693782539E+03 0.  0.
        3    1    3    3  502    0 -0.24988458627E+03 -0.18764662590E+03  0.45719508443E+03  0.55378779157E+03  0.10100000352E+00 0. -1.
       -3    1    3    3    0  502  0.24988458627E+03  0.18764662590E+03 -0.32618755451E+03  0.45172103514E+03  0.10100000352E+00 0.  1.
</event>
<event>
 5   0  0.6376961E-03  0.1012171E+04  0.7818609E-02  0.9295296E-01
       -2   -1    0    0    0  501  0.00000000000E+00  0.00000000000E+00  0.19430898989E+03  0.19430898991E+03  0.25500000920E-02 0. -1.
        2   -1    0    0  501    0  0.00000000000E+00  0.00000000000E+00 -0.13181187235E+04  0.13181187235E+04  0.25500000920E-02 0.  1.
    10030    2    1    2    0    0  0.00000000000E+00  0.00000000000E+00 -0.11238097336E+04  0.15124277134E+04  0.10121705740E+04 0.  0.
        3    1    3    3  502    0 -0.20171101149E+03  0.24910024998E+03  0.23304147034E+02  0.32137417471E+03  0.10100000352E+00 0. -1.
       -3    1    3    3    0  502  0.20171101149E+03 -0.24910024998E+03 -0.11471138806E+04  0.11910535387E+04  0.10100000352E+00 0.  1.
</event>
<event>
 5   0  0.6022787E-03  0.1013941E+04  0.7818609E-02  0.9293386E-01
       -2   -1    0    0    0  501  0.00000000000E+00  0.00000000000E+00  0.43347011667E+03  0.43347011668E+03  0.25500000920E-02 0.  1.
        2   -1    0    0  501    0  0.00000000000E+00  0.00000000000E+00 -0.59293338177E+03  0.59293338178E+03  0.25500000920E-02 0. -1.
    10030    2    1    2    0    0  0.00000000000E+00  0.00000000000E+00 -0.15946326510E+03  0.10264034985E+04  0.10139406337E+04 0.  0.
        5    1    3    3  502    0  0.35220955356E+03  0.33919434518E+03  0.55675133425E+02  0.49216479344E+03  0.46999998093E+01 0.  1.
       -5    1    3    3    0  502 -0.35220955356E+03 -0.33919434518E+03 -0.21513839852E+03  0.53423870502E+03  0.46999998093E+01 0. -1.
</event>
<event>
 5   0  0.3569359E-03  0.1001142E+04  0.7818609E-02  0.9307293E-01
        1   -1    0    0  501    0  0.00000000000E+00  0.00000000000E+00  0.12296442396E+04  0.12296442396E+04  0.50400001928E-02 0.  1.
       -1   -1    0    0    0  501  0.00000000000E+00  0.00000000000E+00 -0.20377552759E+03  0.20377552765E+03  0.50400001928E-02 0. -1.
    10030    2    1    2    0    0  0.00000000000E+00  0.00000000000E+00  0.10258687120E+04  0.14334197673E+04  0.10011421552E+04 0.  0.
        4    1    3    3  502    0  0.28512743545E+03 -0.40625434829E+03  0.60605034364E+03  0.78335105915E+03  0.12699999809E+01 0.  1.
       -4    1    3    3    0  502 -0.28512743545E+03  0.40625434829E+03  0.41981836840E+03  0.65006870813E+03  0.12699999809E+01 0. -1.
</event>
<event>
 5   0  0.3608845E-03  0.9968138E+03  0.7818609E-02  0.9312046E-01
       -1   -1    0    0    0  501  0.00000000000E+00  0.00000000000E+00  0.93901575599E+03  0.93901575600E+03  0.50400001928E-02 0.  1.
        1   -1    0    0  501    0  0.00000000000E+00  0.00000000000E+00 -0.26454235068E+03  0.26454235072E+03  0.50400001928E-02 0. -1.
    10030    2    1    2    0    0  0.00000000000E+00  0.00000000000E+00  0.67447340531E+03  0.12035581067E+04  0.99681379494E+03 0.  0.
        1    1    3    3  502    0 -0.25854363501E+03 -0.31773346199E+02  0.85028455897E+03  0.88929083431E+03  0.50400001928E-02 0.  1.
       -1    1    3    3    0  502  0.25854363501E+03  0.31773346199E+02 -0.17581115366E+03  0.31426727241E+03  0.50400001928E-02 0. -1.
</event>
<event>
 5   0  0.6606947E-03  0.1006157E+04  0.7818609E-02  0.9301818E-01
        2   -1    0    0  501    0  0.00000000000E+00  0.00000000000E+00  0.91568364580E+03  0.91568364581E+03  0.25500000920E-02 0. -1.
       -2   -1    0    0    0  501  0.00000000000E+00  0.00000000000E+00 -0.27639239405E+03  0.27639239406E+03  0.25500000920E-02 0.  1.
    10030    2    1    2    0    0  0.00000000000E+00  0.00000000000E+00  0.63929125175E+03  0.11920760399E+04  0.10061570356E+04 0.  0.
        1    1    3    3  502    0  0.37480777843E+03  0.28124176233E+03  0.10276204721E+03  0.47972683688E+03  0.50400001928E-02 0.  1.
       -1    1    3    3    0  502 -0.37480777843E+03 -0.28124176233E+03  0.53652920454E+03  0.71234920299E+03  0.50400001928E-02 0. -1.
</event>
<event>
 5   0  0.3569359E-03  0.1003210E+04  0.7818609E-02  0.9305031E-01
        1   -1    0    0  501    0  0.00000000000E+00  0.00000000000E+00  0.30191961547E+03  0.30191961551E+03  0.50400001928E-02 0. -1.
       -1   -1    0    0    0  501  0.00000000000E+00  0.00000000000E+00 -0.83335980314E+03  0.83335980316E+03  0.50400001928E-02 0.  1.
    10030    2    1    2    0    0  0.00000000000E+00  0.00000000000E+00 -0.53144018767E+03  0.11352794187E+04  0.10032101900E+04 0.  0.
        4    1    3    3  502    0  0.43958770751E+03  0.21162311397E+03 -0.13382444259E+03  0.50589750869E+03  0.12699999809E+01 0. -1.
       -4    1    3    3    0  502 -0.43958770751E+03 -0.21162311397E+03 -0.39761574509E+03  0.62938190998E+03  0.12699999809E+01 0.  1.
</event>
<event>
 5   0  0.6022787E-03  0.1001168E+04  0.7818609E-02  0.9307265E-01
       -2   -1    0    0    0  501  0.00000000000E+00  0.00000000000E+00  0.29484383567E+03  0.29484383568E+03  0.25500000920E-02 0.  1.
        2   -1    0    0  501    0  0.00000000000E+00  0.00000000000E+00 -0.84988775243E+03  0.84988775243E+03  0.25500000920E-02 0. -1.
    10030    2    1    2    0    0  0.00000000000E+00  0.00000000000E+00 -0.55504391676E+03  0.11447315881E+04  0.10011676480E+04 0.  0.
        5    1    3    3  502    0  0.17109123508E+03 -0.29389935485E+03 -0.69749732053E+03  0.77599848173E+03  0.46999998093E+01 0. -1.
       -5    1    3    3    0  502 -0.17109123508E+03  0.29389935485E+03  0.14245340377E+03  0.36873310639E+03  0.46999998093E+01 0.  1.
</event>
<event>
 5   0  0.3643002E-03  0.9861130E+03  0.7818609E-02  0.9323908E-01
        1   -1    0    0  501    0  0.00000000000E+00  0.00000000000E+00  0.14343541532E+04  0.14343541532E+04  0.50400001928E-02 0.  1.
       -1   -1    0    0    0  501  0.00000000000E+00  0.00000000000E+00 -0.16948721348E+03  0.16948721356E+03  0.50400001928E-02 0. -1.
    10030    2    1    2    0    0  0.00000000000E+00  0.00000000000E+00  0.12648669397E+04  0.16038413668E+04  0.98611295224E+03 0.  0.
        2    1    3    3  502    0  0.17196044583E+02 -0.70897996199E+02  0.14255274518E+04  0.14273929892E+04  0.25500000920E-02 0.  1.
       -2    1    3    3    0  502 -0.17196044583E+02  0.70897996199E+02 -0.16066051205E+03  0.17644837759E+03  0.25500000920E-02 0. -1.
</event>
<event>
 5   0  0.3640180E-03  0.9878862E+03  0.7818609E-02  0.9321932E-01
       -1   -1    0    0    0  501  0.00000000000E+00  0.00000000000E+00  0.18667231663E+03  0.18667231670E+03  0.50400001928E-02 0. -1.
        1   -1    0    0  501    0  0.00000000000E+00  0.00000000000E+00 -0.13069950704E+04  0.13069950704E+04  0.50400001928E-02 0.  1.
    10030    2    1    2    0    0  0.00000000000E+00  0.00000000000E+00 -0.11203227538E+04  0.14936673871E+04  0.98788622357E+03 0.  0.
        5    1    3    3  502    0 -0.39814693791E+02  0.41871481563E+03 -0.16864704970E+03  0.45317901986E+03  0.46999998093E+01 0. -1.
       -5    1    3    3    0  502  0.39814693791E+02 -0.41871481563E+03 -0.95167570408E+03  0.10404883673E+04  0.46999998093E+01 0.  1.
</event>
<event>
 5   0  0.3608845E-03  0.1003437E+04  0.7818609E-02  0.9304783E-01
        1   -1    0    0  501    0  0.00000000000E+00  0.00000000000E+00  0.87547979777E+03  0.87547979778E+03  0.50400001928E-02 0. -1.
       -1   -1    0    0    0  501  0.00000000000E+00  0.00000000000E+00 -0.28752410802E+03  0.28752410806E+03  0.50400001928E-02 0.  1.
    10030    2    1    2    0    0  0.00000000000E+00  0.00000000000E+00  0.58795568975E+03  0.11630039058E+04  0.10034371888E+04 0.  0.
        1    1    3    3  502    0 -0.16713880623E+03  0.31380090277E+03 -0.11631390909E+03  0.37407928651E+03  0.50400001928E-02 0.  1.
       -1    1    3    3    0  502  0.16713880623E+03 -0.31380090277E+03  0.70426959883E+03  0.78892461933E+03  0.50400001928E-02 0. -1.
</event>
<event>
 5   0  0.6022787E-03  0.8086288E+03  0.7818609E-02  0.9547611E-01
       -2   -1    0    0    0  501  0.00000000000E+00  0.00000000000E+00  0.17720292282E+03  0.17720292284E+03  0.25500000920E-02 0.  1.
        2   -1    0    0  501    0  0.00000000000E+00  0.00000000000E+00 -0.92250240384E+03  0.92250240384E+03  0.25500000920E-02 0. -1.
    10030    2    1    2    0    0  0.00000000000E+00  0.00000000000E+00 -0.74529948102E+03  0.10997053267E+04  0.80862877089E+03 0.  0.
        5    1    3    3  502    0 -0.22001560321E+03  0.19600827700E+03 -0.74909658410E+03  0.80498067841E+03  0.46999998093E+01 0. -1.
       -5    1    3    3    0  502  0.22001560321E+03 -0.19600827700E+03  0.37971030765E+01  0.29472464827E+03  0.46999998093E+01 0.  1.
</event>
<event>
 5   0  0.3643002E-03  0.9893302E+03  0.7818609E-02  0.9320325E-01
        1   -1    0    0  501    0  0.00000000000E+00  0.00000000000E+00  0.82978814432E+03  0.82978814434E+03  0.50400001928E-02 0.  1.
       -1   -1    0    0    0  501  0.00000000000E+00  0.00000000000E+00 -0.29488679979E+03  0.29488679983E+03  0.50400001928E-02 0. -1.
    10030    2    1    2    0    0  0.00000000000E+00  0.00000000000E+00  0.53490134454E+03  0.11246749442E+04  0.98933021871E+03 0.  0.
        2    1    3    3  502    0 -0.60138319037E+02  0.46677238528E+03  0.44060540052E+03  0.64469077553E+03  0.25500000920E-02 0.  1.
       -2    1    3    3    0  502  0.60138319037E+02 -0.46677238528E+03  0.94295944018E+02  0.47998416864E+03  0.25500000920E-02 0. -1.
</event>
<event>
 5   0  0.3466598E-03  0.9842055E+03  0.7818609E-02  0.9326040E-01
       -1   -1    0    0    0  501  0.00000000000E+00  0.00000000000E+00  0.53269750584E+03  0.53269750587E+03  0.50400001928E-02 0. -1.
        1   -1    0    0  501    0  0.00000000000E+00  0.00000000000E+00 -0.45460155627E+03  0.45460155629E+03  0.50400001928E-02 0.  1.
    10030    2    1    2    0    0  0.00000000000E+00  0.00000000000E+00  0.78095949576E+02  0.98729906216E+03  0.98420549724E+03 0.  0.
        3    1    3    3  502    0  0.86004967188E+02 -0.24086427369E+03  0.46078905660E+03  0.52700950429E+03  0.10100000352E+00 0. -1.
       -3    1    3    3    0  502 -0.86004967188E+02  0.24086427369E+03 -0.38269310703E+03  0.46028955787E+03  0.10100000352E+00 0.  1.
</event>
<event>
 5   0  0.6022787E-03  0.1001122E+04  0.7818609E-02  0.9307315E-01
        2   -1    0    0  501    0  0.00000000000E+00  0.00000000000E+00  0.12074508008E+04  0.12074508008E+04  0.25500000920E-02 0. -1.
       -2   -1    0    0    0  501  0.00000000000E+00  0.00000000000E+00 -0.20751273397E+03  0.20751273398E+03  0.25500000920E-02 0.  1.
    10030    2    1    2    0    0  0.00000000000E+00  0.00000000000E+00  0.99993806678E+03  0.14149635347E+04  0.10011222040E+04 0.  0.
        5    1    3    3  502    0 -0.41002211711E+03  0.19306543107E+01  0.90572767183E+03  0.99422661876E+03  0.46999998093E+01 0.  1.
       -5    1    3    3    0  502  0.41002211711E+03 -0.19306543107E+01  0.94210394958E+02  0.42073691598E+03  0.46999998093E+01 0. -1.
</event>
<event>
 5   0  0.6022787E-03  0.1000730E+04  0.7818609E-02  0.9307745E-01
       -2   -1    0    0    0  501  0.00000000000E+00  0.00000000000E+00  0.26688315894E+03  0.26688315896E+03  0.25500000920E-02 0.  1.
        2   -1    0    0  501    0  0.00000000000E+00  0.00000000000E+00 -0.93810675475E+03  0.93810675475E+03  0.25500000920E-02 0. -1.
    10030    2    1    2    0    0  0.00000000000E+00  0.00000000000E+00 -0.67122359581E+03  0.12049899137E+04  0.10007295222E+04 0.  0.
        5    1    3    3  502    0  0.48226826330E+03 -0.12381134037E+03 -0.39497923664E+03  0.63556479856E+03  0.46999998093E+01 0. -1.
       -5    1    3    3    0  502 -0.48226826330E+03  0.12381134037E+03 -0.27624435916E+03  0.56942511515E+03  0.46999998093E+01 0.  1.
</event>
<event>
 5   0  0.6606947E-03  0.9954659E+03  0.7818609E-02  0.9313532E-01
       -2   -1    0    0    0  501  0.00000000000E+00  0.00000000000E+00  0.10701034766E+04  0.10701034767E+04  0.25500000920E-02 0. -1.
        2   -1    0    0  501    0  0.00000000000E+00  0.00000000000E+00 -0.23150854370E+03  0.23150854372E+03  0.25500000920E-02 0.  1.
    10030    2    1    2    0    0  0.00000000000E+00  0.00000000000E+00  0.83859493295E+03  0.13016120204E+04  0.99546591604E+03 0.  0.
        1    1    3    3  502    0  0.27448965350E+02  0.17306923839E+03 -0.18984199152E+03  0.25835322476E+03  0.50400001928E-02 0.  1.
       -1    1    3    3    0  502 -0.27448965350E+02 -0.17306923839E+03  0.10284369245E+04  0.10432587956E+04  0.50400001928E-02 0. -1.
</event>
<event>
 5   0  0.3569359E-03  0.9934974E+03  0.7818609E-02  0.9315706E-01
        1   -1    0    0  501    0  0.00000000000E+00  0.00000000000E+00  0.29573892008E+03  0.29573892013E+03  0.50400001928E-02 0. -1.
       -1   -1    0    0    0  501  0.00000000000E+00  0.00000000000E+00 -0.83438215614E+03  0.83438215616E+03  0.50400001928E-02 0.  1.
    10030    2    1    2    0    0  0.00000000000E+00  0.00000000000E+00 -0.53864323606E+03  0.11301210763E+04  0.99349741384E+03 0.  0.
        4    1    3    3  502    0  0.22458570813E+03  0.30515296944E+03 -0.63474751638E+03  0.73923142351E+03  0.12699999809E+01 0.  1.
       -4    1    3    3    0  502 -0.22458570813E+03 -0.30515296944E+03  0.96104280320E+02  0.39088965278E+03  0.12699999809E+01 0. -1.
</event>
<event>
 5   0  0.3466598E-03  0.9944076E+03  0.7818609E-02  0.9314700E-01
       -1   -1    0    0    0  501  0.00000000000E+00  0.00000000000E+00  0.25744753115E+03  0.25744753120E+03  0.50400001928E-02 0.  1.
        1   -1    0    0  501    0  0.00000000000E+00  0.00000000000E+00 -0.96024078966E+03  0.96024078967E+03  0.50400001928E-02 0. -1.
    10030    2    1    2    0    0  0.00000000000E+00  0.00000000000E+00 -0.70279325851E+03  0.12176883209E+04  0.99440760383E+03 0.  0.
        3    1    3    3  502    0 -0.20475922802E+03 -0.65244287017E+02  0.19763892382E+03  0.29196628719E+03  0.10100000352E+00 0.  1.
       -3    1    3    3    0  502  0.20475922802E+03  0.65244287017E+02 -0.90043218233E+03  0.92572203367E+03  0.10100000352E+00 0. -1.
</event>
<event>
 5   0  0.3608845E-03  0.9794021E+03  0.7818609E-02  0.9331429E-01
        1   -1    0    0  501    0  0.00000000000E+00  0.00000000000E+00  0.13165962041E+04  0.13165962041E+04  0.50400001928E-02 0. -1.
       -1   -1    0    0    0  501  0.00000000000E+00  0.00000000000E+00 -0.18214173933E+03  0.18214173940E+03  0.50400001928E-02 0.  1.
    10030    2    1    2    0    0  0.00000000000E+00  0.00000000000E+00  0.11344544647E+04  0.14987379435E+04  0.97940210877E+03 0.  0.
        1    1    3    3  502    0  0.81793820854E+02 -0.18647425946E+03  0.12487407409E+04  0.12652337004E+04  0.50400001928E-02 0. -1.
       -1    1    3    3    0  502 -0.81793820854E+02  0.18647425946E+03 -0.11428627621E+03  0.23350424305E+03  0.50400001928E-02 0.  1.
</event>
<event>
 5   0  0.6199539E-03  0.9899194E+03  0.7818609E-02  0.9319671E-01
       -2   -1    0    0    0  501  0.00000000000E+00  0.00000000000E+00  0.35361821151E+03  0.35361821152E+03  0.25500000920E-02 0. -1.
        2   -1    0    0  501    0  0.00000000000E+00  0.00000000000E+00 -0.69279548864E+03  0.69279548864E+03  0.25500000920E-02 0.  1.
    10030    2    1    2    0    0  0.00000000000E+00  0.00000000000E+00 -0.33917727713E+03  0.10464137002E+04  0.98991939398E+03 0.  0.
        2    1    3    3  502    0  0.18765812406E+03 -0.37476909595E+03 -0.44789652604E+03  0.61341563793E+03  0.25500000920E-02 0. -1.
       -2    1    3    3    0  502 -0.18765812406E+03  0.37476909595E+03  0.10871924892E+03  0.43299806223E+03  0.25500000920E-02 0.  1.
</event>
<event>
 5   0  0.3608845E-03  0.9997757E+03  0.7818609E-02  0.9308791E-01
        1   -1    0    0  501    0  0.00000000000E+00  0.00000000000E+00  0.56819130120E+03  0.56819130123E+03  0.50400001928E-02 0. -1.
       -1   -1    0    0    0  501  0.00000000000E+00  0.00000000000E+00 -0.43979530227E+03  0.43979530230E+03  0.50400001928E-02 0.  1.
    10030    2    1    2    0    0  0.00000000000E+00  0.00000000000E+00  0.12839599893E+03  0.10079866035E+04  0.99977570502E+03 0.  0.
        1    1    3    3  502    0 -0.38250957564E+03 -0.10020356859E+03 -0.24414625054E+03  0.46471681946E+03  0.50400001928E-02 0.  1.
       -1    1    3    3    0  502  0.38250957564E+03  0.10020356859E+03  0.37254224947E+03  0.54326978407E+03  0.50400001928E-02 0. -1.
</event>
<event>
 5   0  0.2417750E-03  0.9870297E+03  0.7818609E-02  0.9322886E-01
        4   -1    0    0  501    0  0.00000000000E+00  0.00000000000E+00  0.11413496975E+04  0.11413504041E+04  0.12699999809E+01 0. -1.
       -4   -1    0    0    0  501  0.00000000000E+00  0.00000000000E+00 -0.21339110405E+03  0.21339488323E+03  0.12699999809E+01 0.  1.
    10030    2    1    2    0    0  0.00000000000E+00  0.00000000000E+00  0.92795859345E+03  0.13547452873E+04  0.98702970691E+03 0.  0.
        3    1    3    3  502    0 -0.37213197107E+03 -0.10459253283E+03  0.88509672539E+03  0.96582504902E+03  0.10100000352E+00 0. -1.
       -3    1    3    3    0  502  0.37213197107E+03  0.10459253283E+03  0.42861868055E+02  0.38892023829E+03  0.10100000352E+00 0.  1.
</event>
<event>
 5   0  0.3569359E-03  0.9876166E+03  0.7818609E-02  0.9322232E-01
       -1   -1    0    0    0  501  0.00000000000E+00  0.00000000000E+00  0.22664761284E+03  0.22664761289E+03  0.50400001928E-02 0. -1.
        1   -1    0    0  501    0  0.00000000000E+00  0.00000000000E+00 -0.10758844910E+04  0.10758844910E+04  0.50400001928E-02 0.  1.
    10030    2    1    2    0    0  0.00000000000E+00  0.00000000000E+00 -0.84923687814E+03  0.13025321039E+04  0.98761662929E+03 0.  0.
        4    1    3    3  502    0  0.21395398417E+03 -0.40814141081E+03 -0.65865390976E+03  0.80385465372E+03  0.12699999809E+01 0.  1.
       -4    1    3    3    0  502 -0.21395398417E+03  0.40814141081E+03 -0.19058296838E+03  0.49867745016E+03  0.12699999809E+01 0. -1.
</event>
<event>
 5   0  0.6376961E-03  0.1001055E+04  0.7818609E-02  0.9307388E-01
       -2   -1    0    0    0  501  0.00000000000E+00  0.00000000000E+00  0.11340031025E+03  0.11340031027E+03  0.25500000920E-02 0. -1.
        2   -1    0    0  501    0  0.00000000000E+00  0.00000000000E+00 -0.22092357481E+04  0.22092357481E+04  0.25500000920E-02 0.  1.
    10030    2    1    2    0    0  0.00000000000E+00  0.00000000000E+00 -0.20958354378E+04  0.23226360583E+04  0.10010554815E+04 0.  0.
        3    1    3    3  502    0  0.45440684930E+03 -0.84576533595E+02 -0.14935460942E+04  0.15634317128E+04  0.10100000352E+00 0.  1.
       -3    1    3    3    0  502 -0.45440684930E+03  0.84576533595E+02 -0.60228934362E+03  0.75920434559E+03  0.10100000352E+00 0. -1.
</event>
<event>
 5   0  0.6376961E-03  0.1064618E+04  0.7818609E-02  0.9240381E-01
        2   -1    0    0  501    0  0.00000000000E+00  0.00000000000E+00  0.52978342500E+03  0.52978342501E+03  0.25500000920E-02 0.  1.
       -2   -1    0    0    0  501  0.00000000000E+00  0.00000000000E+00 -0.53484647901E+03  0.53484647902E+03  0.25500000920E-02 0. -1.
    10030    2    1    2    0    0  0.00000000000E+00  0.00000000000E+00 -0.50630540092E+01  0.10646299040E+04  0.10646178648E+04 0.  0.
        3    1    3    3  502    0 -0.41228462997E+03 -0.17158408935E+03 -0.29224685592E+03  0.53369274945E+03  0.10100000352E+00 0. -1.
       -3    1    3    3    0  502  0.41228462997E+03  0.17158408935E+03  0.28718380191E+03  0.53093715457E+03  0.10100000352E+00 0.  1.
</event>
<event>
 5   0  0.3643002E-03  0.1000785E+04  0.7818609E-02  0.9307685E-01
       -1   -1    0    0    0  501  0.00000000000E+00  0.00000000000E+00  0.32034348824E+03  0.32034348828E+03  0.50400001928E-02 0.  1.
        1   -1    0    0  501    0  0.00000000000E+00  0.00000000000E+00 -0.78163762925E+03  0.78163762927E+03  0.50400001928E-02 0. -1.
    10030    2    1    2    0    0  0.00000000000E+00  0.00000000000E+00 -0.46129414101E+03  0.11019811176E+04  0.10007847415E+04 0.  0.
        2    1    3    3  502    0 -0.17169029671E+03  0.32934572201E+03 -0.59988489417E+03  0.70555513523E+03  0.25500000920E-02 0. -1.
       -2    1    3    3    0  502  0.17169029671E+03 -0.32934572201E+03  0.13859075317E+03  0.39642598232E+03  0.25500000920E-02 0.  1.
</event>
<event>
 5   0  0.2417750E-03  0.9978306E+03  0.7818609E-02  0.9310927E-01
       -3   -1    0    0    0  501  0.00000000000E+00  0.00000000000E+00  0.26404758007E+03  0.26404759939E+03  0.10100000352E+00 0.  1.
        3   -1    0    0  501    0  0.00000000000E+00  0.00000000000E+00 -0.94269550909E+03  0.94269551450E+03  0.10100000352E+00 0. -1.
    10030    2    1    2    0    0  0.00000000000E+00  0.00000000000E+00 -0.67864792902E+03  0.12067431139E+04  0.99783061256E+03 0.  0.
        4    1    3    3  502    0 -0.15007454365E+03  0.56660286743E+02  0.23200691600E+03  0.28206662106E+03  0.12699999809E+01 0.  1.
       -4    1    3    3    0  502  0.15007454365E+03 -0.56660286743E+02 -0.91065484502E+03  0.92467649283E+03  0.12699999809E+01 0. -1.
</event>
<event>
 5   0  0.3640180E-03  0.1003998E+04  0.7818609E-02  0.9304171E-01
        1   -1    0    0  501    0  0.00000000000E+00  0.00000000000E+00  0.26805790185E+03  0.26805790189E+03  0.50400001928E-02 0. -1.
       -1   -1    0    0    0  501  0.00000000000E+00  0.00000000000E+00 -0.94010653060E+03  0.94010653061E+03  0.50400001928E-02 0.  1.
    10030    2    1    2    0    0  0.00000000000E+00  0.00000000000E+00 -0.67204862875E+03  0.12081644325E+04  0.10039979764E+04 0.  0.
        5    1    3    3  502    0 -0.31698392193E+03  0.36514690764E+03 -0.49823092878E+03  0.69431060723E+03  0.46999998093E+01 0.  1.
       -5    1    3    3    0  502  0.31698392193E+03 -0.36514690764E+03 -0.17381769997E+03  0.51385382527E+03  0.46999998093E+01 0. -1.
</event>
<event>
 5   0  0.6022787E-03  0.1008485E+04  0.7818609E-02  0.9299287E-01
        2   -1    0    0  501    0  0.00000000000E+00  0.00000000000E+00  0.32264679506E+03  0.32264679507E+03  0.25500000920E-02 0.  1.
       -2   -1    0    0    0  501  0.00000000000E+00  0.00000000000E+00 -0.78804611018E+03  0.78804611018E+03  0.25500000920E-02 0. -1.
    10030    2    1    2    0    0  0.00000000000E+00  0.00000000000E+00 -0.46539931512E+03  0.11106929052E+04  0.10084851051E+04 0.  0.
        5    1    3    3  502    0  0.37007599881E+03  0.63203627242E+02 -0.60339364444E+03  0.71067357032E+03  0.46999998093E+01 0. -1.
       -5    1    3    3    0  502 -0.37007599881E+03 -0.63203627242E+02  0.13799432933E+03  0.40001933493E+03  0.46999998093E+01 0.  1.
</event>
<event>
 5   0  0.6606947E-03  0.9964070E+03  0.7818609E-02  0.9312494E-01
       -2   -1    0    0    0  501  0.00000000000E+00  0.00000000000E+00  0.46567180198E+03  0.46567180199E+03  0.25500000920E-02 0. -1.
        2   -1    0    0  501    0  0.00000000000E+00  0.00000000000E+00 -0.53300783638E+03  0.53300783638E+03  0.25500000920E-02 0.  1.
    10030    2    1    2    0    0  0.00000000000E+00  0.00000000000E+00 -0.67336034393E+02  0.99867963837E+03  0.99640698440E+03 0.  0.
        1    1    3    3  502    0 -0.22930532815E+03 -0.36453797146E+03  0.21737853424E+03  0.48241299043E+03  0.50400001928E-02 0. -1.
       -1    1    3    3    0  502  0.22930532815E+03  0.36453797146E+03 -0.28471456864E+03  0.51626664794E+03  0.50400001928E-02 0.  1.
</event>
<event>
 5   0  0.3640180E-03  0.1009606E+04  0.7818609E-02  0.9298071E-01
       -1   -1    0    0    0  501  0.00000000000E+00  0.00000000000E+00  0.27796240963E+03  0.27796240968E+03  0.50400001928E-02 0.  1.
        1   -1    0    0  501    0  0.00000000000E+00  0.00000000000E+00 -0.91676497923E+03  0.91676497924E+03  0.50400001928E-02 0. -1.
    10030    2    1    2    0    0  0.00000000000E+00  0.00000000000E+00 -0.63880256960E+03  0.11947273889E+04  0.10096062653E+04 0.  0.
        5    1    3    3  502    0 -0.60448149439E+02 -0.49306861176E+03 -0.42546542815E+03  0.65407457926E+03  0.46999998093E+01 0.  1.
       -5    1    3    3    0  502  0.60448149439E+02  0.49306861176E+03 -0.21333714144E+03  0.54065280966E+03  0.46999998093E+01 0. -1.
</event>
<event>
 5   0  0.3569359E-03  0.9996635E+03  0.7818609E-02  0.9308914E-01
        1   -1    0    0  501    0  0.00000000000E+00  0.00000000000E+00  0.17991692861E+04  0.17991692861E+04  0.50400001928E-02 0. -1.
       -1   -1    0    0    0  501  0.00000000000E+00  0.00000000000E+00 -0.13885952813E+03  0.13885952822E+03  0.50400001928E-02 0.  1.
    10030    2    1    2    0    0  0.00000000000E+00  0.00000000000E+00  0.16603097579E+04  0.19380288143E+04  0.99966353977E+03 0.  0.
        4    1    3    3  502    0 -0.85408064854E+02  0.36805378408E+03  0.14645275364E+04  0.15124816175E+04  0.12699999809E+01 0. -1.
       -4    1    3    3    0  502  0.85408064854E+02 -0.36805378408E+03  0.19578222152E+03  0.42554719677E+03  0.12699999809E+01 0.  1.
</event>
<event>
 5   0  0.6360455E-03  0.9949923E+03  0.7818609E-02  0.9314054E-01
        2   -1    0    0  501    0  0.00000000000E+00  0.00000000000E+00  0.14482099150E+04  0.14482099150E+04  0.25500000920E-02 0.  1.
       -2   -1    0    0    0  501  0.00000000000E+00  0.00000000000E+00 -0.17090231460E+03  0.17090231462E+03  0.25500000920E-02 0. -1.
    10030    2    1    2    0    0  0.00000000000E+00  0.00000000000E+00  0.12773076004E+04  0.16191122296E+04  0.99499231458E+03 0.  0.
        4    1    3    3  502    0 -0.37464390258E+03  0.10495871691E+03  0.11431740804E+04  0.12075690362E+04  0.12699999809E+01 0.  1.
       -4    1    3    3    0  502  0.37464390258E+03 -0.10495871691E+03  0.13413351992E+03  0.41154319343E+03  0.12699999809E+01 0. -1.
</event>
<event>
 5   0  0.6376961E-03  0.9991973E+03  0.7818609E-02  0.9309426E-01
        2   -1    0    0  501    0  0.00000000000E+00  0.00000000000E+00  0.83029567528E+03  0.83029567529E+03  0.25500000920E-02 0.  1.
       -2   -1    0    0    0  501  0.00000000000E+00  0.00000000000E+00 -0.30061434062E+03  0.30061434063E+03  0.25500000920E-02 0. -1.
    10030    2    1    2    0    0  0.00000000000E+00  0.00000000000E+00  0.52968133466E+03  0.11309100159E+04  0.99919725171E+03 0.  0.
        3    1    3    3  502    0  0.12138468135E+03  0.13404675271E+03 -0.26227095846E+03  0.31857312918E+03  0.10100000352E+00 0. -1.
       -3    1    3    3    0  502 -0.12138468135E+03 -0.13404675271E+03  0.79195229312E+03  0.81233688674E+03  0.10100000352E+00 0.  1.
</event>
<event>
 5   0  0.6022787E-03  0.1003266E+04  0.7818609E-02  0.9304970E-01
       -2   -1    0    0    0  501  0.00000000000E+00  0.00000000000E+00  0.18202968931E+03  0.18202968932E+03  0.25500000920E-02 0. -1.
        2   -1    0    0  501    0  0.00000000000E+00  0.00000000000E+00 -0.13823870424E+04  0.13823870424E+04  0.25500000920E-02 0.  1.
    10030    2    1    2    0    0  0.00000000000E+00  0.00000000000E+00 -0.12003573531E+04  0.15644167317E+04  0.10032656355E+04 0.  0.
        5    1    3    3  502    0  0.46495551498E+02  0.10289491895E+02  0.17846263688E+03  0.18476664394E+03  0.46999998093E+01 0. -1.
       -5    1    3    3    0  502 -0.46495551498E+02 -0.10289491895E+02 -0.13788199900E+04  0.13796500878E+04  0.46999998093E+01 0.  1.
</event>
<event>
 5   0  0.6022787E-03  0.9930648E+03  0.7818609E-02  0.9316184E-01
       -2   -1    0    0    0  501  0.00000000000E+00  0.00000000000E+00  0.79786796962E+03  0.79786796962E+03  0.25500000920E-02 0. -1.
        2   -1    0    0  501    0  0.00000000000E+00  0.00000000000E+00 -0.30900406603E+03  0.30900406604E+03  0.25500000920E-02 0.  1.
    10030    2    1    2    0    0  0.00000000000E+00  0.00000000000E+00  0.48886390359E+03  0.11068720357E+04  0.99306484537E+03 0.  0.
        5    1    3    3  502    0  0.36686137447E+03 -0.14108171169E+03  0.58256449476E+03  0.70277649221E+03  0.46999998093E+01 0. -1.
       -5    1    3    3    0  502 -0.36686137447E+03  0.14108171169E+03 -0.93700591176E+02  0.40409554345E+03  0.46999998093E+01 0.  1.
</event>
<event>
 5   0  0.6022787E-03  0.9952225E+03  0.7818609E-02  0.9313800E-01
       -2   -1    0    0    0  501  0.00000000000E+00  0.00000000000E+00  0.12338101479E+03  0.12338101481E+03  0.25500000920E-02 0. -1.
        2   -1    0    0  501    0  0.00000000000E+00  0.00000000000E+00 -0.20069289763E+04  0.20069289763E+04  0.25500000920E-02 0.  1.
    10030    2    1    2    0    0  0.00000000000E+00  0.00000000000E+00 -0.18835479615E+04  0.21303099911E+04  0.99522245500E+03 0.  0.
        5    1    3    3  502    0 -0.17442288378E+03  0.43760515044E+02  0.51343883204E+02  0.18707380737E+03  0.46999998093E+01 0. -1.
       -5    1    3    3    0  502  0.17442288378E+03 -0.43760515044E+02 -0.19348918447E+04  0.19432361838E+04  0.46999998093E+01 0.  1.
</event>
<event>
 5   0  0.3640180E-03  0.1001245E+04  0.7818609E-02  0.9307181E-01
        1   -1    0    0  501    0  0.00000000000E+00  0.00000000000E+00  0.25520279253E+04  0.25520279253E+04  0.50400001928E-02 0. -1.
       -1   -1    0    0    0  501  0.00000000000E+00  0.00000000000E+00 -0.98205350345E+02  0.98205350474E+02  0.50400001928E-02 0.  1.
    10030    2    1    2    0    0  0.00000000000E+00  0.00000000000E+00  0.24538225750E+04  0.26502332758E+04  0.10012448186E+04 0.  0.
        5    1    3    3  502    0 -0.33541475533E+03  0.22389407199E+03  0.44184039010E+03  0.59822791133E+03  0.46999998093E+01 0.  1.
       -5    1    3    3    0  502  0.33541475533E+03 -0.22389407199E+03  0.20119821849E+04  0.20520053645E+04  0.46999998093E+01 0. -1.
</event>
<event>
 5   0  0.6606947E-03  0.9076762E+03  0.7818609E-02  0.9416036E-01
        2   -1    0    0  501    0  0.00000000000E+00  0.00000000000E+00  0.66900670662E+03  0.66900670663E+03  0.25500000920E-02 0. -1.
       -2   -1    0    0    0  501  0.00000000000E+00  0.00000000000E+00 -0.30787285597E+03  0.30787285598E+03  0.25500000920E-02 0.  1.
    10030    2    1    2    0    0  0.00000000000E+00  0.00000000000E+00  0.36113385065E+03  0.97687956260E+03  0.90767616568E+03 0.  0.
        1    1    3    3  502    0  0.87372358445E+02 -0.36391829921E+03  0.45684601385E+03  0.59057492151E+03  0.50400001928E-02 0. -1.
       -1    1    3    3    0  502 -0.87372358445E+02  0.36391829921E+03 -0.95712163198E+02  0.38630464109E+03  0.50400001928E-02 0.  1.
</event>
<event>
 5   0  0.3643002E-03  0.9782551E+03  0.7818609E-02  0.9332721E-01
        1   -1    0    0  501    0  0.00000000000E+00  0.00000000000E+00  0.11538876279E+04  0.11538876279E+04  0.50400001928E-02 0.  1.
       -1   -1    0    0    0  501  0.00000000000E+00  0.00000000000E+00 -0.20733886695E+03  0.20733886701E+03  0.50400001928E-02 0. -1.
    10030    2    1    2    0    0  0.00000000000E+00  0.00000000000E+00  0.94654876091E+03  0.13612264949E+04  0.97825508616E+03 0.  0.
        2    1    3    3  502    0 -0.36330199499E+03 -0.30642669431E+03  0.63411030118E+03  0.79245285830E+03  0.25500000920E-02 0. -1.
       -2    1    3    3    0  502  0.36330199499E+03  0.30642669431E+03  0.31243845973E+03  0.56877363659E+03  0.25500000920E-02 0.  1.
</event>
<event>
 5   0  0.3643002E-03  0.9921912E+03  0.7818609E-02  0.9317151E-01
        1   -1    0    0  501    0  0.00000000000E+00  0.00000000000E+00  0.69201192275E+03  0.69201192276E+03  0.50400001928E-02 0.  1.
       -1   -1    0    0    0  501  0.00000000000E+00  0.00000000000E+00 -0.35564538047E+03  0.35564538051E+03  0.50400001928E-02 0. -1.
    10030    2    1    2    0    0  0.00000000000E+00  0.00000000000E+00  0.33636654227E+03  0.10476573033E+04  0.99219119848E+03 0.  0.
        2    1    3    3  502    0 -0.53349927823E+02 -0.10266064562E+03 -0.34120130025E+03  0.36028287533E+03  0.25500000920E-02 0. -1.
       -2    1    3    3    0  502  0.53349927823E+02  0.10266064562E+03  0.67756784252E+03  0.68737442794E+03  0.25500000920E-02 0.  1.
</event>
<event>
 5   0  0.3466598E-03  0.9991608E+03  0.7818609E-02  0.9309466E-01
        1   -1    0    0  501    0  0.00000000000E+00  0.00000000000E+00  0.82648217118E+03  0.82648217120E+03  0.50400001928E-02 0.  1.
       -1   -1    0    0    0  501  0.00000000000E+00  0.00000000000E+00 -0.30197937091E+03  0.30197937095E+03  0.50400001928E-02 0. -1.
    10030    2    1    2    0    0  0.00000000000E+00  0.00000000000E+00  0.52450280027E+03  0.11284615421E+04  0.99916078016E+03 0.  0.
        3    1    3    3  502    0  0.27820905099E+03  0.37152971854E+03  0.47095069069E+03  0.66123306865E+03  0.10100000352E+00 0.  1.
       -3    1    3    3    0  502 -0.27820905099E+03 -0.37152971854E+03  0.53552109579E+02  0.46722847350E+03  0.10100000352E+00 0. -1.
</event>
<event>
 5   0  0.6606947E-03  0.1070689E+04  0.7818609E-02  0.9234241E-01
        2   -1    0    0  501    0  0.00000000000E+00  0.00000000000E+00  0.15381661709E+04  0.15381661709E+04  0.25500000920E-02 0. -1.
       -2   -1    0    0    0  501  0.00000000000E+00  0.00000000000E+00 -0.18632169736E+03  0.18632169738E+03  0.25500000920E-02 0.  1.
    10030    2    1    2    0    0  0.00000000000E+00  0.00000000000E+00  0.13518444735E+04  0.17244878682E+04  0.10706889965E+04 0.  0.
        1    1    3    3  502    0 -0.26363506638E+03  0.20107619176E+03  0.13528841821E+04  0.13929216393E+04  0.50400001928E-02 0. -1.
       -1    1    3    3    0  502  0.26363506638E+03 -0.20107619176E+03 -0.10397086254E+01  0.33156622889E+03  0.50400001928E-02 0.  1.
</event>
<event>
 5   0  0.3569359E-03  0.1009903E+04  0.7818609E-02  0.9297750E-01
        1   -1    0    0  501    0  0.00000000000E+00  0.00000000000E+00  0.54697983520E+03  0.54697983523E+03  0.50400001928E-02 0. -1.
       -1   -1    0    0    0  501  0.00000000000E+00  0.00000000000E+00 -0.46615216209E+03  0.46615216212E+03  0.50400001928E-02 0.  1.
    10030    2    1    2    0    0  0.00000000000E+00  0.00000000000E+00  0.80827673114E+02  0.10131319973E+04  0.10099026346E+04 0.  0.
        4    1    3    3  502    0  0.32052911478E+03  0.34988959053E+03 -0.13280148896E+03  0.49274687960E+03  0.12699999809E+01 0.  1.
       -4    1    3    3    0  502 -0.32052911478E+03 -0.34988959053E+03  0.21362916207E+03  0.52038511775E+03  0.12699999809E+01 0. -1.
</event>
<event>
 5   0  0.3569359E-03  0.9903909E+03  0.7818609E-02  0.9319147E-01
       -1   -1    0    0    0  501  0.00000000000E+00  0.00000000000E+00  0.27137957706E+03  0.27137957711E+03  0.50400001928E-02 0. -1.
        1   -1    0    0  501    0  0.00000000000E+00  0.00000000000E+00 -0.90359977432E+03  0.90359977433E+03  0.50400001928E-02 0.  1.
    10030    2    1    2    0    0  0.00000000000E+00  0.00000000000E+00 -0.63222019726E+03  0.11749793514E+04  0.99039088167E+03 0.  0.
        4    1    3    3  502    0  0.16503051514E+03  0.44462539135E+03 -0.48510193223E+03  0.67841897609E+03  0.12699999809E+01 0.  1.
       -4    1    3    3    0  502 -0.16503051514E+03 -0.44462539135E+03 -0.14711826502E+03  0.49656037535E+03  0.12699999809E+01 0. -1.
</event>
<event>
 5   0  0.3640180E-03  0.1004231E+04  0.7818609E-02  0.9303916E-01
        1   -1    0    0  501    0  0.00000000000E+00  0.00000000000E+00  0.31783591351E+03  0.31783591355E+03  0.50400001928E-02 0. -1.
       -1   -1    0    0    0  501  0.00000000000E+00  0.00000000000E+00 -0.79323950045E+03  0.79323950047E+03  0.50400001928E-02 0.  1.
    10030    2    1    2    0    0  0.00000000000E+00  0.00000000000E+00 -0.47540358694E+03  0.11110754140E+04  0.10042310517E+04 0.  0.
        5    1    3    3  502    0  0.38899183679E+03 -0.52816281295E+02 -0.58404683575E+03  0.70373077594E+03  0.46999998093E+01 0.  1.
       -5    1    3    3    0  502 -0.38899183679E+03  0.52816281295E+02  0.10864324881E+03  0.40734463807E+03  0.46999998093E+01 0. -1.
</event>
<event>
 5   0  0.6199539E-03  0.1002381E+04  0.7818609E-02  0.9305937E-01
       -2   -1    0    0    0  501  0.00000000000E+00  0.00000000000E+00  0.14845745554E+03  0.14845745557E+03  0.25500000920E-02 0.  1.
        2   -1    0    0  501    0  0.00000000000E+00  0.00000000000E+00 -0.16920144273E+04  0.16920144273E+04  0.25500000920E-02 0. -1.
    10030    2    1    2    0    0  0.00000000000E+00  0.00000000000E+00 -0.15435569718E+04  0.18404718829E+04  0.10023814776E+04 0.  0.
        2    1    3    3  502    0 -0.90306021215E+02 -0.47670618237E+03 -0.54107062468E+03  0.72674712430E+03  0.25500000920E-02 0. -1.
       -2    1    3    3    0  502  0.90306021215E+02  0.47670618237E+03 -0.10024863471E+04  0.11137247586E+04  0.25500000920E-02 0.  1.
</event>
<event>
 5   0  0.6360455E-03  0.1000289E+04  0.7818609E-02  0.9308228E-01
       -2   -1    0    0    0  501  0.00000000000E+00  0.00000000000E+00  0.35540671229E+03  0.35540671230E+03  0.25500000920E-02 0. -1.
        2   -1    0    0  501    0  0.00000000000E+00  0.00000000000E+00 -0.70382565128E+03  0.70382565128E+03  0.25500000920E-02 0.  1.
    10030    2    1    2    0    0  0.00000000000E+00  0.00000000000E+00 -0.34841893898E+03  0.10592323636E+04  0.10002886798E+04 0.  0.
        4    1    3    3  502    0  0.59434187782E+02  0.35245617158E+03 -0.54465975567E+03  0.65147036610E+03  0.12699999809E+01 0.  1.
       -4    1    3    3    0  502 -0.59434187782E+02 -0.35245617158E+03  0.19624081668E+03  0.40776199748E+03  0.12699999809E+01 0. -1.
</event>
<event>
 5   0  0.6022787E-03  0.1006243E+04  0.7818609E-02  0.9301724E-01
        2   -1    0    0  501    0  0.00000000000E+00  0.00000000000E+00  0.17261655717E+04  0.17261655717E+04  0.25500000920E-02 0.  1.
       -2   -1    0    0    0  501  0.00000000000E+00  0.00000000000E+00 -0.14664374282E+03  0.14664374285E+03  0.25500000920E-02 0. -1.
    10030    2    1    2    0    0  0.00000000000E+00  0.00000000000E+00  0.15795218289E+04  0.18728093145E+04  0.10062432712E+04 0.  0.
        5    1    3    3  502    0 -0.46984022472E+03  0.85733040984E+02  0.49542630498E+03  0.68816371943E+03  0.46999998093E+01 0.  1.
       -5    1    3    3    0  502  0.46984022472E+03 -0.85733040984E+02  0.10840955239E+04  0.11846455951E+04  0.46999998093E+01 0. -1.
</event>
<event>
 5   0  0.6376961E-03  0.1004036E+04  0.7818609E-02  0.9304129E-01
       -2   -1    0    0    0  501  0.00000000000E+00  0.00000000000E+00  0.26704877885E+03  0.26704877886E+03  0.25500000920E-02 0. -1.
        2   -1    0    0  501    0  0.00000000000E+00  0.00000000000E+00 -0.94373045901E+03  0.94373045901E+03  0.25500000920E-02 0.  1.
    10030    2    1    2    0    0  0.00000000000E+00  0.00000000000E+00 -0.67668168016E+03  0.12107792379E+04  0.10040359887E+04 0.  0.
        3    1    3    3  502    0  0.58308913336E+02 -0.49336751099E+03 -0.25129247001E+03  0.55673992668E+03  0.10100000352E+00 0.  1.
       -3    1    3    3    0  502 -0.58308913336E+02  0.49336751099E+03 -0.42538921015E+03  0.65403931120E+03  0.10100000352E+00 0. -1.
</event>
<event>
 5   0  0.6022787E-03  0.1006762E+04  0.7818609E-02  0.9301159E-01
       -2   -1    0    0    0  501  0.00000000000E+00  0.00000000000E+00  0.64968248164E+03  0.64968248165E+03  0.25500000920E-02 0. -1.
        2   -1    0    0  501    0  0.00000000000E+00  0.00000000000E+00 -0.39002536287E+03  0.39002536288E+03  0.25500000920E-02 0.  1.
    10030    2    1    2    0    0  0.00000000000E+00  0.00000000000E+00  0.25965711877E+03  0.10397078445E+04  0.10067624261E+04 0.  0.
        5    1    3    3  502    0  0.15781133266E+03 -0.40568189604E+03  0.39086138100E+03  0.58504438007E+03  0.46999998093E+01 0. -1.
       -5    1    3    3    0  502 -0.15781133266E+03  0.40568189604E+03 -0.13120426222E+03  0.45466346446E+03  0.46999998093E+01 0.  1.
</event>
<event>
 5   0  0.6199539E-03  0.1012720E+04  0.7818609E-02  0.9294702E-01
       -2   -1    0    0    0  501  0.00000000000E+00  0.00000000000E+00  0.43399561777E+03  0.43399561777E+03  0.25500000920E-02 0. -1.
        2   -1    0    0  501    0  0.00000000000E+00  0.00000000000E+00 -0.59079085582E+03  0.59079085583E+03  0.25500000920E-02 0.  1.
    10030    2    1    2    0    0  0.00000000000E+00  0.00000000000E+00 -0.15679523805E+03  0.10247864736E+04  0.10127203809E+04 0.  0.
        2    1    3    3  502    0  0.25855939257E+03  0.40211176602E+03  0.90485461903E+02  0.48655364625E+03  0.25500000920E-02 0. -1.
       -2    1    3    3    0  502 -0.25855939257E+03 -0.40211176602E+03 -0.24728069996E+03  0.53823282735E+03  0.25500000920E-02 0.  1.
</event>
<event>
 5   0  0.3608845E-03  0.9513780E+03  0.7818609E-02  0.9363541E-01
       -1   -1    0    0    0  501  0.00000000000E+00  0.00000000000E+00  0.52953356262E+03  0.52953356264E+03  0.50400001928E-02 0.  1.
        1   -1    0    0  501    0  0.00000000000E+00  0.00000000000E+00 -0.42731952632E+03  0.42731952635E+03  0.50400001928E-02 0. -1.
    10030    2    1    2    0    0  0.00000000000E+00  0.00000000000E+00  0.10221403629E+03  0.95685308900E+03  0.95137801357E+03 0.  0.
        1    1    3    3  502    0  0.72107133275E+02  0.42317944292E+03  0.25722482529E+03  0.50044469259E+03  0.50400001928E-02 0.  1.
       -1    1    3    3    0  502 -0.72107133275E+02 -0.42317944292E+03 -0.15501078899E+03  0.45640839640E+03  0.50400001928E-02 0. -1.
</event>
<event>
 5   0  0.3569359E-03  0.9947030E+03  0.7818609E-02  0.9314374E-01
        1   -1    0    0  501    0  0.00000000000E+00  0.00000000000E+00  0.56659695440E+03  0.56659695442E+03  0.50400001928E-02 0.  1.
       -1   -1    0    0    0  501  0.00000000000E+00  0.00000000000E+00 -0.43656872864E+03  0.43656872867E+03  0.50400001928E-02 0. -1.
    10030    2    1    2    0    0  0.00000000000E+00  0.00000000000E+00  0.13002822576E+03  0.10031656831E+04  0.99470299498E+03 0.  0.
        4    1    3    3  502    0  0.63960491733E+02  0.35100845170E+03 -0.28442912537E+03  0.45628874403E+03  0.12699999809E+01 0. -1.
       -4    1    3    3    0  502 -0.63960491733E+02 -0.35100845170E+03  0.41445735113E+03  0.54687693906E+03  0.12699999809E+01 0.  1.
</event>
<event>
 5   0  0.6360455E-03  0.9950878E+03  0.7818609E-02  0.9313949E-01
        2   -1    0    0  501    0  0.00000000000E+00  0.00000000000E+00  0.42714427181E+03  0.42714427182E+03  0.25500000920E-02 0. -1.
       -2   -1    0    0    0  501  0.00000000000E+00  0.00000000000E+00 -0.57954647442E+03  0.57954647442E+03  0.25500000920E-02 0.  1.
    10030    2    1    2    0    0  0.00000000000E+00  0.00000000000E+00 -0.15240220261E+03  0.10066907462E+04  0.99508784899E+03 0.  0.
        4    1    3    3  502    0 -0.13901364143E+03  0.11925632239E+03 -0.54419807293E+03  0.57419510484E+03  0.12699999809E+01 0.  1.
       -4    1    3    3    0  502  0.13901364143E+03 -0.11925632239E+03  0.39179587032E+03  0.43249564140E+03  0.12699999809E+01 0. -1.
</event>
<event>
 5   0  0.6360455E-03  0.1011397E+04  0.7818609E-02  0.9296132E-01
       -2   -1    0    0    0  501  0.00000000000E+00  0.00000000000E+00  0.52032294615E+03  0.52032294616E+03  0.25500000920E-02 0. -1.
        2   -1    0    0  501    0  0.00000000000E+00  0.00000000000E+00 -0.49148540114E+03  0.49148540115E+03  0.25500000920E-02 0.  1.
    10030    2    1    2    0    0  0.00000000000E+00  0.00000000000E+00  0.28837545011E+02  0.10118083473E+04  0.10113973145E+04 0.  0.
        4    1    3    3  502    0 -0.38242154141E+03 -0.32199731388E+03 -0.61776565806E+02  0.50373253067E+03  0.12699999809E+01 0. -1.
       -4    1    3    3    0  502  0.38242154141E+03  0.32199731388E+03  0.90614110817E+02  0.50807581664E+03  0.12699999809E+01 0.  1.
</event>
<event>
 5   0  0.3643002E-03  0.1008979E+04  0.7818609E-02  0.9298751E-01
       -1   -1    0    0    0  501  0.00000000000E+00  0.00000000000E+00  0.56898475974E+03  0.56898475976E+03  0.50400001928E-02 0. -1.
        1   -1    0    0  501    0  0.00000000000E+00  0.00000000000E+00 -0.44730507858E+03  0.44730507861E+03  0.50400001928E-02 0.  1.
    10030    2    1    2    0    0  0.00000000000E+00  0.00000000000E+00  0.12167968116E+03  0.10162898384E+04  0.10089792321E+04 0.  0.
        2    1    3    3  502    0  0.20332764172E+03  0.45984062347E+03  0.19136422649E+02  0.50315179773E+03  0.25500000920E-02 0.  1.
       -2    1    3    3    0  502 -0.20332764172E+03 -0.45984062347E+03  0.10254325851E+03  0.51313804064E+03  0.25500000920E-02 0. -1.
</event>
<event>
 5   0  0.3643002E-03  0.9605478E+03  0.7818609E-02  0.9352906E-01
        1   -1    0    0  501    0  0.00000000000E+00  0.00000000000E+00  0.85350569440E+03  0.85350569441E+03  0.50400001928E-02 0.  1.
       -1   -1    0    0    0  501  0.00000000000E+00  0.00000000000E+00 -0.27025366063E+03  0.27025366068E+03  0.50400001928E-02 0. -1.
    10030    2    1    2    0    0  0.00000000000E+00  0.00000000000E+00  0.58325203377E+03  0.11237593551E+04  0.96054784017E+03 0.  0.
        2    1    3    3  502    0  0.46559809330E+03 -0.29574810894E+02  0.15820037809E+03  0.49262928614E+03  0.25500000920E-02 0. -1.
       -2    1    3    3    0  502 -0.46559809330E+03  0.29574810894E+02  0.42505165568E+03  0.63113006895E+03  0.25500000920E-02 0.  1.
</event>
<event>
 5   0  0.6199539E-03  0.1007611E+04  0.7818609E-02  0.9300236E-01
       -2   -1    0    0    0  501  0.00000000000E+00  0.00000000000E+00  0.15495997172E+03  0.15495997174E+03  0.25500000920E-02 0. -1.
        2   -1    0    0  501    0  0.00000000000E+00  0.00000000000E+00 -0.16379714438E+04  0.16379714438E+04  0.25500000920E-02 0.  1.
    10030    2    1    2    0    0  0.00000000000E+00  0.00000000000E+00 -0.14830114721E+04  0.17929314156E+04  0.10076110532E+04 0.  0.
        2    1    3    3  502    0  0.49950955301E+02 -0.28002636872E+03 -0.15921706679E+01  0.28445105050E+03  0.25500000920E-02 0. -1.
       -2    1    3    3    0  502 -0.49950955301E+02  0.28002636872E+03 -0.14814193014E+04  0.15084803651E+04  0.25500000920E-02 0.  1.
</event>
<event>
 5   0  0.6376961E-03  0.9971790E+03  0.7818609E-02  0.9311644E-01
       -2   -1    0    0    0  501  0.00000000000E+00  0.00000000000E+00  0.36737738454E+03  0.36737738454E+03  0.25500000920E-02 0.  1.
        2   -1    0    0  501    0  0.00000000000E+00  0.00000000000E+00 -0.67666521660E+03  0.67666521661E+03  0.25500000920E-02 0. -1.
    10030    2    1    2    0    0  0.00000000000E+00  0.00000000000E+00 -0.30928783207E+03  0.10440426012E+04  0.99717901600E+03 0.  0.
        3    1    3    3  502    0  0.85301830043E+01  0.49237006707E+03 -0.23635282944E+03  0.54622680010E+03  0.10100000352E+00 0. -1.
       -3    1    3    3    0  502 -0.85301830043E+01 -0.49237006707E+03 -0.72935002629E+02  0.49781580105E+03  0.10100000352E+00 0.  1.
</event>
<event>
 5   0  0.2417750E-03  0.9785588E+03  0.7818609E-02  0.9332379E-01
        3   -1    0    0  501    0  0.00000000000E+00  0.00000000000E+00  0.78466173965E+03  0.78466174615E+03  0.10100000352E+00 0. -1.
       -3   -1    0    0    0  501  0.00000000000E+00  0.00000000000E+00 -0.30509236996E+03  0.30509238668E+03  0.10100000352E+00 0.  1.
    10030    2    1    2    0    0  0.00000000000E+00  0.00000000000E+00  0.47956936969E+03  0.10897541328E+04  0.97855878192E+03 0.  0.
        5    1    3    3  502    0  0.11622458562E+03  0.25209576973E+03 -0.20887459433E+03  0.34743505519E+03  0.46999998093E+01 0.  1.
       -5    1    3    3    0  502 -0.11622458562E+03 -0.25209576973E+03  0.68844396403E+03  0.74231907764E+03  0.46999998093E+01 0. -1.
</event>
<event>
 5   0  0.6199539E-03  0.1012631E+04  0.7818609E-02  0.9294799E-01
       -2   -1    0    0    0  501  0.00000000000E+00  0.00000000000E+00  0.47860981407E+03  0.47860981408E+03  0.25500000920E-02 0. -1.
        2   -1    0    0  501    0  0.00000000000E+00  0.00000000000E+00 -0.53562504349E+03  0.53562504349E+03  0.25500000920E-02 0.  1.
    10030    2    1    2    0    0  0.00000000000E+00  0.00000000000E+00 -0.57015229413E+02  0.10142348576E+04  0.10126310335E+04 0.  0.
        2    1    3    3  502    0  0.10636077546E+03  0.30808022382E+03 -0.41658659589E+03  0.52893329518E+03  0.25500000920E-02 0.  1.
       -2    1    3    3    0  502 -0.10636077546E+03 -0.30808022382E+03  0.35957136648E+03  0.48530156239E+03  0.25500000920E-02 0. -1.
</event>
<event>
 5   0  0.6606947E-03  0.1004799E+04  0.7818609E-02  0.9303297E-01
       -2   -1    0    0    0  501  0.00000000000E+00  0.00000000000E+00  0.49000001606E+03  0.49000001607E+03  0.25500000920E-02 0.  1.
        2   -1    0    0  501    0  0.00000000000E+00  0.00000000000E+00 -0.51511259816E+03  0.51511259816E+03  0.25500000920E-02 0. -1.
    10030    2    1    2    0    0  0.00000000000E+00  0.00000000000E+00 -0.25112582093E+02  0.10051126142E+04  0.10047988483E+04 0.  0.
        1    1    3    3  502    0  0.18389961081E+03  0.22508291947E+03  0.39735672960E+03  0.49231469415E+03  0.50400001928E-02 0.  1.
       -1    1    3    3    0  502 -0.18389961081E+03 -0.22508291947E+03 -0.42246931169E+03  0.51279792008E+03  0.50400001928E-02 0. -1.
</event>
<event>
 5   0  0.3466598E-03  0.1007943E+04  0.7818609E-02  0.9299875E-01
       -1   -1    0    0    0  501  0.00000000000E+00  0.00000000000E+00  0.46155120647E+03  0.46155120650E+03  0.50400001928E-02 0. -1.
        1   -1    0    0  501    0  0.00000000000E+00  0.00000000000E+00 -0.55029101838E+03  0.55029101841E+03  0.50400001928E-02 0.  1.
    10030    2    1    2    0    0  0.00000000000E+00  0.00000000000E+00 -0.88739811908E+02  0.10118422249E+04  0.10079434180E+04 0.  0.
        3    1    3    3  502    0 -0.45335594649E+03 -0.17757349386E+03  0.86223698750E+02  0.49446789215E+03  0.10100000352E+00 0. -1.
       -3    1    3    3    0  502  0.45335594649E+03  0.17757349386E+03 -0.17496351066E+03  0.51737433276E+03  0.10100000352E+00 0.  1.
</event>
<event>
 5   0  0.6022787E-03  0.9990443E+03  0.7818609E-02  0.9309594E-01
        2   -1    0    0  501    0  0.00000000000E+00  0.00000000000E+00  0.24658565347E+04  0.24658565347E+04  0.25500000920E-02 0. -1.
       -2   -1    0    0    0  501  0.00000000000E+00  0.00000000000E+00 -0.10119094898E+03  0.10119094901E+03  0.25500000920E-02 0.  1.
    10030    2    1    2    0    0  0.00000000000E+00  0.00000000000E+00  0.23646655857E+04  0.25670474837E+04  0.99904426897E+03 0.  0.
        5    1    3    3  502    0  0.93191166565E+02  0.28553516156E+03  0.22078361524E+04  0.22281780646E+04  0.46999998093E+01 0. -1.
       -5    1    3    3    0  502 -0.93191166565E+02 -0.28553516156E+03  0.15682943332E+03  0.33886941905E+03  0.46999998093E+01 0.  1.
</event>
<event>
 5   0  0.6360455E-03  0.1018763E+04  0.7818609E-02  0.9288202E-01
        2   -1    0    0  501    0  0.00000000000E+00  0.00000000000E+00  0.18418677087E+04  0.18418677087E+04  0.25500000920E-02 0. -1.
       -2   -1    0    0    0  501  0.00000000000E+00  0.00000000000E+00 -0.14087305969E+03  0.14087305971E+03  0.25500000920E-02 0.  1.
    10030    2    1    2    0    0  0.00000000000E+00  0.00000000000E+00  0.17009946490E+04  0.19827407684E+04  0.10187630533E+04 0.  0.
        4    1    3    3  502    0 -0.12764786839E+03 -0.24156586303E+03  0.13802476478E+02  0.27356930702E+03  0.12699999809E+01 0.  1.
       -4    1    3    3    0  502  0.12764786839E+03  0.24156586303E+03  0.16871921726E+04  0.17091714614E+04  0.12699999809E+01 0. -1.
</event>
<event>
 5   0  0.6199539E-03  0.9880701E+03  0.7818609E-02  0.9321727E-01
        2   -1    0    0  501    0  0.00000000000E+00  0.00000000000E+00  0.14324641070E+04  0.14324641070E+04  0.25500000920E-02 0.  1.
       -2   -1    0    0    0  501  0.00000000000E+00  0.00000000000E+00 -0.17038515680E+03  0.17038515682E+03  0.25500000920E-02 0. -1.
    10030    2    1    2    0    0  0.00000000000E+00  0.00000000000E+00  0.12620789502E+04  0.16028492638E+04  0.98807008153E+03 0.  0.
        2    1    3    3  502    0 -0.10411472894E+03 -0.10477511026E+03 -0.13372670064E+03  0.19924992091E+03  0.25500000920E-02 0. -1.
       -2    1    3    3    0  502  0.10411472894E+03  0.10477511026E+03  0.13958056508E+04  0.14035993429E+04  0.25500000920E-02 0.  1.
</event>
<event>
 5   0  0.3466598E-03  0.1004383E+04  0.7818609E-02  0.9303750E-01
       -1   -1    0    0    0  501  0.00000000000E+00  0.00000000000E+00  0.45665029069E+03  0.45665029071E+03  0.50400001928E-02 0.  1.
        1   -1    0    0  501    0  0.00000000000E+00  0.00000000000E+00 -0.55227475318E+03  0.55227475321E+03  0.50400001928E-02 0. -1.
    10030    2    1    2    0    0  0.00000000000E+00  0.00000000000E+00 -0.95624462497E+02  0.10089250439E+04  0.10043832468E+04 0.  0.
        3    1    3    3  502    0  0.11384072124E+03  0.47775887179E+03  0.57462280597E+02  0.49448475535E+03  0.10100000352E+00 0.  1.
       -3    1    3    3    0  502 -0.11384072124E+03 -0.47775887179E+03 -0.15308674309E+03  0.51444028856E+03  0.10100000352E+00 0. -1.
</event>
<event>
 5   0  0.3640180E-03  0.1000192E+04  0.7818609E-02  0.9308334E-01
        1   -1    0    0  501    0  0.00000000000E+00  0.00000000000E+00  0.16612314490E+04  0.16612314490E+04  0.50400001928E-02 0. -1.
       -1   -1    0    0    0  501  0.00000000000E+00  0.00000000000E+00 -0.15054868627E+03  0.15054868636E+03  0.50400001928E-02 0.  1.
    10030    2    1    2    0    0  0.00000000000E+00  0.00000000000E+00  0.15106827628E+04  0.18117801354E+04  0.10001924062E+04 0.  0.
        5    1    3    3  502    0 -0.99466146978E+02  0.31359003433E+03  0.73121756519E+02  0.33704763061E+03  0.46999998093E+01 0.  1.
       -5    1    3    3    0  502  0.99466146978E+02 -0.31359003433E+03  0.14375610062E+04  0.14747325048E+04  0.46999998093E+01 0. -1.
</event>
<event>
 5   0  0.6606947E-03  0.9969100E+03  0.7818609E-02  0.9311940E-01
       -2   -1    0    0    0  501  0.00000000000E+00  0.00000000000E+00  0.20456418046E+03  0.20456418047E+03  0.25500000920E-02 0.  1.
        2   -1    0    0  501    0  0.00000000000E+00  0.00000000000E+00 -0.12145694236E+04  0.12145694236E+04  0.25500000920E-02 0. -1.
    10030    2    1    2    0    0  0.00000000000E+00  0.00000000000E+00 -0.10100052432E+04  0.14191336041E+04  0.99691002356E+03 0.  0.
        1    1    3    3  502    0 -0.29858647333E+03  0.51944927853E+02  0.58337220363E+02  0.30863471757E+03  0.50400001928E-02 0.  1.
       -1    1    3    3    0  502  0.29858647333E+03 -0.51944927853E+02 -0.10683424635E+04  0.11104988865E+04  0.50400001928E-02 0. -1.
</event>
<event>
 5   0  0.6022787E-03  0.9928234E+03  0.7818609E-02  0.9316451E-01
        2   -1    0    0  501    0  0.00000000000E+00  0.00000000000E+00  0.20878045131E+04  0.20878045131E+04  0.25500000920E-02 0.  1.
       -2   -1    0    0    0  501  0.00000000000E+00  0.00000000000E+00 -0.11803049143E+03  0.11803049145E+03  0.25500000920E-02 0. -1.
    10030    2    1    2    0    0  0.00000000000E+00  0.00000000000E+00  0.19697740217E+04  0.22058350045E+04  0.99282343387E+03 0.  0.
        5    1    3    3  502    0  0.30018597476E+03  0.12172711229E+03  0.18205638970E+04  0.18491630816E+04  0.46999998093E+01 0.  1.
       -5    1    3    3    0  502 -0.30018597476E+03 -0.12172711229E+03  0.14921012465E+03  0.35667192293E+03  0.46999998093E+01 0. -1.
</event>
<event>
 5   0  0.6022787E-03  0.1121518E+04  0.7818609E-02  0.9184469E-01
        2   -1    0    0  501    0  0.00000000000E+00  0.00000000000E+00  0.15226534101E+04  0.15226534101E+04  0.25500000920E-02 0.  1.
       -2   -1    0    0    0  501  0.00000000000E+00  0.00000000000E+00 -0.20651500036E+03  0.20651500038E+03  0.25500000920E-02 0. -1.
    10030    2    1    2    0    0  0.00000000000E+00  0.00000000000E+00  0.13161384097E+04  0.17291684105E+04  0.11215182024E+04 0.  0.
        5    1    3    3  502    0  0.31697423888E+03 -0.46241139494E+03  0.64037440156E+03  0.85111599119E+03  0.46999998093E+01 0.  1.
       -5    1    3    3    0  502 -0.31697423888E+03  0.46241139494E+03  0.67576400818E+03  0.87805241930E+03  0.46999998093E+01 0. -1.
</event>
<event>
 5   0  0.3569359E-03  0.9920135E+03  0.7818609E-02  0.9317348E-01
       -1   -1    0    0    0  501  0.00000000000E+00  0.00000000000E+00  0.65132310545E+03  0.65132310547E+03  0.50400001928E-02 0. -1.
        1   -1    0    0  501    0  0.00000000000E+00  0.00000000000E+00 -0.37772755733E+03  0.37772755736E+03  0.50400001928E-02 0.  1.
    10030    2    1    2    0    0  0.00000000000E+00  0.00000000000E+00  0.27359554812E+03  0.10290506628E+04  0.99201347911E+03 0.  0.
        4    1    3    3  502    0 -0.32889971675E+03 -0.85742128253E+02 -0.23792925110E+03  0.41489598415E+03  0.12699999809E+01 0.  1.
       -4    1    3    3    0  502  0.32889971675E+03  0.85742128253E+02  0.51152479922E+03  0.61415467869E+03  0.12699999809E+01 0. -1.
</event>
<event>
 5   0  0.3569359E-03  0.1001972E+04  0.7818609E-02  0.9306384E-01
       -1   -1    0    0    0  501  0.00000000000E+00  0.00000000000E+00  0.16581439570E+03  0.16581439578E+03  0.50400001928E-02 0.  1.
        1   -1    0    0  501    0  0.00000000000E+00  0.00000000000E+00 -0.15136625850E+04  0.15136625850E+04  0.50400001928E-02 0. -1.
    10030    2    1    2    0    0  0.00000000000E+00  0.00000000000E+00 -0.13478481893E+04  0.16794769807E+04  0.10019721491E+04 0.  0.
        4    1    3    3  502    0 -0.25961043532E+03 -0.35011256192E+03 -0.25990960919E+03  0.50747512450E+03  0.12699999809E+01 0.  1.
       -4    1    3    3    0  502  0.25961043532E+03  0.35011256192E+03 -0.10879385801E+04  0.11720018562E+04  0.12699999809E+01 0. -1.
</event>
<event>
 5   0  0.3643002E-03  0.9924150E+03  0.7818609E-02  0.9316903E-01
        1   -1    0    0  501    0  0.00000000000E+00  0.00000000000E+00  0.13704990261E+04  0.13704990262E+04  0.50400001928E-02 0.  1.
       -1   -1    0    0    0  501  0.00000000000E+00  0.00000000000E+00 -0.17965854791E+03  0.17965854798E+03  0.50400001928E-02 0. -1.
    10030    2    1    2    0    0  0.00000000000E+00  0.00000000000E+00  0.11908404782E+04  0.15501575741E+04  0.99241496364E+03 0.  0.
        2    1    3    3  502    0 -0.11558931604E+03 -0.39608806360E+03  0.10259652177E+04  0.11058260586E+04  0.25500000920E-02 0. -1.
       -2    1    3    3    0  502  0.11558931604E+03  0.39608806360E+03  0.16487526055E+03  0.44433151549E+03  0.25500000920E-02 0.  1.
</event>
<event>
 5   0  0.6606947E-03  0.1001017E+04  0.7818609E-02  0.9307430E-01
       -2   -1    0    0    0  501  0.00000000000E+00  0.00000000000E+00  0.35177673265E+03  0.35177673266E+03  0.25500000920E-02 0.  1.
        2   -1    0    0  501    0  0.00000000000E+00  0.00000000000E+00 -0.71212407276E+03  0.71212407277E+03  0.25500000920E-02 0. -1.
    10030    2    1    2    0    0  0.00000000000E+00  0.00000000000E+00 -0.36034734011E+03  0.10639008054E+04  0.10010168422E+04 0.  0.
        1    1    3    3  502    0  0.20427341374E+03  0.34951563293E+03  0.13262761440E+03  0.42600339124E+03  0.50400001928E-02 0.  1.
       -1    1    3    3    0  502 -0.20427341374E+03 -0.34951563293E+03 -0.49297495451E+03  0.63789741419E+03  0.50400001928E-02 0. -1.
</event>
<event>
 5   0  0.6022787E-03  0.1004463E+04  0.7818609E-02  0.9303663E-01
       -2   -1    0    0    0  501  0.00000000000E+00  0.00000000000E+00  0.75997292360E+03  0.75997292361E+03  0.25500000920E-02 0.  1.
        2   -1    0    0  501    0  0.00000000000E+00  0.00000000000E+00 -0.33190195663E+03  0.33190195664E+03  0.25500000920E-02 0. -1.
    10030    2    1    2    0    0  0.00000000000E+00  0.00000000000E+00  0.42807096697E+03  0.10918748802E+04  0.10044630413E+04 0.  0.
        5    1    3    3  502    0  0.19013141172E+01  0.34188768241E+03 -0.18584084609E+03  0.38916540501E+03  0.46999998093E+01 0.  1.
       -5    1    3    3    0  502 -0.19013141172E+01 -0.34188768241E+03  0.61391181306E+03  0.70270947524E+03  0.46999998093E+01 0. -1.
</event>
<event>
 5   0  0.6376961E-03  0.9496586E+03  0.7818609E-02  0.9365550E-01
       -2   -1    0    0    0  501  0.00000000000E+00  0.00000000000E+00  0.42455947292E+03  0.42455947293E+03  0.25500000920E-02 0. -1.
        2   -1    0    0  501    0  0.00000000000E+00  0.00000000000E+00 -0.53105135738E+03  0.53105135738E+03  0.25500000920E-02 0.  1.
    10030    2    1    2    0    0  0.00000000000E+00  0.00000000000E+00 -0.10649188446E+03  0.95561083031E+03  0.94965864264E+03 0.  0.
        3    1    3    3  502    0  0.33523339254E+03 -0.33622193584E+03 -0.47186858654E+02  0.47713019967E+03  0.10100000352E+00 0. -1.
       -3    1    3    3    0  502 -0.33523339254E+03  0.33622193584E+03 -0.59305025803E+02  0.47848063064E+03  0.10100000352E+00 0.  1.
</event>
<event>
 5   0  0.3569359E-03  0.9992314E+03  0.7818609E-02  0.9309388E-01
       -1   -1    0    0    0  501  0.00000000000E+00  0.00000000000E+00  0.25226605495E+03  0.25226605500E+03  0.50400001928E-02 0. -1.
        1   -1    0    0  501    0  0.00000000000E+00  0.00000000000E+00 -0.98949441158E+03  0.98949441159E+03  0.50400001928E-02 0.  1.
    10030    2    1    2    0    0  0.00000000000E+00  0.00000000000E+00 -0.73722835663E+03  0.12417604666E+04  0.99923140793E+03 0.  0.
        4    1    3    3  502    0  0.35265080247E+03 -0.34787742941E+03 -0.44946660019E+03  0.66888200153E+03  0.12699999809E+01 0. -1.
       -4    1    3    3    0  502 -0.35265080247E+03  0.34787742941E+03 -0.28776175644E+03  0.57287846507E+03  0.12699999809E+01 0.  1.
</event>
<event>
 5   0  0.6606947E-03  0.1020472E+04  0.7818609E-02  0.9286372E-01
        2   -1    0    0  501    0  0.00000000000E+00  0.00000000000E+00  0.34503847265E+03  0.34503847266E+03  0.25500000920E-02 0. -1.
       -2   -1    0    0    0  501  0.00000000000E+00  0.00000000000E+00 -0.75452638681E+03  0.75452638681E+03  0.25500000920E-02 0.  1.
    10030    2    1    2    0    0  0.00000000000E+00  0.00000000000E+00 -0.40948791416E+03  0.10995648595E+04  0.10204717185E+04 0.  0.
        1    1    3    3  502    0 -0.44108970979E+03 -0.24484705515E+03 -0.28701931548E+03  0.58042251850E+03  0.50400001928E-02 0. -1.
       -1    1    3    3    0  502  0.44108970979E+03  0.24484705515E+03 -0.12246859868E+03  0.51914234097E+03  0.50400001928E-02 0.  1.
</event>
<event>
 5   0  0.3569359E-03  0.9398064E+03  0.7818609E-02  0.9377145E-01
        1   -1    0    0  501    0  0.00000000000E+00  0.00000000000E+00  0.52213457612E+03  0.52213457614E+03  0.50400001928E-02 0.  1.
       -1   -1    0    0    0  501  0.00000000000E+00  0.00000000000E+00 -0.42289673302E+03  0.42289673305E+03  0.50400001928E-02 0. -1.
    10030    2    1    2    0    0  0.00000000000E+00  0.00000000000E+00  0.99237843095E+02  0.94503130919E+03  0.93980637679E+03 0.  0.
        4    1    3    3  502    0 -0.37555573453E+03 -0.28076996904E+03  0.80342153834E+02  0.47574190464E+03  0.12699999809E+01 0.  1.
       -4    1    3    3    0  502  0.37555573453E+03  0.28076996904E+03  0.18895689261E+02  0.46928940455E+03  0.12699999809E+01 0. -1.
</event>
<event>
 5   0  0.6376961E-03  0.9779808E+03  0.7818609E-02  0.9333030E-01
       -2   -1    0    0    0  501  0.00000000000E+00  0.00000000000E+00  0.21450181577E+03  0.21450181579E+03  0.25500000920E-02 0. -1.
        2   -1    0    0  501    0  0.00000000000E+00  0.00000000000E+00 -0.11147299692E+04  0.11147299692E+04  0.25500000920E-02 0.  1.
    10030    2    1    2    0    0  0.00000000000E+00  0.00000000000E+00 -0.90022815339E+03  0.13292317850E+04  0.97798078201E+03 0.  0.
        3    1    3    3  502    0  0.39978806675E+03  0.11328768039E+03 -0.80046887605E+03  0.90189524257E+03  0.10100000352E+00 0.  1.
       -3    1    3    3    0  502 -0.39978806675E+03 -0.11328768039E+03 -0.99759277332E+02  0.42733654238E+03  0.10100000352E+00 0. -1.
</event>
<event>
 5   0  0.6360455E-03  0.9953855E+03  0.7818609E-02  0.9313620E-01
        2   -1    0    0  501    0  0.00000000000E+00  0.00000000000E+00  0.51936412201E+03  0.51936412202E+03  0.25500000920E-02 0.  1.
       -2   -1    0    0    0  501  0.00000000000E+00  0.00000000000E+00 -0.47692563492E+03  0.47692563492E+03  0.25500000920E-02 0. -1.
    10030    2    1    2    0    0  0.00000000000E+00  0.00000000000E+00  0.42438487097E+02  0.99628975694E+03  0.99538548041E+03 0.  0.
        4    1    3    3  502    0 -0.35499756302E+03 -0.23538223219E+03 -0.23644108706E+03  0.48716944232E+03  0.12699999809E+01 0. -1.
       -4    1    3    3    0  502  0.35499756302E+03  0.23538223219E+03  0.27887957415E+03  0.50912031462E+03  0.12699999809E+01 0.  1.
</event>
<event>
 5   0  0.3608845E-03  0.9966442E+03  0.7818609E-02  0.9312233E-01
       -1   -1    0    0    0  501  0.00000000000E+00  0.00000000000E+00  0.21816362690E+03  0.21816362696E+03  0.50400001928E-02 0. -1.
        1   -1    0    0  501    0  0.00000000000E+00  0.00000000000E+00 -0.11382508142E+04  0.11382508142E+04  0.50400001928E-02 0.  1.
    10030    2    1    2    0    0  0.00000000000E+00  0.00000000000E+00 -0.92008718729E+03  0.13564144412E+04  0.99664422137E+03 0.  0.
        1    1    3    3  502    0  0.47987311062E+03  0.11752203383E+03 -0.37147207380E+03  0.61812711667E+03  0.50400001928E-02 0.  1.
       -1    1    3    3    0  502 -0.47987311062E+03 -0.11752203383E+03 -0.54861511349E+03  0.73828732449E+03  0.50400001928E-02 0. -1.
</event>
<event>
 5   0  0.6376961E-03  0.1001367E+04  0.7818609E-02  0.9307046E-01
        2   -1    0    0  501    0  0.00000000000E+00  0.00000000000E+00  0.16741154357E+04  0.16741154357E+04  0.25500000920E-02 0. -1.
       -2   -1    0    0    0  501  0.00000000000E+00  0.00000000000E+00 -0.14974127612E+03  0.14974127614E+03  0.25500000920E-02 0.  1.
    10030    2    1    2    0    0  0.00000000000E+00  0.00000000000E+00  0.15243741596E+04  0.18238567118E+04  0.10013674285E+04 0.  0.
        3    1    3    3  502    0 -0.33768773374E+03 -0.25551578553E+03  0.12487436549E+04  0.13185909328E+04  0.10100000352E+00 0. -1.
       -3    1    3    3    0  502  0.33768773374E+03  0.25551578553E+03  0.27563050470E+03  0.50526577907E+03  0.10100000352E+00 0.  1.
</event>
<event>
 5   0  0.3640180E-03  0.9920749E+03  0.7818609E-02  0.9317280E-01
        1   -1    0    0  501    0  0.00000000000E+00  0.00000000000E+00  0.79822076894E+03  0.79822076895E+03  0.50400001928E-02 0.  1.
       -1   -1    0    0    0  501  0.00000000000E+00  0.00000000000E+00 -0.30825198456E+03  0.30825198460E+03  0.50400001928E-02 0. -1.
    10030    2    1    2    0    0  0.00000000000E+00  0.00000000000E+00  0.48996878438E+03  0.11064727536E+04  0.99207486849E+03 0.  0.
        5    1    3    3  502    0  0.28034526882E+03  0.38579237555E+03  0.39710007377E+03  0.62059631434E+03  0.46999998093E+01 0.  1.
       -5    1    3    3    0  502 -0.28034526882E+03 -0.38579237555E+03  0.92868710604E+02  0.48587643922E+03  0.46999998093E+01 0. -1.
</event>
<event>
 5   0  0.3640180E-03  0.1013476E+04  0.7818609E-02  0.9293887E-01
        1   -1    0    0  501    0  0.00000000000E+00  0.00000000000E+00  0.26779631011E+03  0.26779631016E+03  0.50400001928E-02 0. -1.
       -1   -1    0    0    0  501  0.00000000000E+00  0.00000000000E+00 -0.95887606496E+03  0.95887606497E+03  0.50400001928E-02 0.  1.
    10030    2    1    2    0    0  0.00000000000E+00  0.00000000000E+00 -0.69107975485E+03  0.12266723751E+04  0.10134761410E+04 0.  0.
        5    1    3    3  502    0 -0.22528682632E+03  0.43201610964E+03 -0.17708944911E+03  0.51843498732E+03  0.46999998093E+01 0. -1.
       -5    1    3    3    0  502  0.22528682632E+03 -0.43201610964E+03 -0.51399030574E+03  0.70823738781E+03  0.46999998093E+01 0.  1.
</event>
<event>
 5   0  0.3569359E-03  0.9985136E+03  0.7818609E-02  0.9310177E-01
       -1   -1    0    0    0  501  0.00000000000E+00  0.00000000000E+00  0.58123190017E+03  0.58123190019E+03  0.50400001928E-02 0. -1.
        1   -1    0    0  501    0  0.00000000000E+00  0.00000000000E+00 -0.42884318569E+03  0.42884318572E+03  0.50400001928E-02 0.  1.
    10030    2    1    2    0    0  0.00000000000E+00  0.00000000000E+00  0.15238871448E+03  0.10100750859E+04  0.99851357470E+03 0.  0.
        4    1    3    3  502    0 -0.33894489094E+03 -0.33820147260E+03 -0.66835332295E+02  0.48345883972E+03  0.12699999809E+01 0.  1.
       -4    1    3    3    0  502  0.33894489094E+03  0.33820147260E+03  0.21922404677E+03  0.52661624618E+03  0.12699999809E+01 0. -1.
</event>
<event>
 5   0  0.3466598E-03  0.1000044E+04  0.7818609E-02  0.9308497E-01
        1   -1    0    0  501    0  0.00000000000E+00  0.00000000000E+00  0.12653940268E+04  0.12653940268E+04  0.50400001928E-02 0. -1.
       -1   -1    0    0    0  501  0.00000000000E+00  0.00000000000E+00 -0.19758420438E+03  0.19758420444E+03  0.50400001928E-02 0.  1.
    10030    2    1    2    0    0  0.00000000000E+00  0.00000000000E+00  0.10678098224E+04  0.14629782312E+04  0.10000437432E+04 0.  0.
        3    1    3    3  502    0  0.17799717750E+03 -0.43576322138E+03  0.28715641266E+03  0.55139042052E+03  0.10100000352E+00 0.  1.
       -3    1    3    3    0  502 -0.17799717750E+03  0.43576322138E+03  0.78065340972E+03  0.91158781070E+03  0.10100000352E+00 0. -1.
</event>
<event>
 5   0  0.3466598E-03  0.9948765E+03  0.7818609E-02  0.9314182E-01
       -1   -1    0    0    0  501  0.00000000000E+00  0.00000000000E+00  0.21396940942E+03  0.21396940948E+03  0.50400001928E-02 0.  1.
        1   -1    0    0  501    0  0.00000000000E+00  0.00000000000E+00 -0.11564494853E+04  0.11564494853E+04  0.50400001928E-02 0. -1.
    10030    2    1    2    0    0  0.00000000000E+00  0.00000000000E+00 -0.94248007585E+03  0.13704188948E+04  0.99487650176E+03 0.  0.
        3    1    3    3  502    0  0.88436390834E+02 -0.16483013317E+03 -0.11061577964E+04  0.11218623128E+04  0.10100000352E+00 0. -1.
       -3    1    3    3    0  502 -0.88436390834E+02  0.16483013317E+03  0.16367772059E+03  0.24855658198E+03  0.10100000352E+00 0.  1.
</event>
<event>
 5   0  0.3569359E-03  0.9992747E+03  0.7818609E-02  0.9309341E-01
       -1   -1    0    0    0  501  0.00000000000E+00  0.00000000000E+00  0.53157478095E+03  0.53157478097E+03  0.50400001928E-02 0. -1.
        1   -1    0    0  501    0  0.00000000000E+00  0.00000000000E+00 -0.46961871018E+03  0.46961871021E+03  0.50400001928E-02 0.  1.
    10030    2    1    2    0    0  0.00000000000E+00  0.00000000000E+00  0.61956070767E+02  0.10011934912E+04  0.99927466298E+03 0.  0.
        4    1    3    3  502    0 -0.16326509572E+03  0.22145271523E+03  0.44883889471E+03  0.52645490108E+03  0.12699999809E+01 0. -1.
       -4    1    3    3    0  502  0.16326509572E+03 -0.22145271523E+03 -0.38688282394E+03  0.47473859010E+03  0.12699999809E+01 0.  1.
</event>
<event>
 5   0  0.3466598E-03  0.1007186E+04  0.7818609E-02  0.9300698E-01
        1   -1    0    0  501    0  0.00000000000E+00  0.00000000000E+00  0.19882798744E+03  0.19882798751E+03  0.50400001928E-02 0.  1.
       -1   -1    0    0    0  501  0.00000000000E+00  0.00000000000E+00 -0.12755051929E+04  0.12755051929E+04  0.50400001928E-02 0. -1.
    10030    2    1    2    0    0  0.00000000000E+00  0.00000000000E+00 -0.10766772055E+04  0.14743331804E+04  0.10071864386E+04 0.  0.
        3    1    3    3  502    0  0.10721955544E+03  0.49163372378E+03 -0.50883017940E+03  0.71561715539E+03  0.10100000352E+00 0.  1.
       -3    1    3    3    0  502 -0.10721955544E+03 -0.49163372378E+03 -0.56784702609E+03  0.75871602505E+03  0.10100000352E+00 0. -1.
</event>
<event>
 5   0  0.3608845E-03  0.1000800E+04  0.7818609E-02  0.9307668E-01
       -1   -1    0    0    0  501  0.00000000000E+00  0.00000000000E+00  0.24878359862E+03  0.24878359867E+03  0.50400001928E-02 0. -1.
        1   -1    0    0  501    0  0.00000000000E+00  0.00000000000E+00 -0.10064981049E+04  0.10064981049E+04  0.50400001928E-02 0.  1.
    10030    2    1    2    0    0  0.00000000000E+00  0.00000000000E+00 -0.75771450625E+03  0.12552817036E+04  0.10008001211E+04 0.  0.
        1    1    3    3  502    0  0.49997638873E+01 -0.18297920192E+03 -0.96299793466E+03  0.98024048486E+03  0.50400001928E-02 0.  1.
       -1    1    3    3    0  502 -0.49997638873E+01  0.18297920192E+03  0.20528342841E+03  0.27504121869E+03  0.50400001928E-02 0. -1.
</event>
<event>
 5   0  0.3640180E-03  0.1012204E+04  0.7818609E-02  0.9295260E-01
       -1   -1    0    0    0  501  0.00000000000E+00  0.00000000000E+00  0.24128744217E+03  0.24128744222E+03  0.50400001928E-02 0.  1.
        1   -1    0    0  501    0  0.00000000000E+00  0.00000000000E+00 -0.10615532092E+04  0.10615532092E+04  0.50400001928E-02 0. -1.
    10030    2    1    2    0    0  0.00000000000E+00  0.00000000000E+00 -0.82026576703E+03  0.13028406514E+04  0.10122044430E+04 0.  0.
        5    1    3    3  502    0 -0.26123172973E+03 -0.14386030259E+03 -0.93641020737E+03  0.98276343529E+03  0.46999998093E+01 0. -1.
       -5    1    3    3    0  502  0.26123172973E+03  0.14386030259E+03  0.11614444034E+03  0.32007721615E+03  0.46999998093E+01 0.  1.
</event>
<event>
 5   0  0.6376961E-03  0.1004448E+04  0.7818609E-02  0.9303680E-01
       -2   -1    0    0    0  501  0.00000000000E+00  0.00000000000E+00  0.19726300084E+03  0.19726300086E+03  0.25500000920E-02 0. -1.
        2   -1    0    0  501    0  0.00000000000E+00  0.00000000000E+00 -0.12786416952E+04  0.12786416952E+04  0.25500000920E-02 0.  1.
    10030    2    1    2    0    0  0.00000000000E+00  0.00000000000E+00 -0.10813786943E+04  0.14759046960E+04  0.10044475055E+04 0.  0.
        3    1    3    3  502    0  0.13337593699E+03 -0.45572948833E+03 -0.78101184457E+03  0.91403392643E+03  0.10100000352E+00 0.  1.
       -3    1    3    3    0  502 -0.13337593699E+03  0.45572948833E+03 -0.30036684975E+03  0.56187076960E+03  0.10100000352E+00 0. -1.
</event>
<event>
 5   0  0.6199539E-03  0.1001928E+04  0.7818609E-02  0.9306432E-01
        2   -1    0    0  501    0  0.00000000000E+00  0.00000000000E+00  0.10867340678E+04  0.10867340678E+04  0.25500000920E-02 0.  1.
       -2   -1    0    0    0  501  0.00000000000E+00  0.00000000000E+00 -0.23093519012E+03  0.23093519014E+03  0.25500000920E-02 0. -1.
    10030    2    1    2    0    0  0.00000000000E+00  0.00000000000E+00  0.85579887763E+03  0.13176692579E+04  0.10019284177E+04 0.  0.
        2    1    3    3  502    0 -0.49220163506E+03  0.76047309888E+02  0.49895918237E+03  0.70498645985E+03  0.25500000920E-02 0. -1.
       -2    1    3    3    0  502  0.49220163506E+03 -0.76047309888E+02  0.35683969525E+03  0.61268279804E+03  0.25500000920E-02 0.  1.
</event>
<event>
 5   0  0.3640180E-03  0.9996574E+03  0.7818609E-02  0.9308921E-01
        1   -1    0    0  501    0  0.00000000000E+00  0.00000000000E+00  0.13298612047E+04  0.13298612047E+04  0.50400001928E-02 0.  1.
       -1   -1    0    0    0  501  0.00000000000E+00  0.00000000000E+00 -0.18786074242E+03  0.18786074249E+03  0.50400001928E-02 0. -1.
    10030    2    1    2    0    0  0.00000000000E+00  0.00000000000E+00  0.11420004623E+04  0.15177219472E+04  0.99965736788E+03 0.  0.
        5    1    3    3  502    0 -0.14633490679E+03  0.20814907166E+03  0.12241385481E+04  0.12503108477E+04  0.46999998093E+01 0.  1.
       -5    1    3    3    0  502  0.14633490679E+03 -0.20814907166E+03 -0.82138085830E+02  0.26741109947E+03  0.46999998093E+01 0. -1.
</event>
<event>
 5   0  0.6376961E-03  0.9913851E+03  0.7818609E-02  0.9318044E-01
       -2   -1    0    0    0  501  0.00000000000E+00  0.00000000000E+00  0.12851007843E+03  0.12851007845E+03  0.25500000920E-02 0.  1.
        2   -1    0    0  501    0  0.00000000000E+00  0.00000000000E+00 -0.19119985698E+04  0.19119985698E+04  0.25500000920E-02 0. -1.
    10030    2    1    2    0    0  0.00000000000E+00  0.00000000000E+00 -0.17834884914E+04  0.20405086482E+04  0.99138506380E+03 0.  0.
        3    1    3    3  502    0 -0.12955848377E+03 -0.43718160671E+03 -0.12919008671E+04  0.13700076710E+04  0.10100000352E+00 0. -1.
       -3    1    3    3    0  502  0.12955848377E+03  0.43718160671E+03 -0.49158762425E+03  0.67050097724E+03  0.10100000352E+00 0.  1.
</event>
<event>
 5   0  0.6606947E-03  0.1030571E+04  0.7818609E-02  0.9275637E-01
        2   -1    0    0  501    0  0.00000000000E+00  0.00000000000E+00  0.23345605709E+04  0.23345605709E+04  0.25500000920E-02 0. -1.
       -2   -1    0    0    0  501  0.00000000000E+00  0.00000000000E+00 -0.11373404093E+03  0.11373404095E+03  0.25500000920E-02 0.  1.
    10030    2    1    2    0    0  0.00000000000E+00  0.00000000000E+00  0.22208265299E+04  0.24482946118E+04  0.10305707303E+04 0.  0.
        1    1    3    3  502    0  0.42029260071E+02 -0.38761400190E+03  0.31002818701E+03  0.49812503444E+03  0.50400001928E-02 0.  1.
       -1    1    3    3    0  502 -0.42029260071E+02  0.38761400190E+03  0.19107983429E+04  0.19501695774E+04  0.50400001928E-02 0. -1.
</event>
<event>
 5   0  0.6360455E-03  0.9994356E+03  0.7818609E-02  0.9309164E-01
       -2   -1    0    0    0  501  0.00000000000E+00  0.00000000000E+00  0.12206405826E+03  0.12206405829E+03  0.25500000920E-02 0.  1.
        2   -1    0    0  501    0  0.00000000000E+00  0.00000000000E+00 -0.20457935238E+04  0.20457935238E+04  0.25500000920E-02 0. -1.
    10030    2    1    2    0    0  0.00000000000E+00  0.00000000000E+00 -0.19237294655E+04  0.21678575821E+04  0.99943556053E+03 0.  0.
        4    1    3    3  502    0 -0.47428599835E+03 -0.12386703836E+03 -0.75127384951E+03  0.89705309836E+03  0.12699999809E+01 0.  1.
       -4    1    3    3    0  502  0.47428599835E+03  0.12386703836E+03 -0.11724556160E+04  0.12708044837E+04  0.12699999809E+01 0. -1.
</event>
<event>
 5   0  0.6199539E-03  0.1000123E+04  0.7818609E-02  0.9308410E-01
        2   -1    0    0  501    0  0.00000000000E+00  0.00000000000E+00  0.73384795065E+03  0.73384795066E+03  0.25500000920E-02 0. -1.
       -2   -1    0    0    0  501  0.00000000000E+00  0.00000000000E+00 -0.34075377643E+03  0.34075377644E+03  0.25500000920E-02 0.  1.
    10030    2    1    2    0    0  0.00000000000E+00  0.00000000000E+00  0.39309417422E+03  0.10746017271E+04  0.10001229135E+04 0.  0.
        2    1    3    3  502    0 -0.28227191876E+03  0.96518734512E+02 -0.23467302016E+03  0.37955859709E+03  0.25500000920E-02 0.  1.
       -2    1    3    3    0  502  0.28227191876E+03 -0.96518734512E+02  0.62776719437E+03  0.69504313001E+03  0.25500000920E-02 0. -1.
</event>
<event>
 5   0  0.3640180E-03  0.1069607E+04  0.7818609E-02  0.9235332E-01
       -1   -1    0    0    0  501  0.00000000000E+00  0.00000000000E+00  0.34440705829E+03  0.34440705833E+03  0.50400001928E-02 0. -1.
        1   -1    0    0  501    0  0.00000000000E+00  0.00000000000E+00 -0.83045602595E+03  0.83045602596E+03  0.50400001928E-02 0.  1.
    10030    2    1    2    0    0  0.00000000000E+00  0.00000000000E+00 -0.48604896765E+03  0.11748630843E+04  0.10696072494E+04 0.  0.
        5    1    3    3  502    0 -0.51577621425E+03 -0.13175081651E+03 -0.29913407288E+03  0.61064446644E+03  0.46999998093E+01 0.  1.
       -5    1    3    3    0  502  0.51577621425E+03  0.13175081651E+03 -0.18691489477E+03  0.56421861785E+03  0.46999998093E+01 0. -1.
</event>
<event>
 5   0  0.6199539E-03  0.9842420E+03  0.7818609E-02  0.9325999E-01
        2   -1    0    0  501    0  0.00000000000E+00  0.00000000000E+00  0.10220281146E+04  0.10220281146E+04  0.25500000920E-02 0. -1.
       -2   -1    0    0    0  501  0.00000000000E+00  0.00000000000E+00 -0.23696321698E+03  0.23696321700E+03  0.25500000920E-02 0.  1.
    10030    2    1    2    0    0  0.00000000000E+00  0.00000000000E+00  0.78506489760E+03  0.12589913316E+04  0.98424198221E+03 0.  0.
        2    1    3    3  502    0  0.17073213188E+03  0.46155463682E+03  0.39130136798E+03  0.62872800496E+03  0.25500000920E-02 0. -1.
       -2    1    3    3    0  502 -0.17073213188E+03 -0.46155463682E+03  0.39376352962E+03  0.63026332662E+03  0.25500000920E-02 0.  1.
</event>
<event>
 5   0  0.3640180E-03  0.9995686E+03  0.7818609E-02  0.9309018E-01
       -1   -1    0    0    0  501  0.00000000000E+00  0.00000000000E+00  0.23006723791E+03  0.23006723797E+03  0.50400001928E-02 0.  1.
        1   -1    0    0  501    0  0.00000000000E+00  0.00000000000E+00 -0.10857014713E+04  0.10857014713E+04  0.50400001928E-02 0. -1.
    10030    2    1    2    0    0  0.00000000000E+00  0.00000000000E+00 -0.85563423336E+03  0.13157687093E+04  0.99956858441E+03 0.  0.
        5    1    3    3  502    0  0.29396143061E+01 -0.34193619594E+03 -0.90757304228E+03  0.96986592914E+03  0.46999998093E+01 0. -1.
       -5    1    3    3    0  502 -0.29396143061E+01  0.34193619594E+03  0.51938808920E+02  0.34590278012E+03  0.46999998093E+01 0.  1.
</event>
<event>
 5   0  0.3643002E-03  0.9995332E+03  0.7818609E-02  0.9309057E-01
        1   -1    0    0  501    0  0.00000000000E+00  0.00000000000E+00  0.66828434748E+03  0.66828434750E+03  0.50400001928E-02 0. -1.
       -1   -1    0    0    0  501  0.00000000000E+00  0.00000000000E+00 -0.37374308800E+03  0.37374308804E+03  0.50400001928E-02 0.  1.
    10030    2    1    2    0    0  0.00000000000E+00  0.00000000000E+00  0.29454125947E+03  0.10420274355E+04  0.99953320249E+03 0.  0.
        2    1    3    3  502    0  0.70700714200E+02  0.45581686425E+03 -0.53258385422E+02  0.46433184292E+03  0.25500000920E-02 0.  1.
       -2    1    3    3    0  502 -0.70700714200E+02 -0.45581686425E+03  0.34779964489E+03  0.57769559261E+03  0.25500000920E-02 0. -1.
</event>
<event>
 5   0  0.3643002E-03  0.9941467E+03  0.7818609E-02  0.9314988E-01
       -1   -1    0    0    0  501  0.00000000000E+00  0.00000000000E+00  0.27103493808E+03  0.27103493812E+03  0.50400001928E-02 0. -1.
        1   -1    0    0  501    0  0.00000000000E+00  0.00000000000E+00 -0.91162378826E+03  0.91162378828E+03  0.50400001928E-02 0.  1.
    10030    2    1    2    0    0  0.00000000000E+00  0.00000000000E+00 -0.64058885019E+03  0.11826587264E+04  0.99414666330E+03 0.  0.
        2    1    3    3  502    0  0.38174894605E+03  0.65941873423E+02  0.50213735466E+02  0.39064306946E+03  0.25500000920E-02 0. -1.
       -2    1    3    3    0  502 -0.38174894605E+03 -0.65941873423E+02 -0.69080258565E+03  0.79201565694E+03  0.25500000920E-02 0.  1.
</event>
<event>
 5   0  0.3569359E-03  0.1008484E+04  0.7818609E-02  0.9299288E-01
        1   -1    0    0  501    0  0.00000000000E+00  0.00000000000E+00  0.91207341478E+03  0.91207341479E+03  0.50400001928E-02 0. -1.
       -1   -1    0    0    0  501  0.00000000000E+00  0.00000000000E+00 -0.27877163302E+03  0.27877163306E+03  0.50400001928E-02 0.  1.
    10030    2    1    2    0    0  0.00000000000E+00  0.00000000000E+00  0.63330178176E+03  0.11908450479E+04  0.10084843981E+04 0.  0.
        4    1    3    3  502    0  0.35580171885E+03  0.26430250682E+03  0.32741548799E+02  0.44443705985E+03  0.12699999809E+01 0.  1.
       -4    1    3    3    0  502 -0.35580171885E+03 -0.26430250682E+03  0.60056023296E+03  0.74640798801E+03  0.12699999809E+01 0. -1.
</event>
<event>
 5   0  0.6606947E-03  0.9916838E+03  0.7818609E-02  0.9317713E-01
       -2   -1    0    0    0  501  0.00000000000E+00  0.00000000000E+00  0.35257476319E+03  0.35257476319E+03  0.25500000920E-02 0. -1.
        2   -1    0    0  501    0  0.00000000000E+00  0.00000000000E+00 -0.69732503205E+03  0.69732503206E+03  0.25500000920E-02 0.  1.
    10030    2    1    2    0    0  0.00000000000E+00  0.00000000000E+00 -0.34475026887E+03  0.10498997953E+04  0.99168383681E+03 0.  0.
        1    1    3    3  502    0 -0.21103197316E+03 -0.52586212934E+02 -0.64413375736E+03  0.67985888306E+03  0.50400001928E-02 0.  1.
       -1    1    3    3    0  502  0.21103197316E+03  0.52586212934E+02  0.29938348849E+03  0.37004091219E+03  0.50400001928E-02 0. -1.
</event>
<event>
 5   0  0.6360455E-03  0.1008046E+04  0.7818609E-02  0.9299764E-01
        2   -1    0    0  501    0  0.00000000000E+00  0.00000000000E+00  0.82033663210E+03  0.82033663210E+03  0.25500000920E-02 0. -1.
       -2   -1    0    0    0  501  0.00000000000E+00  0.00000000000E+00 -0.30967691031E+03  0.30967691032E+03  0.25500000920E-02 0.  1.
    10030    2    1    2    0    0  0.00000000000E+00  0.00000000000E+00  0.51065972179E+03  0.11300135424E+04  0.10080462562E+04 0.  0.
        4    1    3    3  502    0  0.51448602074E+02  0.62735465028E+02  0.81296650771E+03  0.81700602983E+03  0.12699999809E+01 0. -1.
       -4    1    3    3    0  502 -0.51448602074E+02 -0.62735465028E+02 -0.30230678592E+03  0.31300751259E+03  0.12699999809E+01 0.  1.
</event>
<event>
 5   0  0.3466598E-03  0.9970762E+03  0.7818609E-02  0.9311757E-01
        1   -1    0    0  501    0  0.00000000000E+00  0.00000000000E+00  0.54175800043E+03  0.54175800045E+03  0.50400001928E-02 0.  1.
       -1   -1    0    0    0  501  0.00000000000E+00  0.00000000000E+00 -0.45876620372E+03  0.45876620374E+03  0.50400001928E-02 0. -1.
    10030    2    1    2    0    0  0.00000000000E+00  0.00000000000E+00  0.82991796712E+02  0.10005242042E+04  0.99707624827E+03 0.  0.
        3    1    3    3  502    0  0.23550430314E+03  0.34434151280E+03  0.31539932540E+03  0.52298192980E+03  0.10100000352E+00 0. -1.
       -3    1    3    3    0  502 -0.23550430314E+03 -0.34434151280E+03 -0.23240752869E+03  0.47754227439E+03  0.10100000352E+00 0.  1.
</event>
<event>
 5   0  0.6376961E-03  0.1005493E+04  0.7818609E-02  0.9302541E-01
        2   -1    0    0  501    0  0.00000000000E+00  0.00000000000E+00  0.92164725464E+03  0.92164725464E+03  0.25500000920E-02 0.  1.
       -2   -1    0    0    0  501  0.00000000000E+00  0.00000000000E+00 -0.27424153758E+03  0.27424153760E+03  0.25500000920E-02 0. -1.
    10030    2    1    2    0    0  0.00000000000E+00  0.00000000000E+00  0.64740571705E+03  0.11958887922E+04  0.10054928348E+04 0.  0.
        3    1    3    3  502    0  0.49969961967E+03 -0.50182690394E+02  0.35123683747E+03  0.61285017623E+03  0.10100000352E+00 0.  1.
       -3    1    3    3    0  502 -0.49969961967E+03  0.50182690394E+02  0.29616887959E+03  0.58303861600E+03  0.10100000352E+00 0. -1.
</event>
<event>
 5   0  0.3466598E-03  0.9964073E+03  0.7818609E-02  0.9312494E-01
        1   -1    0    0  501    0  0.00000000000E+00  0.00000000000E+00  0.62544381023E+03  0.62544381025E+03  0.50400001928E-02 0.  1.
       -1   -1    0    0    0  501  0.00000000000E+00  0.00000000000E+00 -0.39684920067E+03  0.39684920071E+03  0.50400001928E-02 0. -1.
    10030    2    1    2    0    0  0.00000000000E+00  0.00000000000E+00  0.22859460955E+03  0.10222930110E+04  0.99640729861E+03 0.  0.
        3    1    3    3  502    0 -0.20649882457E+03  0.27774355510E+03  0.48196963183E+03  0.59336159562E+03  0.10100000352E+00 0.  1.
       -3    1    3    3    0  502  0.20649882457E+03 -0.27774355510E+03 -0.25337502227E+03  0.42893141534E+03  0.10100000352E+00 0. -1.
</event>
<event>
 5   0  0.3643002E-03  0.1006067E+04  0.7818609E-02  0.9301916E-01
        1   -1    0    0  501    0  0.00000000000E+00  0.00000000000E+00  0.89375712985E+03  0.89375712986E+03  0.50400001928E-02 0.  1.
       -1   -1    0    0    0  501  0.00000000000E+00  0.00000000000E+00 -0.28312238517E+03  0.28312238521E+03  0.50400001928E-02 0. -1.
    10030    2    1    2    0    0  0.00000000000E+00  0.00000000000E+00  0.61063474468E+03  0.11768795151E+04  0.10060668972E+04 0.  0.
        2    1    3    3  502    0 -0.19007658673E+03  0.36937824024E+03  0.63715905279E+03  0.76061886102E+03  0.25500000920E-02 0.  1.
       -2    1    3    3    0  502  0.19007658673E+03 -0.36937824024E+03 -0.26524308110E+02  0.41626065405E+03  0.25500000920E-02 0. -1.
</event>
<event>
 5   0  0.6199539E-03  0.9993047E+03  0.7818609E-02  0.9309308E-01
        2   -1    0    0  501    0  0.00000000000E+00  0.00000000000E+00  0.62623432317E+03  0.62623432317E+03  0.25500000920E-02 0.  1.
       -2   -1    0    0    0  501  0.00000000000E+00  0.00000000000E+00 -0.39865662493E+03  0.39865662494E+03  0.25500000920E-02 0. -1.
    10030    2    1    2    0    0  0.00000000000E+00  0.00000000000E+00  0.22757769824E+03  0.10248909481E+04  0.99930468166E+03 0.  0.
        2    1    3    3  502    0  0.14301911329E+03  0.47433556286E+03  0.18028540367E+03  0.52721107703E+03  0.25500000920E-02 0. -1.
       -2    1    3    3    0  502 -0.14301911329E+03 -0.47433556286E+03  0.47292294568E+02  0.49767987109E+03  0.25500000920E-02 0.  1.
</event>
<event>
 5   0  0.3640180E-03  0.1002952E+04  0.7818609E-02  0.9305313E-01
       -1   -1    0    0    0  501  0.00000000000E+00  0.00000000000E+00  0.15069551160E+03  0.15069551169E+03  0.50400001928E-02 0.  1.
        1   -1    0    0  501    0  0.00000000000E+00  0.00000000000E+00 -0.16687850194E+04  0.16687850194E+04  0.50400001928E-02 0. -1.
    10030    2    1    2    0    0  0.00000000000E+00  0.00000000000E+00 -0.15180895078E+04  0.18194805311E+04  0.10029524661E+04 0.  0.
        5    1    3    3  502    0 -0.81185994601E+02 -0.17273983503E+03  0.82181188595E+02  0.20786066026E+03  0.46999998093E+01 0.  1.
       -5    1    3    3    0  502  0.81185994601E+02  0.17273983503E+03 -0.16002706964E+04  0.16116198708E+04  0.46999998093E+01 0. -1.
</event>
<event>
 5   0  0.3608845E-03  0.9908888E+03  0.7818609E-02  0.9318595E-01
       -1   -1    0    0    0  501  0.00000000000E+00  0.00000000000E+00  0.64078228169E+03  0.64078228171E+03  0.50400001928E-02 0. -1.
        1   -1    0    0  501    0  0.00000000000E+00  0.00000000000E+00 -0.38307103940E+03  0.38307103943E+03  0.50400001928E-02 0.  1.
    10030    2    1    2    0    0  0.00000000000E+00  0.00000000000E+00  0.25771124229E+03  0.10238533211E+04  0.99088876207E+03 0.  0.
        1    1    3    3  502    0 -0.98131508255E+02 -0.25981468598E+03  0.55278718902E+03  0.61863328421E+03  0.50400001928E-02 0. -1.
       -1    1    3    3    0  502  0.98131508255E+02  0.25981468598E+03 -0.29507594673E+03  0.40522003693E+03  0.50400001928E-02 0.  1.
</event>
<event>
 5   0  0.6360455E-03  0.1002029E+04  0.7818609E-02  0.9306323E-01
       -2   -1    0    0    0  501  0.00000000000E+00  0.00000000000E+00  0.16703015493E+03  0.16703015495E+03  0.25500000920E-02 0. -1.
        2   -1    0    0  501    0  0.00000000000E+00  0.00000000000E+00 -0.15028144825E+04  0.15028144825E+04  0.25500000920E-02 0.  1.
    10030    2    1    2    0    0  0.00000000000E+00  0.00000000000E+00 -0.13357843275E+04  0.16698446374E+04  0.10020286141E+04 0.  0.
        4    1    3    3  502    0  0.34024553733E+02  0.43582151608E+03 -0.10758038168E+04  0.11612293181E+04  0.12699999809E+01 0.  1.
       -4    1    3    3    0  502 -0.34024553733E+02 -0.43582151608E+03 -0.25998051071E+03  0.50861531926E+03  0.12699999809E+01 0. -1.
</event>
<event>
 5   0  0.3608845E-03  0.1003682E+04  0.7818609E-02  0.9304516E-01
        1   -1    0    0  501    0  0.00000000000E+00  0.00000000000E+00  0.34995118549E+03  0.34995118553E+03  0.50400001928E-02 0. -1.
       -1   -1    0    0    0  501  0.00000000000E+00  0.00000000000E+00 -0.71965534195E+03  0.71965534197E+03  0.50400001928E-02 0.  1.
    10030    2    1    2    0    0  0.00000000000E+00  0.00000000000E+00 -0.36970415646E+03  0.10696065275E+04  0.10036817027E+04 0.  0.
        1    1    3    3  502    0 -0.10486787933E+03  0.31185407606E+03 -0.58867985616E+03  0.67438431917E+03  0.50400001928E-02 0.  1.
       -1    1    3    3    0  502  0.10486787933E+03 -0.31185407606E+03  0.21897569970E+03  0.39522220833E+03  0.50400001928E-02 0. -1.
</event>
<event>
 5   0  0.6360455E-03  0.1005062E+04  0.7818609E-02  0.9303010E-01
       -2   -1    0    0    0  501  0.00000000000E+00  0.00000000000E+00  0.15343510519E+03  0.15343510521E+03  0.25500000920E-02 0. -1.
        2   -1    0    0  501    0  0.00000000000E+00  0.00000000000E+00 -0.16458905479E+04  0.16458905479E+04  0.25500000920E-02 0.  1.
    10030    2    1    2    0    0  0.00000000000E+00  0.00000000000E+00 -0.14924554427E+04  0.17993256531E+04  0.10050619670E+04 0.  0.
        4    1    3    3  502    0 -0.33336721272E+03 -0.18212466932E+03 -0.15725369277E+03  0.41113675399E+03  0.12699999809E+01 0. -1.
       -4    1    3    3    0  502  0.33336721272E+03  0.18212466932E+03 -0.13352017500E+04  0.13881888991E+04  0.12699999809E+01 0.  1.
</event>
<event>
 5   0  0.6022787E-03  0.9482814E+03  0.7818609E-02  0.9367162E-01
        2   -1    0    0  501    0  0.00000000000E+00  0.00000000000E+00  0.27825638648E+04  0.27825638648E+04  0.25500000920E-02 0.  1.
       -2   -1    0    0    0  501  0.00000000000E+00  0.00000000000E+00 -0.80792178375E+02  0.80792178416E+02  0.25500000920E-02 0. -1.
    10030    2    1    2    0    0  0.00000000000E+00  0.00000000000E+00  0.27017716864E+04  0.28633560432E+04  0.94828138475E+03 0.  0.
        5    1    3    3  502    0  0.45836716348E+03 -0.11336516773E+03  0.14802394225E+04  0.15537319446E+04  0.46999998093E+01 0.  1.
       -5    1    3    3    0  502 -0.45836716348E+03  0.11336516773E+03  0.12215322639E+04  0.13096240986E+04  0.46999998093E+01 0. -1.
</event>
<event>
 5   0  0.3569359E-03  0.1078668E+04  0.7818609E-02  0.9226236E-01
       -1   -1    0    0    0  501  0.00000000000E+00  0.00000000000E+00  0.57173205668E+03  0.57173205670E+03  0.50400001928E-02 0. -1.
        1   -1    0    0  501    0  0.00000000000E+00  0.00000000000E+00 -0.50877187185E+03  0.50877187187E+03  0.50400001928E-02 0.  1.
    10030    2    1    2    0    0  0.00000000000E+00  0.00000000000E+00  0.62960184826E+02  0.10805039286E+04  0.10786680466E+04 0.  0.
        4    1    3    3  502    0  0.34374642297E+02 -0.18405359431E+03  0.53812966449E+03  0.56977406953E+03  0.12699999809E+01 0. -1.
       -4    1    3    3    0  502 -0.34374642297E+02  0.18405359431E+03 -0.47516947966E+03  0.51072985904E+03  0.12699999809E+01 0.  1.
</event>
<event>
 5   0  0.6022787E-03  0.1000117E+04  0.7818609E-02  0.9308417E-01
       -2   -1    0    0    0  501  0.00000000000E+00  0.00000000000E+00  0.17579478687E+03  0.17579478689E+03  0.25500000920E-02 0.  1.
        2   -1    0    0  501    0  0.00000000000E+00  0.00000000000E+00 -0.14224443742E+04  0.14224443742E+04  0.25500000920E-02 0. -1.
    10030    2    1    2    0    0  0.00000000000E+00  0.00000000000E+00 -0.12466495873E+04  0.15982391611E+04  0.10001166044E+04 0.  0.
        5    1    3    3  502    0  0.10640775765E+03  0.34230398085E+03 -0.66198589455E+02  0.36455310922E+03  0.46999998093E+01 0.  1.
       -5    1    3    3    0  502 -0.10640775765E+03 -0.34230398085E+03 -0.11804509979E+04  0.12336860519E+04  0.46999998093E+01 0. -1.
</event>
<event>
 5   0  0.3643002E-03  0.9831113E+03  0.7818609E-02  0.9327264E-01
        1   -1    0    0  501    0  0.00000000000E+00  0.00000000000E+00  0.11292519392E+04  0.11292519392E+04  0.50400001928E-02 0.  1.
       -1   -1    0    0    0  501  0.00000000000E+00  0.00000000000E+00 -0.21397082493E+03  0.21397082499E+03  0.50400001928E-02 0. -1.
    10030    2    1    2    0    0  0.00000000000E+00  0.00000000000E+00  0.91528111425E+03  0.13432227642E+04  0.98311132436E+03 0.  0.
        2    1    3    3  502    0  0.32574716044E+03 -0.79947256282E+02  0.94860399831E+03  0.10061572054E+04  0.25500000920E-02 0.  1.
       -2    1    3    3    0  502 -0.32574716044E+03  0.79947256282E+02 -0.33322884056E+02  0.33706555880E+03  0.25500000920E-02 0. -1.
</event>
<event>
 5   0  0.6199539E-03  0.1050771E+04  0.7818609E-02  0.9254548E-01
       -2   -1    0    0    0  501  0.00000000000E+00  0.00000000000E+00  0.56412574688E+03  0.56412574689E+03  0.25500000920E-02 0.  1.
        2   -1    0    0  501    0  0.00000000000E+00  0.00000000000E+00 -0.48930607190E+03  0.48930607190E+03  0.25500000920E-02 0. -1.
    10030    2    1    2    0    0  0.00000000000E+00  0.00000000000E+00  0.74819674986E+02  0.10534318188E+04  0.10507714371E+04 0.  0.
        2    1    3    3  502    0  0.77196380087E+02  0.26687325763E+03 -0.40964465616E+03  0.49496399976E+03  0.25500000920E-02 0. -1.
       -2    1    3    3    0  502 -0.77196380087E+02 -0.26687325763E+03  0.48446433114E+03  0.55846781903E+03  0.25500000920E-02 0.  1.
</event>
<event>
 5   0  0.3466598E-03  0.1002656E+04  0.7818609E-02  0.9305637E-01
       -1   -1    0    0    0  501  0.00000000000E+00  0.00000000000E+00  0.12586381709E+03  0.12586381719E+03  0.50400001928E-02 0.  1.
        1   -1    0    0  501    0  0.00000000000E+00  0.00000000000E+00 -0.19968376684E+04  0.19968376684E+04  0.50400001928E-02 0. -1.
    10030    2    1    2    0    0  0.00000000000E+00  0.00000000000E+00 -0.18709738513E+04  0.21227014856E+04  0.10026556960E+04 0.  0.
        3    1    3    3  502    0 -0.10909259164E+03  0.24243007313E+03 -0.35650904867E+02  0.26822477724E+03  0.10100000352E+00 0.  1.
       -3    1    3    3    0  502  0.10909259164E+03 -0.24243007313E+03 -0.18353229464E+04  0.18544767083E+04  0.10100000352E+00 0. -1.
</event>
</LesHouchesEvents>
