<LesHouchesEvents version="3.0">
<header>
<!--
#*********************************************************************
#                                                                    *
#                        MadGraph5_aMC@NLO                           *
#                                                                    *
#                           Going Beyond                             *
#                                                                    *
#                   http://madgraph.hep.uiuc.edu                     *
#                   http://madgraph.phys.ucl.ac.be                   *
#                   http://amcatnlo.cern.ch                          *
#                                                                    *
#                     The MadGraph5_aMC@NLO team                     *
#                                                                    *
#....................................................................*
#                                                                    *
# This file contains all the information necessary to reproduce      *
# the events generated:                                              *
#                                                                    *
# 1. software version                                                *
# 2. proc_card          : code generation info including model       *
# 3. param_card         : model primary parameters in the LH format  *
# 4. run_card           : running parameters (collider and cuts)     *
# 5. pythia_card        : present only if pythia has been run        *
# 6. pgs_card           : present only if pgs has been run           *
# 7. delphes_cards      : present only if delphes has been run       *
#                                                                    *
#                                                                    *
#*********************************************************************
-->
<MGVersion>
#5.2.2.3
</MGVersion>
<MG5ProcCard>
#************************************************************
#*                     MadGraph5_aMC@NLO                    *
#*                                                          *
#*                *                       *                 *
#*                  *        * *        *                   *
#*                    * * * * 5 * * * *                     *
#*                  *        * *        *                   *
#*                *                       *                 *
#*                                                          *
#*                                                          *
#*         VERSION 2.2.3                 2015-02-10         *
#*                                                          *
#*    The MadGraph5_aMC@NLO Development Team - Find us at   *
#*    https://server06.fynu.ucl.ac.be/projects/madgraph     *
#*                                                          *
#************************************************************
#*                                                          *
#*               Command File for MadGraph5_aMC@NLO         *
#*                                                          *
#*     run as ./bin/mg5_aMC  filename                       *
#*                                                          *
#************************************************************
set group_subprocesses Auto
set ignore_six_quark_processes False
set loop_optimized_output True
set gauge unitary
set complex_mass_scheme False
import model sm
define p = g u c d s u~ c~ d~ s~
define j = g u c d s u~ c~ d~ s~
define l+ = e+ mu+
define l- = e- mu-
define vl = ve vm vt
define vl~ = ve~ vm~ vt~
import model Zprime_UFO
generate p p > zph, zph > j j
add process p p > zph, zph > b b~
output Dijet_signal
</MG5ProcCard>
<MGProcCard>
#*********************************************************************
#                        MadGraph/MadEvent                           *
#                   http://madgraph.hep.uiuc.edu                     *
#                                                                    *
#                          proc_card.dat                             *
#*********************************************************************
#                                                                    *
#            This Files is generated by MADGRAPH 5                   *
#                                                                    *
# WARNING: This Files is generated for MADEVENT (compatibility issue)*
#          This files is NOT a valid MG4 proc_card.dat               *
#          Running this in MG4 will NEVER reproduce the result of MG5*
#                                                                    *
#*********************************************************************
#*********************************************************************
# Process(es) requested : mg2 input                                  *
#*********************************************************************
# Begin PROCESS # This is TAG. Do not modify this line
p p > zph , zph > j j           #Process
# Be carefull the coupling are here in MG5 convention
          
end_coup           # End the couplings input

done               # this tells MG there are no more procs
# End PROCESS  # This is TAG. Do not modify this line
#*********************************************************************
# Model information                                                  *
#*********************************************************************
# Begin MODEL  # This is TAG. Do not modify this line
Zprime_UFO
# End   MODEL  # This is TAG. Do not modify this line
#*********************************************************************
# Start multiparticle definitions                                    *
#*********************************************************************
# Begin MULTIPARTICLES # This is TAG. Do not modify this line

# End  MULTIPARTICLES # This is TAG. Do not modify this line
</MGProcCard>
<MGRunCard>
#*********************************************************************
#                       MadGraph5_aMC@NLO                            *
#                                                                    *
#                     run_card.dat MadEvent                          *
#                                                                    *
#  This file is used to set the parameters of the run.               *
#                                                                    *
#  Some notation/conventions:                                        *
#                                                                    *
#   Lines starting with a '# ' are info or comments                  *
#                                                                    *
#   mind the format:   value    = variable     ! comment             *
#*********************************************************************
#
#*******************                                                 
# Running parameters
#*******************                                                 
#                                                                    
#*********************************************************************
# Tag name for the run (one word)                                    *
#*********************************************************************
  tag_1     = run_tag ! name of the run 
#*********************************************************************
# Run to generate the grid pack                                      *
#*********************************************************************
  .false.     = gridpack  !True = setting up the grid pack
#*********************************************************************
# Number of events and rnd seed                                      *
# Warning: Do not generate more than 1M events in a single run       *
# If you want to run Pythia, avoid more than 50k events in a run.    *
#*********************************************************************
  2000 = nevents ! Number of unweighted events requested 
 1371 = iseed   ! rnd seed (0=assigned automatically=default))
#*********************************************************************
# Collider type and energy                                           *
# lpp: 0=No PDF, 1=proton, -1=antiproton, 2=photon from proton,      *
#                                         3=photon from electron     *
#*********************************************************************
        1     = lpp1    ! beam 1 type 
        1     = lpp2    ! beam 2 type
     4000     = ebeam1  ! beam 1 total energy in GeV
     4000     = ebeam2  ! beam 2 total energy in GeV
#*********************************************************************
# Beam polarization from -100 (left-handed) to 100 (right-handed)    *
#*********************************************************************
        0     = polbeam1 ! beam polarization for beam 1
        0     = polbeam2 ! beam polarization for beam 2
#*********************************************************************
# PDF CHOICE: this automatically fixes also alpha_s and its evol.    *
#*********************************************************************
 'nn23lo1'    = pdlabel     ! PDF set                                     
 230000    = lhaid     ! if pdlabel=lhapdf, this is the lhapdf number
#*********************************************************************
# Renormalization and factorization scales                           *
#*********************************************************************
 F        = fixed_ren_scale  ! if .true. use fixed ren scale
 F        = fixed_fac_scale  ! if .true. use fixed fac scale
 91.1880  = scale            ! fixed ren scale
 91.1880  = dsqrt_q2fact1    ! fixed fact scale for pdf1
 91.1880  = dsqrt_q2fact2    ! fixed fact scale for pdf2
 1        = scalefact        ! scale factor for event-by-event scales
#*********************************************************************
# Matching - Warning! ickkw > 1 is still beta
#*********************************************************************
 0        = ickkw            ! 0 no matching, 1 MLM, 2 CKKW matching
 1        = highestmult      ! for ickkw=2, highest mult group
 1        = ktscheme         ! for ickkw=1, 1 Durham kT, 2 Pythia pTE
 1        = alpsfact         ! scale factor for QCD emission vx
 F        = chcluster        ! cluster only according to channel diag
 T        = pdfwgt           ! for ickkw=1, perform pdf reweighting
 5        = asrwgtflavor     ! highest quark flavor for a_s reweight
 T        = clusinfo         ! include clustering tag in output
 3.0      = lhe_version       ! Change the way clustering information pass to shower.        
#*********************************************************************
#**********************************************************
#
#**********************************************************
# Automatic ptj and mjj cuts if xqcut > 0
# (turn off for VBF and single top processes)
#**********************************************************
   T  = auto_ptj_mjj  ! Automatic setting of ptj and mjj
#**********************************************************
#                                                                    
#**********************************
# BW cutoff (M+/-bwcutoff*Gamma)
#**********************************
  15  = bwcutoff      ! (M+/-bwcutoff*Gamma)
#**********************************************************
# Apply pt/E/eta/dr/mij cuts on decay products or not
# (note that etmiss/ptll/ptheavy/ht/sorted cuts always apply)
#**********************************************************
   T  = cut_decays    ! Cut decay products 
#*************************************************************
# Number of helicities to sum per event (0 = all helicities)
# 0 gives more stable result, but longer run time (needed for
# long decay chains e.g.).
# Use >=2 if most helicities contribute, e.g. pure QCD.
#*************************************************************
   0  = nhel          ! Number of helicities used per event
#*******************                                                 
# Standard Cuts
#*******************                                                 
#                                                                    
#*********************************************************************
# Minimum and maximum pt's (for max, -1 means no cut)                *
#*********************************************************************
 20  = ptj       ! minimum pt for the jets 
  0  = ptb       ! minimum pt for the b 
 10  = pta       ! minimum pt for the photons 
 10  = ptl       ! minimum pt for the charged leptons 
  0  = misset    ! minimum missing Et (sum of neutrino's momenta)
  0  = ptheavy   ! minimum pt for one heavy final state
 1.0 = ptonium   ! minimum pt for the quarkonium states
 -1  = ptjmax    ! maximum pt for the jets
 -1  = ptbmax    ! maximum pt for the b
 -1  = ptamax    ! maximum pt for the photons
 -1  = ptlmax    ! maximum pt for the charged leptons
 -1  = missetmax ! maximum missing Et (sum of neutrino's momenta)
#*********************************************************************
# Minimum and maximum E's (in the center of mass frame)              *
#*********************************************************************
  0  = ej     ! minimum E for the jets 
  0  = eb     ! minimum E for the b 
  0  = ea     ! minimum E for the photons 
  0  = el     ! minimum E for the charged leptons 
 -1   = ejmax ! maximum E for the jets
 -1   = ebmax ! maximum E for the b
 -1   = eamax ! maximum E for the photons
 -1   = elmax ! maximum E for the charged leptons
#*********************************************************************
# Maximum and minimum absolute rapidity (for max, -1 means no cut)   *
#*********************************************************************
   5  = etaj    ! max rap for the jets 
  -1  = etab    ! max rap for the b
 2.5  = etaa    ! max rap for the photons 
 2.5  = etal    ! max rap for the charged leptons 
 0.6  = etaonium ! max rap for the quarkonium states
   0  = etajmin ! min rap for the jets
   0  = etabmin ! min rap for the b
   0  = etaamin ! min rap for the photons
   0  = etalmin ! main rap for the charged leptons
#*********************************************************************
# Minimum and maximum DeltaR distance                                *
#*********************************************************************
 0.4 = drjj    ! min distance between jets 
 0   = drbb    ! min distance between b's 
 0.4 = drll    ! min distance between leptons 
 0.4 = draa    ! min distance between gammas 
 0   = drbj    ! min distance between b and jet 
 0.4 = draj    ! min distance between gamma and jet 
 0.4 = drjl    ! min distance between jet and lepton 
 0   = drab    ! min distance between gamma and b 
 0   = drbl    ! min distance between b and lepton 
 0.4 = dral    ! min distance between gamma and lepton 
 -1  = drjjmax ! max distance between jets
 -1  = drbbmax ! max distance between b's
 -1  = drllmax ! max distance between leptons
 -1  = draamax ! max distance between gammas
 -1  = drbjmax ! max distance between b and jet
 -1  = drajmax ! max distance between gamma and jet
 -1  = drjlmax ! max distance between jet and lepton
 -1  = drabmax ! max distance between gamma and b
 -1  = drblmax ! max distance between b and lepton
 -1  = dralmax ! maxdistance between gamma and lepton
#*********************************************************************
# Minimum and maximum invariant mass for pairs                       *
# WARNING: for four lepton final state mmll cut require to have      *
#          different lepton masses for each flavor!                  *           
#*********************************************************************
 0   = mmjj    ! min invariant mass of a jet pair 
 0   = mmbb    ! min invariant mass of a b pair 
 0   = mmaa    ! min invariant mass of gamma gamma pair
 0   = mmll    ! min invariant mass of l+l- (same flavour) lepton pair
 -1  = mmjjmax ! max invariant mass of a jet pair
 -1  = mmbbmax ! max invariant mass of a b pair
 -1  = mmaamax ! max invariant mass of gamma gamma pair
 -1  = mmllmax ! max invariant mass of l+l- (same flavour) lepton pair
#*********************************************************************
# Minimum and maximum invariant mass for all letpons                 *
#*********************************************************************
 0   = mmnl    ! min invariant mass for all letpons (l+- and vl) 
 -1  = mmnlmax ! max invariant mass for all letpons (l+- and vl) 
#*********************************************************************
# Minimum and maximum pt for 4-momenta sum of leptons                *
#*********************************************************************
 0   = ptllmin  ! Minimum pt for 4-momenta sum of leptons(l and vl)
 -1  = ptllmax  ! Maximum pt for 4-momenta sum of leptons(l and vl)
#*********************************************************************
# Inclusive cuts                                                     *
#*********************************************************************
 0  = xptj ! minimum pt for at least one jet  
 0  = xptb ! minimum pt for at least one b 
 0  = xpta ! minimum pt for at least one photon 
 0  = xptl ! minimum pt for at least one charged lepton 
#*********************************************************************
# Control the pt's of the jets sorted by pt                          *
#*********************************************************************
 0   = ptj1min ! minimum pt for the leading jet in pt
 0   = ptj2min ! minimum pt for the second jet in pt
 0   = ptj3min ! minimum pt for the third jet in pt
 0   = ptj4min ! minimum pt for the fourth jet in pt
 -1  = ptj1max ! maximum pt for the leading jet in pt 
 -1  = ptj2max ! maximum pt for the second jet in pt
 -1  = ptj3max ! maximum pt for the third jet in pt
 -1  = ptj4max ! maximum pt for the fourth jet in pt
 0   = cutuse  ! reject event if fails any (0) / all (1) jet pt cuts
#*********************************************************************
# Control the pt's of leptons sorted by pt                           *
#*********************************************************************
 0   = ptl1min ! minimum pt for the leading lepton in pt
 0   = ptl2min ! minimum pt for the second lepton in pt
 0   = ptl3min ! minimum pt for the third lepton in pt
 0   = ptl4min ! minimum pt for the fourth lepton in pt
 -1  = ptl1max ! maximum pt for the leading lepton in pt 
 -1  = ptl2max ! maximum pt for the second lepton in pt
 -1  = ptl3max ! maximum pt for the third lepton in pt
 -1  = ptl4max ! maximum pt for the fourth lepton in pt
#*********************************************************************
# Control the Ht(k)=Sum of k leading jets                            *
#*********************************************************************
 0   = htjmin ! minimum jet HT=Sum(jet pt)
 -1  = htjmax ! maximum jet HT=Sum(jet pt)
 0   = ihtmin  !inclusive Ht for all partons (including b)
 -1  = ihtmax  !inclusive Ht for all partons (including b)
 0   = ht2min ! minimum Ht for the two leading jets
 0   = ht3min ! minimum Ht for the three leading jets
 0   = ht4min ! minimum Ht for the four leading jets
 -1  = ht2max ! maximum Ht for the two leading jets
 -1  = ht3max ! maximum Ht for the three leading jets
 -1  = ht4max ! maximum Ht for the four leading jets
#***********************************************************************
# Photon-isolation cuts, according to hep-ph/9801442                   *
# When ptgmin=0, all the other parameters are ignored                  *
# When ptgmin>0, pta and draj are not going to be used                 *
#***********************************************************************
   0 = ptgmin ! Min photon transverse momentum
 0.4 = R0gamma ! Radius of isolation code
 1.0 = xn ! n parameter of eq.(3.4) in hep-ph/9801442
 1.0 = epsgamma ! epsilon_gamma parameter of eq.(3.4) in hep-ph/9801442
 .true. = isoEM ! isolate photons from EM energy (photons and leptons)
#*********************************************************************
# WBF cuts                                                           *
#*********************************************************************
 0   = xetamin ! minimum rapidity for two jets in the WBF case  
 0   = deltaeta ! minimum rapidity for two jets in the WBF case 
#*********************************************************************
# KT DURHAM CUT                                                      *
#*********************************************************************
 -1    =  ktdurham        
 0.4  =  dparameter 
#*********************************************************************
# maximal pdg code for quark to be considered as a light jet         *
# (otherwise b cuts are applied)                                     *
#*********************************************************************
 4 = maxjetflavor    ! Maximum jet pdg code
#*********************************************************************
# Jet measure cuts                                                   *
#*********************************************************************
 0   = xqcut   ! minimum kt jet measure between partons
#*********************************************************************
#
#*********************************************************************
# Store info for systematics studies                                 *
# WARNING: If use_syst is T, matched Pythia output is                *
#          meaningful ONLY if plotted taking matchscale              *
#          reweighting into account!                                 *
#*********************************************************************
   F  = use_syst      ! Enable systematics studies
#
#**************************************
# Parameter of the systematics study
#  will be used by SysCalc (if installed)
#**************************************                                  
#
0.5 1 2 = sys_scalefact  # factorization/renormalization scale factor
0.5 1 2 = sys_alpsfact  # \alpha_s emission scale factors
30 50 = sys_matchscale # variation of merging scale
# PDF sets and number of members (0 or none for all members).
CT10nlo.LHgrid = sys_pdf # matching scales
# MSTW2008nlo68cl.LHgrid 1  = sys_pdf
</MGRunCard>
<slha>
######################################################################
## PARAM_CARD AUTOMATICALY GENERATED BY MG5 FOLLOWING UFO MODEL   ####
######################################################################
##                                                                  ##
##  Width set on Auto will be computed following the information    ##
##        present in the decay.py files of the model.               ##
##        See  arXiv:1402.1178 for more details.                    ##
##                                                                  ##
######################################################################

###################################
## INFORMATION FOR CKMBLOCK
###################################
Block ckmblock 
    1 2.277360e-01 # cabi 

###################################
## INFORMATION FOR FRBLOCK
###################################
Block frblock 
    1 6.000000e-01 # gz 

###################################
## INFORMATION FOR MASS
###################################
Block mass 
    1 5.040000e-03 # MD 
    2 2.550000e-03 # MU 
    3 1.010000e-01 # MS 
    4 1.270000e+00 # MC 
    5 4.700000e+00 # MB 
    6 1.720000e+02 # MT 
   11 5.110000e-04 # Me 
   13 1.056600e-01 # MM 
   15 1.777000e+00 # MTA 
   23 9.118760e+01 # MZ 
   25 1.200000e+02 # MH 
  10030 3.000000e+03 # MZph 
  10031 3.000000e+02 # MZpl 
## Dependent parameters, given by model restrictions.
## Those values should be edited following the 
## analytical expression. MG5 ignores those values 
## but they are important for interfacing the output of MG5
## to external program such as Pythia.
  12 0.000000 # ve : 0.0 
  14 0.000000 # vm : 0.0 
  16 0.000000 # vt : 0.0 
  21 0.000000 # g : 0.0 
  22 0.000000 # a : 0.0 
  24 79.824360 # w+ : cmath.sqrt(MZ__exp__2/2. + cmath.sqrt(MZ__exp__4/4. - (aEW*cmath.pi*MZ__exp__2)/(Gf*sqrt__2))) 

###################################
## INFORMATION FOR SMINPUTS
###################################
Block sminputs 
    1 1.279000e+02 # aEWM1 
    2 1.166370e-05 # Gf 
    3 1.184000e-01 # aS 

###################################
## INFORMATION FOR YUKAWA
###################################
Block yukawa 
    1 5.040000e-03 # ymdo 
    2 2.550000e-03 # ymup 
    3 1.010000e-01 # yms 
    4 1.270000e+00 # ymc 
    5 4.700000e+00 # ymb 
    6 1.720000e+02 # ymt 
   11 5.110000e-04 # yme 
   13 1.056600e-01 # ymm 
   15 1.777000e+00 # ymtau 

###################################
## INFORMATION FOR DECAY
###################################
DECAY   6 1.508336e+00 # WT 
DECAY  23 2.495200e+00 # WZ 
DECAY  24 2.085000e+00 # WW 
DECAY  25 5.753088e-03 # WH 
## Dependent parameters, given by model restrictions.
## Those values should be edited following the 
## analytical expression. MG5 ignores those values 
## but they are important for interfacing the output of MG5
## to external program such as Pythia.
DECAY  1 0.000000 # d : 0.0 
DECAY  2 0.000000 # u : 0.0 
DECAY  3 0.000000 # s : 0.0 
DECAY  4 0.000000 # c : 0.0 
DECAY  5 0.000000 # b : 0.0 
DECAY  11 0.000000 # e- : 0.0 
DECAY  12 0.000000 # ve : 0.0 
DECAY  13 0.000000 # mu- : 0.0 
DECAY  14 0.000000 # vm : 0.0 
DECAY  15 0.000000 # ta- : 0.0 
DECAY  16 0.000000 # vt : 0.0 
DECAY  21 0.000000 # g : 0.0 
DECAY  22 0.000000 # a : 0.0 
DECAY  10030 0.308725 # zph : (gz__exp__2*MZph*(5 + cmath.sqrt(1 - (4*MT__exp__2)/MZph__exp__2)))/(144.*cmath.pi) 
DECAY  10031 0.132629 # zpl : (5*gz__exp__2*MZpl)/(144.*cmath.pi) 
#===========================================================
# QUANTUM NUMBERS OF NEW STATE(S) (NON SM PDG CODE)
#===========================================================

Block QNUMBERS 10030  # zph 
        1 0  # 3 times electric charge
        2 3  # number of spin states (2S+1)
        3 1  # colour rep (1: singlet, 3: triplet, 8: octet)
        4 0  # Particle/Antiparticle distinction (0=own anti)
Block QNUMBERS 10031  # zpl 
        1 0  # 3 times electric charge
        2 3  # number of spin states (2S+1)
        3 1  # colour rep (1: singlet, 3: triplet, 8: octet)
        4 0  # Particle/Antiparticle distinction (0=own anti)
</slha>
## END BANNER##
<MGGenerationInfo>
#  Number of Events        :         3928
#  Integrated weight (pb)  :  0.43453E-03
#  Max wgt                 :  0.17239E-06
#  Average wgt             :  0.11062E-06
</MGGenerationInfo>
</header>
<init>
     2212     2212  0.40000000000E+04  0.40000000000E+04 0 0  247000  247000 2   1
  0.43467118284E-03  0.99099187790E-06  0.17239160000E-06   0
</init>
<event>
 5   0  0.1723916E-06  0.2979837E+04  0.7818609E-02  0.8249512E-01
        2   -1    0    0  501    0  0.00000000000E+00  0.00000000000E+00  0.18462268124E+04  0.18462268124E+04  0.25500000920E-02 0.  1.
       -2   -1    0    0    0  501  0.00000000000E+00  0.00000000000E+00 -0.12023747868E+04  0.12023747868E+04  0.25500000920E-02 0. -1.
    10030    2    1    2    0    0  0.00000000000E+00  0.00000000000E+00  0.64385202558E+03  0.30486015993E+04  0.29798366197E+04 0.  0.
        1    1    3    3  502    0 -0.35040242533E+03  0.87079784529E+03  0.15056863174E+04  0.17743060709E+04  0.50400001928E-02 0.  1.
       -1    1    3    3    0  502  0.35040242533E+03 -0.87079784529E+03 -0.86183429177E+03  0.12742955283E+04  0.50400001928E-02 0. -1.
</event>
<event>
 5   0  0.1723916E-06  0.2990331E+04  0.7818609E-02  0.8246497E-01
       -2   -1    0    0    0  501  0.00000000000E+00  0.00000000000E+00  0.12510737712E+04  0.12510737712E+04  0.25500000920E-02 0. -1.
        2   -1    0    0  501    0  0.00000000000E+00  0.00000000000E+00 -0.17868815199E+04  0.17868815199E+04  0.25500000920E-02 0.  1.
    10030    2    1    2    0    0  0.00000000000E+00  0.00000000000E+00 -0.53580774869E+03  0.30379552910E+04  0.29903314878E+04 0.  0.
        1    1    3    3  502    0 -0.73426478433E+03  0.27104818132E+03 -0.15621268042E+04  0.17472412662E+04  0.50400001928E-02 0.  1.
       -1    1    3    3    0  502  0.73426478433E+03 -0.27104818132E+03  0.10263190555E+04  0.12907140248E+04  0.50400001928E-02 0. -1.
</event>
<event>
 5   0  0.1635086E-06  0.2961621E+04  0.7818609E-02  0.8254776E-01
        2   -1    0    0  501    0  0.00000000000E+00  0.00000000000E+00  0.17485547508E+04  0.17485547508E+04  0.25500000920E-02 0.  1.
       -2   -1    0    0    0  501  0.00000000000E+00  0.00000000000E+00 -0.12540636856E+04  0.12540636856E+04  0.25500000920E-02 0. -1.
    10030    2    1    2    0    0  0.00000000000E+00  0.00000000000E+00  0.49449106519E+03  0.30026184364E+04  0.29616205126E+04 0.  0.
        3    1    3    3  502    0  0.82515573939E+03  0.12293949064E+04  0.27003276660E+03  0.15050619706E+04  0.10100000352E+00 0. -1.
       -3    1    3    3    0  502 -0.82515573939E+03 -0.12293949064E+04  0.22445829859E+03  0.14975564658E+04  0.10100000352E+00 0.  1.
</event>
<event>
 5   0  0.1723916E-06  0.3017756E+04  0.7818609E-02  0.8238679E-01
        2   -1    0    0  501    0  0.00000000000E+00  0.00000000000E+00  0.15829273871E+04  0.15829273871E+04  0.25500000920E-02 0. -1.
       -2   -1    0    0    0  501  0.00000000000E+00  0.00000000000E+00 -0.14382928249E+04  0.14382928249E+04  0.25500000920E-02 0.  1.
    10030    2    1    2    0    0  0.00000000000E+00  0.00000000000E+00  0.14463456223E+03  0.30212202121E+04  0.30177561885E+04 0.  0.
        1    1    3    3  502    0 -0.92965097724E+03 -0.11770105274E+04 -0.92517946284E+02  0.15027189663E+04  0.50400001928E-02 0.  1.
       -1    1    3    3    0  502  0.92965097724E+03  0.11770105274E+04  0.23715250851E+03  0.15185012458E+04  0.50400001928E-02 0. -1.
</event>
<event>
 5   0  0.1635086E-06  0.2999702E+04  0.7818609E-02  0.8243816E-01
        2   -1    0    0  501    0  0.00000000000E+00  0.00000000000E+00  0.17587271357E+04  0.17587271357E+04  0.25500000920E-02 0.  1.
       -2   -1    0    0    0  501  0.00000000000E+00  0.00000000000E+00 -0.12790801547E+04  0.12790801547E+04  0.25500000920E-02 0. -1.
    10030    2    1    2    0    0  0.00000000000E+00  0.00000000000E+00  0.47964698094E+03  0.30378072904E+04  0.29997019697E+04 0.  0.
        3    1    3    3  502    0  0.21143146725E+03  0.64047930843E+03 -0.11168342411E+04  0.13046975673E+04  0.10100000352E+00 0. -1.
       -3    1    3    3    0  502 -0.21143146725E+03 -0.64047930843E+03  0.15964812220E+04  0.17331097231E+04  0.10100000352E+00 0.  1.
</event>
<event>
 5   0  0.6291798E-07  0.3004418E+04  0.7818609E-02  0.8242470E-01
        1   -1    0    0  501    0  0.00000000000E+00  0.00000000000E+00  0.13673434845E+04  0.13673434845E+04  0.50400001928E-02 0. -1.
       -1   -1    0    0    0  501  0.00000000000E+00  0.00000000000E+00 -0.16503769421E+04  0.16503769421E+04  0.50400001928E-02 0.  1.
    10030    2    1    2    0    0  0.00000000000E+00  0.00000000000E+00 -0.28303345762E+03  0.30177204266E+04  0.30044181858E+04 0.  0.
        1    1    3    3  502    0 -0.24622367559E+03 -0.51473295961E+03 -0.15372937982E+04  0.16397708194E+04  0.50400001928E-02 0.  1.
       -1    1    3    3    0  502  0.24622367559E+03  0.51473295961E+03  0.12542603406E+04  0.13779496072E+04  0.50400001928E-02 0. -1.
</event>
<event>
 5   0  0.5887179E-07  0.2999011E+04  0.7818609E-02  0.8244013E-01
        1   -1    0    0  501    0  0.00000000000E+00  0.00000000000E+00  0.21508741421E+04  0.21508741421E+04  0.50400001928E-02 0.  1.
       -1   -1    0    0    0  501  0.00000000000E+00  0.00000000000E+00 -0.10453967486E+04  0.10453967486E+04  0.50400001928E-02 0. -1.
    10030    2    1    2    0    0  0.00000000000E+00  0.00000000000E+00  0.11054773935E+04  0.31962708906E+04  0.29990110601E+04 0.  0.
        3    1    3    3  502    0 -0.85742185938E+03 -0.14546432689E+03 -0.74915883858E+03  0.11478549956E+04  0.10100000352E+00 0. -1.
       -3    1    3    3    0  502  0.85742185938E+03  0.14546432689E+03  0.18546362321E+04  0.20484158950E+04  0.10100000352E+00 0.  1.
</event>
<event>
 5   0  0.1723916E-06  0.3000394E+04  0.7818609E-02  0.8243618E-01
        2   -1    0    0  501    0  0.00000000000E+00  0.00000000000E+00  0.16484450687E+04  0.16484450687E+04  0.25500000920E-02 0.  1.
       -2   -1    0    0    0  501  0.00000000000E+00  0.00000000000E+00 -0.13652813115E+04  0.13652813115E+04  0.25500000920E-02 0. -1.
    10030    2    1    2    0    0  0.00000000000E+00  0.00000000000E+00  0.28316375725E+03  0.30137263802E+04  0.30003941376E+04 0.  0.
        1    1    3    3  502    0  0.29939672604E+03  0.10120233129E+04  0.12125097469E+04  0.16074854499E+04  0.50400001928E-02 0. -1.
       -1    1    3    3    0  502 -0.29939672604E+03 -0.10120233129E+04 -0.92934598965E+03  0.14062409302E+04  0.50400001928E-02 0.  1.
</event>
<event>
 5   0  0.5931588E-07  0.2994042E+04  0.7818609E-02  0.8245434E-01
       -1   -1    0    0    0  501  0.00000000000E+00  0.00000000000E+00  0.10898831048E+04  0.10898831048E+04  0.50400001928E-02 0.  1.
        1   -1    0    0  501    0  0.00000000000E+00  0.00000000000E+00 -0.20562500769E+04  0.20562500769E+04  0.50400001928E-02 0. -1.
    10030    2    1    2    0    0  0.00000000000E+00  0.00000000000E+00 -0.96636697203E+03  0.31461331817E+04  0.29940422296E+04 0.  0.
        2    1    3    3  502    0 -0.11649931067E+03  0.13875061336E+04  0.94589918222E+02  0.13955975827E+04  0.25500000920E-02 0.  1.
       -2    1    3    3    0  502  0.11649931067E+03 -0.13875061336E+04 -0.10609568902E+04  0.17505355990E+04  0.25500000920E-02 0. -1.
</event>
<event>
 5   0  0.1723916E-06  0.2994451E+04  0.7818609E-02  0.8245317E-01
       -2   -1    0    0    0  501  0.00000000000E+00  0.00000000000E+00  0.83650059903E+03  0.83650059904E+03  0.25500000920E-02 0.  1.
        2   -1    0    0  501    0  0.00000000000E+00  0.00000000000E+00 -0.26798361277E+04  0.26798361277E+04  0.25500000920E-02 0. -1.
    10030    2    1    2    0    0  0.00000000000E+00  0.00000000000E+00 -0.18433355286E+04  0.35163367267E+04  0.29944512192E+04 0.  0.
        1    1    3    3  502    0 -0.12556230122E+04 -0.80211128136E+03 -0.10947019157E+04  0.18488763995E+04  0.50400001928E-02 0. -1.
       -1    1    3    3    0  502  0.12556230122E+04  0.80211128136E+03 -0.74863361291E+03  0.16674603272E+04  0.50400001928E-02 0.  1.
</event>
<event>
 5   0  0.5431625E-07  0.2986904E+04  0.7818609E-02  0.8247481E-01
        4   -1    0    0  501    0  0.00000000000E+00  0.00000000000E+00  0.19648781949E+04  0.19648786053E+04  0.12699999809E+01 0. -1.
       -4   -1    0    0    0  501  0.00000000000E+00  0.00000000000E+00 -0.11351322016E+04  0.11351329120E+04  0.12699999809E+01 0.  1.
    10030    2    1    2    0    0  0.00000000000E+00  0.00000000000E+00  0.82974599330E+03  0.31000115173E+04  0.29869035797E+04 0.  0.
        1    1    3    3  502    0  0.58934205539E+03 -0.11613869727E+04  0.11734788587E+04  0.17530534477E+04  0.50400001928E-02 0. -1.
       -1    1    3    3    0  502 -0.58934205539E+03  0.11613869727E+04 -0.34373286544E+03  0.13469580696E+04  0.50400001928E-02 0.  1.
</event>
<event>
 5   0  0.1560174E-06  0.2997663E+04  0.7818609E-02  0.8244398E-01
       -2   -1    0    0    0  501  0.00000000000E+00  0.00000000000E+00  0.10434041967E+04  0.10434041967E+04  0.25500000920E-02 0. -1.
        2   -1    0    0  501    0  0.00000000000E+00  0.00000000000E+00 -0.21530450303E+04  0.21530450303E+04  0.25500000920E-02 0.  1.
    10030    2    1    2    0    0  0.00000000000E+00  0.00000000000E+00 -0.11096408336E+04  0.31964492271E+04  0.29976632369E+04 0.  0.
        5    1    3    3  502    0  0.86312848012E+03  0.61074142173E+03 -0.16875638928E+04  0.19914542023E+04  0.46999998093E+01 0.  1.
       -5    1    3    3    0  502 -0.86312848012E+03 -0.61074142173E+03  0.57792305921E+03  0.12049950248E+04  0.46999998093E+01 0. -1.
</event>
<event>
 5   0  0.5916703E-07  0.2997269E+04  0.7818609E-02  0.8244511E-01
       -1   -1    0    0    0  501  0.00000000000E+00  0.00000000000E+00  0.15243180379E+04  0.15243180380E+04  0.50400001928E-02 0.  1.
        1   -1    0    0  501    0  0.00000000000E+00  0.00000000000E+00 -0.14733838087E+04  0.14733838087E+04  0.50400001928E-02 0. -1.
    10030    2    1    2    0    0  0.00000000000E+00  0.00000000000E+00  0.50934229211E+02  0.29977018467E+04  0.29972691014E+04 0.  0.
        5    1    3    3  502    0  0.97242368004E+03  0.18447172387E+03  0.11509054573E+04  0.15179733503E+04  0.46999998093E+01 0.  1.
       -5    1    3    3    0  502 -0.97242368004E+03 -0.18447172387E+03 -0.10999712281E+04  0.14797284964E+04  0.46999998093E+01 0. -1.
</event>
<event>
 5   0  0.6291798E-07  0.2987508E+04  0.7818609E-02  0.8247307E-01
        1   -1    0    0  501    0  0.00000000000E+00  0.00000000000E+00  0.25172176063E+04  0.25172176063E+04  0.50400001928E-02 0.  1.
       -1   -1    0    0    0  501  0.00000000000E+00  0.00000000000E+00 -0.88641556774E+03  0.88641556776E+03  0.50400001928E-02 0. -1.
    10030    2    1    2    0    0  0.00000000000E+00  0.00000000000E+00  0.16308020386E+04  0.34036331741E+04  0.29875079071E+04 0.  0.
        1    1    3    3  502    0  0.89980315854E+03  0.26616671752E+03 -0.50872977840E+03  0.10673782990E+04  0.50400001928E-02 0. -1.
       -1    1    3    3    0  502 -0.89980315854E+03 -0.26616671752E+03  0.21395318170E+04  0.23362548751E+04  0.50400001928E-02 0.  1.
</event>
<event>
 5   0  0.5887179E-07  0.3020860E+04  0.7818609E-02  0.8237799E-01
       -1   -1    0    0    0  501  0.00000000000E+00  0.00000000000E+00  0.11519750991E+04  0.11519750991E+04  0.50400001928E-02 0.  1.
        1   -1    0    0  501    0  0.00000000000E+00  0.00000000000E+00 -0.19804240498E+04  0.19804240498E+04  0.50400001928E-02 0. -1.
    10030    2    1    2    0    0  0.00000000000E+00  0.00000000000E+00 -0.82844895074E+03  0.31323991489E+04  0.30208602689E+04 0.  0.
        3    1    3    3  502    0 -0.13944084971E+03  0.11485757540E+04 -0.14210168837E+04  0.18324734670E+04  0.10100000352E+00 0. -1.
       -3    1    3    3    0  502  0.13944084971E+03 -0.11485757540E+04  0.59256793294E+03  0.12999256819E+04  0.10100000352E+00 0.  1.
</event>
<event>
 5   0  0.5887179E-07  0.3022004E+04  0.7818609E-02  0.8237475E-01
        1   -1    0    0  501    0  0.00000000000E+00  0.00000000000E+00  0.14533852889E+04  0.14533852889E+04  0.50400001928E-02 0. -1.
       -1   -1    0    0    0  501  0.00000000000E+00  0.00000000000E+00 -0.15709023701E+04  0.15709023701E+04  0.50400001928E-02 0.  1.
    10030    2    1    2    0    0  0.00000000000E+00  0.00000000000E+00 -0.11751708122E+03  0.30242876591E+04  0.30220035706E+04 0.  0.
        3    1    3    3  502    0 -0.76115518566E+03 -0.10964667709E+03  0.12428961949E+04  0.14615644262E+04  0.10100000352E+00 0. -1.
       -3    1    3    3    0  502  0.76115518566E+03  0.10964667709E+03 -0.13604132761E+04  0.15627232329E+04  0.10100000352E+00 0.  1.
</event>
<event>
 5   0  0.1723916E-06  0.2974862E+04  0.7818609E-02  0.8250946E-01
       -2   -1    0    0    0  501  0.00000000000E+00  0.00000000000E+00  0.20210168102E+04  0.20210168102E+04  0.25500000920E-02 0. -1.
        2   -1    0    0  501    0  0.00000000000E+00  0.00000000000E+00 -0.10947218033E+04  0.10947218033E+04  0.25500000920E-02 0.  1.
    10030    2    1    2    0    0  0.00000000000E+00  0.00000000000E+00  0.92629500692E+03  0.31157386135E+04  0.29748621258E+04 0.  0.
        1    1    3    3  502    0  0.86946532115E+03 -0.47504139972E+03 -0.69881174707E+03  0.12124240735E+04  0.50400001928E-02 0.  1.
       -1    1    3    3    0  502 -0.86946532115E+03  0.47504139972E+03  0.16251067540E+04  0.19033145400E+04  0.50400001928E-02 0. -1.
</event>
<event>
 5   0  0.5874741E-07  0.2956919E+04  0.7818609E-02  0.8256141E-01
       -1   -1    0    0    0  501  0.00000000000E+00  0.00000000000E+00  0.13231534997E+04  0.13231534997E+04  0.50400001928E-02 0. -1.
        1   -1    0    0  501    0  0.00000000000E+00  0.00000000000E+00 -0.16519942061E+04  0.16519942061E+04  0.50400001928E-02 0.  1.
    10030    2    1    2    0    0  0.00000000000E+00  0.00000000000E+00 -0.32884070636E+03  0.29751477058E+04  0.29569186091E+04 0.  0.
        4    1    3    3  502    0 -0.85447600293E+03 -0.49922994328E+03 -0.12695909439E+04  0.16097274781E+04  0.12699999809E+01 0.  1.
       -4    1    3    3    0  502  0.85447600293E+03  0.49922994328E+03  0.94075023757E+03  0.13654202277E+04  0.12699999809E+01 0. -1.
</event>
<event>
 5   0  0.6291798E-07  0.2999524E+04  0.7818609E-02  0.8243867E-01
        1   -1    0    0  501    0  0.00000000000E+00  0.00000000000E+00  0.19025912947E+04  0.19025912947E+04  0.50400001928E-02 0. -1.
       -1   -1    0    0    0  501  0.00000000000E+00  0.00000000000E+00 -0.11822223536E+04  0.11822223536E+04  0.50400001928E-02 0.  1.
    10030    2    1    2    0    0  0.00000000000E+00  0.00000000000E+00  0.72036894115E+03  0.30848136483E+04  0.29995239345E+04 0.  0.
        1    1    3    3  502    0 -0.96073925703E+03 -0.11296375954E+04  0.12979463585E+03  0.14886059466E+04  0.50400001928E-02 0.  1.
       -1    1    3    3    0  502  0.96073925703E+03  0.11296375954E+04  0.59057430530E+03  0.15962077017E+04  0.50400001928E-02 0. -1.
</event>
<event>
 5   0  0.1674806E-06  0.3017935E+04  0.7818609E-02  0.8238628E-01
        2   -1    0    0  501    0  0.00000000000E+00  0.00000000000E+00  0.12910538107E+04  0.12910538107E+04  0.25500000920E-02 0. -1.
       -2   -1    0    0    0  501  0.00000000000E+00  0.00000000000E+00 -0.17636619129E+04  0.17636619129E+04  0.25500000920E-02 0.  1.
    10030    2    1    2    0    0  0.00000000000E+00  0.00000000000E+00 -0.47260810220E+03  0.30547157236E+04  0.30179346801E+04 0.  0.
        2    1    3    3  502    0 -0.11355304798E+04 -0.22814471314E+03 -0.12153059766E+04  0.16788234265E+04  0.25500000920E-02 0.  1.
       -2    1    3    3    0  502  0.11355304798E+04  0.22814471314E+03  0.74269787437E+03  0.13758922971E+04  0.25500000920E-02 0. -1.
</event>
<event>
 5   0  0.5887179E-07  0.2997642E+04  0.7818609E-02  0.8244405E-01
        1   -1    0    0  501    0  0.00000000000E+00  0.00000000000E+00  0.23071947415E+04  0.23071947415E+04  0.50400001928E-02 0. -1.
       -1   -1    0    0    0  501  0.00000000000E+00  0.00000000000E+00 -0.97367782425E+03  0.97367782426E+03  0.50400001928E-02 0.  1.
    10030    2    1    2    0    0  0.00000000000E+00  0.00000000000E+00  0.13335169172E+04  0.32808725657E+04  0.29976419773E+04 0.  0.
        3    1    3    3  502    0  0.41810025216E+03  0.60215808175E+03  0.20975900844E+04  0.22220005285E+04  0.10100000352E+00 0. -1.
       -3    1    3    3    0  502 -0.41810025216E+03 -0.60215808175E+03 -0.76407316717E+03  0.10588720372E+04  0.10100000352E+00 0.  1.
</event>
<event>
 5   0  0.1635086E-06  0.2937576E+04  0.7818609E-02  0.8261784E-01
       -2   -1    0    0    0  501  0.00000000000E+00  0.00000000000E+00  0.15163707681E+04  0.15163707681E+04  0.25500000920E-02 0.  1.
        2   -1    0    0  501    0  0.00000000000E+00  0.00000000000E+00 -0.14226988085E+04  0.14226988085E+04  0.25500000920E-02 0. -1.
    10030    2    1    2    0    0  0.00000000000E+00  0.00000000000E+00  0.93671959596E+02  0.29390695767E+04  0.29375764740E+04 0.  0.
        3    1    3    3  502    0 -0.32887657802E+03 -0.67586605083E+03  0.13093744183E+04  0.15097735260E+04  0.10100000352E+00 0.  1.
       -3    1    3    3    0  502  0.32887657802E+03  0.67586605083E+03 -0.12157024587E+04  0.14292960507E+04  0.10100000352E+00 0. -1.
</event>
<event>
 5   0  0.6291798E-07  0.3007809E+04  0.7818609E-02  0.8241504E-01
        1   -1    0    0  501    0  0.00000000000E+00  0.00000000000E+00  0.12176255245E+04  0.12176255245E+04  0.50400001928E-02 0. -1.
       -1   -1    0    0    0  501  0.00000000000E+00  0.00000000000E+00 -0.18574914502E+04  0.18574914502E+04  0.50400001928E-02 0.  1.
    10030    2    1    2    0    0  0.00000000000E+00  0.00000000000E+00 -0.63986592566E+03  0.30751169747E+04  0.30078091704E+04 0.  0.
        1    1    3    3  502    0 -0.46290075978E+03  0.78859605301E+03  0.90075694461E+03  0.12835590838E+04  0.50400001928E-02 0. -1.
       -1    1    3    3    0  502  0.46290075978E+03 -0.78859605301E+03 -0.15406228703E+04  0.17915578910E+04  0.50400001928E-02 0.  1.
</event>
<event>
 5   0  0.1674806E-06  0.3006785E+04  0.7818609E-02  0.8241796E-01
       -2   -1    0    0    0  501  0.00000000000E+00  0.00000000000E+00  0.15085813774E+04  0.15085813774E+04  0.25500000920E-02 0.  1.
        2   -1    0    0  501    0  0.00000000000E+00  0.00000000000E+00 -0.14982218738E+04  0.14982218738E+04  0.25500000920E-02 0. -1.
    10030    2    1    2    0    0  0.00000000000E+00  0.00000000000E+00  0.10359503619E+02  0.30068032512E+04  0.30067854050E+04 0.  0.
        2    1    3    3  502    0 -0.47731500183E+03 -0.47474966986E+03  0.13494245985E+04  0.15080330258E+04  0.25500000920E-02 0.  1.
       -2    1    3    3    0  502  0.47731500183E+03  0.47474966986E+03 -0.13390650949E+04  0.14987702253E+04  0.25500000920E-02 0. -1.
</event>
<event>
 5   0  0.5931588E-07  0.2997352E+04  0.7818609E-02  0.8244488E-01
       -1   -1    0    0    0  501  0.00000000000E+00  0.00000000000E+00  0.10406617029E+04  0.10406617029E+04  0.50400001928E-02 0. -1.
        1   -1    0    0  501    0  0.00000000000E+00  0.00000000000E+00 -0.21582701672E+04  0.21582701672E+04  0.50400001928E-02 0.  1.
    10030    2    1    2    0    0  0.00000000000E+00  0.00000000000E+00 -0.11176084643E+04  0.31989318701E+04  0.29973515693E+04 0.  0.
        2    1    3    3  502    0 -0.88313203270E+02  0.39688477066E+03  0.98067320749E+03  0.10616198392E+04  0.25500000920E-02 0. -1.
       -2    1    3    3    0  502  0.88313203270E+02 -0.39688477066E+03 -0.20982816718E+04  0.21373120309E+04  0.25500000920E-02 0.  1.
</event>
<event>
 5   0  0.1635086E-06  0.3004609E+04  0.7818609E-02  0.8242416E-01
        2   -1    0    0  501    0  0.00000000000E+00  0.00000000000E+00  0.15609719147E+04  0.15609719147E+04  0.25500000920E-02 0. -1.
       -2   -1    0    0    0  501  0.00000000000E+00  0.00000000000E+00 -0.14458417209E+04  0.14458417209E+04  0.25500000920E-02 0.  1.
    10030    2    1    2    0    0  0.00000000000E+00  0.00000000000E+00  0.11513019378E+03  0.30068136355E+04  0.30046086729E+04 0.  0.
        3    1    3    3  502    0 -0.49203492287E+03 -0.14178609686E+04 -0.94931644345E+01  0.15008391726E+04  0.10100000352E+00 0. -1.
       -3    1    3    3    0  502  0.49203492287E+03  0.14178609686E+04  0.12462335822E+03  0.15059744630E+04  0.10100000352E+00 0.  1.
</event>
<event>
 5   0  0.1560174E-06  0.3001771E+04  0.7818609E-02  0.8243225E-01
        2   -1    0    0  501    0  0.00000000000E+00  0.00000000000E+00  0.23206763869E+04  0.23206763869E+04  0.25500000920E-02 0. -1.
       -2   -1    0    0    0  501  0.00000000000E+00  0.00000000000E+00 -0.97068982694E+03  0.97068982695E+03  0.25500000920E-02 0.  1.
    10030    2    1    2    0    0  0.00000000000E+00  0.00000000000E+00  0.13499865599E+04  0.32913662138E+04  0.30017707843E+04 0.  0.
        5    1    3    3  502    0  0.30044230925E+03 -0.29257656422E+03  0.22551228393E+04  0.22937889479E+04  0.46999998093E+01 0. -1.
       -5    1    3    3    0  502 -0.30044230925E+03  0.29257656422E+03 -0.90513627941E+03  0.99757726589E+03  0.46999998093E+01 0.  1.
</event>
<event>
 5   0  0.5931588E-07  0.3000857E+04  0.7818609E-02  0.8243486E-01
        1   -1    0    0  501    0  0.00000000000E+00  0.00000000000E+00  0.22315979361E+04  0.22315979361E+04  0.50400001928E-02 0.  1.
       -1   -1    0    0    0  501  0.00000000000E+00  0.00000000000E+00 -0.10088224602E+04  0.10088224602E+04  0.50400001928E-02 0. -1.
    10030    2    1    2    0    0  0.00000000000E+00  0.00000000000E+00  0.12227754759E+04  0.32404203963E+04  0.30008572909E+04 0.  0.
        2    1    3    3  502    0  0.28499201223E+03  0.10866331854E+03 -0.97499395652E+03  0.10215876757E+04  0.25500000920E-02 0. -1.
       -2    1    3    3    0  502 -0.28499201223E+03 -0.10866331854E+03  0.21977694324E+04  0.22188327206E+04  0.25500000920E-02 0.  1.
</event>
<event>
 5   0  0.1635086E-06  0.2999465E+04  0.7818609E-02  0.8243884E-01
       -2   -1    0    0    0  501  0.00000000000E+00  0.00000000000E+00  0.10483514431E+04  0.10483514431E+04  0.25500000920E-02 0.  1.
        2   -1    0    0  501    0  0.00000000000E+00  0.00000000000E+00 -0.21454621205E+04  0.21454621205E+04  0.25500000920E-02 0. -1.
    10030    2    1    2    0    0  0.00000000000E+00  0.00000000000E+00 -0.10971106773E+04  0.31938135636E+04  0.29994654925E+04 0.  0.
        3    1    3    3  502    0  0.79656905173E+01  0.60914167710E+03 -0.20077824206E+04  0.20981676038E+04  0.10100000352E+00 0. -1.
       -3    1    3    3    0  502 -0.79656905173E+01 -0.60914167710E+03  0.91067174324E+03  0.10956459598E+04  0.10100000352E+00 0.  1.
</event>
<event>
 5   0  0.1723916E-06  0.3000483E+04  0.7818609E-02  0.8243593E-01
       -2   -1    0    0    0  501  0.00000000000E+00  0.00000000000E+00  0.15497235494E+04  0.15497235494E+04  0.25500000920E-02 0.  1.
        2   -1    0    0  501    0  0.00000000000E+00  0.00000000000E+00 -0.14523396318E+04  0.14523396318E+04  0.25500000920E-02 0. -1.
    10030    2    1    2    0    0  0.00000000000E+00  0.00000000000E+00  0.97383917637E+02  0.30020631813E+04  0.30004832472E+04 0.  0.
        1    1    3    3  502    0 -0.84169945109E+03 -0.67319570614E+03  0.10928287948E+04  0.15349023420E+04  0.50400001928E-02 0.  1.
       -1    1    3    3    0  502  0.84169945109E+03  0.67319570614E+03 -0.99544487717E+03  0.14671608393E+04  0.50400001928E-02 0. -1.
</event>
<event>
 5   0  0.5916703E-07  0.2997957E+04  0.7818609E-02  0.8244315E-01
        1   -1    0    0  501    0  0.00000000000E+00  0.00000000000E+00  0.10879968355E+04  0.10879968355E+04  0.50400001928E-02 0.  1.
       -1   -1    0    0    0  501  0.00000000000E+00  0.00000000000E+00 -0.20652044295E+04  0.20652044295E+04  0.50400001928E-02 0. -1.
    10030    2    1    2    0    0  0.00000000000E+00  0.00000000000E+00 -0.97720759398E+03  0.31532012651E+04  0.29979565601E+04 0.  0.
        5    1    3    3  502    0 -0.13499519695E+04  0.31542069853E+03  0.11105418301E+03  0.13907608200E+04  0.46999998093E+01 0.  1.
       -5    1    3    3    0  502  0.13499519695E+04 -0.31542069853E+03 -0.10882617770E+04  0.17624404450E+04  0.46999998093E+01 0. -1.
</event>
<event>
 5   0  0.1635086E-06  0.2990461E+04  0.7818609E-02  0.8246460E-01
        2   -1    0    0  501    0  0.00000000000E+00  0.00000000000E+00  0.16253806131E+04  0.16253806131E+04  0.25500000920E-02 0.  1.
       -2   -1    0    0    0  501  0.00000000000E+00  0.00000000000E+00 -0.13755019001E+04  0.13755019001E+04  0.25500000920E-02 0. -1.
    10030    2    1    2    0    0  0.00000000000E+00  0.00000000000E+00  0.24987871301E+03  0.30008825133E+04  0.29904609155E+04 0.  0.
        3    1    3    3  502    0 -0.33571320579E+02  0.99380717451E+03  0.12454930242E+04  0.15937479779E+04  0.10100000352E+00 0.  1.
       -3    1    3    3    0  502  0.33571320579E+02 -0.99380717451E+03 -0.99561431119E+03  0.14071345353E+04  0.10100000352E+00 0. -1.
</event>
<event>
 5   0  0.5874741E-07  0.3005468E+04  0.7818609E-02  0.8242171E-01
       -1   -1    0    0    0  501  0.00000000000E+00  0.00000000000E+00  0.11190704173E+04  0.11190704173E+04  0.50400001928E-02 0.  1.
        1   -1    0    0  501    0  0.00000000000E+00  0.00000000000E+00 -0.20179329044E+04  0.20179329044E+04  0.50400001928E-02 0. -1.
    10030    2    1    2    0    0  0.00000000000E+00  0.00000000000E+00 -0.89886248712E+03  0.31370033217E+04  0.30054676957E+04 0.  0.
        4    1    3    3  502    0 -0.81357032270E+03  0.65736576224E+03  0.67676264380E+03  0.12458072501E+04  0.12699999809E+01 0. -1.
       -4    1    3    3    0  502  0.81357032270E+03 -0.65736576224E+03 -0.15756251309E+04  0.18911960717E+04  0.12699999809E+01 0.  1.
</event>
<event>
 5   0  0.6291798E-07  0.2959215E+04  0.7818609E-02  0.8255474E-01
       -1   -1    0    0    0  501  0.00000000000E+00  0.00000000000E+00  0.97502409698E+03  0.97502409699E+03  0.50400001928E-02 0.  1.
        1   -1    0    0  501    0  0.00000000000E+00  0.00000000000E+00 -0.22453175905E+04  0.22453175905E+04  0.50400001928E-02 0. -1.
    10030    2    1    2    0    0  0.00000000000E+00  0.00000000000E+00 -0.12702934935E+04  0.32203416875E+04  0.29592152717E+04 0.  0.
        1    1    3    3  502    0  0.13530057022E+04 -0.58314935367E+03 -0.78336814237E+03  0.16686381409E+04  0.50400001928E-02 0. -1.
       -1    1    3    3    0  502 -0.13530057022E+04  0.58314935367E+03 -0.48692535111E+03  0.15517035466E+04  0.50400001928E-02 0.  1.
</event>
<event>
 5   0  0.5887179E-07  0.2995017E+04  0.7818609E-02  0.8245155E-01
        1   -1    0    0  501    0  0.00000000000E+00  0.00000000000E+00  0.12492830958E+04  0.12492830958E+04  0.50400001928E-02 0.  1.
       -1   -1    0    0    0  501  0.00000000000E+00  0.00000000000E+00 -0.17950548831E+04  0.17950548831E+04  0.50400001928E-02 0. -1.
    10030    2    1    2    0    0  0.00000000000E+00  0.00000000000E+00 -0.54577178733E+03  0.30443379789E+04  0.29950170093E+04 0.  0.
        3    1    3    3  502    0  0.27805815231E+03 -0.34144947651E+03 -0.17277588977E+04  0.17829904374E+04  0.10100000352E+00 0. -1.
       -3    1    3    3    0  502 -0.27805815231E+03  0.34144947651E+03  0.11819871104E+04  0.12613475415E+04  0.10100000352E+00 0.  1.
</event>
<event>
 5   0  0.1625212E-06  0.2993061E+04  0.7818609E-02  0.8245715E-01
       -2   -1    0    0    0  501  0.00000000000E+00  0.00000000000E+00  0.12308094022E+04  0.12308094022E+04  0.25500000920E-02 0.  1.
        2   -1    0    0  501    0  0.00000000000E+00  0.00000000000E+00 -0.18196180679E+04  0.18196180679E+04  0.25500000920E-02 0. -1.
    10030    2    1    2    0    0  0.00000000000E+00  0.00000000000E+00 -0.58880866569E+03  0.30504274702E+04  0.29930606586E+04 0.  0.
        4    1    3    3  502    0  0.16239746027E+02  0.54212573478E+03  0.11271184088E+04  0.12508243530E+04  0.12699999809E+01 0.  1.
       -4    1    3    3    0  502 -0.16239746027E+02 -0.54212573478E+03 -0.17159270745E+04  0.17996031172E+04  0.12699999809E+01 0. -1.
</event>
<event>
 5   0  0.1625212E-06  0.3000838E+04  0.7818609E-02  0.8243492E-01
        2   -1    0    0  501    0  0.00000000000E+00  0.00000000000E+00  0.22359577002E+04  0.22359577002E+04  0.25500000920E-02 0.  1.
       -2   -1    0    0    0  501  0.00000000000E+00  0.00000000000E+00 -0.10068424046E+04  0.10068424046E+04  0.25500000920E-02 0. -1.
    10030    2    1    2    0    0  0.00000000000E+00  0.00000000000E+00  0.12291152956E+04  0.32428001047E+04  0.30008379012E+04 0.  0.
        4    1    3    3  502    0 -0.99505643793E+03 -0.29524930598E+03 -0.55629351714E+03  0.11776135009E+04  0.12699999809E+01 0. -1.
       -4    1    3    3    0  502  0.99505643793E+03  0.29524930598E+03  0.17854088127E+04  0.20651866039E+04  0.12699999809E+01 0.  1.
</event>
<event>
 5   0  0.5931588E-07  0.3007284E+04  0.7818609E-02  0.8241654E-01
       -1   -1    0    0    0  501  0.00000000000E+00  0.00000000000E+00  0.15832167847E+04  0.15832167848E+04  0.50400001928E-02 0. -1.
        1   -1    0    0  501    0  0.00000000000E+00  0.00000000000E+00 -0.14280664112E+04  0.14280664112E+04  0.50400001928E-02 0.  1.
    10030    2    1    2    0    0  0.00000000000E+00  0.00000000000E+00  0.15515037356E+03  0.30112831960E+04  0.30072836328E+04 0.  0.
        2    1    3    3  502    0 -0.12952096578E+04 -0.28035317416E+02  0.84186265424E+03  0.15450199886E+04  0.25500000920E-02 0. -1.
       -2    1    3    3    0  502  0.12952096578E+04  0.28035317416E+02 -0.68671228068E+03  0.14662632073E+04  0.25500000920E-02 0.  1.
</event>
<event>
 5   0  0.5887179E-07  0.3048087E+04  0.7818609E-02  0.8230131E-01
        1   -1    0    0  501    0  0.00000000000E+00  0.00000000000E+00  0.94692244480E+03  0.94692244481E+03  0.50400001928E-02 0. -1.
       -1   -1    0    0    0  501  0.00000000000E+00  0.00000000000E+00 -0.24529034248E+04  0.24529034248E+04  0.50400001928E-02 0.  1.
    10030    2    1    2    0    0  0.00000000000E+00  0.00000000000E+00 -0.15059809800E+04  0.33998258696E+04  0.30480874711E+04 0.  0.
        3    1    3    3  502    0 -0.11168258361E+04 -0.58954512853E+03 -0.17045785094E+04  0.21214267161E+04  0.10100000352E+00 0.  1.
       -3    1    3    3    0  502  0.11168258361E+04  0.58954512853E+03  0.19859752940E+03  0.12783991535E+04  0.10100000352E+00 0. -1.
</event>
<event>
 5   0  0.5916703E-07  0.3008216E+04  0.7818609E-02  0.8241389E-01
        1   -1    0    0  501    0  0.00000000000E+00  0.00000000000E+00  0.20113733784E+04  0.20113733784E+04  0.50400001928E-02 0. -1.
       -1   -1    0    0    0  501  0.00000000000E+00  0.00000000000E+00 -0.11247738411E+04  0.11247738411E+04  0.50400001928E-02 0.  1.
    10030    2    1    2    0    0  0.00000000000E+00  0.00000000000E+00  0.88659953736E+03  0.31361472195E+04  0.30082155247E+04 0.  0.
        5    1    3    3  502    0  0.20356466017E+03 -0.12998738048E+04  0.12031353553E+04  0.17828817270E+04  0.46999998093E+01 0. -1.
       -5    1    3    3    0  502 -0.20356466017E+03  0.12998738048E+04 -0.31653581799E+03  0.13532654925E+04  0.46999998093E+01 0.  1.
</event>
<event>
 5   0  0.1674806E-06  0.3012572E+04  0.7818609E-02  0.8240150E-01
       -2   -1    0    0    0  501  0.00000000000E+00  0.00000000000E+00  0.13209842640E+04  0.13209842640E+04  0.25500000920E-02 0. -1.
        2   -1    0    0  501    0  0.00000000000E+00  0.00000000000E+00 -0.17175812375E+04  0.17175812375E+04  0.25500000920E-02 0.  1.
    10030    2    1    2    0    0  0.00000000000E+00  0.00000000000E+00 -0.39659697350E+03  0.30385655014E+04  0.30125721812E+04 0.  0.
        2    1    3    3  502    0 -0.74293714507E+03  0.10987658215E+04 -0.91836008504E+03  0.16132659972E+04  0.25500000920E-02 0.  1.
       -2    1    3    3    0  502  0.74293714507E+03 -0.10987658215E+04  0.52176311155E+03  0.14252995042E+04  0.25500000920E-02 0. -1.
</event>
<event>
 5   0  0.1635086E-06  0.2997490E+04  0.7818609E-02  0.8244448E-01
        2   -1    0    0  501    0  0.00000000000E+00  0.00000000000E+00  0.21214792802E+04  0.21214792802E+04  0.25500000920E-02 0.  1.
       -2   -1    0    0    0  501  0.00000000000E+00  0.00000000000E+00 -0.10588064138E+04  0.10588064138E+04  0.25500000920E-02 0. -1.
    10030    2    1    2    0    0  0.00000000000E+00  0.00000000000E+00  0.10626728663E+04  0.31802856940E+04  0.29974895287E+04 0.  0.
        3    1    3    3  502    0 -0.18135380071E+03  0.97092584063E+03 -0.66463656594E+03  0.11905158395E+04  0.10100000352E+00 0. -1.
       -3    1    3    3    0  502  0.18135380071E+03 -0.97092584063E+03  0.17273094323E+04  0.19897698546E+04  0.10100000352E+00 0.  1.
</event>
<event>
 5   0  0.1723916E-06  0.3002703E+04  0.7818609E-02  0.8242959E-01
       -2   -1    0    0    0  501  0.00000000000E+00  0.00000000000E+00  0.95559337643E+03  0.95559337643E+03  0.25500000920E-02 0.  1.
        2   -1    0    0  501    0  0.00000000000E+00  0.00000000000E+00 -0.23588028671E+04  0.23588028671E+04  0.25500000920E-02 0. -1.
    10030    2    1    2    0    0  0.00000000000E+00  0.00000000000E+00 -0.14032094906E+04  0.33143962435E+04  0.30027030463E+04 0.  0.
        1    1    3    3  502    0  0.46890962566E+03 -0.14132343283E+04 -0.48943045667E+03  0.15673703059E+04  0.50400001928E-02 0. -1.
       -1    1    3    3    0  502 -0.46890962566E+03  0.14132343283E+04 -0.91377903396E+03  0.17470259376E+04  0.50400001928E-02 0.  1.
</event>
<event>
 5   0  0.1674806E-06  0.2995771E+04  0.7818609E-02  0.8244940E-01
       -2   -1    0    0    0  501  0.00000000000E+00  0.00000000000E+00  0.15599131941E+04  0.15599131941E+04  0.25500000920E-02 0. -1.
        2   -1    0    0  501    0  0.00000000000E+00  0.00000000000E+00 -0.14383238547E+04  0.14383238547E+04  0.25500000920E-02 0.  1.
    10030    2    1    2    0    0  0.00000000000E+00  0.00000000000E+00  0.12158933938E+03  0.29982370488E+04  0.29957705909E+04 0.  0.
        2    1    3    3  502    0 -0.11406141272E+04 -0.20968383266E+02  0.10322740681E+04  0.15385155222E+04  0.25500000920E-02 0. -1.
       -2    1    3    3    0  502  0.11406141272E+04  0.20968383266E+02 -0.91068472874E+03  0.14597215266E+04  0.25500000920E-02 0.  1.
</event>
<event>
 5   0  0.1635086E-06  0.2997829E+04  0.7818609E-02  0.8244351E-01
       -2   -1    0    0    0  501  0.00000000000E+00  0.00000000000E+00  0.12982629200E+04  0.12982629200E+04  0.25500000920E-02 0. -1.
        2   -1    0    0  501    0  0.00000000000E+00  0.00000000000E+00 -0.17305773191E+04  0.17305773191E+04  0.25500000920E-02 0.  1.
    10030    2    1    2    0    0  0.00000000000E+00  0.00000000000E+00 -0.43231439910E+03  0.30288402391E+04  0.29978287901E+04 0.  0.
        3    1    3    3  502    0  0.19492047834E+03 -0.14401831800E+04 -0.58686250285E+03  0.15673318705E+04  0.10100000352E+00 0. -1.
       -3    1    3    3    0  502 -0.19492047834E+03  0.14401831800E+04  0.15454810375E+03  0.14615083686E+04  0.10100000352E+00 0.  1.
</event>
<event>
 5   0  0.5887179E-07  0.3000573E+04  0.7818609E-02  0.8243567E-01
       -1   -1    0    0    0  501  0.00000000000E+00  0.00000000000E+00  0.20183523231E+04  0.20183523231E+04  0.50400001928E-02 0. -1.
        1   -1    0    0  501    0  0.00000000000E+00  0.00000000000E+00 -0.11151966093E+04  0.11151966093E+04  0.50400001928E-02 0.  1.
    10030    2    1    2    0    0  0.00000000000E+00  0.00000000000E+00  0.90315571382E+03  0.31335489324E+04  0.30005730567E+04 0.  0.
        3    1    3    3  502    0 -0.47139116638E+03  0.88232477389E+03 -0.71607531270E+03  0.12302318895E+04  0.10100000352E+00 0.  1.
       -3    1    3    3    0  502  0.47139116638E+03 -0.88232477389E+03  0.16192310265E+04  0.19033170429E+04  0.10100000352E+00 0. -1.
</event>
<event>
 5   0  0.1560174E-06  0.3007109E+04  0.7818609E-02  0.8241704E-01
        2   -1    0    0  501    0  0.00000000000E+00  0.00000000000E+00  0.26386362876E+04  0.26386362876E+04  0.25500000920E-02 0.  1.
       -2   -1    0    0    0  501  0.00000000000E+00  0.00000000000E+00 -0.85675931443E+03  0.85675931444E+03  0.25500000920E-02 0. -1.
    10030    2    1    2    0    0  0.00000000000E+00  0.00000000000E+00  0.17818769732E+04  0.34953956020E+04  0.30071090548E+04 0.  0.
        5    1    3    3  502    0  0.86145774336E+03  0.98576119649E+03  0.17504845831E+04  0.21858757846E+04  0.46999998093E+01 0.  1.
       -5    1    3    3    0  502 -0.86145774336E+03 -0.98576119649E+03  0.31392390075E+02  0.13095198174E+04  0.46999998093E+01 0. -1.
</event>
<event>
 5   0  0.5916703E-07  0.2959246E+04  0.7818609E-02  0.8255465E-01
       -1   -1    0    0    0  501  0.00000000000E+00  0.00000000000E+00  0.14823109048E+04  0.14823109048E+04  0.50400001928E-02 0.  1.
        1   -1    0    0  501    0  0.00000000000E+00  0.00000000000E+00 -0.14769400050E+04  0.14769400050E+04  0.50400001928E-02 0. -1.
    10030    2    1    2    0    0  0.00000000000E+00  0.00000000000E+00  0.53708998381E+01  0.29592509098E+04  0.29592460358E+04 0.  0.
        5    1    3    3  502    0  0.11805809301E+04  0.66041905129E+03 -0.59676322425E+03  0.14785374840E+04  0.46999998093E+01 0. -1.
       -5    1    3    3    0  502 -0.11805809301E+04 -0.66041905129E+03  0.60213412409E+03  0.14807134258E+04  0.46999998093E+01 0.  1.
</event>
<event>
 5   0  0.5887179E-07  0.3009176E+04  0.7818609E-02  0.8241115E-01
       -1   -1    0    0    0  501  0.00000000000E+00  0.00000000000E+00  0.16449290232E+04  0.16449290232E+04  0.50400001928E-02 0. -1.
        1   -1    0    0  501    0  0.00000000000E+00  0.00000000000E+00 -0.13762207982E+04  0.13762207982E+04  0.50400001928E-02 0.  1.
    10030    2    1    2    0    0  0.00000000000E+00  0.00000000000E+00  0.26870822493E+03  0.30211498214E+04  0.30091763214E+04 0.  0.
        3    1    3    3  502    0 -0.29523014405E+03  0.71840372828E+03 -0.11593852233E+04  0.13955066682E+04  0.10100000352E+00 0.  1.
       -3    1    3    3    0  502  0.29523014405E+03 -0.71840372828E+03  0.14280934482E+04  0.16256431533E+04  0.10100000352E+00 0. -1.
</event>
<event>
 5   0  0.1635086E-06  0.3007798E+04  0.7818609E-02  0.8241508E-01
        2   -1    0    0  501    0  0.00000000000E+00  0.00000000000E+00  0.14571336881E+04  0.14571336881E+04  0.25500000920E-02 0.  1.
       -2   -1    0    0    0  501  0.00000000000E+00  0.00000000000E+00 -0.15521655481E+04  0.15521655481E+04  0.25500000920E-02 0. -1.
    10030    2    1    2    0    0  0.00000000000E+00  0.00000000000E+00 -0.95031859990E+02  0.30092992361E+04  0.30077983373E+04 0.  0.
        3    1    3    3  502    0 -0.10979829178E+04 -0.97320407362E+03 -0.37786252433E+03  0.15150817648E+04  0.10100000352E+00 0.  1.
       -3    1    3    3    0  502  0.10979829178E+04  0.97320407362E+03  0.28283066434E+03  0.14942174713E+04  0.10100000352E+00 0. -1.
</event>
<event>
 5   0  0.6291798E-07  0.2993075E+04  0.7818609E-02  0.8245711E-01
       -1   -1    0    0    0  501  0.00000000000E+00  0.00000000000E+00  0.13130771152E+04  0.13130771152E+04  0.50400001928E-02 0. -1.
        1   -1    0    0  501    0  0.00000000000E+00  0.00000000000E+00 -0.17056310836E+04  0.17056310836E+04  0.50400001928E-02 0.  1.
    10030    2    1    2    0    0  0.00000000000E+00  0.00000000000E+00 -0.39255396839E+03  0.30187081988E+04  0.29930754370E+04 0.  0.
        1    1    3    3  502    0 -0.44844923164E+03  0.11813583445E+04 -0.10049610072E+04  0.16145156790E+04  0.50400001928E-02 0.  1.
       -1    1    3    3    0  502  0.44844923164E+03 -0.11813583445E+04  0.61240703886E+03  0.14041925199E+04  0.50400001928E-02 0. -1.
</event>
<event>
 5   0  0.5887179E-07  0.2996307E+04  0.7818609E-02  0.8244786E-01
       -1   -1    0    0    0  501  0.00000000000E+00  0.00000000000E+00  0.87632036186E+03  0.87632036188E+03  0.50400001928E-02 0. -1.
        1   -1    0    0  501    0  0.00000000000E+00  0.00000000000E+00 -0.25612368976E+04  0.25612368976E+04  0.50400001928E-02 0.  1.
    10030    2    1    2    0    0  0.00000000000E+00  0.00000000000E+00 -0.16849165358E+04  0.34375572595E+04  0.29963070904E+04 0.  0.
        3    1    3    3  502    0  0.11977787736E+04  0.75478982220E+03 -0.14045973141E+04  0.19943107309E+04  0.10100000352E+00 0.  1.
       -3    1    3    3    0  502 -0.11977787736E+04 -0.75478982220E+03 -0.28031922162E+03  0.14432465286E+04  0.10100000352E+00 0. -1.
</event>
<event>
 5   0  0.5931588E-07  0.3014330E+04  0.7818609E-02  0.8239651E-01
       -1   -1    0    0    0  501  0.00000000000E+00  0.00000000000E+00  0.10398989992E+04  0.10398989992E+04  0.50400001928E-02 0.  1.
        1   -1    0    0  501    0  0.00000000000E+00  0.00000000000E+00 -0.21843912099E+04  0.21843912099E+04  0.50400001928E-02 0. -1.
    10030    2    1    2    0    0  0.00000000000E+00  0.00000000000E+00 -0.11444922107E+04  0.32242902091E+04  0.30143299308E+04 0.  0.
        2    1    3    3  502    0  0.75510955746E+03 -0.12291239674E+04 -0.10392454271E+04  0.17779109170E+04  0.25500000920E-02 0. -1.
       -2    1    3    3    0  502 -0.75510955746E+03  0.12291239674E+04 -0.10524678362E+03  0.14463792921E+04  0.25500000920E-02 0.  1.
</event>
<event>
 5   0  0.5916703E-07  0.3015209E+04  0.7818609E-02  0.8239401E-01
       -1   -1    0    0    0  501  0.00000000000E+00  0.00000000000E+00  0.13560368348E+04  0.13560368348E+04  0.50400001928E-02 0.  1.
        1   -1    0    0  501    0  0.00000000000E+00  0.00000000000E+00 -0.16761137651E+04  0.16761137651E+04  0.50400001928E-02 0. -1.
    10030    2    1    2    0    0  0.00000000000E+00  0.00000000000E+00 -0.32007693028E+03  0.30321505999E+04  0.30152094487E+04 0.  0.
        5    1    3    3  502    0  0.28719974463E+03  0.14700213254E+04 -0.33247646559E+03  0.15342780323E+04  0.46999998093E+01 0. -1.
       -5    1    3    3    0  502 -0.28719974463E+03 -0.14700213254E+04  0.12399535310E+02  0.14978725676E+04  0.46999998093E+01 0.  1.
</event>
<event>
 5   0  0.1625212E-06  0.2997968E+04  0.7818609E-02  0.8244311E-01
        2   -1    0    0  501    0  0.00000000000E+00  0.00000000000E+00  0.23109802482E+04  0.23109802482E+04  0.25500000920E-02 0.  1.
       -2   -1    0    0    0  501  0.00000000000E+00  0.00000000000E+00 -0.97229432712E+03  0.97229432712E+03  0.25500000920E-02 0. -1.
    10030    2    1    2    0    0  0.00000000000E+00  0.00000000000E+00  0.13386859211E+04  0.32832745753E+04  0.29979679688E+04 0.  0.
        4    1    3    3  502    0  0.30440367426E+03  0.10882149941E+04  0.17480003453E+04  0.20814370734E+04  0.12699999809E+01 0.  1.
       -4    1    3    3    0  502 -0.30440367426E+03 -0.10882149941E+04 -0.40931442422E+03  0.12018375020E+04  0.12699999809E+01 0. -1.
</event>
<event>
 5   0  0.1723916E-06  0.3018610E+04  0.7818609E-02  0.8238437E-01
        2   -1    0    0  501    0  0.00000000000E+00  0.00000000000E+00  0.17152014726E+04  0.17152014726E+04  0.25500000920E-02 0.  1.
       -2   -1    0    0    0  501  0.00000000000E+00  0.00000000000E+00 -0.13281247982E+04  0.13281247982E+04  0.25500000920E-02 0. -1.
    10030    2    1    2    0    0  0.00000000000E+00  0.00000000000E+00  0.38707667443E+03  0.30433262708E+04  0.30186100176E+04 0.  0.
        1    1    3    3  502    0 -0.55251020013E+02  0.36754256930E+03  0.16683424083E+04  0.17092415297E+04  0.50400001928E-02 0.  1.
       -1    1    3    3    0  502  0.55251020013E+02 -0.36754256930E+03 -0.12812657339E+04  0.13340847411E+04  0.50400001928E-02 0. -1.
</event>
<event>
 5   0  0.5874741E-07  0.2997988E+04  0.7818609E-02  0.8244306E-01
        1   -1    0    0  501    0  0.00000000000E+00  0.00000000000E+00  0.19621229555E+04  0.19621229555E+04  0.50400001928E-02 0. -1.
       -1   -1    0    0    0  501  0.00000000000E+00  0.00000000000E+00 -0.11451797941E+04  0.11451797941E+04  0.50400001928E-02 0.  1.
    10030    2    1    2    0    0  0.00000000000E+00  0.00000000000E+00  0.81694316133E+03  0.31073027496E+04  0.29979883670E+04 0.  0.
        4    1    3    3  502    0 -0.19566515865E+02  0.22981596677E+03 -0.11266774081E+04  0.11500442695E+04  0.12699999809E+01 0.  1.
       -4    1    3    3    0  502  0.19566515865E+02 -0.22981596677E+03  0.19436205694E+04  0.19572584801E+04  0.12699999809E+01 0. -1.
</event>
<event>
 5   0  0.1674806E-06  0.2998629E+04  0.7818609E-02  0.8244123E-01
        2   -1    0    0  501    0  0.00000000000E+00  0.00000000000E+00  0.27619675324E+04  0.27619675324E+04  0.25500000920E-02 0. -1.
       -2   -1    0    0    0  501  0.00000000000E+00  0.00000000000E+00 -0.81389204334E+03  0.81389204334E+03  0.25500000920E-02 0.  1.
    10030    2    1    2    0    0  0.00000000000E+00  0.00000000000E+00  0.19480754891E+04  0.35758595758E+04  0.29986286190E+04 0.  0.
        2    1    3    3  502    0 -0.54530987022E+03 -0.61332082685E+03 -0.52225927912E+03  0.97276926649E+03  0.25500000920E-02 0.  1.
       -2    1    3    3    0  502  0.54530987022E+03  0.61332082685E+03  0.24703347682E+04  0.26030903093E+04  0.25500000920E-02 0. -1.
</event>
<event>
 5   0  0.5916703E-07  0.2992134E+04  0.7818609E-02  0.8245981E-01
       -1   -1    0    0    0  501  0.00000000000E+00  0.00000000000E+00  0.11219370502E+04  0.11219370502E+04  0.50400001928E-02 0.  1.
        1   -1    0    0  501    0  0.00000000000E+00  0.00000000000E+00 -0.19949570950E+04  0.19949570950E+04  0.50400001928E-02 0. -1.
    10030    2    1    2    0    0  0.00000000000E+00  0.00000000000E+00 -0.87302004480E+03  0.31168941451E+04  0.29921338729E+04 0.  0.
        5    1    3    3  502    0 -0.12202208521E+04 -0.54782016504E+03 -0.11346394194E+04  0.17539881879E+04  0.46999998093E+01 0. -1.
       -5    1    3    3    0  502  0.12202208521E+04  0.54782016504E+03  0.26161937462E+03  0.13629059572E+04  0.46999998093E+01 0.  1.
</event>
<event>
 5   0  0.1674806E-06  0.2978814E+04  0.7818609E-02  0.8249807E-01
        2   -1    0    0  501    0  0.00000000000E+00  0.00000000000E+00  0.27768684612E+04  0.27768684612E+04  0.25500000920E-02 0.  1.
       -2   -1    0    0    0  501  0.00000000000E+00  0.00000000000E+00 -0.79886130563E+03  0.79886130564E+03  0.25500000920E-02 0. -1.
    10030    2    1    2    0    0  0.00000000000E+00  0.00000000000E+00  0.19780071556E+04  0.35757297669E+04  0.29788136998E+04 0.  0.
        2    1    3    3  502    0  0.10653042955E+04  0.10408155426E+04  0.97370022953E+03  0.17793994416E+04  0.25500000920E-02 0. -1.
       -2    1    3    3    0  502 -0.10653042955E+04 -0.10408155426E+04  0.10043069261E+04  0.17963303253E+04  0.25500000920E-02 0.  1.
</event>
<event>
 5   0  0.5874741E-07  0.3004570E+04  0.7818609E-02  0.8242427E-01
       -1   -1    0    0    0  501  0.00000000000E+00  0.00000000000E+00  0.93329498933E+03  0.93329498935E+03  0.50400001928E-02 0.  1.
        1   -1    0    0  501    0  0.00000000000E+00  0.00000000000E+00 -0.24181636701E+04  0.24181636701E+04  0.50400001928E-02 0. -1.
    10030    2    1    2    0    0  0.00000000000E+00  0.00000000000E+00 -0.14848686808E+04  0.33514586595E+04  0.30045698772E+04 0.  0.
        4    1    3    3  502    0  0.44852601231E+03  0.87446785261E+02  0.85388707669E+03  0.96847678166E+03  0.12699999809E+01 0.  1.
       -4    1    3    3    0  502 -0.44852601231E+03 -0.87446785261E+02 -0.23387557575E+04  0.23829818778E+04  0.12699999809E+01 0. -1.
</event>
<event>
 5   0  0.5874741E-07  0.3012015E+04  0.7818609E-02  0.8240308E-01
        1   -1    0    0  501    0  0.00000000000E+00  0.00000000000E+00  0.16495766558E+04  0.16495766558E+04  0.50400001928E-02 0.  1.
       -1   -1    0    0    0  501  0.00000000000E+00  0.00000000000E+00 -0.13749333647E+04  0.13749333647E+04  0.50400001928E-02 0. -1.
    10030    2    1    2    0    0  0.00000000000E+00  0.00000000000E+00  0.27464329109E+03  0.30245100205E+04  0.30120145961E+04 0.  0.
        4    1    3    3  502    0  0.13499403662E+04  0.64795347720E+03 -0.24198596279E+02  0.14975880227E+04  0.12699999809E+01 0. -1.
       -4    1    3    3    0  502 -0.13499403662E+04 -0.64795347720E+03  0.29884188737E+03  0.15269219978E+04  0.12699999809E+01 0.  1.
</event>
<event>
 5   0  0.5931588E-07  0.3016749E+04  0.7818609E-02  0.8238964E-01
        1   -1    0    0  501    0  0.00000000000E+00  0.00000000000E+00  0.26742379384E+04  0.26742379385E+04  0.50400001928E-02 0.  1.
       -1   -1    0    0    0  501  0.00000000000E+00  0.00000000000E+00 -0.85078198119E+03  0.85078198121E+03  0.50400001928E-02 0. -1.
    10030    2    1    2    0    0  0.00000000000E+00  0.00000000000E+00  0.18234559573E+04  0.35250199197E+04  0.30167488802E+04 0.  0.
        2    1    3    3  502    0  0.11108936792E+04 -0.98607949465E+03  0.60533595920E+03  0.16040165709E+04  0.25500000920E-02 0. -1.
       -2    1    3    3    0  502 -0.11108936792E+04  0.98607949465E+03  0.12181199981E+04  0.19210033487E+04  0.25500000920E-02 0.  1.
</event>
<event>
 5   0  0.1674806E-06  0.2997636E+04  0.7818609E-02  0.8244406E-01
        2   -1    0    0  501    0  0.00000000000E+00  0.00000000000E+00  0.22532796265E+04  0.22532796265E+04  0.25500000920E-02 0.  1.
       -2   -1    0    0    0  501  0.00000000000E+00  0.00000000000E+00 -0.99697163239E+03  0.99697163239E+03  0.25500000920E-02 0. -1.
    10030    2    1    2    0    0  0.00000000000E+00  0.00000000000E+00  0.12563079941E+04  0.32502512589E+04  0.29976363138E+04 0.  0.
        2    1    3    3  502    0  0.57989184008E+03 -0.17269984309E+03 -0.85866480314E+03  0.10504308764E+04  0.25500000920E-02 0. -1.
       -2    1    3    3    0  502 -0.57989184008E+03  0.17269984309E+03  0.21149727973E+04  0.21998203825E+04  0.25500000920E-02 0.  1.
</event>
<event>
 5   0  0.5431625E-07  0.2999828E+04  0.7818609E-02  0.8243780E-01
        3   -1    0    0  501    0  0.00000000000E+00  0.00000000000E+00  0.16850520622E+04  0.16850520652E+04  0.10100000352E+00 0. -1.
       -3   -1    0    0    0  501  0.00000000000E+00  0.00000000000E+00 -0.13351172027E+04  0.13351172066E+04  0.10100000352E+00 0.  1.
    10030    2    1    2    0    0  0.00000000000E+00  0.00000000000E+00  0.34993485946E+03  0.30201692718E+04  0.29998279991E+04 0.  0.
        2    1    3    3  502    0  0.53184123858E+03 -0.13325643902E+04  0.61514951245E+03  0.15610867624E+04  0.25500000920E-02 0. -1.
       -2    1    3    3    0  502 -0.53184123858E+03  0.13325643902E+04 -0.26521465299E+03  0.14590825094E+04  0.25500000920E-02 0.  1.
</event>
<event>
 5   0  0.1560174E-06  0.2962925E+04  0.7818609E-02  0.8254398E-01
        2   -1    0    0  501    0  0.00000000000E+00  0.00000000000E+00  0.17367234339E+04  0.17367234339E+04  0.25500000920E-02 0. -1.
       -2   -1    0    0    0  501  0.00000000000E+00  0.00000000000E+00 -0.12637193302E+04  0.12637193302E+04  0.25500000920E-02 0.  1.
    10030    2    1    2    0    0  0.00000000000E+00  0.00000000000E+00  0.47300410368E+03  0.30004427642E+04  0.29629248892E+04 0.  0.
        5    1    3    3  502    0 -0.10778755711E+03 -0.93151012778E+03  0.13979246102E+04  0.16833135719E+04  0.46999998093E+01 0. -1.
       -5    1    3    3    0  502  0.10778755711E+03  0.93151012778E+03 -0.92492050653E+03  0.13171291922E+04  0.46999998093E+01 0.  1.
</event>
<event>
 5   0  0.1560174E-06  0.2989678E+04  0.7818609E-02  0.8246685E-01
       -2   -1    0    0    0  501  0.00000000000E+00  0.00000000000E+00  0.17679975410E+04  0.17679975410E+04  0.25500000920E-02 0. -1.
        2   -1    0    0  501    0  0.00000000000E+00  0.00000000000E+00 -0.12638836813E+04  0.12638836813E+04  0.25500000920E-02 0.  1.
    10030    2    1    2    0    0  0.00000000000E+00  0.00000000000E+00  0.50411385976E+03  0.30318812223E+04  0.29896777355E+04 0.  0.
        5    1    3    3  502    0 -0.66972529829E+03  0.13143326227E+04  0.67352085865E+01  0.14751507283E+04  0.46999998093E+01 0.  1.
       -5    1    3    3    0  502  0.66972529829E+03 -0.13143326227E+04  0.49737865117E+03  0.15567304940E+04  0.46999998093E+01 0. -1.
</event>
<event>
 5   0  0.1625212E-06  0.2997312E+04  0.7818609E-02  0.8244499E-01
       -2   -1    0    0    0  501  0.00000000000E+00  0.00000000000E+00  0.14772822299E+04  0.14772822299E+04  0.25500000920E-02 0. -1.
        2   -1    0    0  501    0  0.00000000000E+00  0.00000000000E+00 -0.15203394403E+04  0.15203394403E+04  0.25500000920E-02 0.  1.
    10030    2    1    2    0    0  0.00000000000E+00  0.00000000000E+00 -0.43057210445E+02  0.29976216702E+04  0.29973124219E+04 0.  0.
        4    1    3    3  502    0  0.94419963899E+03  0.11638089410E+04 -0.23677380616E+02  0.14988416997E+04  0.12699999809E+01 0. -1.
       -4    1    3    3    0  502 -0.94419963899E+03 -0.11638089410E+04 -0.19379829829E+02  0.14987799706E+04  0.12699999809E+01 0.  1.
</event>
<event>
 5   0  0.5874741E-07  0.3019122E+04  0.7818609E-02  0.8238292E-01
        1   -1    0    0  501    0  0.00000000000E+00  0.00000000000E+00  0.19061814593E+04  0.19061814593E+04  0.50400001928E-02 0. -1.
       -1   -1    0    0    0  501  0.00000000000E+00  0.00000000000E+00 -0.11954655376E+04  0.11954655376E+04  0.50400001928E-02 0.  1.
    10030    2    1    2    0    0  0.00000000000E+00  0.00000000000E+00  0.71071592173E+03  0.31016469969E+04  0.30191218876E+04 0.  0.
        4    1    3    3  502    0 -0.13956421077E+04  0.21165047324E+03  0.90491913757E+03  0.16767507489E+04  0.12699999809E+01 0. -1.
       -4    1    3    3    0  502  0.13956421077E+04 -0.21165047324E+03 -0.19420321584E+03  0.14248962480E+04  0.12699999809E+01 0.  1.
</event>
<event>
 5   0  0.5931588E-07  0.3000397E+04  0.7818609E-02  0.8243618E-01
        1   -1    0    0  501    0  0.00000000000E+00  0.00000000000E+00  0.13499924408E+04  0.13499924408E+04  0.50400001928E-02 0. -1.
       -1   -1    0    0    0  501  0.00000000000E+00  0.00000000000E+00 -0.16671167628E+04  0.16671167628E+04  0.50400001928E-02 0.  1.
    10030    2    1    2    0    0  0.00000000000E+00  0.00000000000E+00 -0.31712432201E+03  0.30171092036E+04  0.30003966589E+04 0.  0.
        2    1    3    3  502    0  0.11579215050E+04 -0.76556961598E+03  0.41356744933E+03  0.14484188220E+04  0.25500000920E-02 0. -1.
       -2    1    3    3    0  502 -0.11579215050E+04  0.76556961598E+03 -0.73069177134E+03  0.15686903816E+04  0.25500000920E-02 0.  1.
</event>
<event>
 5   0  0.1674806E-06  0.3004588E+04  0.7818609E-02  0.8242422E-01
        2   -1    0    0  501    0  0.00000000000E+00  0.00000000000E+00  0.19662335527E+04  0.19662335527E+04  0.25500000920E-02 0. -1.
       -2   -1    0    0    0  501  0.00000000000E+00  0.00000000000E+00 -0.11478226197E+04  0.11478226197E+04  0.25500000920E-02 0.  1.
    10030    2    1    2    0    0  0.00000000000E+00  0.00000000000E+00  0.81841093304E+03  0.31140561724E+04  0.30045880565E+04 0.  0.
        2    1    3    3  502    0 -0.98196388882E+03  0.11256322519E+04  0.24342045477E+03  0.15134578168E+04  0.25500000920E-02 0.  1.
       -2    1    3    3    0  502  0.98196388882E+03 -0.11256322519E+04  0.57499047828E+03  0.16005983555E+04  0.25500000920E-02 0. -1.
</event>
<event>
 5   0  0.5931588E-07  0.2988698E+04  0.7818609E-02  0.8246966E-01
        1   -1    0    0  501    0  0.00000000000E+00  0.00000000000E+00  0.25271833686E+04  0.25271833686E+04  0.50400001928E-02 0. -1.
       -1   -1    0    0    0  501  0.00000000000E+00  0.00000000000E+00 -0.88362354557E+03  0.88362354559E+03  0.50400001928E-02 0.  1.
    10030    2    1    2    0    0  0.00000000000E+00  0.00000000000E+00  0.16435598230E+04  0.34108069142E+04  0.29886978626E+04 0.  0.
        2    1    3    3  502    0 -0.14618905588E+04  0.28951267464E+03  0.69605156837E+03  0.16448189507E+04  0.25500000920E-02 0.  1.
       -2    1    3    3    0  502  0.14618905588E+04 -0.28951267464E+03  0.94750825463E+03  0.17659879635E+04  0.25500000920E-02 0. -1.
</event>
<event>
 5   0  0.1635086E-06  0.3005037E+04  0.7818609E-02  0.8242294E-01
       -2   -1    0    0    0  501  0.00000000000E+00  0.00000000000E+00  0.12379426853E+04  0.12379426853E+04  0.25500000920E-02 0. -1.
        2   -1    0    0  501    0  0.00000000000E+00  0.00000000000E+00 -0.18236394609E+04  0.18236394609E+04  0.25500000920E-02 0.  1.
    10030    2    1    2    0    0  0.00000000000E+00  0.00000000000E+00 -0.58569677566E+03  0.30615821462E+04  0.30050365264E+04 0.  0.
        3    1    3    3  502    0  0.13095011230E+04 -0.65958137657E+03 -0.62723202233E+03  0.15947604220E+04  0.10100000352E+00 0. -1.
       -3    1    3    3    0  502 -0.13095011230E+04  0.65958137657E+03  0.41535246670E+02  0.14668217242E+04  0.10100000352E+00 0.  1.
</event>
<event>
 5   0  0.1560174E-06  0.2972190E+04  0.7818609E-02  0.8251717E-01
        2   -1    0    0  501    0  0.00000000000E+00  0.00000000000E+00  0.16102353303E+04  0.16102353303E+04  0.25500000920E-02 0.  1.
       -2   -1    0    0    0  501  0.00000000000E+00  0.00000000000E+00 -0.13715254972E+04  0.13715254972E+04  0.25500000920E-02 0. -1.
    10030    2    1    2    0    0  0.00000000000E+00  0.00000000000E+00  0.23870983310E+03  0.29817608276E+04  0.29721903116E+04 0.  0.
        5    1    3    3  502    0 -0.38146335856E+03  0.47551297998E+03  0.14790159558E+04  0.15997303446E+04  0.46999998093E+01 0.  1.
       -5    1    3    3    0  502  0.38146335856E+03 -0.47551297998E+03 -0.12403061227E+04  0.13820304830E+04  0.46999998093E+01 0. -1.
</event>
<event>
 5   0  0.5916703E-07  0.3012993E+04  0.7818609E-02  0.8240030E-01
       -1   -1    0    0    0  501  0.00000000000E+00  0.00000000000E+00  0.20177604743E+04  0.20177604743E+04  0.50400001928E-02 0.  1.
        1   -1    0    0  501    0  0.00000000000E+00  0.00000000000E+00 -0.11247777952E+04  0.11247777952E+04  0.50400001928E-02 0. -1.
    10030    2    1    2    0    0  0.00000000000E+00  0.00000000000E+00  0.89298267914E+03  0.31425382695E+04  0.30129933140E+04 0.  0.
        5    1    3    3  502    0 -0.12279351963E+04  0.53088783229E+02 -0.46209288115E+03  0.13130861304E+04  0.46999998093E+01 0. -1.
       -5    1    3    3    0  502  0.12279351963E+04 -0.53088783229E+02  0.13550755603E+04  0.18294521391E+04  0.46999998093E+01 0.  1.
</event>
<event>
 5   0  0.5887179E-07  0.2993547E+04  0.7818609E-02  0.8245576E-01
        1   -1    0    0  501    0  0.00000000000E+00  0.00000000000E+00  0.93687300292E+03  0.93687300293E+03  0.50400001928E-02 0. -1.
       -1   -1    0    0    0  501  0.00000000000E+00  0.00000000000E+00 -0.23912856040E+04  0.23912856040E+04  0.50400001928E-02 0.  1.
    10030    2    1    2    0    0  0.00000000000E+00  0.00000000000E+00 -0.14544126011E+04  0.33281586069E+04  0.29935470096E+04 0.  0.
        3    1    3    3  502    0 -0.41465835244E+03 -0.46639163780E+03 -0.22397421604E+04  0.23250607872E+04  0.10100000352E+00 0.  1.
       -3    1    3    3    0  502  0.41465835244E+03  0.46639163780E+03  0.78532955929E+03  0.10030978197E+04  0.10100000352E+00 0. -1.
</event>
<event>
 5   0  0.1635086E-06  0.2990998E+04  0.7818609E-02  0.8246306E-01
        2   -1    0    0  501    0  0.00000000000E+00  0.00000000000E+00  0.24024825173E+04  0.24024825173E+04  0.25500000920E-02 0. -1.
       -2   -1    0    0    0  501  0.00000000000E+00  0.00000000000E+00 -0.93091929489E+03  0.93091929490E+03  0.25500000920E-02 0.  1.
    10030    2    1    2    0    0  0.00000000000E+00  0.00000000000E+00  0.14715632224E+04  0.33334018122E+04  0.29909980481E+04 0.  0.
        3    1    3    3  502    0  0.98250220889E+03  0.93332354852E+03  0.30823440567E+02  0.13554901443E+04  0.10100000352E+00 0. -1.
       -3    1    3    3    0  502 -0.98250220889E+03 -0.93332354852E+03  0.14407397818E+04  0.19779116678E+04  0.10100000352E+00 0.  1.
</event>
<event>
 5   0  0.1723916E-06  0.3001498E+04  0.7818609E-02  0.8243303E-01
       -2   -1    0    0    0  501  0.00000000000E+00  0.00000000000E+00  0.19671099286E+04  0.19671099286E+04  0.25500000920E-02 0. -1.
        2   -1    0    0  501    0  0.00000000000E+00  0.00000000000E+00 -0.11449527863E+04  0.11449527863E+04  0.25500000920E-02 0.  1.
    10030    2    1    2    0    0  0.00000000000E+00  0.00000000000E+00  0.82215714238E+03  0.31120627149E+04  0.30014982883E+04 0.  0.
        1    1    3    3  502    0  0.56968326246E+02 -0.70540725359E+03  0.17832340090E+04  0.19185328547E+04  0.50400001928E-02 0. -1.
       -1    1    3    3    0  502 -0.56968326246E+02  0.70540725359E+03 -0.96107686663E+03  0.11935298602E+04  0.50400001928E-02 0.  1.
</event>
<event>
 5   0  0.1723916E-06  0.2961804E+04  0.7818609E-02  0.8254723E-01
        2   -1    0    0  501    0  0.00000000000E+00  0.00000000000E+00  0.17501486445E+04  0.17501486445E+04  0.25500000920E-02 0. -1.
       -2   -1    0    0    0  501  0.00000000000E+00  0.00000000000E+00 -0.12530772326E+04  0.12530772326E+04  0.25500000920E-02 0.  1.
    10030    2    1    2    0    0  0.00000000000E+00  0.00000000000E+00  0.49707141186E+03  0.30032258771E+04  0.29618044636E+04 0.  0.
        1    1    3    3  502    0  0.13321982368E+04 -0.29037242829E+03  0.83454821009E+03  0.15986053310E+04  0.50400001928E-02 0. -1.
       -1    1    3    3    0  502 -0.13321982368E+04  0.29037242829E+03 -0.33747679823E+03  0.14046205461E+04  0.50400001928E-02 0.  1.
</event>
<event>
 5   0  0.1674806E-06  0.3004032E+04  0.7818609E-02  0.8242580E-01
       -2   -1    0    0    0  501  0.00000000000E+00  0.00000000000E+00  0.15932805304E+04  0.15932805304E+04  0.25500000920E-02 0.  1.
        2   -1    0    0  501    0  0.00000000000E+00  0.00000000000E+00 -0.14159794977E+04  0.14159794977E+04  0.25500000920E-02 0. -1.
    10030    2    1    2    0    0  0.00000000000E+00  0.00000000000E+00  0.17730103271E+03  0.30092600281E+04  0.30040323334E+04 0.  0.
        2    1    3    3  502    0  0.12404760991E+04 -0.84661404856E+03  0.65889498876E+02  0.15032889694E+04  0.25500000920E-02 0. -1.
       -2    1    3    3    0  502 -0.12404760991E+04  0.84661404856E+03  0.11141153383E+03  0.15059710586E+04  0.25500000920E-02 0.  1.
</event>
<event>
 5   0  0.6291798E-07  0.2994624E+04  0.7818609E-02  0.8245268E-01
       -1   -1    0    0    0  501  0.00000000000E+00  0.00000000000E+00  0.13291646162E+04  0.13291646162E+04  0.50400001928E-02 0. -1.
        1   -1    0    0  501    0  0.00000000000E+00  0.00000000000E+00 -0.16867315648E+04  0.16867315648E+04  0.50400001928E-02 0.  1.
    10030    2    1    2    0    0  0.00000000000E+00  0.00000000000E+00 -0.35756694862E+03  0.30158961810E+04  0.29946244593E+04 0.  0.
        1    1    3    3  502    0  0.12213011082E+03  0.95457103017E+03 -0.13340245989E+04  0.16449143583E+04  0.50400001928E-02 0.  1.
       -1    1    3    3    0  502 -0.12213011082E+03 -0.95457103017E+03  0.97645765024E+03  0.13709818228E+04  0.50400001928E-02 0. -1.
</event>
<event>
 5   0  0.1723916E-06  0.3050553E+04  0.7818609E-02  0.8229441E-01
       -2   -1    0    0    0  501  0.00000000000E+00  0.00000000000E+00  0.14325608651E+04  0.14325608651E+04  0.25500000920E-02 0.  1.
        2   -1    0    0  501    0  0.00000000000E+00  0.00000000000E+00 -0.16239932320E+04  0.16239932320E+04  0.25500000920E-02 0. -1.
    10030    2    1    2    0    0  0.00000000000E+00  0.00000000000E+00 -0.19143236686E+03  0.30565540971E+04  0.30505534903E+04 0.  0.
        1    1    3    3  502    0  0.10697133052E+04 -0.56766865230E+03  0.83343466612E+03  0.14700842142E+04  0.50400001928E-02 0.  1.
       -1    1    3    3    0  502 -0.10697133052E+04  0.56766865230E+03 -0.10248670330E+04  0.15864698829E+04  0.50400001928E-02 0. -1.
</event>
<event>
 5   0  0.1625212E-06  0.2996455E+04  0.7818609E-02  0.8244744E-01
        2   -1    0    0  501    0  0.00000000000E+00  0.00000000000E+00  0.19968149942E+04  0.19968149942E+04  0.25500000920E-02 0.  1.
       -2   -1    0    0    0  501  0.00000000000E+00  0.00000000000E+00 -0.11241332843E+04  0.11241332843E+04  0.25500000920E-02 0. -1.
    10030    2    1    2    0    0  0.00000000000E+00  0.00000000000E+00  0.87268170990E+03  0.31209482784E+04  0.29964553709E+04 0.  0.
        4    1    3    3  502    0  0.15329490749E+03  0.16650803231E+03  0.19789064828E+04  0.19918074039E+04  0.12699999809E+01 0.  1.
       -4    1    3    3    0  502 -0.15329490749E+03 -0.16650803231E+03 -0.11062247729E+04  0.11291408746E+04  0.12699999809E+01 0. -1.
</event>
<event>
 5   0  0.1635086E-06  0.3034075E+04  0.7818609E-02  0.8234067E-01
        2   -1    0    0  501    0  0.00000000000E+00  0.00000000000E+00  0.14680751515E+04  0.14680751515E+04  0.25500000920E-02 0. -1.
       -2   -1    0    0    0  501  0.00000000000E+00  0.00000000000E+00 -0.15676326213E+04  0.15676326213E+04  0.25500000920E-02 0.  1.
    10030    2    1    2    0    0  0.00000000000E+00  0.00000000000E+00 -0.99557469784E+02  0.30357077728E+04  0.30340748165E+04 0.  0.
        3    1    3    3  502    0 -0.81541746955E+03  0.83579631932E+03 -0.10187736952E+04  0.15496325336E+04  0.10100000352E+00 0.  1.
       -3    1    3    3    0  502  0.81541746955E+03 -0.83579631932E+03  0.91921622545E+03  0.14860752391E+04  0.10100000352E+00 0. -1.
</event>
<event>
 5   0  0.5916703E-07  0.3001408E+04  0.7818609E-02  0.8243329E-01
       -1   -1    0    0    0  501  0.00000000000E+00  0.00000000000E+00  0.92663783095E+03  0.92663783096E+03  0.50400001928E-02 0. -1.
        1   -1    0    0  501    0  0.00000000000E+00  0.00000000000E+00 -0.24304123643E+04  0.24304123643E+04  0.50400001928E-02 0.  1.
    10030    2    1    2    0    0  0.00000000000E+00  0.00000000000E+00 -0.15037745333E+04  0.33570501953E+04  0.30014076975E+04 0.  0.
        5    1    3    3  502    0  0.52325696552E+03  0.47247577577E+02 -0.23241780941E+04  0.23828252325E+04  0.46999998093E+01 0.  1.
       -5    1    3    3    0  502 -0.52325696552E+03 -0.47247577577E+02  0.82040356076E+03  0.97422496275E+03  0.46999998093E+01 0. -1.
</event>
<event>
 5   0  0.5931588E-07  0.3019196E+04  0.7818609E-02  0.8238271E-01
        1   -1    0    0  501    0  0.00000000000E+00  0.00000000000E+00  0.20741699508E+04  0.20741699508E+04  0.50400001928E-02 0. -1.
       -1   -1    0    0    0  501  0.00000000000E+00  0.00000000000E+00 -0.10986975181E+04  0.10986975181E+04  0.50400001928E-02 0.  1.
    10030    2    1    2    0    0  0.00000000000E+00  0.00000000000E+00  0.97547243266E+03  0.31728674689E+04  0.30191955068E+04 0.  0.
        2    1    3    3  502    0  0.44484526379E+03  0.13111405380E+04 -0.14447197977E+03  0.13920664395E+04  0.25500000920E-02 0.  1.
       -2    1    3    3    0  502 -0.44484526379E+03 -0.13111405380E+04  0.11199444124E+04  0.17808010293E+04  0.25500000920E-02 0. -1.
</event>
<event>
 5   0  0.1723916E-06  0.2994780E+04  0.7818609E-02  0.8245223E-01
       -2   -1    0    0    0  501  0.00000000000E+00  0.00000000000E+00  0.10254672139E+04  0.10254672139E+04  0.25500000920E-02 0.  1.
        2   -1    0    0  501    0  0.00000000000E+00  0.00000000000E+00 -0.21864935548E+04  0.21864935548E+04  0.25500000920E-02 0. -1.
    10030    2    1    2    0    0  0.00000000000E+00  0.00000000000E+00 -0.11610263408E+04  0.32119607687E+04  0.29947804286E+04 0.  0.
        1    1    3    3  502    0 -0.31988051247E+03 -0.28368399002E+03 -0.21196357413E+04  0.21623264842E+04  0.50400001928E-02 0. -1.
       -1    1    3    3    0  502  0.31988051247E+03  0.28368399002E+03  0.95860940049E+03  0.10496342845E+04  0.50400001928E-02 0.  1.
</event>
<event>
 5   0  0.1625212E-06  0.2994412E+04  0.7818609E-02  0.8245328E-01
       -2   -1    0    0    0  501  0.00000000000E+00  0.00000000000E+00  0.18271575731E+04  0.18271575731E+04  0.25500000920E-02 0.  1.
        2   -1    0    0  501    0  0.00000000000E+00  0.00000000000E+00 -0.12268373661E+04  0.12268373661E+04  0.25500000920E-02 0. -1.
    10030    2    1    2    0    0  0.00000000000E+00  0.00000000000E+00  0.60032020705E+03  0.30539949392E+04  0.29944115845E+04 0.  0.
        4    1    3    3  502    0 -0.21582338158E+02  0.93178601477E+03 -0.89487710317E+03  0.12920904060E+04  0.12699999809E+01 0. -1.
       -4    1    3    3    0  502  0.21582338158E+02 -0.93178601477E+03  0.14951973102E+04  0.17619045332E+04  0.12699999809E+01 0.  1.
</event>
<event>
 5   0  0.1635086E-06  0.2903198E+04  0.7818609E-02  0.8271927E-01
        2   -1    0    0  501    0  0.00000000000E+00  0.00000000000E+00  0.18976028364E+04  0.18976028364E+04  0.25500000920E-02 0.  1.
       -2   -1    0    0    0  501  0.00000000000E+00  0.00000000000E+00 -0.11104216573E+04  0.11104216573E+04  0.25500000920E-02 0. -1.
    10030    2    1    2    0    0  0.00000000000E+00  0.00000000000E+00  0.78718117910E+03  0.30080244937E+04  0.29031977449E+04 0.  0.
        3    1    3    3  502    0  0.39838592010E+03 -0.98512495817E+03 -0.63103353051E+03  0.12358745290E+04  0.10100000352E+00 0. -1.
       -3    1    3    3    0  502 -0.39838592010E+03  0.98512495817E+03  0.14182147096E+04  0.17721499647E+04  0.10100000352E+00 0.  1.
</event>
<event>
 5   0  0.6291798E-07  0.3007197E+04  0.7818609E-02  0.8241679E-01
       -1   -1    0    0    0  501  0.00000000000E+00  0.00000000000E+00  0.71794381432E+03  0.71794381433E+03  0.50400001928E-02 0. -1.
        1   -1    0    0  501    0  0.00000000000E+00  0.00000000000E+00 -0.31490042013E+04  0.31490042013E+04  0.50400001928E-02 0.  1.
    10030    2    1    2    0    0  0.00000000000E+00  0.00000000000E+00 -0.24310603870E+04  0.38669480157E+04  0.30071967595E+04 0.  0.
        1    1    3    3  502    0  0.79748824082E+03 -0.24138691466E+03  0.39392551113E+03  0.92164659450E+03  0.50400001928E-02 0. -1.
       -1    1    3    3    0  502 -0.79748824082E+03  0.24138691466E+03 -0.28249858981E+04  0.29453014212E+04  0.50400001928E-02 0.  1.
</event>
<event>
 5   0  0.1674806E-06  0.2986864E+04  0.7818609E-02  0.8247492E-01
       -2   -1    0    0    0  501  0.00000000000E+00  0.00000000000E+00  0.13431075500E+04  0.13431075500E+04  0.25500000920E-02 0.  1.
        2   -1    0    0  501    0  0.00000000000E+00  0.00000000000E+00 -0.16605809745E+04  0.16605809745E+04  0.25500000920E-02 0. -1.
    10030    2    1    2    0    0  0.00000000000E+00  0.00000000000E+00 -0.31747342445E+03  0.30036885245E+04  0.29868638029E+04 0.  0.
        2    1    3    3  502    0 -0.64798195869E+03  0.12230464753E+04  0.40532882173E+03  0.14422256250E+04  0.25500000920E-02 0.  1.
       -2    1    3    3    0  502  0.64798195869E+03 -0.12230464753E+04 -0.72280224618E+03  0.15614628996E+04  0.25500000920E-02 0. -1.
</event>
<event>
 5   0  0.6291798E-07  0.3009569E+04  0.7818609E-02  0.8241004E-01
       -1   -1    0    0    0  501  0.00000000000E+00  0.00000000000E+00  0.10131258134E+04  0.10131258134E+04  0.50400001928E-02 0. -1.
        1   -1    0    0  501    0  0.00000000000E+00  0.00000000000E+00 -0.22350402613E+04  0.22350402613E+04  0.50400001928E-02 0.  1.
    10030    2    1    2    0    0  0.00000000000E+00  0.00000000000E+00 -0.12219144479E+04  0.32481660747E+04  0.30095693929E+04 0.  0.
        1    1    3    3  502    0 -0.10077298150E+04 -0.65065629884E+03 -0.15915607515E+04  0.19929723091E+04  0.50400001928E-02 0.  1.
       -1    1    3    3    0  502  0.10077298150E+04  0.65065629884E+03  0.36964630361E+03  0.12551937655E+04  0.50400001928E-02 0. -1.
</event>
<event>
 5   0  0.5931588E-07  0.3013508E+04  0.7818609E-02  0.8239884E-01
       -1   -1    0    0    0  501  0.00000000000E+00  0.00000000000E+00  0.11817793990E+04  0.11817793991E+04  0.50400001928E-02 0.  1.
        1   -1    0    0  501    0  0.00000000000E+00  0.00000000000E+00 -0.19210930044E+04  0.19210930044E+04  0.50400001928E-02 0. -1.
    10030    2    1    2    0    0  0.00000000000E+00  0.00000000000E+00 -0.73931360531E+03  0.31028724034E+04  0.30135083449E+04 0.  0.
        2    1    3    3  502    0 -0.22365096587E+03 -0.99263905399E+03  0.77458359487E+03  0.12788009194E+04  0.25500000920E-02 0.  1.
       -2    1    3    3    0  502  0.22365096587E+03  0.99263905399E+03 -0.15138972002E+04  0.18240714840E+04  0.25500000920E-02 0. -1.
</event>
<event>
 5   0  0.1560174E-06  0.3005814E+04  0.7818609E-02  0.8242073E-01
        2   -1    0    0  501    0  0.00000000000E+00  0.00000000000E+00  0.91664954975E+03  0.91664954976E+03  0.25500000920E-02 0.  1.
       -2   -1    0    0    0  501  0.00000000000E+00  0.00000000000E+00 -0.24641151035E+04  0.24641151035E+04  0.25500000920E-02 0. -1.
    10030    2    1    2    0    0  0.00000000000E+00  0.00000000000E+00 -0.15474655538E+04  0.33807646533E+04  0.30058143656E+04 0.  0.
        5    1    3    3  502    0 -0.72977439910E+03 -0.79829149149E+03 -0.19473875978E+04  0.22275952337E+04  0.46999998093E+01 0. -1.
       -5    1    3    3    0  502  0.72977439910E+03  0.79829149149E+03  0.39992204406E+03  0.11531694196E+04  0.46999998093E+01 0.  1.
</event>
<event>
 5   0  0.6291798E-07  0.2998946E+04  0.7818609E-02  0.8244032E-01
        1   -1    0    0  501    0  0.00000000000E+00  0.00000000000E+00  0.10038692531E+04  0.10038692531E+04  0.50400001928E-02 0. -1.
       -1   -1    0    0    0  501  0.00000000000E+00  0.00000000000E+00 -0.22397532188E+04  0.22397532188E+04  0.50400001928E-02 0.  1.
    10030    2    1    2    0    0  0.00000000000E+00  0.00000000000E+00 -0.12358839657E+04  0.32436224719E+04  0.29989460755E+04 0.  0.
        1    1    3    3  502    0  0.58637956482E+02 -0.10656988991E+04  0.52120472298E+03  0.11877739334E+04  0.50400001928E-02 0. -1.
       -1    1    3    3    0  502 -0.58637956482E+02  0.10656988991E+04 -0.17570886887E+04  0.20558485385E+04  0.50400001928E-02 0.  1.
</event>
<event>
 5   0  0.1625212E-06  0.3012490E+04  0.7818609E-02  0.8240173E-01
        2   -1    0    0  501    0  0.00000000000E+00  0.00000000000E+00  0.22040194041E+04  0.22040194041E+04  0.25500000920E-02 0. -1.
       -2   -1    0    0    0  501  0.00000000000E+00  0.00000000000E+00 -0.10293800461E+04  0.10293800461E+04  0.25500000920E-02 0.  1.
    10030    2    1    2    0    0  0.00000000000E+00  0.00000000000E+00  0.11746393580E+04  0.32333994502E+04  0.30124897316E+04 0.  0.
        4    1    3    3  502    0  0.12440148889E+04  0.75322942859E+03  0.10083123976E+04  0.17696392627E+04  0.12699999809E+01 0. -1.
       -4    1    3    3    0  502 -0.12440148889E+04 -0.75322942859E+03  0.16632696038E+03  0.14637601875E+04  0.12699999809E+01 0.  1.
</event>
<event>
 5   0  0.5431625E-07  0.2998728E+04  0.7818609E-02  0.8244094E-01
       -3   -1    0    0    0  501  0.00000000000E+00  0.00000000000E+00  0.14487586189E+04  0.14487586224E+04  0.10100000352E+00 0.  1.
        3   -1    0    0  501    0  0.00000000000E+00  0.00000000000E+00 -0.15517373120E+04  0.15517373153E+04  0.10100000352E+00 0. -1.
    10030    2    1    2    0    0  0.00000000000E+00  0.00000000000E+00 -0.10297869314E+03  0.30004959377E+04  0.29987282739E+04 0.  0.
        4    1    3    3  502    0 -0.55851135905E+03 -0.11360405386E+04  0.75245683991E+03  0.14726560876E+04  0.12699999809E+01 0.  1.
       -4    1    3    3    0  502  0.55851135905E+03  0.11360405386E+04 -0.85543553305E+03  0.15278398501E+04  0.12699999809E+01 0. -1.
</event>
<event>
 5   0  0.1635086E-06  0.2982602E+04  0.7818609E-02  0.8248716E-01
        2   -1    0    0  501    0  0.00000000000E+00  0.00000000000E+00  0.30679088968E+04  0.30679088968E+04  0.25500000920E-02 0. -1.
       -2   -1    0    0    0  501  0.00000000000E+00  0.00000000000E+00 -0.72491696484E+03  0.72491696484E+03  0.25500000920E-02 0.  1.
    10030    2    1    2    0    0  0.00000000000E+00  0.00000000000E+00  0.23429919319E+04  0.37928258616E+04  0.29826023576E+04 0.  0.
        3    1    3    3  502    0  0.77435752821E+03 -0.12598295848E+04  0.92629815876E+03  0.17449436820E+04  0.10100000352E+00 0.  1.
       -3    1    3    3    0  502 -0.77435752821E+03  0.12598295848E+04  0.14166937732E+04  0.20478821796E+04  0.10100000352E+00 0. -1.
</event>
<event>
 5   0  0.1635086E-06  0.2932081E+04  0.7818609E-02  0.8263396E-01
        2   -1    0    0  501    0  0.00000000000E+00  0.00000000000E+00  0.27069961614E+04  0.27069961614E+04  0.25500000920E-02 0. -1.
       -2   -1    0    0    0  501  0.00000000000E+00  0.00000000000E+00 -0.79397013004E+03  0.79397013005E+03  0.25500000920E-02 0.  1.
    10030    2    1    2    0    0  0.00000000000E+00  0.00000000000E+00  0.19130260314E+04  0.35009662915E+04  0.29320805544E+04 0.  0.
        3    1    3    3  502    0 -0.77736592351E+03  0.29340214513E+03  0.23987064912E+04  0.25385380515E+04  0.10100000352E+00 0. -1.
       -3    1    3    3    0  502  0.77736592351E+03 -0.29340214513E+03 -0.48568045983E+03  0.96242823996E+03  0.10100000352E+00 0.  1.
</event>
<event>
 5   0  0.5887179E-07  0.2999207E+04  0.7818609E-02  0.8243957E-01
       -1   -1    0    0    0  501  0.00000000000E+00  0.00000000000E+00  0.16879323383E+04  0.16879323383E+04  0.50400001928E-02 0. -1.
        1   -1    0    0  501    0  0.00000000000E+00  0.00000000000E+00 -0.13322876082E+04  0.13322876082E+04  0.50400001928E-02 0.  1.
    10030    2    1    2    0    0  0.00000000000E+00  0.00000000000E+00  0.35564473012E+03  0.30202199465E+04  0.29992074538E+04 0.  0.
        3    1    3    3  502    0 -0.14726938037E+04  0.23964151406E+03  0.26582824158E+02  0.14923008247E+04  0.10100000352E+00 0.  1.
       -3    1    3    3    0  502  0.14726938037E+04 -0.23964151406E+03  0.32906190596E+03  0.15279191218E+04  0.10100000352E+00 0. -1.
</event>
<event>
 5   0  0.1674806E-06  0.2996824E+04  0.7818609E-02  0.8244638E-01
       -2   -1    0    0    0  501  0.00000000000E+00  0.00000000000E+00  0.92660688251E+03  0.92660688251E+03  0.25500000920E-02 0. -1.
        2   -1    0    0  501    0  0.00000000000E+00  0.00000000000E+00 -0.24230750401E+04  0.24230750401E+04  0.25500000920E-02 0.  1.
    10030    2    1    2    0    0  0.00000000000E+00  0.00000000000E+00 -0.14964681576E+04  0.33496819226E+04  0.29968236578E+04 0.  0.
        2    1    3    3  502    0  0.11443962431E+03 -0.14426460232E+03  0.91391162629E+03  0.93227847974E+03  0.25500000920E-02 0. -1.
       -2    1    3    3    0  502 -0.11443962431E+03  0.14426460232E+03 -0.24103797839E+04  0.24174034429E+04  0.25500000920E-02 0.  1.
</event>
<event>
 5   0  0.1625212E-06  0.3001411E+04  0.7818609E-02  0.8243328E-01
       -2   -1    0    0    0  501  0.00000000000E+00  0.00000000000E+00  0.15015256290E+04  0.15015256290E+04  0.25500000920E-02 0.  1.
        2   -1    0    0  501    0  0.00000000000E+00  0.00000000000E+00 -0.14998862896E+04  0.14998862896E+04  0.25500000920E-02 0. -1.
    10030    2    1    2    0    0  0.00000000000E+00  0.00000000000E+00  0.16393394195E+01  0.30014119186E+04  0.30014114709E+04 0.  0.
        4    1    3    3  502    0 -0.76032053749E+03 -0.22565770628E+03 -0.12731928324E+04  0.15000101072E+04  0.12699999809E+01 0. -1.
       -4    1    3    3    0  502  0.76032053749E+03  0.22565770628E+03  0.12748321718E+04  0.15014018114E+04  0.12699999809E+01 0.  1.
</event>
<event>
 5   0  0.1625212E-06  0.2994267E+04  0.7818609E-02  0.8245370E-01
        2   -1    0    0  501    0  0.00000000000E+00  0.00000000000E+00  0.13253415205E+04  0.13253415205E+04  0.25500000920E-02 0.  1.
       -2   -1    0    0    0  501  0.00000000000E+00  0.00000000000E+00 -0.16911938518E+04  0.16911938518E+04  0.25500000920E-02 0. -1.
    10030    2    1    2    0    0  0.00000000000E+00  0.00000000000E+00 -0.36585233128E+03  0.30165353723E+04  0.29942674770E+04 0.  0.
        4    1    3    3  502    0  0.83293601266E+03  0.60409703079E+02 -0.14347352926E+04  0.16600899693E+04  0.12699999809E+01 0. -1.
       -4    1    3    3    0  502 -0.83293601266E+03 -0.60409703079E+02  0.10688829613E+04  0.13564454030E+04  0.12699999809E+01 0.  1.
</event>
<event>
 5   0  0.5874741E-07  0.3001358E+04  0.7818609E-02  0.8243343E-01
       -1   -1    0    0    0  501  0.00000000000E+00  0.00000000000E+00  0.16747951887E+04  0.16747951888E+04  0.50400001928E-02 0. -1.
        1   -1    0    0  501    0  0.00000000000E+00  0.00000000000E+00 -0.13446647671E+04  0.13446647671E+04  0.50400001928E-02 0.  1.
    10030    2    1    2    0    0  0.00000000000E+00  0.00000000000E+00  0.33013042168E+03  0.30194599558E+04  0.30013584140E+04 0.  0.
        4    1    3    3  502    0 -0.11924497013E+04 -0.55780043095E+03 -0.55966752465E+03  0.14304918602E+04  0.12699999809E+01 0. -1.
       -4    1    3    3    0  502  0.11924497013E+04  0.55780043095E+03  0.88979794633E+03  0.15889680957E+04  0.12699999809E+01 0.  1.
</event>
<event>
 5   0  0.5887179E-07  0.2974161E+04  0.7818609E-02  0.8251148E-01
       -1   -1    0    0    0  501  0.00000000000E+00  0.00000000000E+00  0.24862956685E+04  0.24862956685E+04  0.50400001928E-02 0.  1.
        1   -1    0    0  501    0  0.00000000000E+00  0.00000000000E+00 -0.88943917506E+03  0.88943917507E+03  0.50400001928E-02 0. -1.
    10030    2    1    2    0    0  0.00000000000E+00  0.00000000000E+00  0.15968564934E+04  0.33757348435E+04  0.29741612386E+04 0.  0.
        3    1    3    3  502    0  0.90142909439E+03 -0.35625567073E+03  0.20784963438E+04  0.22933904109E+04  0.10100000352E+00 0.  1.
       -3    1    3    3    0  502 -0.90142909439E+03  0.35625567073E+03 -0.48163985046E+03  0.10823444326E+04  0.10100000352E+00 0. -1.
</event>
<event>
 5   0  0.6291798E-07  0.3110009E+04  0.7818609E-02  0.8212996E-01
       -1   -1    0    0    0  501  0.00000000000E+00  0.00000000000E+00  0.11155770573E+04  0.11155770574E+04  0.50400001928E-02 0. -1.
        1   -1    0    0  501    0  0.00000000000E+00  0.00000000000E+00 -0.21675229856E+04  0.21675229856E+04  0.50400001928E-02 0.  1.
    10030    2    1    2    0    0  0.00000000000E+00  0.00000000000E+00 -0.10519459282E+04  0.32831000429E+04  0.31100089479E+04 0.  0.
        1    1    3    3  502    0  0.11739372820E+04  0.34772063315E+01  0.55053653556E+03  0.12966230409E+04  0.50400001928E-02 0. -1.
       -1    1    3    3    0  502 -0.11739372820E+04 -0.34772063315E+01 -0.16024824638E+04  0.19864770021E+04  0.50400001928E-02 0.  1.
</event>
<event>
 5   0  0.5874741E-07  0.2989141E+04  0.7818609E-02  0.8246838E-01
        1   -1    0    0  501    0  0.00000000000E+00  0.00000000000E+00  0.17624343261E+04  0.17624343261E+04  0.50400001928E-02 0. -1.
       -1   -1    0    0    0  501  0.00000000000E+00  0.00000000000E+00 -0.12674182584E+04  0.12674182584E+04  0.50400001928E-02 0.  1.
    10030    2    1    2    0    0  0.00000000000E+00  0.00000000000E+00  0.49501606765E+03  0.30298525845E+04  0.29891413109E+04 0.  0.
        4    1    3    3  502    0 -0.13765373661E+04 -0.26432876372E+03  0.77323870310E+03  0.16008199525E+04  0.12699999809E+01 0. -1.
       -4    1    3    3    0  502  0.13765373661E+04  0.26432876372E+03 -0.27822263546E+03  0.14290326320E+04  0.12699999809E+01 0.  1.
</event>
<event>
 5   0  0.6291798E-07  0.3004333E+04  0.7818609E-02  0.8242495E-01
       -1   -1    0    0    0  501  0.00000000000E+00  0.00000000000E+00  0.10906064195E+04  0.10906064195E+04  0.50400001928E-02 0. -1.
        1   -1    0    0  501    0  0.00000000000E+00  0.00000000000E+00 -0.20690356871E+04  0.20690356871E+04  0.50400001928E-02 0.  1.
    10030    2    1    2    0    0  0.00000000000E+00  0.00000000000E+00 -0.97842926761E+03  0.31596421066E+04  0.30043326064E+04 0.  0.
        1    1    3    3  502    0  0.12149477758E+04 -0.54047450573E+03  0.24568841247E+03  0.13522476051E+04  0.50400001928E-02 0. -1.
       -1    1    3    3    0  502 -0.12149477758E+04  0.54047450573E+03 -0.12241176801E+04  0.18073945015E+04  0.50400001928E-02 0.  1.
</event>
<event>
 5   0  0.1674806E-06  0.3010342E+04  0.7818609E-02  0.8240784E-01
        2   -1    0    0  501    0  0.00000000000E+00  0.00000000000E+00  0.16337457280E+04  0.16337457280E+04  0.25500000920E-02 0. -1.
       -2   -1    0    0    0  501  0.00000000000E+00  0.00000000000E+00 -0.13867152167E+04  0.13867152167E+04  0.25500000920E-02 0.  1.
    10030    2    1    2    0    0  0.00000000000E+00  0.00000000000E+00  0.24703051125E+03  0.30204609447E+04  0.30103422139E+04 0.  0.
        2    1    3    3  502    0  0.65768761945E+03  0.13420476233E+04  0.30270792791E+03  0.15248858704E+04  0.25500000920E-02 0. -1.
       -2    1    3    3    0  502 -0.65768761945E+03 -0.13420476233E+04 -0.55677416664E+02  0.14955750743E+04  0.25500000920E-02 0.  1.
</event>
<event>
 5   0  0.5874741E-07  0.2991049E+04  0.7818609E-02  0.8246291E-01
       -1   -1    0    0    0  501  0.00000000000E+00  0.00000000000E+00  0.11576935564E+04  0.11576935564E+04  0.50400001928E-02 0.  1.
        1   -1    0    0  501    0  0.00000000000E+00  0.00000000000E+00 -0.19319396529E+04  0.19319396529E+04  0.50400001928E-02 0. -1.
    10030    2    1    2    0    0  0.00000000000E+00  0.00000000000E+00 -0.77424609651E+03  0.30896332093E+04  0.29910493728E+04 0.  0.
        4    1    3    3  502    0  0.63644872574E+03  0.41429330310E+03 -0.17179529369E+04  0.18783156891E+04  0.12699999809E+01 0. -1.
       -4    1    3    3    0  502 -0.63644872574E+03 -0.41429330310E+03  0.94370684038E+03  0.12113175203E+04  0.12699999809E+01 0.  1.
</event>
<event>
 5   0  0.1625212E-06  0.2999919E+04  0.7818609E-02  0.8243754E-01
       -2   -1    0    0    0  501  0.00000000000E+00  0.00000000000E+00  0.14089269489E+04  0.14089269489E+04  0.25500000920E-02 0.  1.
        2   -1    0    0  501    0  0.00000000000E+00  0.00000000000E+00 -0.15968737685E+04  0.15968737685E+04  0.25500000920E-02 0. -1.
    10030    2    1    2    0    0  0.00000000000E+00  0.00000000000E+00 -0.18794681960E+03  0.30058007173E+04  0.29999189898E+04 0.  0.
        4    1    3    3  502    0  0.19869345095E+03 -0.10570623677E+04  0.95355088078E+03  0.14374007207E+04  0.12699999809E+01 0.  1.
       -4    1    3    3    0  502 -0.19869345095E+03  0.10570623677E+04 -0.11414977004E+04  0.15683999967E+04  0.12699999809E+01 0. -1.
</event>
<event>
 5   0  0.6291798E-07  0.3001087E+04  0.7818609E-02  0.8243420E-01
       -1   -1    0    0    0  501  0.00000000000E+00  0.00000000000E+00  0.11566377814E+04  0.11566377814E+04  0.50400001928E-02 0.  1.
        1   -1    0    0  501    0  0.00000000000E+00  0.00000000000E+00 -0.19467041203E+04  0.19467041203E+04  0.50400001928E-02 0. -1.
    10030    2    1    2    0    0  0.00000000000E+00  0.00000000000E+00 -0.79006633889E+03  0.31033419017E+04  0.30010874927E+04 0.  0.
        1    1    3    3  502    0 -0.51289857773E+03 -0.12331768621E+04 -0.11023276981E+04  0.17317379936E+04  0.50400001928E-02 0. -1.
       -1    1    3    3    0  502  0.51289857773E+03  0.12331768621E+04  0.31226135925E+03  0.13716039081E+04  0.50400001928E-02 0.  1.
</event>
<event>
 5   0  0.5887179E-07  0.2990791E+04  0.7818609E-02  0.8246365E-01
       -1   -1    0    0    0  501  0.00000000000E+00  0.00000000000E+00  0.12975200894E+04  0.12975200894E+04  0.50400001928E-02 0. -1.
        1   -1    0    0  501    0  0.00000000000E+00  0.00000000000E+00 -0.17234474745E+04  0.17234474745E+04  0.50400001928E-02 0.  1.
    10030    2    1    2    0    0  0.00000000000E+00  0.00000000000E+00 -0.42592738509E+03  0.30209675638E+04  0.29907910132E+04 0.  0.
        3    1    3    3  502    0 -0.56712755951E+03  0.13666754540E+04 -0.43141472737E+03  0.15412832778E+04  0.10100000352E+00 0.  1.
       -3    1    3    3    0  502  0.56712755951E+03 -0.13666754540E+04  0.54873422778E+01  0.14796842860E+04  0.10100000352E+00 0. -1.
</event>
<event>
 5   0  0.1674806E-06  0.3003587E+04  0.7818609E-02  0.8242707E-01
        2   -1    0    0  501    0  0.00000000000E+00  0.00000000000E+00  0.26663669005E+04  0.26663669006E+04  0.25500000920E-02 0. -1.
       -2   -1    0    0    0  501  0.00000000000E+00  0.00000000000E+00 -0.84586419634E+03  0.84586419635E+03  0.25500000920E-02 0.  1.
    10030    2    1    2    0    0  0.00000000000E+00  0.00000000000E+00  0.18205027042E+04  0.35122310969E+04  0.30035873854E+04 0.  0.
        2    1    3    3  502    0 -0.29467916759E+03 -0.11017436115E+04 -0.23230711678E+03  0.11638906279E+04  0.25500000920E-02 0.  1.
       -2    1    3    3    0  502  0.29467916759E+03  0.11017436115E+04  0.20528098210E+04  0.23483404690E+04  0.25500000920E-02 0. -1.
</event>
<event>
 5   0  0.1635086E-06  0.2903191E+04  0.7818609E-02  0.8271929E-01
        2   -1    0    0  501    0  0.00000000000E+00  0.00000000000E+00  0.21473669146E+04  0.21473669146E+04  0.25500000920E-02 0.  1.
       -2   -1    0    0    0  501  0.00000000000E+00  0.00000000000E+00 -0.98126227292E+03  0.98126227292E+03  0.25500000920E-02 0. -1.
    10030    2    1    2    0    0  0.00000000000E+00  0.00000000000E+00  0.11661046417E+04  0.31286291875E+04  0.29031914435E+04 0.  0.
        3    1    3    3  502    0  0.92823945357E+03 -0.78296496131E+03  0.14400852909E+04  0.18837484622E+04  0.10100000352E+00 0.  1.
       -3    1    3    3    0  502 -0.92823945357E+03  0.78296496131E+03 -0.27398064920E+03  0.12448807253E+04  0.10100000352E+00 0. -1.
</event>
<event>
 5   0  0.1560174E-06  0.2995633E+04  0.7818609E-02  0.8244979E-01
        2   -1    0    0  501    0  0.00000000000E+00  0.00000000000E+00  0.12702433948E+04  0.12702433948E+04  0.25500000920E-02 0.  1.
       -2   -1    0    0    0  501  0.00000000000E+00  0.00000000000E+00 -0.17661613759E+04  0.17661613759E+04  0.25500000920E-02 0. -1.
    10030    2    1    2    0    0  0.00000000000E+00  0.00000000000E+00 -0.49591798110E+03  0.30364047707E+04  0.29956333700E+04 0.  0.
        5    1    3    3  502    0  0.22090689335E+03 -0.90193578280E+03 -0.14391752127E+04  0.17127566653E+04  0.46999998093E+01 0. -1.
       -5    1    3    3    0  502 -0.22090689335E+03  0.90193578280E+03  0.94325723159E+03  0.13236481053E+04  0.46999998093E+01 0.  1.
</event>
<event>
 5   0  0.5874741E-07  0.2987335E+04  0.7818609E-02  0.8247357E-01
       -1   -1    0    0    0  501  0.00000000000E+00  0.00000000000E+00  0.15116399000E+04  0.15116399000E+04  0.50400001928E-02 0.  1.
        1   -1    0    0  501    0  0.00000000000E+00  0.00000000000E+00 -0.14759083581E+04  0.14759083581E+04  0.50400001928E-02 0. -1.
    10030    2    1    2    0    0  0.00000000000E+00  0.00000000000E+00  0.35731541870E+02  0.29875482581E+04  0.29873345731E+04 0.  0.
        4    1    3    3  502    0  0.87250210986E+03  0.12040453249E+04  0.15949254511E+03  0.14954680073E+04  0.12699999809E+01 0.  1.
       -4    1    3    3    0  502 -0.87250210986E+03 -0.12040453249E+04 -0.12376100324E+03  0.14920802508E+04  0.12699999809E+01 0. -1.
</event>
<event>
 5   0  0.6291798E-07  0.2998547E+04  0.7818609E-02  0.8244146E-01
       -1   -1    0    0    0  501  0.00000000000E+00  0.00000000000E+00  0.14986953161E+04  0.14986953161E+04  0.50400001928E-02 0. -1.
        1   -1    0    0  501    0  0.00000000000E+00  0.00000000000E+00 -0.14998521199E+04  0.14998521199E+04  0.50400001928E-02 0.  1.
    10030    2    1    2    0    0  0.00000000000E+00  0.00000000000E+00 -0.11568038132E+01  0.29985474361E+04  0.29985472129E+04 0.  0.
        1    1    3    3  502    0  0.11984752612E+04  0.44848965520E+03 -0.78181813162E+03  0.14995751110E+04  0.50400001928E-02 0.  1.
       -1    1    3    3    0  502 -0.11984752612E+04 -0.44848965520E+03  0.78066132781E+03  0.14989723251E+04  0.50400001928E-02 0. -1.
</event>
<event>
 5   0  0.5887179E-07  0.3005741E+04  0.7818609E-02  0.8242093E-01
        1   -1    0    0  501    0  0.00000000000E+00  0.00000000000E+00  0.19878928059E+04  0.19878928059E+04  0.50400001928E-02 0.  1.
       -1   -1    0    0    0  501  0.00000000000E+00  0.00000000000E+00 -0.11361877705E+04  0.11361877705E+04  0.50400001928E-02 0. -1.
    10030    2    1    2    0    0  0.00000000000E+00  0.00000000000E+00  0.85170503544E+03  0.31240805764E+04  0.30057408372E+04 0.  0.
        3    1    3    3  502    0 -0.64137326680E+02 -0.11332899484E+04 -0.59789374207E+03  0.12829406225E+04  0.10100000352E+00 0. -1.
       -3    1    3    3    0  502  0.64137326680E+02  0.11332899484E+04  0.14495987775E+04  0.18411399539E+04  0.10100000352E+00 0.  1.
</event>
<event>
 5   0  0.1635086E-06  0.3001871E+04  0.7818609E-02  0.8243197E-01
        2   -1    0    0  501    0  0.00000000000E+00  0.00000000000E+00  0.16572654045E+04  0.16572654045E+04  0.25500000920E-02 0.  1.
       -2   -1    0    0    0  501  0.00000000000E+00  0.00000000000E+00 -0.13593522184E+04  0.13593522184E+04  0.25500000920E-02 0. -1.
    10030    2    1    2    0    0  0.00000000000E+00  0.00000000000E+00  0.29791318606E+03  0.30166176229E+04  0.30018710193E+04 0.  0.
        3    1    3    3  502    0 -0.81837550073E+03 -0.11448046106E+04 -0.37561477919E+03  0.14565035287E+04  0.10100000352E+00 0. -1.
       -3    1    3    3    0  502  0.81837550073E+03  0.11448046106E+04  0.67352796525E+03  0.15601140942E+04  0.10100000352E+00 0.  1.
</event>
<event>
 5   0  0.1674806E-06  0.2939459E+04  0.7818609E-02  0.8261233E-01
       -2   -1    0    0    0  501  0.00000000000E+00  0.00000000000E+00  0.13235854477E+04  0.13235854477E+04  0.25500000920E-02 0.  1.
        2   -1    0    0  501    0  0.00000000000E+00  0.00000000000E+00 -0.16320100580E+04  0.16320100580E+04  0.25500000920E-02 0. -1.
    10030    2    1    2    0    0  0.00000000000E+00  0.00000000000E+00 -0.30842461023E+03  0.29555955057E+04  0.29394589728E+04 0.  0.
        2    1    3    3  502    0  0.37335326035E+03 -0.14323695935E+03 -0.15762587913E+04  0.16261922582E+04  0.25500000920E-02 0. -1.
       -2    1    3    3    0  502 -0.37335326035E+03  0.14323695935E+03  0.12678341811E+04  0.13294032474E+04  0.25500000920E-02 0.  1.
</event>
<event>
 5   0  0.5931588E-07  0.2989681E+04  0.7818609E-02  0.8246684E-01
        1   -1    0    0  501    0  0.00000000000E+00  0.00000000000E+00  0.13893361516E+04  0.13893361516E+04  0.50400001928E-02 0. -1.
       -1   -1    0    0    0  501  0.00000000000E+00  0.00000000000E+00 -0.16083564275E+04  0.16083564275E+04  0.50400001928E-02 0.  1.
    10030    2    1    2    0    0  0.00000000000E+00  0.00000000000E+00 -0.21902027588E+03  0.29976925791E+04  0.29896807384E+04 0.  0.
        2    1    3    3  502    0 -0.90653732993E+03  0.27615187232E+03 -0.12686695798E+04  0.15835379028E+04  0.25500000920E-02 0.  1.
       -2    1    3    3    0  502  0.90653732993E+03 -0.27615187232E+03  0.10496493039E+04  0.14141546762E+04  0.25500000920E-02 0. -1.
</event>
<event>
 5   0  0.5931588E-07  0.3006782E+04  0.7818609E-02  0.8241797E-01
       -1   -1    0    0    0  501  0.00000000000E+00  0.00000000000E+00  0.15895372317E+04  0.15895372317E+04  0.50400001928E-02 0. -1.
        1   -1    0    0  501    0  0.00000000000E+00  0.00000000000E+00 -0.14219136717E+04  0.14219136717E+04  0.50400001928E-02 0.  1.
    10030    2    1    2    0    0  0.00000000000E+00  0.00000000000E+00  0.16762356008E+03  0.30114509034E+04  0.30067821480E+04 0.  0.
        2    1    3    3  502    0 -0.23774317676E+03 -0.13186029142E+04  0.76674242881E+03  0.15437387783E+04  0.25500000920E-02 0.  1.
       -2    1    3    3    0  502  0.23774317676E+03  0.13186029142E+04 -0.59911886873E+03  0.14677121251E+04  0.25500000920E-02 0. -1.
</event>
<event>
 5   0  0.1625212E-06  0.3086930E+04  0.7818609E-02  0.8219334E-01
        2   -1    0    0  501    0  0.00000000000E+00  0.00000000000E+00  0.14104867143E+04  0.14104867143E+04  0.25500000920E-02 0. -1.
       -2   -1    0    0    0  501  0.00000000000E+00  0.00000000000E+00 -0.16889803746E+04  0.16889803746E+04  0.25500000920E-02 0.  1.
    10030    2    1    2    0    0  0.00000000000E+00  0.00000000000E+00 -0.27849366035E+03  0.30994670889E+04  0.30869301120E+04 0.  0.
        4    1    3    3  502    0  0.13402931671E+04  0.75656705741E+03 -0.22571276857E+02  0.15392499997E+04  0.12699999809E+01 0. -1.
       -4    1    3    3    0  502 -0.13402931671E+04 -0.75656705741E+03 -0.25592238349E+03  0.15602170892E+04  0.12699999809E+01 0.  1.
</event>
<event>
 5   0  0.5887179E-07  0.2988227E+04  0.7818609E-02  0.8247101E-01
       -1   -1    0    0    0  501  0.00000000000E+00  0.00000000000E+00  0.80488485403E+03  0.80488485404E+03  0.50400001928E-02 0. -1.
        1   -1    0    0  501    0  0.00000000000E+00  0.00000000000E+00 -0.27735336439E+04  0.27735336439E+04  0.50400001928E-02 0.  1.
    10030    2    1    2    0    0  0.00000000000E+00  0.00000000000E+00 -0.19686487898E+04  0.35784184979E+04  0.29882270477E+04 0.  0.
        3    1    3    3  502    0  0.11025586248E+03  0.79985571619E+03 -0.24897797317E+04  0.26174278680E+04  0.10100000352E+00 0.  1.
       -3    1    3    3    0  502 -0.11025586248E+03 -0.79985571619E+03  0.52113094185E+03  0.96099062986E+03  0.10100000352E+00 0. -1.
</event>
<event>
 5   0  0.1723916E-06  0.2993173E+04  0.7818609E-02  0.8245683E-01
       -2   -1    0    0    0  501  0.00000000000E+00  0.00000000000E+00  0.19601988131E+04  0.19601988131E+04  0.25500000920E-02 0.  1.
        2   -1    0    0  501    0  0.00000000000E+00  0.00000000000E+00 -0.11426245296E+04  0.11426245296E+04  0.25500000920E-02 0. -1.
    10030    2    1    2    0    0  0.00000000000E+00  0.00000000000E+00  0.81757428354E+03  0.31028233427E+04  0.29931730633E+04 0.  0.
        1    1    3    3  502    0  0.22616545353E+03 -0.13135047733E+04 -0.29682881156E+03  0.13654863402E+04  0.50400001928E-02 0. -1.
       -1    1    3    3    0  502 -0.22616545353E+03  0.13135047733E+04  0.11144030951E+04  0.17373370025E+04  0.50400001928E-02 0.  1.
</event>
<event>
 5   0  0.5931588E-07  0.2999504E+04  0.7818609E-02  0.8243872E-01
        1   -1    0    0  501    0  0.00000000000E+00  0.00000000000E+00  0.29985303113E+04  0.29985303113E+04  0.50400001928E-02 0.  1.
       -1   -1    0    0    0  501  0.00000000000E+00  0.00000000000E+00 -0.75011967165E+03  0.75011967167E+03  0.50400001928E-02 0. -1.
    10030    2    1    2    0    0  0.00000000000E+00  0.00000000000E+00  0.22484106396E+04  0.37486499829E+04  0.29995043408E+04 0.  0.
        2    1    3    3  502    0 -0.10218936944E+04 -0.34502483344E+03 -0.17815109820E+03  0.10931819026E+04  0.25500000920E-02 0. -1.
       -2    1    3    3    0  502  0.10218936944E+04  0.34502483344E+03  0.24265617378E+04  0.26554680804E+04  0.25500000920E-02 0.  1.
</event>
<event>
 5   0  0.5874741E-07  0.3008717E+04  0.7818609E-02  0.8241246E-01
        1   -1    0    0  501    0  0.00000000000E+00  0.00000000000E+00  0.17649770760E+04  0.17649770760E+04  0.50400001928E-02 0.  1.
       -1   -1    0    0    0  501  0.00000000000E+00  0.00000000000E+00 -0.12822235410E+04  0.12822235410E+04  0.50400001928E-02 0. -1.
    10030    2    1    2    0    0  0.00000000000E+00  0.00000000000E+00  0.48275353503E+03  0.30472006170E+04  0.30087174384E+04 0.  0.
        4    1    3    3  502    0  0.43984305545E+03  0.11671533282E+04  0.10931960899E+04  0.16585500019E+04  0.12699999809E+01 0.  1.
       -4    1    3    3    0  502 -0.43984305545E+03 -0.11671533282E+04 -0.61044255484E+03  0.13886506150E+04  0.12699999809E+01 0. -1.
</event>
<event>
 5   0  0.1625212E-06  0.2967508E+04  0.7818609E-02  0.8253071E-01
       -2   -1    0    0    0  501  0.00000000000E+00  0.00000000000E+00  0.13786155001E+04  0.13786155001E+04  0.25500000920E-02 0.  1.
        2   -1    0    0  501    0  0.00000000000E+00  0.00000000000E+00 -0.15969104735E+04  0.15969104735E+04  0.25500000920E-02 0. -1.
    10030    2    1    2    0    0  0.00000000000E+00  0.00000000000E+00 -0.21829497340E+03  0.29755259736E+04  0.29675077294E+04 0.  0.
        4    1    3    3  502    0 -0.26416205143E+03  0.82717171930E+03  0.10972365025E+04  0.13992584457E+04  0.12699999809E+01 0.  1.
       -4    1    3    3    0  502  0.26416205143E+03 -0.82717171930E+03 -0.13155314759E+04  0.15762675279E+04  0.12699999809E+01 0. -1.
</event>
<event>
 5   0  0.1674806E-06  0.2990284E+04  0.7818609E-02  0.8246511E-01
       -2   -1    0    0    0  501  0.00000000000E+00  0.00000000000E+00  0.13475187644E+04  0.13475187644E+04  0.25500000920E-02 0.  1.
        2   -1    0    0  501    0  0.00000000000E+00  0.00000000000E+00 -0.16589378309E+04  0.16589378309E+04  0.25500000920E-02 0. -1.
    10030    2    1    2    0    0  0.00000000000E+00  0.00000000000E+00 -0.31141906645E+03  0.30064565953E+04  0.29902841712E+04 0.  0.
        2    1    3    3  502    0  0.57451150997E+03 -0.13414528223E+04 -0.48287797044E+03  0.15371175244E+04  0.25500000920E-02 0. -1.
       -2    1    3    3    0  502 -0.57451150997E+03  0.13414528223E+04  0.17145890399E+03  0.14693390709E+04  0.25500000920E-02 0.  1.
</event>
<event>
 5   0  0.5916703E-07  0.3019838E+04  0.7818609E-02  0.8238089E-01
        1   -1    0    0  501    0  0.00000000000E+00  0.00000000000E+00  0.12984691186E+04  0.12984691186E+04  0.50400001928E-02 0.  1.
       -1   -1    0    0    0  501  0.00000000000E+00  0.00000000000E+00 -0.17558024771E+04  0.17558024771E+04  0.50400001928E-02 0. -1.
    10030    2    1    2    0    0  0.00000000000E+00  0.00000000000E+00 -0.45733335852E+03  0.30542715957E+04  0.30198379393E+04 0.  0.
        5    1    3    3  502    0 -0.50518497959E+03  0.45623520017E+03  0.11344662989E+04  0.13230261883E+04  0.46999998093E+01 0.  1.
       -5    1    3    3    0  502  0.50518497959E+03 -0.45623520017E+03 -0.15917996574E+04  0.17312454075E+04  0.46999998093E+01 0. -1.
</event>
<event>
 5   0  0.1560174E-06  0.2994969E+04  0.7818609E-02  0.8245169E-01
       -2   -1    0    0    0  501  0.00000000000E+00  0.00000000000E+00  0.93062307114E+03  0.93062307115E+03  0.25500000920E-02 0.  1.
        2   -1    0    0  501    0  0.00000000000E+00  0.00000000000E+00 -0.24096321743E+04  0.24096321743E+04  0.25500000920E-02 0. -1.
    10030    2    1    2    0    0  0.00000000000E+00  0.00000000000E+00 -0.14790091032E+04  0.33402552454E+04  0.29949686438E+04 0.  0.
        5    1    3    3  502    0 -0.11478326934E+04 -0.69255473402E+03 -0.14837334521E+04  0.19996597207E+04  0.46999998093E+01 0. -1.
       -5    1    3    3    0  502  0.11478326934E+04  0.69255473402E+03  0.47243489533E+01  0.13405955248E+04  0.46999998093E+01 0.  1.
</event>
<event>
 5   0  0.1674806E-06  0.3001215E+04  0.7818609E-02  0.8243384E-01
       -2   -1    0    0    0  501  0.00000000000E+00  0.00000000000E+00  0.99441565570E+03  0.99441565571E+03  0.25500000920E-02 0. -1.
        2   -1    0    0  501    0  0.00000000000E+00  0.00000000000E+00 -0.22644688284E+04  0.22644688284E+04  0.25500000920E-02 0.  1.
    10030    2    1    2    0    0  0.00000000000E+00  0.00000000000E+00 -0.12700531727E+04  0.32588844841E+04  0.30012152571E+04 0.  0.
        2    1    3    3  502    0 -0.37481256565E+01  0.62810399314E+03 -0.21148579129E+04  0.22061624298E+04  0.25500000920E-02 0.  1.
       -2    1    3    3    0  502  0.37481256565E+01 -0.62810399314E+03  0.84480474021E+03  0.10527220544E+04  0.25500000920E-02 0. -1.
</event>
<event>
 5   0  0.1560174E-06  0.3005945E+04  0.7818609E-02  0.8242035E-01
       -2   -1    0    0    0  501  0.00000000000E+00  0.00000000000E+00  0.15473437106E+04  0.15473437106E+04  0.25500000920E-02 0.  1.
        2   -1    0    0  501    0  0.00000000000E+00  0.00000000000E+00 -0.14598733218E+04  0.14598733218E+04  0.25500000920E-02 0. -1.
    10030    2    1    2    0    0  0.00000000000E+00  0.00000000000E+00  0.87470388776E+02  0.30072170323E+04  0.30059446453E+04 0.  0.
        5    1    3    3  502    0  0.15147931623E+03  0.66946669343E+03  0.13813771080E+04  0.15425162694E+04  0.46999998093E+01 0.  1.
       -5    1    3    3    0  502 -0.15147931623E+03 -0.66946669343E+03 -0.12939067192E+04  0.14647007629E+04  0.46999998093E+01 0. -1.
</event>
<event>
 5   0  0.5887179E-07  0.3013382E+04  0.7818609E-02  0.8239920E-01
       -1   -1    0    0    0  501  0.00000000000E+00  0.00000000000E+00  0.12453060537E+04  0.12453060537E+04  0.50400001928E-02 0. -1.
        1   -1    0    0  501    0  0.00000000000E+00  0.00000000000E+00 -0.18229394226E+04  0.18229394226E+04  0.50400001928E-02 0.  1.
    10030    2    1    2    0    0  0.00000000000E+00  0.00000000000E+00 -0.57763336887E+03  0.30682454763E+04  0.30133818202E+04 0.  0.
        3    1    3    3  502    0  0.39007115473E+03 -0.65325516113E+03  0.10353295512E+04  0.12848366048E+04  0.10100000352E+00 0. -1.
       -3    1    3    3    0  502 -0.39007115473E+03  0.65325516113E+03 -0.16129629201E+04  0.17834088715E+04  0.10100000352E+00 0.  1.
</event>
<event>
 5   0  0.1723916E-06  0.3028951E+04  0.7818609E-02  0.8235512E-01
        2   -1    0    0  501    0  0.00000000000E+00  0.00000000000E+00  0.15388458851E+04  0.15388458851E+04  0.25500000920E-02 0. -1.
       -2   -1    0    0    0  501  0.00000000000E+00  0.00000000000E+00 -0.14904913295E+04  0.14904913295E+04  0.25500000920E-02 0.  1.
    10030    2    1    2    0    0  0.00000000000E+00  0.00000000000E+00  0.48354555623E+02  0.30293372146E+04  0.30289512701E+04 0.  0.
        1    1    3    3  502    0 -0.13834844050E+04  0.27394608784E+03 -0.52776339801E+03  0.15058584801E+04  0.50400001928E-02 0.  1.
       -1    1    3    3    0  502  0.13834844050E+04 -0.27394608784E+03  0.57611795363E+03  0.15234787345E+04  0.50400001928E-02 0. -1.
</event>
<event>
 5   0  0.5887179E-07  0.3002782E+04  0.7818609E-02  0.8242937E-01
        1   -1    0    0  501    0  0.00000000000E+00  0.00000000000E+00  0.14041505441E+04  0.14041505441E+04  0.50400001928E-02 0. -1.
       -1   -1    0    0    0  501  0.00000000000E+00  0.00000000000E+00 -0.16053659687E+04  0.16053659687E+04  0.50400001928E-02 0.  1.
    10030    2    1    2    0    0  0.00000000000E+00  0.00000000000E+00 -0.20121542460E+03  0.30095165128E+04  0.30027823753E+04 0.  0.
        3    1    3    3  502    0  0.17626975496E+03 -0.70029854885E+03 -0.14198751895E+04  0.15929641075E+04  0.10100000352E+00 0.  1.
       -3    1    3    3    0  502 -0.17626975496E+03  0.70029854885E+03  0.12186597649E+04  0.14165524052E+04  0.10100000352E+00 0. -1.
</event>
<event>
 5   0  0.1674806E-06  0.3003287E+04  0.7818609E-02  0.8242793E-01
       -2   -1    0    0    0  501  0.00000000000E+00  0.00000000000E+00  0.17492968365E+04  0.17492968365E+04  0.25500000920E-02 0. -1.
        2   -1    0    0  501    0  0.00000000000E+00  0.00000000000E+00 -0.12890510247E+04  0.12890510247E+04  0.25500000920E-02 0.  1.
    10030    2    1    2    0    0  0.00000000000E+00  0.00000000000E+00  0.46024581176E+03  0.30383478612E+04  0.30032867859E+04 0.  0.
        2    1    3    3  502    0  0.13409355220E+04 -0.38829678796E+03 -0.32955372347E+03  0.14343946899E+04  0.25500000920E-02 0.  1.
       -2    1    3    3    0  502 -0.13409355220E+04  0.38829678796E+03  0.78979953523E+03  0.16039531713E+04  0.25500000920E-02 0. -1.
</event>
<event>
 5   0  0.1635086E-06  0.3009540E+04  0.7818609E-02  0.8241012E-01
        2   -1    0    0  501    0  0.00000000000E+00  0.00000000000E+00  0.19825762209E+04  0.19825762209E+04  0.25500000920E-02 0.  1.
       -2   -1    0    0    0  501  0.00000000000E+00  0.00000000000E+00 -0.11421162940E+04  0.11421162940E+04  0.25500000920E-02 0. -1.
    10030    2    1    2    0    0  0.00000000000E+00  0.00000000000E+00  0.84045992689E+03  0.31246925149E+04  0.30095399024E+04 0.  0.
        3    1    3    3  502    0 -0.59867475698E+03 -0.44537919107E+03  0.17769648043E+04  0.19272721693E+04  0.10100000352E+00 0.  1.
       -3    1    3    3    0  502  0.59867475698E+03  0.44537919107E+03 -0.93650487745E+03  0.11974203456E+04  0.10100000352E+00 0. -1.
</event>
<event>
 5   0  0.1723916E-06  0.2993866E+04  0.7818609E-02  0.8245485E-01
       -2   -1    0    0    0  501  0.00000000000E+00  0.00000000000E+00  0.11808305603E+04  0.11808305603E+04  0.25500000920E-02 0. -1.
        2   -1    0    0  501    0  0.00000000000E+00  0.00000000000E+00 -0.18976549110E+04  0.18976549110E+04  0.25500000920E-02 0.  1.
    10030    2    1    2    0    0  0.00000000000E+00  0.00000000000E+00 -0.71682435063E+03  0.30784854713E+04  0.29938663376E+04 0.  0.
        1    1    3    3  502    0  0.27766457091E+03 -0.11460640815E+04  0.58973906532E+03  0.13184660246E+04  0.50400001928E-02 0. -1.
       -1    1    3    3    0  502 -0.27766457091E+03  0.11460640815E+04 -0.13065634159E+04  0.17600194467E+04  0.50400001928E-02 0.  1.
</event>
<event>
 5   0  0.1560174E-06  0.3012446E+04  0.7818609E-02  0.8240186E-01
       -2   -1    0    0    0  501  0.00000000000E+00  0.00000000000E+00  0.18342797318E+04  0.18342797318E+04  0.25500000920E-02 0. -1.
        2   -1    0    0  501    0  0.00000000000E+00  0.00000000000E+00 -0.12368385577E+04  0.12368385577E+04  0.25500000920E-02 0.  1.
    10030    2    1    2    0    0  0.00000000000E+00  0.00000000000E+00  0.59744117408E+03  0.30711182895E+04  0.30124461143E+04 0.  0.
        5    1    3    3  502    0  0.88305550036E+03 -0.95285901010E+03 -0.47833092818E+03  0.13843951303E+04  0.46999998093E+01 0.  1.
       -5    1    3    3    0  502 -0.88305550036E+03  0.95285901010E+03  0.10757721023E+04  0.16867231592E+04  0.46999998093E+01 0. -1.
</event>
<event>
 5   0  0.5874741E-07  0.3000962E+04  0.7818609E-02  0.8243456E-01
        1   -1    0    0  501    0  0.00000000000E+00  0.00000000000E+00  0.22437940162E+04  0.22437940162E+04  0.50400001928E-02 0. -1.
       -1   -1    0    0    0  501  0.00000000000E+00  0.00000000000E+00 -0.10034091052E+04  0.10034091052E+04  0.50400001928E-02 0.  1.
    10030    2    1    2    0    0  0.00000000000E+00  0.00000000000E+00  0.12403849110E+04  0.32472031214E+04  0.30009620764E+04 0.  0.
        4    1    3    3  502    0  0.56068852928E+03  0.13408987356E+04  0.10236995121E+04  0.17777354555E+04  0.12699999809E+01 0. -1.
       -4    1    3    3    0  502 -0.56068852928E+03 -0.13408987356E+04  0.21668539895E+03  0.14694676658E+04  0.12699999809E+01 0.  1.
</event>
<event>
 5   0  0.5916703E-07  0.3006153E+04  0.7818609E-02  0.8241976E-01
        1   -1    0    0  501    0  0.00000000000E+00  0.00000000000E+00  0.20022312426E+04  0.20022312426E+04  0.50400001928E-02 0.  1.
       -1   -1    0    0    0  501  0.00000000000E+00  0.00000000000E+00 -0.11283609564E+04  0.11283609564E+04  0.50400001928E-02 0. -1.
    10030    2    1    2    0    0  0.00000000000E+00  0.00000000000E+00  0.87387028619E+03  0.31305921989E+04  0.30061533958E+04 0.  0.
        5    1    3    3  502    0  0.62708827703E+03  0.11744046026E+04 -0.28962078620E+03  0.13624860247E+04  0.46999998093E+01 0.  1.
       -5    1    3    3    0  502 -0.62708827703E+03 -0.11744046026E+04  0.11634910724E+04  0.17681061742E+04  0.46999998093E+01 0. -1.
</event>
<event>
 5   0  0.1625212E-06  0.3001297E+04  0.7818609E-02  0.8243361E-01
        2   -1    0    0  501    0  0.00000000000E+00  0.00000000000E+00  0.20264429362E+04  0.20264429362E+04  0.25500000920E-02 0. -1.
       -2   -1    0    0    0  501  0.00000000000E+00  0.00000000000E+00 -0.11112799618E+04  0.11112799618E+04  0.25500000920E-02 0.  1.
    10030    2    1    2    0    0  0.00000000000E+00  0.00000000000E+00  0.91516297436E+03  0.31377228980E+04  0.30012966722E+04 0.  0.
        4    1    3    3  502    0  0.19840115616E+03 -0.19191655774E+03  0.19996726198E+04  0.20186349801E+04  0.12699999809E+01 0. -1.
       -4    1    3    3    0  502 -0.19840115616E+03  0.19191655774E+03 -0.10845096454E+04  0.11190879178E+04  0.12699999809E+01 0.  1.
</event>
<event>
 5   0  0.5874741E-07  0.2988084E+04  0.7818609E-02  0.8247142E-01
        1   -1    0    0  501    0  0.00000000000E+00  0.00000000000E+00  0.17130073376E+04  0.17130073376E+04  0.50400001928E-02 0. -1.
       -1   -1    0    0    0  501  0.00000000000E+00  0.00000000000E+00 -0.13030662726E+04  0.13030662726E+04  0.50400001928E-02 0.  1.
    10030    2    1    2    0    0  0.00000000000E+00  0.00000000000E+00  0.40994106501E+03  0.30160736103E+04  0.29880843940E+04 0.  0.
        4    1    3    3  502    0 -0.17585325014E+03  0.86821673278E+03 -0.10093930489E+04  0.13429819808E+04  0.12699999809E+01 0.  1.
       -4    1    3    3    0  502  0.17585325014E+03 -0.86821673278E+03  0.14193341139E+04  0.16730916295E+04  0.12699999809E+01 0. -1.
</event>
<event>
 5   0  0.6291798E-07  0.2973863E+04  0.7818609E-02  0.8251234E-01
       -1   -1    0    0    0  501  0.00000000000E+00  0.00000000000E+00  0.11639652026E+04  0.11639652026E+04  0.50400001928E-02 0.  1.
        1   -1    0    0  501    0  0.00000000000E+00  0.00000000000E+00 -0.18995117407E+04  0.18995117407E+04  0.50400001928E-02 0. -1.
    10030    2    1    2    0    0  0.00000000000E+00  0.00000000000E+00 -0.73554653807E+03  0.30634769434E+04  0.29738631900E+04 0.  0.
        1    1    3    3  502    0  0.27315020916E+03  0.39270190382E+03 -0.18180830164E+04  0.18799605519E+04  0.50400001928E-02 0. -1.
       -1    1    3    3    0  502 -0.27315020916E+03 -0.39270190382E+03  0.10825364783E+04  0.11835163915E+04  0.50400001928E-02 0.  1.
</event>
<event>
 5   0  0.1723916E-06  0.2991142E+04  0.7818609E-02  0.8246265E-01
       -2   -1    0    0    0  501  0.00000000000E+00  0.00000000000E+00  0.15751246498E+04  0.15751246498E+04  0.25500000920E-02 0. -1.
        2   -1    0    0  501    0  0.00000000000E+00  0.00000000000E+00 -0.14200354806E+04  0.14200354806E+04  0.25500000920E-02 0.  1.
    10030    2    1    2    0    0  0.00000000000E+00  0.00000000000E+00  0.15508916917E+03  0.29951601304E+04  0.29911421825E+04 0.  0.
        1    1    3    3  502    0 -0.97689902707E+03 -0.10945048328E+04 -0.21346643144E+03  0.14825115364E+04  0.50400001928E-02 0.  1.
       -1    1    3    3    0  502  0.97689902707E+03  0.10945048328E+04  0.36855560060E+03  0.15126485940E+04  0.50400001928E-02 0. -1.
</event>
<event>
 5   0  0.5916703E-07  0.2979339E+04  0.7818609E-02  0.8249656E-01
        1   -1    0    0  501    0  0.00000000000E+00  0.00000000000E+00  0.23546282392E+04  0.23546282392E+04  0.50400001928E-02 0. -1.
       -1   -1    0    0    0  501  0.00000000000E+00  0.00000000000E+00 -0.94244808505E+03  0.94244808507E+03  0.50400001928E-02 0.  1.
    10030    2    1    2    0    0  0.00000000000E+00  0.00000000000E+00  0.14121801542E+04  0.32970763243E+04  0.29793387690E+04 0.  0.
        5    1    3    3  502    0 -0.11524415617E+04 -0.90728032180E+03  0.41790753251E+03  0.15251058754E+04  0.46999998093E+01 0.  1.
       -5    1    3    3    0  502  0.11524415617E+04  0.90728032180E+03  0.99427262168E+03  0.17719704489E+04  0.46999998093E+01 0. -1.
</event>
<event>
 5   0  0.1625212E-06  0.2989168E+04  0.7818609E-02  0.8246831E-01
        2   -1    0    0  501    0  0.00000000000E+00  0.00000000000E+00  0.17650543438E+04  0.17650543438E+04  0.25500000920E-02 0. -1.
       -2   -1    0    0    0  501  0.00000000000E+00  0.00000000000E+00 -0.12655594453E+04  0.12655594453E+04  0.25500000920E-02 0.  1.
    10030    2    1    2    0    0  0.00000000000E+00  0.00000000000E+00  0.49949489846E+03  0.30306137891E+04  0.29891679085E+04 0.  0.
        4    1    3    3  502    0  0.56973019479E+02 -0.14870748475E+04  0.10947428958E+03  0.14921875753E+04  0.12699999809E+01 0. -1.
       -4    1    3    3    0  502 -0.56973019479E+02  0.14870748475E+04  0.39002060888E+03  0.15384262138E+04  0.12699999809E+01 0.  1.
</event>
<event>
 5   0  0.1723916E-06  0.3001797E+04  0.7818609E-02  0.8243218E-01
       -2   -1    0    0    0  501  0.00000000000E+00  0.00000000000E+00  0.16787255565E+04  0.16787255565E+04  0.25500000920E-02 0.  1.
        2   -1    0    0  501    0  0.00000000000E+00  0.00000000000E+00 -0.13419084102E+04  0.13419084102E+04  0.25500000920E-02 0. -1.
    10030    2    1    2    0    0  0.00000000000E+00  0.00000000000E+00  0.33681714636E+03  0.30206339667E+04  0.30017967570E+04 0.  0.
        1    1    3    3  502    0 -0.73098880830E+03 -0.12595977955E+04  0.53368054869E+03  0.15510467989E+04  0.50400001928E-02 0.  1.
       -1    1    3    3    0  502  0.73098880830E+03  0.12595977955E+04 -0.19686340233E+03  0.14695871677E+04  0.50400001928E-02 0. -1.
</event>
<event>
 5   0  0.1635086E-06  0.3007747E+04  0.7818609E-02  0.8241522E-01
       -2   -1    0    0    0  501  0.00000000000E+00  0.00000000000E+00  0.17358719278E+04  0.17358719278E+04  0.25500000920E-02 0.  1.
        2   -1    0    0  501    0  0.00000000000E+00  0.00000000000E+00 -0.13028812843E+04  0.13028812843E+04  0.25500000920E-02 0. -1.
    10030    2    1    2    0    0  0.00000000000E+00  0.00000000000E+00  0.43299064351E+03  0.30387532122E+04  0.30077466960E+04 0.  0.
        3    1    3    3  502    0  0.71922371266E+03 -0.11135599820E+04  0.93398284439E+03  0.16216110958E+04  0.10100000352E+00 0.  1.
       -3    1    3    3    0  502 -0.71922371266E+03  0.11135599820E+04 -0.50099220088E+03  0.14171421163E+04  0.10100000352E+00 0. -1.
</event>
<event>
 5   0  0.1674806E-06  0.3002374E+04  0.7818609E-02  0.8243053E-01
        2   -1    0    0  501    0  0.00000000000E+00  0.00000000000E+00  0.18082274061E+04  0.18082274061E+04  0.25500000920E-02 0. -1.
       -2   -1    0    0    0  501  0.00000000000E+00  0.00000000000E+00 -0.12462825392E+04  0.12462825393E+04  0.25500000920E-02 0.  1.
    10030    2    1    2    0    0  0.00000000000E+00  0.00000000000E+00  0.56194486689E+03  0.30545099454E+04  0.30023738896E+04 0.  0.
        2    1    3    3  502    0 -0.40917390665E+01  0.28719928256E+03  0.17800112863E+04  0.18030364249E+04  0.25500000920E-02 0. -1.
       -2    1    3    3    0  502  0.40917390665E+01 -0.28719928256E+03 -0.12180664194E+04  0.12514735204E+04  0.25500000920E-02 0.  1.
</event>
<event>
 5   0  0.1723916E-06  0.3014405E+04  0.7818609E-02  0.8239629E-01
       -2   -1    0    0    0  501  0.00000000000E+00  0.00000000000E+00  0.12749888181E+04  0.12749888181E+04  0.25500000920E-02 0. -1.
        2   -1    0    0  501    0  0.00000000000E+00  0.00000000000E+00 -0.17817090001E+04  0.17817090001E+04  0.25500000920E-02 0.  1.
    10030    2    1    2    0    0  0.00000000000E+00  0.00000000000E+00 -0.50672018200E+03  0.30566978182E+04  0.30144047851E+04 0.  0.
        1    1    3    3  502    0  0.27407086710E+03  0.56055128604E+03 -0.16445884151E+04  0.17589780100E+04  0.50400001928E-02 0.  1.
       -1    1    3    3    0  502 -0.27407086710E+03 -0.56055128604E+03  0.11378682331E+04  0.12977198081E+04  0.50400001928E-02 0. -1.
</event>
<event>
 5   0  0.1560174E-06  0.2978416E+04  0.7818609E-02  0.8249921E-01
        2   -1    0    0  501    0  0.00000000000E+00  0.00000000000E+00  0.22008104754E+04  0.22008104754E+04  0.25500000920E-02 0.  1.
       -2   -1    0    0    0  501  0.00000000000E+00  0.00000000000E+00 -0.10076924672E+04  0.10076924673E+04  0.25500000920E-02 0. -1.
    10030    2    1    2    0    0  0.00000000000E+00  0.00000000000E+00  0.11931180082E+04  0.32085029427E+04  0.29784157789E+04 0.  0.
        5    1    3    3  502    0  0.13465792131E+04  0.56893673301E+03  0.29043477827E+03  0.14904157252E+04  0.46999998093E+01 0. -1.
       -5    1    3    3    0  502 -0.13465792131E+04 -0.56893673301E+03  0.90268322989E+03  0.17180872175E+04  0.46999998093E+01 0.  1.
</event>
<event>
 5   0  0.1674806E-06  0.2991083E+04  0.7818609E-02  0.8246282E-01
       -2   -1    0    0    0  501  0.00000000000E+00  0.00000000000E+00  0.12085483561E+04  0.12085483561E+04  0.25500000920E-02 0.  1.
        2   -1    0    0  501    0  0.00000000000E+00  0.00000000000E+00 -0.18506861504E+04  0.18506861504E+04  0.25500000920E-02 0. -1.
    10030    2    1    2    0    0  0.00000000000E+00  0.00000000000E+00 -0.64213779434E+03  0.30592345065E+04  0.29910825497E+04 0.  0.
        2    1    3    3  502    0 -0.69725577498E+02 -0.15529411870E+03  0.11986072036E+04  0.12106350185E+04  0.25500000920E-02 0.  1.
       -2    1    3    3    0  502  0.69725577498E+02  0.15529411870E+03 -0.18407449980E+04  0.18485994880E+04  0.25500000920E-02 0. -1.
</event>
<event>
 5   0  0.5887179E-07  0.2997341E+04  0.7818609E-02  0.8244491E-01
       -1   -1    0    0    0  501  0.00000000000E+00  0.00000000000E+00  0.96682727978E+03  0.96682727980E+03  0.50400001928E-02 0.  1.
        1   -1    0    0  501    0  0.00000000000E+00  0.00000000000E+00 -0.23230760396E+04  0.23230760396E+04  0.50400001928E-02 0. -1.
    10030    2    1    2    0    0  0.00000000000E+00  0.00000000000E+00 -0.13562487598E+04  0.32899033194E+04  0.29973410137E+04 0.  0.
        3    1    3    3  502    0 -0.10419618199E+04 -0.36143034271E+03  0.43566146101E+03  0.11857981470E+04  0.10100000352E+00 0.  1.
       -3    1    3    3    0  502  0.10419618199E+04  0.36143034271E+03 -0.17919102208E+04  0.21041051724E+04  0.10100000352E+00 0. -1.
</event>
<event>
 5   0  0.6291798E-07  0.2990716E+04  0.7818609E-02  0.8246387E-01
       -1   -1    0    0    0  501  0.00000000000E+00  0.00000000000E+00  0.11074975026E+04  0.11074975026E+04  0.50400001928E-02 0.  1.
        1   -1    0    0  501    0  0.00000000000E+00  0.00000000000E+00 -0.20190528625E+04  0.20190528625E+04  0.50400001928E-02 0. -1.
    10030    2    1    2    0    0  0.00000000000E+00  0.00000000000E+00 -0.91155535990E+03  0.31265503652E+04  0.29907163041E+04 0.  0.
        1    1    3    3  502    0 -0.98740154811E+03  0.10086486685E+04  0.60369141210E+02  0.14127909919E+04  0.50400001928E-02 0. -1.
       -1    1    3    3    0  502  0.98740154811E+03 -0.10086486685E+04 -0.97192450111E+03  0.17137593733E+04  0.50400001928E-02 0.  1.
</event>
<event>
 5   0  0.1674806E-06  0.3000600E+04  0.7818609E-02  0.8243560E-01
       -2   -1    0    0    0  501  0.00000000000E+00  0.00000000000E+00  0.16678187974E+04  0.16678187974E+04  0.25500000920E-02 0.  1.
        2   -1    0    0  501    0  0.00000000000E+00  0.00000000000E+00 -0.13496066518E+04  0.13496066518E+04  0.25500000920E-02 0. -1.
    10030    2    1    2    0    0  0.00000000000E+00  0.00000000000E+00  0.31821214559E+03  0.30174254493E+04  0.30005995022E+04 0.  0.
        2    1    3    3  502    0  0.99211519801E+03 -0.10407372461E+04 -0.27163304557E+03  0.14632877684E+04  0.25500000920E-02 0.  1.
       -2    1    3    3    0  502 -0.99211519801E+03  0.10407372461E+04  0.58984519116E+03  0.15541376809E+04  0.25500000920E-02 0. -1.
</event>
<event>
 5   0  0.1560174E-06  0.3001537E+04  0.7818609E-02  0.8243292E-01
       -2   -1    0    0    0  501  0.00000000000E+00  0.00000000000E+00  0.65401615131E+03  0.65401615131E+03  0.25500000920E-02 0. -1.
        2   -1    0    0  501    0  0.00000000000E+00  0.00000000000E+00 -0.34438089115E+04  0.34438089115E+04  0.25500000920E-02 0.  1.
    10030    2    1    2    0    0  0.00000000000E+00  0.00000000000E+00 -0.27897927602E+04  0.40978250628E+04  0.30015373728E+04 0.  0.
        5    1    3    3  502    0  0.76242176256E+03  0.12198055454E+04 -0.19790413999E+04  0.24465975282E+04  0.46999998093E+01 0. -1.
       -5    1    3    3    0  502 -0.76242176256E+03 -0.12198055454E+04 -0.81075136026E+03  0.16512275345E+04  0.46999998093E+01 0.  1.
</event>
<event>
 5   0  0.1560174E-06  0.2982279E+04  0.7818609E-02  0.8248809E-01
        2   -1    0    0  501    0  0.00000000000E+00  0.00000000000E+00  0.19480209467E+04  0.19480209467E+04  0.25500000920E-02 0.  1.
       -2   -1    0    0    0  501  0.00000000000E+00  0.00000000000E+00 -0.11414136220E+04  0.11414136220E+04  0.25500000920E-02 0. -1.
    10030    2    1    2    0    0  0.00000000000E+00  0.00000000000E+00  0.80660732465E+03  0.30894345687E+04  0.29822794266E+04 0.  0.
        5    1    3    3  502    0 -0.48149155427E+03  0.11162987700E+04 -0.49115418752E+03  0.13111870906E+04  0.46999998093E+01 0. -1.
       -5    1    3    3    0  502  0.48149155427E+03 -0.11162987700E+04  0.12977615122E+04  0.17782474781E+04  0.46999998093E+01 0.  1.
</event>
<event>
 5   0  0.5874741E-07  0.3043328E+04  0.7818609E-02  0.8231466E-01
       -1   -1    0    0    0  501  0.00000000000E+00  0.00000000000E+00  0.10529127694E+04  0.10529127694E+04  0.50400001928E-02 0. -1.
        1   -1    0    0  501    0  0.00000000000E+00  0.00000000000E+00 -0.21991003686E+04  0.21991003686E+04  0.50400001928E-02 0.  1.
    10030    2    1    2    0    0  0.00000000000E+00  0.00000000000E+00 -0.11461875992E+04  0.32520131380E+04  0.30433276914E+04 0.  0.
        4    1    3    3  502    0 -0.41668791486E+03 -0.90676174932E+03 -0.18006092247E+04  0.20586502572E+04  0.12699999809E+01 0.  1.
       -4    1    3    3    0  502  0.41668791486E+03  0.90676174932E+03  0.65442162551E+03  0.11933628808E+04  0.12699999809E+01 0. -1.
</event>
<event>
 5   0  0.5916703E-07  0.2963522E+04  0.7818609E-02  0.8254225E-01
        1   -1    0    0  501    0  0.00000000000E+00  0.00000000000E+00  0.18734473303E+04  0.18734473303E+04  0.50400001928E-02 0. -1.
       -1   -1    0    0    0  501  0.00000000000E+00  0.00000000000E+00 -0.11719653453E+04  0.11719653453E+04  0.50400001928E-02 0.  1.
    10030    2    1    2    0    0  0.00000000000E+00  0.00000000000E+00  0.70148198502E+03  0.30454126757E+04  0.29635217883E+04 0.  0.
        5    1    3    3  502    0  0.42434896069E+03  0.53299009128E+03  0.17029446250E+04  0.18341736460E+04  0.46999998093E+01 0. -1.
       -5    1    3    3    0  502 -0.42434896069E+03 -0.53299009128E+03 -0.10014626400E+04  0.12112390297E+04  0.46999998093E+01 0.  1.
</event>
<event>
 5   0  0.1723916E-06  0.3035869E+04  0.7818609E-02  0.8233562E-01
        2   -1    0    0  501    0  0.00000000000E+00  0.00000000000E+00  0.12190632476E+04  0.12190632476E+04  0.25500000920E-02 0. -1.
       -2   -1    0    0    0  501  0.00000000000E+00  0.00000000000E+00 -0.18900780516E+04  0.18900780516E+04  0.25500000920E-02 0.  1.
    10030    2    1    2    0    0  0.00000000000E+00  0.00000000000E+00 -0.67101480402E+03  0.31091412993E+04  0.30358686980E+04 0.  0.
        1    1    3    3  502    0  0.76804522064E+02 -0.83776493845E+03  0.95846503113E+03  0.12753055487E+04  0.50400001928E-02 0. -1.
       -1    1    3    3    0  502 -0.76804522064E+02  0.83776493845E+03 -0.16294798352E+04  0.18338357505E+04  0.50400001928E-02 0.  1.
</event>
<event>
 5   0  0.1625212E-06  0.2994518E+04  0.7818609E-02  0.8245298E-01
       -2   -1    0    0    0  501  0.00000000000E+00  0.00000000000E+00  0.96630105931E+03  0.96630105932E+03  0.25500000920E-02 0. -1.
        2   -1    0    0  501    0  0.00000000000E+00  0.00000000000E+00 -0.23199647799E+04  0.23199647800E+04  0.25500000920E-02 0.  1.
    10030    2    1    2    0    0  0.00000000000E+00  0.00000000000E+00 -0.13536637206E+04  0.32862658393E+04  0.29945179408E+04 0.  0.
        4    1    3    3  502    0 -0.43540675771E+03 -0.62094937983E+03 -0.20935870159E+04  0.22267162780E+04  0.12699999809E+01 0.  1.
       -4    1    3    3    0  502  0.43540675771E+03  0.62094937983E+03  0.73992329524E+03  0.10595495612E+04  0.12699999809E+01 0. -1.
</event>
<event>
 5   0  0.1674806E-06  0.2990126E+04  0.7818609E-02  0.8246556E-01
        2   -1    0    0  501    0  0.00000000000E+00  0.00000000000E+00  0.15755953515E+04  0.15755953515E+04  0.25500000920E-02 0.  1.
       -2   -1    0    0    0  501  0.00000000000E+00  0.00000000000E+00 -0.14186471659E+04  0.14186471660E+04  0.25500000920E-02 0. -1.
    10030    2    1    2    0    0  0.00000000000E+00  0.00000000000E+00  0.15694818551E+03  0.29942425174E+04  0.29901263385E+04 0.  0.
        2    1    3    3  502    0 -0.86800270251E+03  0.57397218496E+03 -0.99647516478E+03  0.14407760113E+04  0.25500000920E-02 0. -1.
       -2    1    3    3    0  502  0.86800270251E+03 -0.57397218496E+03  0.11534233503E+04  0.15534665061E+04  0.25500000920E-02 0.  1.
</event>
<event>
 5   0  0.1674806E-06  0.2990616E+04  0.7818609E-02  0.8246416E-01
       -2   -1    0    0    0  501  0.00000000000E+00  0.00000000000E+00  0.11270492029E+04  0.11270492029E+04  0.25500000920E-02 0. -1.
        2   -1    0    0  501    0  0.00000000000E+00  0.00000000000E+00 -0.19838942269E+04  0.19838942269E+04  0.25500000920E-02 0.  1.
    10030    2    1    2    0    0  0.00000000000E+00  0.00000000000E+00 -0.85684502403E+03  0.31109434298E+04  0.29906162622E+04 0.  0.
        2    1    3    3  502    0 -0.23504106367E+02 -0.40023217178E+03 -0.19269415259E+04  0.19682077833E+04  0.25500000920E-02 0.  1.
       -2    1    3    3    0  502  0.23504106367E+02  0.40023217178E+03  0.10700965018E+04  0.11427356464E+04  0.25500000920E-02 0. -1.
</event>
<event>
 5   0  0.5931588E-07  0.3002716E+04  0.7818609E-02  0.8242956E-01
       -1   -1    0    0    0  501  0.00000000000E+00  0.00000000000E+00  0.11368799362E+04  0.11368799362E+04  0.50400001928E-02 0.  1.
        1   -1    0    0  501    0  0.00000000000E+00  0.00000000000E+00 -0.19826864667E+04  0.19826864667E+04  0.50400001928E-02 0. -1.
    10030    2    1    2    0    0  0.00000000000E+00  0.00000000000E+00 -0.84580653045E+03  0.31195664029E+04  0.30027164127E+04 0.  0.
        2    1    3    3  502    0  0.74203456576E+03 -0.65030786763E+03  0.75275208813E+03  0.12410283339E+04  0.25500000920E-02 0.  1.
       -2    1    3    3    0  502 -0.74203456576E+03  0.65030786763E+03 -0.15985586186E+04  0.18785380690E+04  0.25500000920E-02 0. -1.
</event>
<event>
 5   0  0.5887179E-07  0.2971318E+04  0.7818609E-02  0.8251969E-01
        1   -1    0    0  501    0  0.00000000000E+00  0.00000000000E+00  0.26014843476E+04  0.26014843476E+04  0.50400001928E-02 0. -1.
       -1   -1    0    0    0  501  0.00000000000E+00  0.00000000000E+00 -0.84843229287E+03  0.84843229288E+03  0.50400001928E-02 0.  1.
    10030    2    1    2    0    0  0.00000000000E+00  0.00000000000E+00  0.17530520548E+04  0.34499166405E+04  0.29713184481E+04 0.  0.
        3    1    3    3  502    0  0.40799760663E+03  0.14085619042E+04  0.60011601737E+03  0.15845024233E+04  0.10100000352E+00 0.  1.
       -3    1    3    3    0  502 -0.40799760663E+03 -0.14085619042E+04  0.11529360374E+04  0.18654142172E+04  0.10100000352E+00 0. -1.
</event>
<event>
 5   0  0.1560174E-06  0.2995120E+04  0.7818609E-02  0.8245126E-01
       -2   -1    0    0    0  501  0.00000000000E+00  0.00000000000E+00  0.13936672865E+04  0.13936672865E+04  0.25500000920E-02 0. -1.
        2   -1    0    0  501    0  0.00000000000E+00  0.00000000000E+00 -0.16091970381E+04  0.16091970381E+04  0.25500000920E-02 0.  1.
    10030    2    1    2    0    0  0.00000000000E+00  0.00000000000E+00 -0.21552975159E+03  0.30028643246E+04  0.29951195432E+04 0.  0.
        5    1    3    3  502    0 -0.11833431165E+04 -0.85578357492E+03 -0.44028001176E+03  0.15252983437E+04  0.46999998093E+01 0.  1.
       -5    1    3    3    0  502  0.11833431165E+04  0.85578357492E+03  0.22475026017E+03  0.14775659809E+04  0.46999998093E+01 0. -1.
</event>
<event>
 5   0  0.1723916E-06  0.2923541E+04  0.7818609E-02  0.8265908E-01
        2   -1    0    0  501    0  0.00000000000E+00  0.00000000000E+00  0.15944005846E+04  0.15944005846E+04  0.25500000920E-02 0.  1.
       -2   -1    0    0    0  501  0.00000000000E+00  0.00000000000E+00 -0.13401730568E+04  0.13401730568E+04  0.25500000920E-02 0. -1.
    10030    2    1    2    0    0  0.00000000000E+00  0.00000000000E+00  0.25422752780E+03  0.29345736413E+04  0.29235408019E+04 0.  0.
        1    1    3    3  502    0 -0.12750435878E+04 -0.67334997989E+03 -0.11386796833E+03  0.14464101287E+04  0.50400001928E-02 0. -1.
       -1    1    3    3    0  502  0.12750435878E+04  0.67334997989E+03  0.36809549614E+03  0.14881635127E+04  0.50400001928E-02 0.  1.
</event>
<event>
 5   0  0.5874741E-07  0.3005206E+04  0.7818609E-02  0.8242246E-01
        1   -1    0    0  501    0  0.00000000000E+00  0.00000000000E+00  0.14028985121E+04  0.14028985122E+04  0.50400001928E-02 0. -1.
       -1   -1    0    0    0  501  0.00000000000E+00  0.00000000000E+00 -0.16093933668E+04  0.16093933668E+04  0.50400001928E-02 0.  1.
    10030    2    1    2    0    0  0.00000000000E+00  0.00000000000E+00 -0.20649485464E+03  0.30122918790E+04  0.30052058564E+04 0.  0.
        4    1    3    3  502    0  0.67808114619E+03 -0.80945585359E+03 -0.11747868520E+04  0.15796007661E+04  0.12699999809E+01 0.  1.
       -4    1    3    3    0  502 -0.67808114619E+03  0.80945585359E+03  0.96829199738E+03  0.14326911128E+04  0.12699999809E+01 0. -1.
</event>
<event>
 5   0  0.5887179E-07  0.2997452E+04  0.7818609E-02  0.8244459E-01
        1   -1    0    0  501    0  0.00000000000E+00  0.00000000000E+00  0.92774890449E+03  0.92774890451E+03  0.50400001928E-02 0. -1.
       -1   -1    0    0    0  501  0.00000000000E+00  0.00000000000E+00 -0.24211073625E+04  0.24211073625E+04  0.50400001928E-02 0.  1.
    10030    2    1    2    0    0  0.00000000000E+00  0.00000000000E+00 -0.14933584580E+04  0.33488562670E+04  0.29974520535E+04 0.  0.
        3    1    3    3  502    0  0.13997602005E+04  0.29223324284E+02 -0.13441615454E+04  0.19408639551E+04  0.10100000352E+00 0.  1.
       -3    1    3    3    0  502 -0.13997602005E+04 -0.29223324284E+02 -0.14919691258E+03  0.14079923120E+04  0.10100000352E+00 0. -1.
</event>
<event>
 5   0  0.1560174E-06  0.3009997E+04  0.7818609E-02  0.8240882E-01
       -2   -1    0    0    0  501  0.00000000000E+00  0.00000000000E+00  0.14647009717E+04  0.14647009717E+04  0.25500000920E-02 0.  1.
        2   -1    0    0  501    0  0.00000000000E+00  0.00000000000E+00 -0.15464042128E+04  0.15464042128E+04  0.25500000920E-02 0. -1.
    10030    2    1    2    0    0  0.00000000000E+00  0.00000000000E+00 -0.81703241032E+02  0.30111051845E+04  0.30099965137E+04 0.  0.
        5    1    3    3  502    0 -0.36723765044E+03 -0.88616006510E+03  0.11192541472E+04  0.14740743159E+04  0.46999998093E+01 0.  1.
       -5    1    3    3    0  502  0.36723765044E+03  0.88616006510E+03 -0.12009573882E+04  0.15370308686E+04  0.46999998093E+01 0. -1.
</event>
<event>
 5   0  0.1560174E-06  0.2971989E+04  0.7818609E-02  0.8251775E-01
        2   -1    0    0  501    0  0.00000000000E+00  0.00000000000E+00  0.17275440463E+04  0.17275440463E+04  0.25500000920E-02 0. -1.
       -2   -1    0    0    0  501  0.00000000000E+00  0.00000000000E+00 -0.12782188618E+04  0.12782188618E+04  0.25500000920E-02 0.  1.
    10030    2    1    2    0    0  0.00000000000E+00  0.00000000000E+00  0.44932518455E+03  0.30057629081E+04  0.29719888187E+04 0.  0.
        5    1    3    3  502    0 -0.64420845425E+03 -0.13316262882E+04  0.81905434641E+02  0.14815409864E+04  0.46999998093E+01 0.  1.
       -5    1    3    3    0  502  0.64420845425E+03  0.13316262882E+04  0.36741974991E+03  0.15242219217E+04  0.46999998093E+01 0. -1.
</event>
<event>
 5   0  0.1674806E-06  0.3024571E+04  0.7818609E-02  0.8236749E-01
       -2   -1    0    0    0  501  0.00000000000E+00  0.00000000000E+00  0.10560849359E+04  0.10560849359E+04  0.25500000920E-02 0. -1.
        2   -1    0    0  501    0  0.00000000000E+00  0.00000000000E+00 -0.21655526100E+04  0.21655526100E+04  0.25500000920E-02 0.  1.
    10030    2    1    2    0    0  0.00000000000E+00  0.00000000000E+00 -0.11094676741E+04  0.32216375459E+04  0.30245710369E+04 0.  0.
        2    1    3    3  502    0 -0.70437272090E+03 -0.85818072044E+03  0.53900598469E+03  0.12341566069E+04  0.25500000920E-02 0. -1.
       -2    1    3    3    0  502  0.70437272090E+03  0.85818072044E+03 -0.16484736588E+04  0.19874809389E+04  0.25500000920E-02 0.  1.
</event>
<event>
 5   0  0.1625212E-06  0.3004290E+04  0.7818609E-02  0.8242507E-01
        2   -1    0    0  501    0  0.00000000000E+00  0.00000000000E+00  0.14838428986E+04  0.14838428986E+04  0.25500000920E-02 0. -1.
       -2   -1    0    0    0  501  0.00000000000E+00  0.00000000000E+00 -0.15206724367E+04  0.15206724367E+04  0.25500000920E-02 0.  1.
    10030    2    1    2    0    0  0.00000000000E+00  0.00000000000E+00 -0.36829538156E+02  0.30045153353E+04  0.30042895974E+04 0.  0.
        4    1    3    3  502    0  0.23393379474E+03  0.11401788395E+03 -0.14979556474E+04  0.15203939729E+04  0.12699999809E+01 0.  1.
       -4    1    3    3    0  502 -0.23393379474E+03 -0.11401788395E+03  0.14611261093E+04  0.14841213624E+04  0.12699999809E+01 0. -1.
</event>
<event>
 5   0  0.6291798E-07  0.2993019E+04  0.7818609E-02  0.8245727E-01
        1   -1    0    0  501    0  0.00000000000E+00  0.00000000000E+00  0.17113452196E+04  0.17113452196E+04  0.50400001928E-02 0. -1.
       -1   -1    0    0    0  501  0.00000000000E+00  0.00000000000E+00 -0.13086437673E+04  0.13086437673E+04  0.50400001928E-02 0.  1.
    10030    2    1    2    0    0  0.00000000000E+00  0.00000000000E+00  0.40270145233E+03  0.30199889869E+04  0.29930193821E+04 0.  0.
        1    1    3    3  502    0 -0.70542607170E+03 -0.87913606780E+03  0.11946167526E+04  0.16424418875E+04  0.50400001928E-02 0. -1.
       -1    1    3    3    0  502  0.70542607170E+03  0.87913606780E+03 -0.79191530023E+03  0.13775470994E+04  0.50400001928E-02 0.  1.
</event>
<event>
 5   0  0.6291798E-07  0.2974272E+04  0.7818609E-02  0.8251116E-01
        1   -1    0    0  501    0  0.00000000000E+00  0.00000000000E+00  0.11943493674E+04  0.11943493674E+04  0.50400001928E-02 0.  1.
       -1   -1    0    0    0  501  0.00000000000E+00  0.00000000000E+00 -0.18516975746E+04  0.18516975746E+04  0.50400001928E-02 0. -1.
    10030    2    1    2    0    0  0.00000000000E+00  0.00000000000E+00 -0.65734820724E+03  0.30460469421E+04  0.29742722316E+04 0.  0.
        1    1    3    3  502    0  0.64578679008E+03 -0.12192196571E+04  0.23972984968E+03  0.14003597935E+04  0.50400001928E-02 0. -1.
       -1    1    3    3    0  502 -0.64578679008E+03  0.12192196571E+04 -0.89707805692E+03  0.16456871485E+04  0.50400001928E-02 0.  1.
</event>
<event>
 5   0  0.5887179E-07  0.3001936E+04  0.7818609E-02  0.8243178E-01
       -1   -1    0    0    0  501  0.00000000000E+00  0.00000000000E+00  0.86461603769E+03  0.86461603771E+03  0.50400001928E-02 0. -1.
        1   -1    0    0  501    0  0.00000000000E+00  0.00000000000E+00 -0.26056711781E+04  0.26056711781E+04  0.50400001928E-02 0.  1.
    10030    2    1    2    0    0  0.00000000000E+00  0.00000000000E+00 -0.17410551404E+04  0.34702872158E+04  0.30019361016E+04 0.  0.
        3    1    3    3  502    0  0.97492756531E+03 -0.85815224206E+03 -0.17402299876E+04  0.21714763292E+04  0.10100000352E+00 0. -1.
       -3    1    3    3    0  502 -0.97492756531E+03  0.85815224206E+03 -0.82515277805E+00  0.12988108866E+04  0.10100000352E+00 0.  1.
</event>
<event>
 5   0  0.1723916E-06  0.2969893E+04  0.7818609E-02  0.8252381E-01
        2   -1    0    0  501    0  0.00000000000E+00  0.00000000000E+00  0.18395983536E+04  0.18395983536E+04  0.25500000920E-02 0.  1.
       -2   -1    0    0    0  501  0.00000000000E+00  0.00000000000E+00 -0.11986675067E+04  0.11986675067E+04  0.25500000920E-02 0. -1.
    10030    2    1    2    0    0  0.00000000000E+00  0.00000000000E+00  0.64093084690E+03  0.30382658603E+04  0.29698934472E+04 0.  0.
        1    1    3    3  502    0  0.36085211458E+03  0.55122035383E+03 -0.10409643564E+04  0.12319354360E+04  0.50400001928E-02 0. -1.
       -1    1    3    3    0  502 -0.36085211458E+03 -0.55122035383E+03  0.16818952033E+04  0.18063304244E+04  0.50400001928E-02 0.  1.
</event>
<event>
 5   0  0.1625212E-06  0.2997008E+04  0.7818609E-02  0.8244586E-01
       -2   -1    0    0    0  501  0.00000000000E+00  0.00000000000E+00  0.90111521401E+03  0.90111521401E+03  0.25500000920E-02 0. -1.
        2   -1    0    0  501    0  0.00000000000E+00  0.00000000000E+00 -0.24919284143E+04  0.24919284143E+04  0.25500000920E-02 0.  1.
    10030    2    1    2    0    0  0.00000000000E+00  0.00000000000E+00 -0.15908132003E+04  0.33930436283E+04  0.29970082458E+04 0.  0.
        4    1    3    3  502    0 -0.14694607262E+04 -0.13327415584E+03 -0.10915788363E+04  0.18353808311E+04  0.12699999809E+01 0.  1.
       -4    1    3    3    0  502  0.14694607262E+04  0.13327415584E+03 -0.49923436403E+03  0.15576627972E+04  0.12699999809E+01 0. -1.
</event>
<event>
 5   0  0.5874741E-07  0.2944771E+04  0.7818609E-02  0.8259680E-01
        1   -1    0    0  501    0  0.00000000000E+00  0.00000000000E+00  0.16976628173E+04  0.16976628173E+04  0.50400001928E-02 0.  1.
       -1   -1    0    0    0  501  0.00000000000E+00  0.00000000000E+00 -0.12770022715E+04  0.12770022715E+04  0.50400001928E-02 0. -1.
    10030    2    1    2    0    0  0.00000000000E+00  0.00000000000E+00  0.42066054575E+03  0.29746650888E+04  0.29447711449E+04 0.  0.
        4    1    3    3  502    0 -0.71512678239E+03 -0.23486441242E+03 -0.10679605381E+04  0.13065637875E+04  0.12699999809E+01 0. -1.
       -4    1    3    3    0  502  0.71512678239E+03  0.23486441242E+03  0.14886210838E+04  0.16681013012E+04  0.12699999809E+01 0.  1.
</event>
<event>
 5   0  0.5916703E-07  0.3002733E+04  0.7818609E-02  0.8242951E-01
       -1   -1    0    0    0  501  0.00000000000E+00  0.00000000000E+00  0.90932636746E+03  0.90932636748E+03  0.50400001928E-02 0.  1.
        1   -1    0    0  501    0  0.00000000000E+00  0.00000000000E+00 -0.24788692900E+04  0.24788692900E+04  0.50400001928E-02 0. -1.
    10030    2    1    2    0    0  0.00000000000E+00  0.00000000000E+00 -0.15695429226E+04  0.33881956575E+04  0.30027328932E+04 0.  0.
        5    1    3    3  502    0 -0.63505448193E+03 -0.62529184047E+03 -0.21480911959E+04  0.23256401176E+04  0.46999998093E+01 0. -1.
       -5    1    3    3    0  502  0.63505448193E+03  0.62529184047E+03  0.57854827334E+03  0.10625555399E+04  0.46999998093E+01 0.  1.
</event>
<event>
 5   0  0.1723916E-06  0.3007090E+04  0.7818609E-02  0.8241709E-01
       -2   -1    0    0    0  501  0.00000000000E+00  0.00000000000E+00  0.97858160280E+03  0.97858160280E+03  0.25500000920E-02 0. -1.
        2   -1    0    0  501    0  0.00000000000E+00  0.00000000000E+00 -0.23101269495E+04  0.23101269495E+04  0.25500000920E-02 0.  1.
    10030    2    1    2    0    0  0.00000000000E+00  0.00000000000E+00 -0.13315453467E+04  0.32887085523E+04  0.30070901103E+04 0.  0.
        1    1    3    3  502    0  0.81946862068E+03 -0.12149969812E+04 -0.10332481121E+04  0.17931391875E+04  0.50400001928E-02 0.  1.
       -1    1    3    3    0  502 -0.81946862068E+03  0.12149969812E+04 -0.29829723453E+03  0.14955693647E+04  0.50400001928E-02 0. -1.
</event>
<event>
 5   0  0.5887179E-07  0.3002054E+04  0.7818609E-02  0.8243144E-01
       -1   -1    0    0    0  501  0.00000000000E+00  0.00000000000E+00  0.15985859250E+04  0.15985859250E+04  0.50400001928E-02 0. -1.
        1   -1    0    0  501    0  0.00000000000E+00  0.00000000000E+00 -0.14094223549E+04  0.14094223549E+04  0.50400001928E-02 0.  1.
    10030    2    1    2    0    0  0.00000000000E+00  0.00000000000E+00  0.18916357005E+03  0.30080082799E+04  0.30020544558E+04 0.  0.
        3    1    3    3  502    0  0.10930791461E+04 -0.32839706065E+03  0.10714080966E+04  0.15654334763E+04  0.10100000352E+00 0. -1.
       -3    1    3    3    0  502 -0.10930791461E+04  0.32839706065E+03 -0.88224452653E+03  0.14425748036E+04  0.10100000352E+00 0.  1.
</event>
<event>
 5   0  0.1674806E-06  0.2993278E+04  0.7818609E-02  0.8245653E-01
       -2   -1    0    0    0  501  0.00000000000E+00  0.00000000000E+00  0.11307262664E+04  0.11307262664E+04  0.25500000920E-02 0.  1.
        2   -1    0    0  501    0  0.00000000000E+00  0.00000000000E+00 -0.19809637288E+04  0.19809637288E+04  0.25500000920E-02 0. -1.
    10030    2    1    2    0    0  0.00000000000E+00  0.00000000000E+00 -0.85023746244E+03  0.31116899952E+04  0.29932776155E+04 0.  0.
        2    1    3    3  502    0  0.72939559918E+02  0.74098366046E+03  0.92452842200E+03  0.11870677182E+04  0.25500000920E-02 0.  1.
       -2    1    3    3    0  502 -0.72939559918E+02 -0.74098366046E+03 -0.17747658844E+04  0.19246222770E+04  0.25500000920E-02 0. -1.
</event>
<event>
 5   0  0.1674806E-06  0.3007248E+04  0.7818609E-02  0.8241664E-01
       -2   -1    0    0    0  501  0.00000000000E+00  0.00000000000E+00  0.11738039253E+04  0.11738039253E+04  0.25500000920E-02 0.  1.
        2   -1    0    0  501    0  0.00000000000E+00  0.00000000000E+00 -0.19261188641E+04  0.19261188641E+04  0.25500000920E-02 0. -1.
    10030    2    1    2    0    0  0.00000000000E+00  0.00000000000E+00 -0.75231493880E+03  0.30999227895E+04  0.30072484988E+04 0.  0.
        2    1    3    3  502    0  0.14158136244E+04 -0.49359208126E+03 -0.49243673788E+03  0.15781810107E+04  0.25500000920E-02 0. -1.
       -2    1    3    3    0  502 -0.14158136244E+04  0.49359208126E+03 -0.25987820092E+03  0.15217417787E+04  0.25500000920E-02 0.  1.
</event>
<event>
 5   0  0.1625212E-06  0.3001936E+04  0.7818609E-02  0.8243178E-01
       -2   -1    0    0    0  501  0.00000000000E+00  0.00000000000E+00  0.10725181686E+04  0.10725181686E+04  0.25500000920E-02 0. -1.
        2   -1    0    0  501    0  0.00000000000E+00  0.00000000000E+00 -0.21005749592E+04  0.21005749592E+04  0.25500000920E-02 0.  1.
    10030    2    1    2    0    0  0.00000000000E+00  0.00000000000E+00 -0.10280567906E+04  0.31730931277E+04  0.30019359141E+04 0.  0.
        4    1    3    3  502    0 -0.13973047000E+03 -0.59138470831E+03  0.93668181384E+03  0.11165280609E+04  0.12699999809E+01 0. -1.
       -4    1    3    3    0  502  0.13973047000E+03  0.59138470831E+03 -0.19647386044E+04  0.20565650668E+04  0.12699999809E+01 0.  1.
</event>
<event>
 5   0  0.1560174E-06  0.2989144E+04  0.7818609E-02  0.8246838E-01
        2   -1    0    0  501    0  0.00000000000E+00  0.00000000000E+00  0.10268087149E+04  0.10268087149E+04  0.25500000920E-02 0. -1.
       -2   -1    0    0    0  501  0.00000000000E+00  0.00000000000E+00 -0.21754252691E+04  0.21754252691E+04  0.25500000920E-02 0.  1.
    10030    2    1    2    0    0  0.00000000000E+00  0.00000000000E+00 -0.11486165542E+04  0.32022339840E+04  0.29891441082E+04 0.  0.
        5    1    3    3  502    0  0.20018231270E+03 -0.12640952470E+04  0.25253849132E+03  0.13045334535E+04  0.46999998093E+01 0. -1.
       -5    1    3    3    0  502 -0.20018231270E+03  0.12640952470E+04 -0.14011550455E+04  0.18977005305E+04  0.46999998093E+01 0.  1.
</event>
<event>
 5   0  0.1723916E-06  0.3023214E+04  0.7818609E-02  0.8237133E-01
       -2   -1    0    0    0  501  0.00000000000E+00  0.00000000000E+00  0.11464966863E+04  0.11464966863E+04  0.25500000920E-02 0. -1.
        2   -1    0    0  501    0  0.00000000000E+00  0.00000000000E+00 -0.19929891550E+04  0.19929891550E+04  0.25500000920E-02 0.  1.
    10030    2    1    2    0    0  0.00000000000E+00  0.00000000000E+00 -0.84649246871E+03  0.31394858413E+04  0.30232138278E+04 0.  0.
        1    1    3    3  502    0 -0.12656952329E+04  0.80988938513E+03 -0.59404121008E+03  0.16157939838E+04  0.50400001928E-02 0.  1.
       -1    1    3    3    0  502  0.12656952329E+04 -0.80988938513E+03 -0.25245125863E+03  0.15236918575E+04  0.50400001928E-02 0. -1.
</event>
<event>
 5   0  0.1560174E-06  0.3013935E+04  0.7818609E-02  0.8239763E-01
       -2   -1    0    0    0  501  0.00000000000E+00  0.00000000000E+00  0.12455254692E+04  0.12455254692E+04  0.25500000920E-02 0. -1.
        2   -1    0    0  501    0  0.00000000000E+00  0.00000000000E+00 -0.18232869591E+04  0.18232869591E+04  0.25500000920E-02 0.  1.
    10030    2    1    2    0    0  0.00000000000E+00  0.00000000000E+00 -0.57776148994E+03  0.30688124284E+04  0.30139345350E+04 0.  0.
        5    1    3    3  502    0  0.10487999910E+04  0.94005569990E+03 -0.83458908055E+03  0.16371460422E+04  0.46999998093E+01 0.  1.
       -5    1    3    3    0  502 -0.10487999910E+04 -0.94005569990E+03  0.25682759061E+03  0.14316663862E+04  0.46999998093E+01 0. -1.
</event>
<event>
 5   0  0.5874741E-07  0.2960304E+04  0.7818609E-02  0.8255158E-01
        1   -1    0    0  501    0  0.00000000000E+00  0.00000000000E+00  0.14677817238E+04  0.14677817239E+04  0.50400001928E-02 0.  1.
       -1   -1    0    0    0  501  0.00000000000E+00  0.00000000000E+00 -0.14926263301E+04  0.14926263301E+04  0.50400001928E-02 0. -1.
    10030    2    1    2    0    0  0.00000000000E+00  0.00000000000E+00 -0.24844606254E+02  0.29604080540E+04  0.29603038005E+04 0.  0.
        4    1    3    3  502    0 -0.12304007084E+04  0.38921819389E+02  0.80946260319E+03  0.14733065296E+04  0.12699999809E+01 0.  1.
       -4    1    3    3    0  502  0.12304007084E+04 -0.38921819389E+02 -0.83430720945E+03  0.14871015244E+04  0.12699999809E+01 0. -1.
</event>
<event>
 5   0  0.5916703E-07  0.2990590E+04  0.7818609E-02  0.8246423E-01
       -1   -1    0    0    0  501  0.00000000000E+00  0.00000000000E+00  0.14221231965E+04  0.14221231965E+04  0.50400001928E-02 0. -1.
        1   -1    0    0  501    0  0.00000000000E+00  0.00000000000E+00 -0.15722317178E+04  0.15722317179E+04  0.50400001928E-02 0.  1.
    10030    2    1    2    0    0  0.00000000000E+00  0.00000000000E+00 -0.15010852132E+03  0.29943549144E+04  0.29905900396E+04 0.  0.
        5    1    3    3  502    0 -0.10366239864E+04 -0.67355689258E+02 -0.11519355752E+04  0.15511620603E+04  0.46999998093E+01 0.  1.
       -5    1    3    3    0  502  0.10366239864E+04  0.67355689258E+02  0.10018270538E+04  0.14431928540E+04  0.46999998093E+01 0. -1.
</event>
<event>
 5   0  0.1625212E-06  0.3001588E+04  0.7818609E-02  0.8243278E-01
        2   -1    0    0  501    0  0.00000000000E+00  0.00000000000E+00  0.93637014705E+03  0.93637014706E+03  0.25500000920E-02 0.  1.
       -2   -1    0    0    0  501  0.00000000000E+00  0.00000000000E+00 -0.24054407746E+04  0.24054407746E+04  0.25500000920E-02 0. -1.
    10030    2    1    2    0    0  0.00000000000E+00  0.00000000000E+00 -0.14690706276E+04  0.33418109217E+04  0.30015882009E+04 0.  0.
        4    1    3    3  502    0  0.14926237580E+04 -0.13831711472E+03 -0.65329898841E+03  0.16351937158E+04  0.12699999809E+01 0.  1.
       -4    1    3    3    0  502 -0.14926237580E+04  0.13831711472E+03 -0.81577163919E+03  0.17066172059E+04  0.12699999809E+01 0. -1.
</event>
<event>
 5   0  0.1674806E-06  0.3008039E+04  0.7818609E-02  0.8241439E-01
       -2   -1    0    0    0  501  0.00000000000E+00  0.00000000000E+00  0.14776585300E+04  0.14776585300E+04  0.25500000920E-02 0. -1.
        2   -1    0    0  501    0  0.00000000000E+00  0.00000000000E+00 -0.15308507434E+04  0.15308507434E+04  0.25500000920E-02 0.  1.
    10030    2    1    2    0    0  0.00000000000E+00  0.00000000000E+00 -0.53192213379E+02  0.30085092734E+04  0.30080390019E+04 0.  0.
        2    1    3    3  502    0 -0.29299436590E+02  0.64654966814E+03  0.13312573817E+04  0.14802469884E+04  0.25500000920E-02 0. -1.
       -2    1    3    3    0  502  0.29299436590E+02 -0.64654966814E+03 -0.13844495951E+04  0.15282622850E+04  0.25500000920E-02 0.  1.
</event>
<event>
 5   0  0.5916703E-07  0.2988398E+04  0.7818609E-02  0.8247052E-01
       -1   -1    0    0    0  501  0.00000000000E+00  0.00000000000E+00  0.16719846009E+04  0.16719846009E+04  0.50400001928E-02 0. -1.
        1   -1    0    0  501    0  0.00000000000E+00  0.00000000000E+00 -0.13353180889E+04  0.13353180889E+04  0.50400001928E-02 0.  1.
    10030    2    1    2    0    0  0.00000000000E+00  0.00000000000E+00  0.33666651201E+03  0.30073026898E+04  0.29883984218E+04 0.  0.
        5    1    3    3  502    0 -0.12337555359E+04  0.47783259632E+03 -0.53041677302E+03  0.14254265171E+04  0.46999998093E+01 0.  1.
       -5    1    3    3    0  502  0.12337555359E+04 -0.47783259632E+03  0.86708328504E+03  0.15818761727E+04  0.46999998093E+01 0. -1.
</event>
<event>
 5   0  0.5931588E-07  0.3006760E+04  0.7818609E-02  0.8241803E-01
       -1   -1    0    0    0  501  0.00000000000E+00  0.00000000000E+00  0.11077045780E+04  0.11077045780E+04  0.50400001928E-02 0. -1.
        1   -1    0    0  501    0  0.00000000000E+00  0.00000000000E+00 -0.20403914357E+04  0.20403914357E+04  0.50400001928E-02 0.  1.
    10030    2    1    2    0    0  0.00000000000E+00  0.00000000000E+00 -0.93268685776E+03  0.31480960137E+04  0.30067596740E+04 0.  0.
        2    1    3    3  502    0  0.86718198035E+03 -0.66644100472E+03 -0.15463356428E+04  0.18940174551E+04  0.25500000920E-02 0.  1.
       -2    1    3    3    0  502 -0.86718198035E+03  0.66644100472E+03  0.61364878507E+03  0.12540785586E+04  0.25500000920E-02 0. -1.
</event>
<event>
 5   0  0.1560174E-06  0.2997213E+04  0.7818609E-02  0.8244527E-01
       -2   -1    0    0    0  501  0.00000000000E+00  0.00000000000E+00  0.18652771120E+04  0.18652771120E+04  0.25500000920E-02 0.  1.
        2   -1    0    0  501    0  0.00000000000E+00  0.00000000000E+00 -0.12040147407E+04  0.12040147407E+04  0.25500000920E-02 0. -1.
    10030    2    1    2    0    0  0.00000000000E+00  0.00000000000E+00  0.66126237125E+03  0.30692918527E+04  0.29972127975E+04 0.  0.
        5    1    3    3  502    0 -0.13175042245E+04 -0.70682205263E+03  0.22627739464E+03  0.15121634651E+04  0.46999998093E+01 0.  1.
       -5    1    3    3    0  502  0.13175042245E+04  0.70682205263E+03  0.43498497661E+03  0.15571283877E+04  0.46999998093E+01 0. -1.
</event>
<event>
 5   0  0.5931588E-07  0.2994773E+04  0.7818609E-02  0.8245225E-01
        1   -1    0    0  501    0  0.00000000000E+00  0.00000000000E+00  0.19677293098E+04  0.19677293099E+04  0.50400001928E-02 0.  1.
       -1   -1    0    0    0  501  0.00000000000E+00  0.00000000000E+00 -0.11394685481E+04  0.11394685481E+04  0.50400001928E-02 0. -1.
    10030    2    1    2    0    0  0.00000000000E+00  0.00000000000E+00  0.82826076178E+03  0.31071978579E+04  0.29947725521E+04 0.  0.
        2    1    3    3  502    0 -0.20091878896E+03 -0.10067130063E+04 -0.71689644360E+03  0.12521101979E+04  0.25500000920E-02 0. -1.
       -2    1    3    3    0  502  0.20091878896E+03  0.10067130063E+04  0.15451572054E+04  0.18550876600E+04  0.25500000920E-02 0.  1.
</event>
<event>
 5   0  0.5887179E-07  0.2996745E+04  0.7818609E-02  0.8244661E-01
       -1   -1    0    0    0  501  0.00000000000E+00  0.00000000000E+00  0.10227520663E+04  0.10227520664E+04  0.50400001928E-02 0. -1.
        1   -1    0    0  501    0  0.00000000000E+00  0.00000000000E+00 -0.21951757771E+04  0.21951757771E+04  0.50400001928E-02 0.  1.
    10030    2    1    2    0    0  0.00000000000E+00  0.00000000000E+00 -0.11724237108E+04  0.32179278435E+04  0.29967452758E+04 0.  0.
        3    1    3    3  502    0  0.83477618620E+02  0.14959027180E+04 -0.56402018672E+03  0.16008785824E+04  0.10100000352E+00 0.  1.
       -3    1    3    3    0  502 -0.83477618620E+02 -0.14959027180E+04 -0.60840352408E+03  0.16170492611E+04  0.10100000352E+00 0. -1.
</event>
<event>
 5   0  0.6291798E-07  0.3001548E+04  0.7818609E-02  0.8243289E-01
        1   -1    0    0  501    0  0.00000000000E+00  0.00000000000E+00  0.20858749162E+04  0.20858749162E+04  0.50400001928E-02 0. -1.
       -1   -1    0    0    0  501  0.00000000000E+00  0.00000000000E+00 -0.10797972691E+04  0.10797972691E+04  0.50400001928E-02 0.  1.
    10030    2    1    2    0    0  0.00000000000E+00  0.00000000000E+00  0.10060776471E+04  0.31656721853E+04  0.30015476263E+04 0.  0.
        1    1    3    3  502    0 -0.80932536877E+03  0.12450781627E+04  0.73191860570E+03  0.16555760415E+04  0.50400001928E-02 0. -1.
       -1    1    3    3    0  502  0.80932536877E+03 -0.12450781627E+04  0.27415904143E+03  0.15100961438E+04  0.50400001928E-02 0.  1.
</event>
<event>
 5   0  0.1723916E-06  0.3006134E+04  0.7818609E-02  0.8241982E-01
       -2   -1    0    0    0  501  0.00000000000E+00  0.00000000000E+00  0.14663052027E+04  0.14663052027E+04  0.25500000920E-02 0.  1.
        2   -1    0    0  501    0  0.00000000000E+00  0.00000000000E+00 -0.15407500028E+04  0.15407500028E+04  0.25500000920E-02 0. -1.
    10030    2    1    2    0    0  0.00000000000E+00  0.00000000000E+00 -0.74444800150E+02  0.30070552055E+04  0.30061335600E+04 0.  0.
        1    1    3    3  502    0 -0.14034325925E+04 -0.52641546056E+03  0.74496514425E+02  0.15007618098E+04  0.50400001928E-02 0.  1.
       -1    1    3    3    0  502  0.14034325925E+04  0.52641546056E+03 -0.14894131458E+03  0.15062933958E+04  0.50400001928E-02 0. -1.
</event>
<event>
 5   0  0.1635086E-06  0.2991125E+04  0.7818609E-02  0.8246270E-01
        2   -1    0    0  501    0  0.00000000000E+00  0.00000000000E+00  0.16652622031E+04  0.16652622031E+04  0.25500000920E-02 0. -1.
       -2   -1    0    0    0  501  0.00000000000E+00  0.00000000000E+00 -0.13431563049E+04  0.13431563049E+04  0.25500000920E-02 0.  1.
    10030    2    1    2    0    0  0.00000000000E+00  0.00000000000E+00  0.32210589819E+03  0.30084185080E+04  0.29911251578E+04 0.  0.
        3    1    3    3  502    0 -0.70822406099E+02 -0.13092277195E+04  0.88466673760E+03  0.15816852663E+04  0.10100000352E+00 0. -1.
       -3    1    3    3    0  502  0.70822406099E+02  0.13092277195E+04 -0.56256083941E+03  0.14267332417E+04  0.10100000352E+00 0.  1.
</event>
<event>
 5   0  0.1560174E-06  0.3004966E+04  0.7818609E-02  0.8242314E-01
        2   -1    0    0  501    0  0.00000000000E+00  0.00000000000E+00  0.14060503179E+04  0.14060503179E+04  0.25500000920E-02 0.  1.
       -2   -1    0    0    0  501  0.00000000000E+00  0.00000000000E+00 -0.16055299402E+04  0.16055299402E+04  0.25500000920E-02 0. -1.
    10030    2    1    2    0    0  0.00000000000E+00  0.00000000000E+00 -0.19947962227E+03  0.30115802581E+04  0.30049664775E+04 0.  0.
        5    1    3    3  502    0  0.64973191694E+03  0.11274250134E+04  0.65304258180E+03  0.14559276866E+04  0.46999998093E+01 0.  1.
       -5    1    3    3    0  502 -0.64973191694E+03 -0.11274250134E+04 -0.85252220407E+03  0.15556525715E+04  0.46999998093E+01 0. -1.
</event>
<event>
 5   0  0.1625212E-06  0.2999053E+04  0.7818609E-02  0.8244001E-01
        2   -1    0    0  501    0  0.00000000000E+00  0.00000000000E+00  0.18563701055E+04  0.18563701055E+04  0.25500000920E-02 0. -1.
       -2   -1    0    0    0  501  0.00000000000E+00  0.00000000000E+00 -0.12112773957E+04  0.12112773957E+04  0.25500000920E-02 0.  1.
    10030    2    1    2    0    0  0.00000000000E+00  0.00000000000E+00  0.64509270982E+03  0.30676475012E+04  0.29990526150E+04 0.  0.
        4    1    3    3  502    0 -0.61573709514E+02  0.14822123903E+04  0.98837304400E+02  0.14867801846E+04  0.12699999809E+01 0. -1.
       -4    1    3    3    0  502  0.61573709514E+02 -0.14822123903E+04  0.54625540542E+03  0.15808673166E+04  0.12699999809E+01 0.  1.
</event>
<event>
 5   0  0.1723916E-06  0.2999066E+04  0.7818609E-02  0.8243998E-01
        2   -1    0    0  501    0  0.00000000000E+00  0.00000000000E+00  0.25504875684E+04  0.25504875684E+04  0.25500000920E-02 0. -1.
       -2   -1    0    0    0  501  0.00000000000E+00  0.00000000000E+00 -0.88163507196E+03  0.88163507197E+03  0.25500000920E-02 0.  1.
    10030    2    1    2    0    0  0.00000000000E+00  0.00000000000E+00  0.16688524964E+04  0.34321226404E+04  0.29990660486E+04 0.  0.
        1    1    3    3  502    0  0.87560932293E+03 -0.75616637409E+03 -0.25733104409E+03  0.11851997882E+04  0.50400001928E-02 0.  1.
       -1    1    3    3    0  502 -0.87560932293E+03  0.75616637409E+03  0.19261835405E+04  0.22469228521E+04  0.50400001928E-02 0. -1.
</event>
<event>
 5   0  0.5931588E-07  0.3006130E+04  0.7818609E-02  0.8241983E-01
       -1   -1    0    0    0  501  0.00000000000E+00  0.00000000000E+00  0.10644275846E+04  0.10644275846E+04  0.50400001928E-02 0.  1.
        1   -1    0    0  501    0  0.00000000000E+00  0.00000000000E+00 -0.21224591240E+04  0.21224591240E+04  0.50400001928E-02 0. -1.
    10030    2    1    2    0    0  0.00000000000E+00  0.00000000000E+00 -0.10580315394E+04  0.31868867086E+04  0.30061297635E+04 0.  0.
        2    1    3    3  502    0  0.14412289457E+04 -0.37664240649E+03 -0.31645079210E+03  0.15228727721E+04  0.25500000920E-02 0. -1.
       -2    1    3    3    0  502 -0.14412289457E+04  0.37664240649E+03 -0.74158074730E+03  0.16640139365E+04  0.25500000920E-02 0.  1.
</event>
<event>
 5   0  0.5887179E-07  0.3011606E+04  0.7818609E-02  0.8240425E-01
        1   -1    0    0  501    0  0.00000000000E+00  0.00000000000E+00  0.25905041977E+04  0.25905041977E+04  0.50400001928E-02 0.  1.
       -1   -1    0    0    0  501  0.00000000000E+00  0.00000000000E+00 -0.87528996566E+03  0.87528996567E+03  0.50400001928E-02 0. -1.
    10030    2    1    2    0    0  0.00000000000E+00  0.00000000000E+00  0.17152142320E+04  0.34657941634E+04  0.30116057712E+04 0.  0.
        3    1    3    3  502    0  0.39079610854E+03 -0.76999485549E+03 -0.56206326753E+03  0.10303051989E+04  0.10100000352E+00 0. -1.
       -3    1    3    3    0  502 -0.39079610854E+03  0.76999485549E+03  0.22772774996E+04  0.24354889645E+04  0.10100000352E+00 0.  1.
</event>
<event>
 5   0  0.1635086E-06  0.2998382E+04  0.7818609E-02  0.8244193E-01
       -2   -1    0    0    0  501  0.00000000000E+00  0.00000000000E+00  0.19558227329E+04  0.19558227330E+04  0.25500000920E-02 0.  1.
        2   -1    0    0  501    0  0.00000000000E+00  0.00000000000E+00 -0.11491705652E+04  0.11491705652E+04  0.25500000920E-02 0. -1.
    10030    2    1    2    0    0  0.00000000000E+00  0.00000000000E+00  0.80665216776E+03  0.31049932981E+04  0.29983821741E+04 0.  0.
        3    1    3    3  502    0  0.14076957408E+04 -0.42691567561E+03  0.10371260615E+03  0.14746594887E+04  0.10100000352E+00 0.  1.
       -3    1    3    3    0  502 -0.14076957408E+04  0.42691567561E+03  0.70293956161E+03  0.16303338094E+04  0.10100000352E+00 0. -1.
</event>
<event>
 5   0  0.1635086E-06  0.2952689E+04  0.7818609E-02  0.8257371E-01
       -2   -1    0    0    0  501  0.00000000000E+00  0.00000000000E+00  0.10893283777E+04  0.10893283777E+04  0.25500000920E-02 0. -1.
        2   -1    0    0  501    0  0.00000000000E+00  0.00000000000E+00 -0.20008600526E+04  0.20008600526E+04  0.25500000920E-02 0.  1.
    10030    2    1    2    0    0  0.00000000000E+00  0.00000000000E+00 -0.91153167493E+03  0.30901884304E+04  0.29526893742E+04 0.  0.
        3    1    3    3  502    0 -0.12480730928E+04 -0.32353094195E+03  0.29691544381E+03  0.13230712400E+04  0.10100000352E+00 0. -1.
       -3    1    3    3    0  502  0.12480730928E+04  0.32353094195E+03 -0.12084471187E+04  0.17671171903E+04  0.10100000352E+00 0.  1.
</event>
<event>
 5   0  0.5931588E-07  0.2997380E+04  0.7818609E-02  0.8244479E-01
        1   -1    0    0  501    0  0.00000000000E+00  0.00000000000E+00  0.21834704246E+04  0.21834704246E+04  0.50400001928E-02 0.  1.
       -1   -1    0    0    0  501  0.00000000000E+00  0.00000000000E+00 -0.10286704480E+04  0.10286704481E+04  0.50400001928E-02 0. -1.
    10030    2    1    2    0    0  0.00000000000E+00  0.00000000000E+00  0.11547999765E+04  0.32121408726E+04  0.29973798558E+04 0.  0.
        2    1    3    3  502    0 -0.18767949546E+03 -0.65041915198E+03  0.20102891904E+04  0.21212098659E+04  0.25500000920E-02 0.  1.
       -2    1    3    3    0  502  0.18767949546E+03  0.65041915198E+03 -0.85548921388E+03  0.10909310067E+04  0.25500000920E-02 0. -1.
</event>
<event>
 5   0  0.6291798E-07  0.3001604E+04  0.7818609E-02  0.8243273E-01
       -1   -1    0    0    0  501  0.00000000000E+00  0.00000000000E+00  0.14603971413E+04  0.14603971413E+04  0.50400001928E-02 0. -1.
        1   -1    0    0  501    0  0.00000000000E+00  0.00000000000E+00 -0.15423247690E+04  0.15423247690E+04  0.50400001928E-02 0.  1.
    10030    2    1    2    0    0  0.00000000000E+00  0.00000000000E+00 -0.81927627657E+02  0.30027219103E+04  0.30016040269E+04 0.  0.
        1    1    3    3  502    0  0.28743071386E+03  0.41651902788E+03 -0.14543955967E+04  0.15399256695E+04  0.50400001928E-02 0.  1.
       -1    1    3    3    0  502 -0.28743071386E+03 -0.41651902788E+03  0.13724679691E+04  0.14627962408E+04  0.50400001928E-02 0. -1.
</event>
<event>
 5   0  0.1560174E-06  0.3022667E+04  0.7818609E-02  0.8237288E-01
        2   -1    0    0  501    0  0.00000000000E+00  0.00000000000E+00  0.24538984716E+04  0.24538984716E+04  0.25500000920E-02 0.  1.
       -2   -1    0    0    0  501  0.00000000000E+00  0.00000000000E+00 -0.93081632092E+03  0.93081632092E+03  0.25500000920E-02 0. -1.
    10030    2    1    2    0    0  0.00000000000E+00  0.00000000000E+00  0.15230821507E+04  0.33847147925E+04  0.30226668670E+04 0.  0.
        5    1    3    3  502    0 -0.90149839212E+03  0.12120504293E+04  0.70736115586E+03  0.16679770649E+04  0.46999998093E+01 0. -1.
       -5    1    3    3    0  502  0.90149839212E+03 -0.12120504293E+04  0.81572099481E+03  0.17167377276E+04  0.46999998093E+01 0.  1.
</event>
<event>
 5   0  0.5874741E-07  0.3001782E+04  0.7818609E-02  0.8243222E-01
       -1   -1    0    0    0  501  0.00000000000E+00  0.00000000000E+00  0.11536017283E+04  0.11536017283E+04  0.50400001928E-02 0.  1.
        1   -1    0    0  501    0  0.00000000000E+00  0.00000000000E+00 -0.19527315281E+04  0.19527315281E+04  0.50400001928E-02 0. -1.
    10030    2    1    2    0    0  0.00000000000E+00  0.00000000000E+00 -0.79912979980E+03  0.31063332564E+04  0.30017824477E+04 0.  0.
        4    1    3    3  502    0  0.14160581776E+04  0.19042771843E+03  0.75994603079E+02  0.14308250315E+04  0.12699999809E+01 0. -1.
       -4    1    3    3    0  502 -0.14160581776E+04 -0.19042771843E+03 -0.87512440288E+03  0.16755082249E+04  0.12699999809E+01 0.  1.
</event>
<event>
 5   0  0.6291798E-07  0.2983337E+04  0.7818609E-02  0.8248505E-01
        1   -1    0    0  501    0  0.00000000000E+00  0.00000000000E+00  0.11980262278E+04  0.11980262278E+04  0.50400001928E-02 0. -1.
       -1   -1    0    0    0  501  0.00000000000E+00  0.00000000000E+00 -0.18572839708E+04  0.18572839708E+04  0.50400001928E-02 0.  1.
    10030    2    1    2    0    0  0.00000000000E+00  0.00000000000E+00 -0.65925774299E+03  0.30553101986E+04  0.29833369971E+04 0.  0.
        1    1    3    3  502    0 -0.15676605555E+03  0.31544113399E+03  0.11548213187E+04  0.12073487414E+04  0.50400001928E-02 0. -1.
       -1    1    3    3    0  502  0.15676605555E+03 -0.31544113399E+03 -0.18140790617E+04  0.18479614572E+04  0.50400001928E-02 0.  1.
</event>
<event>
 5   0  0.1625212E-06  0.3000877E+04  0.7818609E-02  0.8243480E-01
        2   -1    0    0  501    0  0.00000000000E+00  0.00000000000E+00  0.15654339954E+04  0.15654339954E+04  0.25500000920E-02 0. -1.
       -2   -1    0    0    0  501  0.00000000000E+00  0.00000000000E+00 -0.14381417641E+04  0.14381417642E+04  0.25500000920E-02 0.  1.
    10030    2    1    2    0    0  0.00000000000E+00  0.00000000000E+00  0.12729223123E+03  0.30035757595E+04  0.30008772103E+04 0.  0.
        4    1    3    3  502    0 -0.11785132608E+04  0.92149939124E+03 -0.51608469538E+02  0.14969033639E+04  0.12699999809E+01 0. -1.
       -4    1    3    3    0  502  0.11785132608E+04 -0.92149939124E+03  0.17890070077E+03  0.15066723956E+04  0.12699999809E+01 0.  1.
</event>
<event>
 5   0  0.5887179E-07  0.2989943E+04  0.7818609E-02  0.8246609E-01
        1   -1    0    0  501    0  0.00000000000E+00  0.00000000000E+00  0.19198796651E+04  0.19198796651E+04  0.50400001928E-02 0.  1.
       -1   -1    0    0    0  501  0.00000000000E+00  0.00000000000E+00 -0.11641039984E+04  0.11641039984E+04  0.50400001928E-02 0. -1.
    10030    2    1    2    0    0  0.00000000000E+00  0.00000000000E+00  0.75577566675E+03  0.30839836635E+04  0.29899428721E+04 0.  0.
        3    1    3    3  502    0 -0.14260780893E+04  0.20005964178E+03  0.79203491547E+03  0.16434846804E+04  0.10100000352E+00 0.  1.
       -3    1    3    3    0  502  0.14260780893E+04 -0.20005964178E+03 -0.36259248723E+02  0.14404989831E+04  0.10100000352E+00 0. -1.
</event>
<event>
 5   0  0.6291798E-07  0.3002402E+04  0.7818609E-02  0.8243045E-01
       -1   -1    0    0    0  501  0.00000000000E+00  0.00000000000E+00  0.10580465321E+04  0.10580465322E+04  0.50400001928E-02 0. -1.
        1   -1    0    0  501    0  0.00000000000E+00  0.00000000000E+00 -0.21299679207E+04  0.21299679207E+04  0.50400001928E-02 0.  1.
    10030    2    1    2    0    0  0.00000000000E+00  0.00000000000E+00 -0.10719213886E+04  0.31880144529E+04  0.30024024861E+04 0.  0.
        1    1    3    3  502    0  0.78546973572E+03  0.70730891527E+02  0.82036344162E+03  0.11379638576E+04  0.50400001928E-02 0. -1.
       -1    1    3    3    0  502 -0.78546973572E+03 -0.70730891527E+02 -0.18922848302E+04  0.20500505953E+04  0.50400001928E-02 0.  1.
</event>
<event>
 5   0  0.6291798E-07  0.2992294E+04  0.7818609E-02  0.8245935E-01
        1   -1    0    0  501    0  0.00000000000E+00  0.00000000000E+00  0.10353904786E+04  0.10353904786E+04  0.50400001928E-02 0. -1.
       -1   -1    0    0    0  501  0.00000000000E+00  0.00000000000E+00 -0.21619430395E+04  0.21619430395E+04  0.50400001928E-02 0.  1.
    10030    2    1    2    0    0  0.00000000000E+00  0.00000000000E+00 -0.11265525609E+04  0.31973335182E+04  0.29922935942E+04 0.  0.
        1    1    3    3  502    0  0.52117985684E+03 -0.11789248726E+04 -0.13749055429E+04  0.18846372463E+04  0.50400001928E-02 0.  1.
       -1    1    3    3    0  502 -0.52117985684E+03  0.11789248726E+04  0.24835298194E+03  0.13126962718E+04  0.50400001928E-02 0. -1.
</event>
<event>
 5   0  0.5916703E-07  0.2999627E+04  0.7818609E-02  0.8243837E-01
        1   -1    0    0  501    0  0.00000000000E+00  0.00000000000E+00  0.19151153214E+04  0.19151153214E+04  0.50400001928E-02 0.  1.
       -1   -1    0    0    0  501  0.00000000000E+00  0.00000000000E+00 -0.11745716615E+04  0.11745716615E+04  0.50400001928E-02 0. -1.
    10030    2    1    2    0    0  0.00000000000E+00  0.00000000000E+00  0.74054365990E+03  0.30896869830E+04  0.29996267669E+04 0.  0.
        5    1    3    3  502    0 -0.49476207073E+03 -0.84368873912E+03  0.15414310482E+04  0.18255497697E+04  0.46999998093E+01 0.  1.
       -5    1    3    3    0  502  0.49476207073E+03  0.84368873912E+03 -0.80088738834E+03  0.12641372133E+04  0.46999998093E+01 0. -1.
</event>
<event>
 5   0  0.5916703E-07  0.2971630E+04  0.7818609E-02  0.8251879E-01
       -1   -1    0    0    0  501  0.00000000000E+00  0.00000000000E+00  0.26713282194E+04  0.26713282194E+04  0.50400001928E-02 0. -1.
        1   -1    0    0  501    0  0.00000000000E+00  0.00000000000E+00 -0.82642254366E+03  0.82642254368E+03  0.50400001928E-02 0.  1.
    10030    2    1    2    0    0  0.00000000000E+00  0.00000000000E+00  0.18449056758E+04  0.34977507631E+04  0.29716297630E+04 0.  0.
        5    1    3    3  502    0 -0.40712827889E+03  0.97255285552E+03 -0.30980523620E+03  0.10989148587E+04  0.46999998093E+01 0.  1.
       -5    1    3    3    0  502  0.40712827889E+03 -0.97255285552E+03  0.21547109120E+04  0.23988359044E+04  0.46999998093E+01 0. -1.
</event>
<event>
 5   0  0.5931588E-07  0.2995243E+04  0.7818609E-02  0.8245091E-01
        1   -1    0    0  501    0  0.00000000000E+00  0.00000000000E+00  0.22839896242E+04  0.22839896242E+04  0.50400001928E-02 0.  1.
       -1   -1    0    0    0  501  0.00000000000E+00  0.00000000000E+00 -0.98199657696E+03  0.98199657697E+03  0.50400001928E-02 0. -1.
    10030    2    1    2    0    0  0.00000000000E+00  0.00000000000E+00  0.13019930472E+04  0.32659862012E+04  0.29952428902E+04 0.  0.
        2    1    3    3  502    0 -0.73747887544E+03 -0.58021487324E+03 -0.62170319057E+03  0.11256283792E+04  0.25500000920E-02 0. -1.
       -2    1    3    3    0  502  0.73747887544E+03  0.58021487324E+03  0.19236962378E+04  0.21403578220E+04  0.25500000920E-02 0.  1.
</event>
<event>
 5   0  0.5931588E-07  0.2999315E+04  0.7818609E-02  0.8243926E-01
       -1   -1    0    0    0  501  0.00000000000E+00  0.00000000000E+00  0.15148832093E+04  0.15148832093E+04  0.50400001928E-02 0.  1.
        1   -1    0    0  501    0  0.00000000000E+00  0.00000000000E+00 -0.14845848857E+04  0.14845848857E+04  0.50400001928E-02 0. -1.
    10030    2    1    2    0    0  0.00000000000E+00  0.00000000000E+00  0.30298323630E+02  0.29994680950E+04  0.29993150659E+04 0.  0.
        2    1    3    3  502    0 -0.66279763378E+03 -0.12414265017E+04  0.53337657928E+03  0.15049687830E+04  0.25500000920E-02 0.  1.
       -2    1    3    3    0  502  0.66279763378E+03  0.12414265017E+04 -0.50307825565E+03  0.14944993121E+04  0.25500000920E-02 0. -1.
</event>
<event>
 5   0  0.5931588E-07  0.2996368E+04  0.7818609E-02  0.8244769E-01
       -1   -1    0    0    0  501  0.00000000000E+00  0.00000000000E+00  0.12146375703E+04  0.12146375703E+04  0.50400001928E-02 0.  1.
        1   -1    0    0  501    0  0.00000000000E+00  0.00000000000E+00 -0.18479219674E+04  0.18479219674E+04  0.50400001928E-02 0. -1.
    10030    2    1    2    0    0  0.00000000000E+00  0.00000000000E+00 -0.63328439710E+03  0.30625595377E+04  0.29963681006E+04 0.  0.
        2    1    3    3  502    0 -0.16070372259E+03 -0.29728031202E+03 -0.18084582702E+04  0.18397615567E+04  0.25500000920E-02 0. -1.
       -2    1    3    3    0  502  0.16070372259E+03  0.29728031202E+03  0.11751738731E+04  0.12227979810E+04  0.25500000920E-02 0.  1.
</event>
<event>
 5   0  0.1560174E-06  0.3056744E+04  0.7818609E-02  0.8227710E-01
       -2   -1    0    0    0  501  0.00000000000E+00  0.00000000000E+00  0.13601882648E+04  0.13601882648E+04  0.25500000920E-02 0. -1.
        2   -1    0    0  501    0  0.00000000000E+00  0.00000000000E+00 -0.17173508076E+04  0.17173508076E+04  0.25500000920E-02 0.  1.
    10030    2    1    2    0    0  0.00000000000E+00  0.00000000000E+00 -0.35716254279E+03  0.30775390723E+04  0.30567436366E+04 0.  0.
        5    1    3    3  502    0  0.42580504538E+03  0.68937998533E+03 -0.14832923302E+04  0.16901872464E+04  0.46999998093E+01 0.  1.
       -5    1    3    3    0  502 -0.42580504538E+03 -0.68937998533E+03  0.11261297874E+04  0.13873518260E+04  0.46999998093E+01 0. -1.
</event>
<event>
 5   0  0.6291798E-07  0.2998751E+04  0.7818609E-02  0.8244088E-01
        1   -1    0    0  501    0  0.00000000000E+00  0.00000000000E+00  0.22273296247E+04  0.22273296247E+04  0.50400001928E-02 0.  1.
       -1   -1    0    0    0  501  0.00000000000E+00  0.00000000000E+00 -0.10093374374E+04  0.10093374374E+04  0.50400001928E-02 0. -1.
    10030    2    1    2    0    0  0.00000000000E+00  0.00000000000E+00  0.12179921873E+04  0.32366670621E+04  0.29987511905E+04 0.  0.
        1    1    3    3  502    0  0.49905490944E+03 -0.94243894097E+03  0.17466003570E+04  0.20464260962E+04  0.50400001928E-02 0. -1.
       -1    1    3    3    0  502 -0.49905490944E+03  0.94243894097E+03 -0.52860816964E+03  0.11902409660E+04  0.50400001928E-02 0.  1.
</event>
<event>
 5   0  0.5431625E-07  0.2970109E+04  0.7818609E-02  0.8252318E-01
        3   -1    0    0  501    0  0.00000000000E+00  0.00000000000E+00  0.18073601102E+04  0.18073601131E+04  0.10100000352E+00 0. -1.
       -3   -1    0    0    0  501  0.00000000000E+00  0.00000000000E+00 -0.12202254566E+04  0.12202254607E+04  0.10100000352E+00 0.  1.
    10030    2    1    2    0    0  0.00000000000E+00  0.00000000000E+00  0.58713465367E+03  0.30275855738E+04  0.29701089719E+04 0.  0.
        1    1    3    3  502    0 -0.88330172745E+03 -0.84226885293E+03 -0.56882351225E+03  0.13465507604E+04  0.50400001928E-02 0.  1.
       -1    1    3    3    0  502  0.88330172745E+03  0.84226885293E+03  0.11559581659E+04  0.16810348134E+04  0.50400001928E-02 0. -1.
</event>
<event>
 5   0  0.1635086E-06  0.2995710E+04  0.7818609E-02  0.8244957E-01
        2   -1    0    0  501    0  0.00000000000E+00  0.00000000000E+00  0.29068328269E+04  0.29068328269E+04  0.25500000920E-02 0. -1.
       -2   -1    0    0    0  501  0.00000000000E+00  0.00000000000E+00 -0.77182621899E+03  0.77182621899E+03  0.25500000920E-02 0.  1.
    10030    2    1    2    0    0  0.00000000000E+00  0.00000000000E+00  0.21350066080E+04  0.36786590459E+04  0.29957101262E+04 0.  0.
        3    1    3    3  502    0 -0.12008311217E+04  0.88986195359E+03  0.11885701225E+04  0.19095938379E+04  0.10100000352E+00 0.  1.
       -3    1    3    3    0  502  0.12008311217E+04 -0.88986195359E+03  0.94643648546E+03  0.17690652081E+04  0.10100000352E+00 0. -1.
</event>
<event>
 5   0  0.5874741E-07  0.2940660E+04  0.7818609E-02  0.8260882E-01
       -1   -1    0    0    0  501  0.00000000000E+00  0.00000000000E+00  0.15116835412E+04  0.15116835412E+04  0.50400001928E-02 0.  1.
        1   -1    0    0  501    0  0.00000000000E+00  0.00000000000E+00 -0.14301073457E+04  0.14301073457E+04  0.50400001928E-02 0. -1.
    10030    2    1    2    0    0  0.00000000000E+00  0.00000000000E+00  0.81576195461E+02  0.29417908869E+04  0.29406596108E+04 0.  0.
        4    1    3    3  502    0 -0.11107044527E+04  0.86634275584E+03  0.46244042582E+03  0.14825879104E+04  0.12699999809E+01 0. -1.
       -4    1    3    3    0  502  0.11107044527E+04 -0.86634275584E+03 -0.38086423036E+03  0.14592029765E+04  0.12699999809E+01 0.  1.
</event>
<event>
 5   0  0.1625212E-06  0.3054009E+04  0.7818609E-02  0.8228474E-01
        2   -1    0    0  501    0  0.00000000000E+00  0.00000000000E+00  0.27768812466E+04  0.27768812466E+04  0.25500000920E-02 0.  1.
       -2   -1    0    0    0  501  0.00000000000E+00  0.00000000000E+00 -0.83969847988E+03  0.83969847988E+03  0.25500000920E-02 0. -1.
    10030    2    1    2    0    0  0.00000000000E+00  0.00000000000E+00  0.19371827668E+04  0.36165797265E+04  0.30540091432E+04 0.  0.
        4    1    3    3  502    0  0.54675591534E+03  0.40228799076E+03  0.25883876369E+04  0.26759166337E+04  0.12699999809E+01 0.  1.
       -4    1    3    3    0  502 -0.54675591534E+03 -0.40228799076E+03 -0.65120487016E+03  0.94066309287E+03  0.12699999809E+01 0. -1.
</event>
<event>
 5   0  0.1723916E-06  0.2998039E+04  0.7818609E-02  0.8244291E-01
        2   -1    0    0  501    0  0.00000000000E+00  0.00000000000E+00  0.20536448794E+04  0.20536448794E+04  0.25500000920E-02 0.  1.
       -2   -1    0    0    0  501  0.00000000000E+00  0.00000000000E+00 -0.10941812008E+04  0.10941812009E+04  0.25500000920E-02 0. -1.
    10030    2    1    2    0    0  0.00000000000E+00  0.00000000000E+00  0.95946367856E+03  0.31478260803E+04  0.29980391060E+04 0.  0.
        1    1    3    3  502    0  0.24744016057E+03 -0.57005761791E+03 -0.95255874831E+03  0.11373480073E+04  0.50400001928E-02 0. -1.
       -1    1    3    3    0  502 -0.24744016057E+03  0.57005761791E+03  0.19120224269E+04  0.20104780729E+04  0.50400001928E-02 0.  1.
</event>
<event>
 5   0  0.5887179E-07  0.2991534E+04  0.7818609E-02  0.8246152E-01
        1   -1    0    0  501    0  0.00000000000E+00  0.00000000000E+00  0.17013466200E+04  0.17013466200E+04  0.50400001928E-02 0. -1.
       -1   -1    0    0    0  501  0.00000000000E+00  0.00000000000E+00 -0.13150284255E+04  0.13150284255E+04  0.50400001928E-02 0.  1.
    10030    2    1    2    0    0  0.00000000000E+00  0.00000000000E+00  0.38631819453E+03  0.30163750455E+04  0.29915341663E+04 0.  0.
        3    1    3    3  502    0  0.91145093052E+03 -0.97179459418E+03 -0.49233292947E+03  0.14203940494E+04  0.10100000352E+00 0.  1.
       -3    1    3    3    0  502 -0.91145093052E+03  0.97179459418E+03  0.87865112401E+03  0.15959809961E+04  0.10100000352E+00 0. -1.
</event>
<event>
 5   0  0.1635086E-06  0.2991305E+04  0.7818609E-02  0.8246218E-01
        2   -1    0    0  501    0  0.00000000000E+00  0.00000000000E+00  0.21955551368E+04  0.21955551368E+04  0.25500000920E-02 0. -1.
       -2   -1    0    0    0  501  0.00000000000E+00  0.00000000000E+00 -0.10188659288E+04  0.10188659288E+04  0.25500000920E-02 0.  1.
    10030    2    1    2    0    0  0.00000000000E+00  0.00000000000E+00  0.11766892081E+04  0.32144210656E+04  0.29913049485E+04 0.  0.
        3    1    3    3  502    0 -0.12992960757E+04 -0.38637808468E+03  0.12675642668E+04  0.18558495352E+04  0.10100000352E+00 0. -1.
       -3    1    3    3    0  502  0.12992960757E+04  0.38637808468E+03 -0.90875058692E+02  0.13585715304E+04  0.10100000352E+00 0.  1.
</event>
<event>
 5   0  0.5874741E-07  0.3015170E+04  0.7818609E-02  0.8239412E-01
        1   -1    0    0  501    0  0.00000000000E+00  0.00000000000E+00  0.18748703990E+04  0.18748703991E+04  0.50400001928E-02 0. -1.
       -1   -1    0    0    0  501  0.00000000000E+00  0.00000000000E+00 -0.12122501957E+04  0.12122501957E+04  0.50400001928E-02 0.  1.
    10030    2    1    2    0    0  0.00000000000E+00  0.00000000000E+00  0.66262020337E+03  0.30871205947E+04  0.30151696524E+04 0.  0.
        4    1    3    3  502    0 -0.14790448472E+04  0.12389497962E+03  0.60197960347E+03  0.16016568552E+04  0.12699999809E+01 0.  1.
       -4    1    3    3    0  502  0.14790448472E+04 -0.12389497962E+03  0.60640599908E+02  0.14854637395E+04  0.12699999809E+01 0. -1.
</event>
<event>
 5   0  0.1674806E-06  0.2993499E+04  0.7818609E-02  0.8245590E-01
        2   -1    0    0  501    0  0.00000000000E+00  0.00000000000E+00  0.15502875187E+04  0.15502875187E+04  0.25500000920E-02 0. -1.
       -2   -1    0    0    0  501  0.00000000000E+00  0.00000000000E+00 -0.14450608508E+04  0.14450608508E+04  0.25500000920E-02 0.  1.
    10030    2    1    2    0    0  0.00000000000E+00  0.00000000000E+00  0.10522666786E+03  0.29953483695E+04  0.29934994910E+04 0.  0.
        2    1    3    3  502    0 -0.49278185779E+03 -0.60526331499E+03  0.13305404043E+04  0.15425677967E+04  0.25500000920E-02 0. -1.
       -2    1    3    3    0  502  0.49278185779E+03  0.60526331499E+03 -0.12253137365E+04  0.14527805728E+04  0.25500000920E-02 0.  1.
</event>
<event>
 5   0  0.5874741E-07  0.2978687E+04  0.7818609E-02  0.8249843E-01
        1   -1    0    0  501    0  0.00000000000E+00  0.00000000000E+00  0.26861342836E+04  0.26861342836E+04  0.50400001928E-02 0. -1.
       -1   -1    0    0    0  501  0.00000000000E+00  0.00000000000E+00 -0.82577560241E+03  0.82577560242E+03  0.50400001928E-02 0.  1.
    10030    2    1    2    0    0  0.00000000000E+00  0.00000000000E+00  0.18603586812E+04  0.35119098860E+04  0.29786870639E+04 0.  0.
        4    1    3    3  502    0 -0.11244487886E+04 -0.28541242030E+03  0.20313401018E+04  0.23392711578E+04  0.12699999809E+01 0. -1.
       -4    1    3    3    0  502  0.11244487886E+04  0.28541242030E+03 -0.17098142060E+03  0.11726387282E+04  0.12699999809E+01 0.  1.
</event>
<event>
 5   0  0.5874741E-07  0.2997477E+04  0.7818609E-02  0.8244452E-01
        1   -1    0    0  501    0  0.00000000000E+00  0.00000000000E+00  0.12495859488E+04  0.12495859488E+04  0.50400001928E-02 0.  1.
       -1   -1    0    0    0  501  0.00000000000E+00  0.00000000000E+00 -0.17975694307E+04  0.17975694307E+04  0.50400001928E-02 0. -1.
    10030    2    1    2    0    0  0.00000000000E+00  0.00000000000E+00 -0.54798348183E+03  0.30471553795E+04  0.29974772744E+04 0.  0.
        4    1    3    3  502    0  0.24374751513E+03  0.10853125313E+03  0.12252467663E+04  0.12539629721E+04  0.12699999809E+01 0.  1.
       -4    1    3    3    0  502 -0.24374751513E+03 -0.10853125313E+03 -0.17732302482E+04  0.17931924074E+04  0.12699999809E+01 0. -1.
</event>
<event>
 5   0  0.5931588E-07  0.2940604E+04  0.7818609E-02  0.8260898E-01
        1   -1    0    0  501    0  0.00000000000E+00  0.00000000000E+00  0.23798947007E+04  0.23798947007E+04  0.50400001928E-02 0.  1.
       -1   -1    0    0    0  501  0.00000000000E+00  0.00000000000E+00 -0.90835441071E+03  0.90835441072E+03  0.50400001928E-02 0. -1.
    10030    2    1    2    0    0  0.00000000000E+00  0.00000000000E+00  0.14715402900E+04  0.32882491115E+04  0.29406039165E+04 0.  0.
        2    1    3    3  502    0 -0.16405362662E+03  0.20551496214E+03 -0.88184505407E+03  0.92021774134E+03  0.25500000920E-02 0. -1.
       -2    1    3    3    0  502  0.16405362662E+03 -0.20551496214E+03  0.23533853441E+04  0.23680313701E+04  0.25500000920E-02 0.  1.
</event>
<event>
 5   0  0.1674806E-06  0.2991557E+04  0.7818609E-02  0.8246146E-01
        2   -1    0    0  501    0  0.00000000000E+00  0.00000000000E+00  0.13533030401E+04  0.13533030401E+04  0.25500000920E-02 0. -1.
       -2   -1    0    0    0  501  0.00000000000E+00  0.00000000000E+00 -0.16532534923E+04  0.16532534923E+04  0.25500000920E-02 0.  1.
    10030    2    1    2    0    0  0.00000000000E+00  0.00000000000E+00 -0.29995045225E+03  0.30065565324E+04  0.29915567701E+04 0.  0.
        2    1    3    3  502    0  0.14672289951E+03  0.13335478552E+04  0.51476044802E+03  0.14369606154E+04  0.25500000920E-02 0. -1.
       -2    1    3    3    0  502 -0.14672289951E+03 -0.13335478552E+04 -0.81471090026E+03  0.15695959169E+04  0.25500000920E-02 0.  1.
</event>
<event>
 5   0  0.1723916E-06  0.3036281E+04  0.7818609E-02  0.8233446E-01
        2   -1    0    0  501    0  0.00000000000E+00  0.00000000000E+00  0.18495661423E+04  0.18495661424E+04  0.25500000920E-02 0. -1.
       -2   -1    0    0    0  501  0.00000000000E+00  0.00000000000E+00 -0.12461029984E+04  0.12461029984E+04  0.25500000920E-02 0.  1.
    10030    2    1    2    0    0  0.00000000000E+00  0.00000000000E+00  0.60346314398E+03  0.30956691407E+04  0.30362805639E+04 0.  0.
        1    1    3    3  502    0 -0.72182289816E+02 -0.52145030731E+03 -0.11500688151E+04  0.12648236974E+04  0.50400001928E-02 0.  1.
       -1    1    3    3    0  502  0.72182289816E+02  0.52145030731E+03  0.17535319591E+04  0.18308454434E+04  0.50400001928E-02 0. -1.
</event>
<event>
 5   0  0.1560174E-06  0.3070818E+04  0.7818609E-02  0.8223793E-01
       -2   -1    0    0    0  501  0.00000000000E+00  0.00000000000E+00  0.11941366923E+04  0.11941366923E+04  0.25500000920E-02 0.  1.
        2   -1    0    0  501    0  0.00000000000E+00  0.00000000000E+00 -0.19742130619E+04  0.19742130619E+04  0.25500000920E-02 0. -1.
    10030    2    1    2    0    0  0.00000000000E+00  0.00000000000E+00 -0.78007636961E+03  0.31683497542E+04  0.30708176472E+04 0.  0.
        5    1    3    3  502    0  0.10282015950E+04 -0.70357522644E+03  0.53581511061E+03  0.13562214207E+04  0.46999998093E+01 0.  1.
       -5    1    3    3    0  502 -0.10282015950E+04  0.70357522644E+03 -0.13158914802E+04  0.18121283335E+04  0.46999998093E+01 0. -1.
</event>
<event>
 5   0  0.1723916E-06  0.3002107E+04  0.7818609E-02  0.8243130E-01
        2   -1    0    0  501    0  0.00000000000E+00  0.00000000000E+00  0.18044267348E+04  0.18044267348E+04  0.25500000920E-02 0. -1.
       -2   -1    0    0    0  501  0.00000000000E+00  0.00000000000E+00 -0.12486853034E+04  0.12486853034E+04  0.25500000920E-02 0.  1.
    10030    2    1    2    0    0  0.00000000000E+00  0.00000000000E+00  0.55574143140E+03  0.30531120382E+04  0.30021066902E+04 0.  0.
        1    1    3    3  502    0 -0.34511032168E+02 -0.56821818177E+03  0.16903880649E+04  0.17836688940E+04  0.50400001928E-02 0. -1.
       -1    1    3    3    0  502  0.34511032168E+02  0.56821818177E+03 -0.11346466335E+04  0.12694431442E+04  0.50400001928E-02 0.  1.
</event>
<event>
 5   0  0.6291798E-07  0.3009273E+04  0.7818609E-02  0.8241088E-01
       -1   -1    0    0    0  501  0.00000000000E+00  0.00000000000E+00  0.65108865373E+03  0.65108865375E+03  0.50400001928E-02 0. -1.
        1   -1    0    0  501    0  0.00000000000E+00  0.00000000000E+00 -0.34771471498E+04  0.34771471498E+04  0.50400001928E-02 0.  1.
    10030    2    1    2    0    0  0.00000000000E+00  0.00000000000E+00 -0.28260584961E+04  0.41282358036E+04  0.30092730396E+04 0.  0.
        1    1    3    3  502    0 -0.14955196006E+04 -0.77457382999E+01 -0.11863968206E+04  0.19089725740E+04  0.50400001928E-02 0. -1.
       -1    1    3    3    0  502  0.14955196006E+04  0.77457382999E+01 -0.16396616755E+04  0.22192632296E+04  0.50400001928E-02 0.  1.
</event>
<event>
 5   0  0.1560174E-06  0.3022239E+04  0.7818609E-02  0.8237409E-01
       -2   -1    0    0    0  501  0.00000000000E+00  0.00000000000E+00  0.10511142599E+04  0.10511142599E+04  0.25500000920E-02 0.  1.
        2   -1    0    0  501    0  0.00000000000E+00  0.00000000000E+00 -0.21724399205E+04  0.21724399205E+04  0.25500000920E-02 0. -1.
    10030    2    1    2    0    0  0.00000000000E+00  0.00000000000E+00 -0.11213256606E+04  0.32235541803E+04  0.30222392884E+04 0.  0.
        5    1    3    3  502    0  0.58003829754E+03  0.11116944884E+04  0.33880817851E+03  0.12988926568E+04  0.46999998093E+01 0.  1.
       -5    1    3    3    0  502 -0.58003829754E+03 -0.11116944884E+04 -0.14601338391E+04  0.19246615235E+04  0.46999998093E+01 0. -1.
</event>
<event>
 5   0  0.1625212E-06  0.3003217E+04  0.7818609E-02  0.8242813E-01
       -2   -1    0    0    0  501  0.00000000000E+00  0.00000000000E+00  0.97354743081E+03  0.97354743081E+03  0.25500000920E-02 0.  1.
        2   -1    0    0  501    0  0.00000000000E+00  0.00000000000E+00 -0.23160942061E+04  0.23160942061E+04  0.25500000920E-02 0. -1.
    10030    2    1    2    0    0  0.00000000000E+00  0.00000000000E+00 -0.13425467753E+04  0.32896416369E+04  0.30032166515E+04 0.  0.
        4    1    3    3  502    0 -0.48472901333E+03  0.53618900798E+03 -0.21129957586E+04  0.22332070117E+04  0.12699999809E+01 0. -1.
       -4    1    3    3    0  502  0.48472901333E+03 -0.53618900798E+03  0.77044898325E+03  0.10564346252E+04  0.12699999809E+01 0.  1.
</event>
<event>
 5   0  0.1625212E-06  0.3003231E+04  0.7818609E-02  0.8242809E-01
       -2   -1    0    0    0  501  0.00000000000E+00  0.00000000000E+00  0.11017487213E+04  0.11017487213E+04  0.25500000920E-02 0.  1.
        2   -1    0    0  501    0  0.00000000000E+00  0.00000000000E+00 -0.20466088795E+04  0.20466088795E+04  0.25500000920E-02 0. -1.
    10030    2    1    2    0    0  0.00000000000E+00  0.00000000000E+00 -0.94486015815E+03  0.31483576008E+04  0.30032307378E+04 0.  0.
        4    1    3    3  502    0  0.13202978301E+04 -0.65406788899E+03 -0.77600246877E+03  0.16652845427E+04  0.12699999809E+01 0. -1.
       -4    1    3    3    0  502 -0.13202978301E+04  0.65406788899E+03 -0.16885768937E+03  0.14830730581E+04  0.12699999809E+01 0.  1.
</event>
<event>
 5   0  0.5931588E-07  0.2992571E+04  0.7818609E-02  0.8245855E-01
       -1   -1    0    0    0  501  0.00000000000E+00  0.00000000000E+00  0.98989051209E+03  0.98989051211E+03  0.50400001928E-02 0.  1.
        1   -1    0    0  501    0  0.00000000000E+00  0.00000000000E+00 -0.22617352404E+04  0.22617352404E+04  0.50400001928E-02 0. -1.
    10030    2    1    2    0    0  0.00000000000E+00  0.00000000000E+00 -0.12718447283E+04  0.32516257525E+04  0.29925709718E+04 0.  0.
        2    1    3    3  502    0  0.67091678607E+03  0.63693451829E+03 -0.19137605868E+04  0.21256280244E+04  0.25500000920E-02 0. -1.
       -2    1    3    3    0  502 -0.67091678607E+03 -0.63693451829E+03  0.64191585848E+03  0.11259977281E+04  0.25500000920E-02 0.  1.
</event>
<event>
 5   0  0.5887179E-07  0.2999267E+04  0.7818609E-02  0.8243940E-01
       -1   -1    0    0    0  501  0.00000000000E+00  0.00000000000E+00  0.16532312801E+04  0.16532312801E+04  0.50400001928E-02 0.  1.
        1   -1    0    0  501    0  0.00000000000E+00  0.00000000000E+00 -0.13603061546E+04  0.13603061546E+04  0.50400001928E-02 0. -1.
    10030    2    1    2    0    0  0.00000000000E+00  0.00000000000E+00  0.29292512542E+03  0.30135374347E+04  0.29992670340E+04 0.  0.
        3    1    3    3  502    0  0.40606426554E+03  0.78168359760E+03 -0.10729772205E+04  0.13882354125E+04  0.10100000352E+00 0. -1.
       -3    1    3    3    0  502 -0.40606426554E+03 -0.78168359760E+03  0.13659023460E+04  0.16253020222E+04  0.10100000352E+00 0.  1.
</event>
<event>
 5   0  0.5916703E-07  0.3007257E+04  0.7818609E-02  0.8241662E-01
       -1   -1    0    0    0  501  0.00000000000E+00  0.00000000000E+00  0.12953011052E+04  0.12953011052E+04  0.50400001928E-02 0. -1.
        1   -1    0    0  501    0  0.00000000000E+00  0.00000000000E+00 -0.17454624131E+04  0.17454624131E+04  0.50400001928E-02 0.  1.
    10030    2    1    2    0    0  0.00000000000E+00  0.00000000000E+00 -0.45016130783E+03  0.30407635183E+04  0.30072574833E+04 0.  0.
        5    1    3    3  502    0  0.44370192659E+03 -0.20357748687E+03 -0.16630941612E+04  0.17332684362E+04  0.46999998093E+01 0.  1.
       -5    1    3    3    0  502 -0.44370192659E+03  0.20357748687E+03  0.12129328534E+04  0.13074950821E+04  0.46999998093E+01 0. -1.
</event>
<event>
 5   0  0.1625212E-06  0.2946318E+04  0.7818609E-02  0.8259228E-01
       -2   -1    0    0    0  501  0.00000000000E+00  0.00000000000E+00  0.15143988748E+04  0.15143988748E+04  0.25500000920E-02 0. -1.
        2   -1    0    0  501    0  0.00000000000E+00  0.00000000000E+00 -0.14330425600E+04  0.14330425600E+04  0.25500000920E-02 0.  1.
    10030    2    1    2    0    0  0.00000000000E+00  0.00000000000E+00  0.81356314883E+02  0.29474414348E+04  0.29463184080E+04 0.  0.
        4    1    3    3  502    0  0.13465727553E+04  0.24848453317E+03  0.58420254102E+03  0.14887232686E+04  0.12699999809E+01 0. -1.
       -4    1    3    3    0  502 -0.13465727553E+04 -0.24848453317E+03 -0.50284622613E+03  0.14587181662E+04  0.12699999809E+01 0.  1.
</event>
<event>
 5   0  0.1560174E-06  0.3008882E+04  0.7818609E-02  0.8241199E-01
       -2   -1    0    0    0  501  0.00000000000E+00  0.00000000000E+00  0.16674320657E+04  0.16674320657E+04  0.25500000920E-02 0. -1.
        2   -1    0    0  501    0  0.00000000000E+00  0.00000000000E+00 -0.13573825857E+04  0.13573825857E+04  0.25500000920E-02 0.  1.
    10030    2    1    2    0    0  0.00000000000E+00  0.00000000000E+00  0.31004947999E+03  0.30248146514E+04  0.30088823499E+04 0.  0.
        5    1    3    3  502    0 -0.18523995963E+03 -0.44263971645E+03 -0.12783855484E+04  0.13654799382E+04  0.46999998093E+01 0.  1.
       -5    1    3    3    0  502  0.18523995963E+03  0.44263971645E+03  0.15884350284E+04  0.16593347133E+04  0.46999998093E+01 0. -1.
</event>
<event>
 5   0  0.1723916E-06  0.3005964E+04  0.7818609E-02  0.8242030E-01
        2   -1    0    0  501    0  0.00000000000E+00  0.00000000000E+00  0.19645917770E+04  0.19645917770E+04  0.25500000920E-02 0. -1.
       -2   -1    0    0    0  501  0.00000000000E+00  0.00000000000E+00 -0.11498343696E+04  0.11498343696E+04  0.25500000920E-02 0.  1.
    10030    2    1    2    0    0  0.00000000000E+00  0.00000000000E+00  0.81475740740E+03  0.31144261466E+04  0.30059641697E+04 0.  0.
        1    1    3    3  502    0  0.10310544141E+04  0.31346640738E+03 -0.67809771276E+03  0.12732442427E+04  0.50400001928E-02 0.  1.
       -1    1    3    3    0  502 -0.10310544141E+04 -0.31346640738E+03  0.14928551202E+04  0.18411819039E+04  0.50400001928E-02 0. -1.
</event>
<event>
 5   0  0.1723916E-06  0.3013497E+04  0.7818609E-02  0.8239887E-01
       -2   -1    0    0    0  501  0.00000000000E+00  0.00000000000E+00  0.11320978831E+04  0.11320978831E+04  0.25500000920E-02 0. -1.
        2   -1    0    0  501    0  0.00000000000E+00  0.00000000000E+00 -0.20053840398E+04  0.20053840398E+04  0.25500000920E-02 0.  1.
    10030    2    1    2    0    0  0.00000000000E+00  0.00000000000E+00 -0.87328615668E+03  0.31374819229E+04  0.30134969894E+04 0.  0.
        1    1    3    3  502    0  0.99800450642E+03  0.22691840338E+03 -0.15879356739E+04  0.18891915364E+04  0.50400001928E-02 0.  1.
       -1    1    3    3    0  502 -0.99800450642E+03 -0.22691840338E+03  0.71464951722E+03  0.12482903865E+04  0.50400001928E-02 0. -1.
</event>
<event>
 5   0  0.5916703E-07  0.2992060E+04  0.7818609E-02  0.8246002E-01
        1   -1    0    0  501    0  0.00000000000E+00  0.00000000000E+00  0.16219114273E+04  0.16219114273E+04  0.50400001928E-02 0. -1.
       -1   -1    0    0    0  501  0.00000000000E+00  0.00000000000E+00 -0.13799185656E+04  0.13799185656E+04  0.50400001928E-02 0.  1.
    10030    2    1    2    0    0  0.00000000000E+00  0.00000000000E+00  0.24199286167E+03  0.30018299929E+04  0.29920599528E+04 0.  0.
        5    1    3    3  502    0 -0.67722381702E+03 -0.38275370202E+03  0.14030388404E+04  0.16042669891E+04  0.46999998093E+01 0. -1.
       -5    1    3    3    0  502  0.67722381702E+03  0.38275370202E+03 -0.11610459787E+04  0.13975630037E+04  0.46999998093E+01 0.  1.
</event>
<event>
 5   0  0.5431625E-07  0.3011962E+04  0.7818609E-02  0.8240323E-01
       -3   -1    0    0    0  501  0.00000000000E+00  0.00000000000E+00  0.22256794320E+04  0.22256794343E+04  0.10100000352E+00 0.  1.
        3   -1    0    0  501    0  0.00000000000E+00  0.00000000000E+00 -0.10190049967E+04  0.10190050017E+04  0.10100000352E+00 0. -1.
    10030    2    1    2    0    0  0.00000000000E+00  0.00000000000E+00  0.12066744352E+04  0.32446844360E+04  0.30119618020E+04 0.  0.
        2    1    3    3  502    0 -0.13778973944E+04 -0.59333803947E+03  0.74514086283E+03  0.16750779576E+04  0.25500000920E-02 0.  1.
       -2    1    3    3    0  502  0.13778973944E+04  0.59333803947E+03  0.46153357242E+03  0.15696064784E+04  0.25500000920E-02 0. -1.
</event>
<event>
 5   0  0.1625212E-06  0.2991626E+04  0.7818609E-02  0.8246126E-01
       -2   -1    0    0    0  501  0.00000000000E+00  0.00000000000E+00  0.97794246771E+03  0.97794246771E+03  0.25500000920E-02 0.  1.
        2   -1    0    0  501    0  0.00000000000E+00  0.00000000000E+00 -0.22879228996E+04  0.22879228996E+04  0.25500000920E-02 0. -1.
    10030    2    1    2    0    0  0.00000000000E+00  0.00000000000E+00 -0.13099804319E+04  0.32658653673E+04  0.29916262911E+04 0.  0.
        4    1    3    3  502    0  0.82680439401E+03 -0.81302952770E+03  0.37652588858E+03  0.12191783613E+04  0.12699999809E+01 0.  1.
       -4    1    3    3    0  502 -0.82680439401E+03  0.81302952770E+03 -0.16865063205E+04  0.20466870061E+04  0.12699999809E+01 0. -1.
</event>
<event>
 5   0  0.5874741E-07  0.3002225E+04  0.7818609E-02  0.8243096E-01
        1   -1    0    0  501    0  0.00000000000E+00  0.00000000000E+00  0.17520626668E+04  0.17520626668E+04  0.50400001928E-02 0.  1.
       -1   -1    0    0    0  501  0.00000000000E+00  0.00000000000E+00 -0.12861065067E+04  0.12861065067E+04  0.50400001928E-02 0. -1.
    10030    2    1    2    0    0  0.00000000000E+00  0.00000000000E+00  0.46595616005E+03  0.30381691735E+04  0.30022253053E+04 0.  0.
        4    1    3    3  502    0  0.82692429099E+03  0.90541700878E+03 -0.64327190007E+03  0.13846963902E+04  0.12699999809E+01 0. -1.
       -4    1    3    3    0  502 -0.82692429099E+03 -0.90541700878E+03  0.11092280601E+04  0.16534727833E+04  0.12699999809E+01 0.  1.
</event>
<event>
 5   0  0.1625212E-06  0.3001224E+04  0.7818609E-02  0.8243382E-01
        2   -1    0    0  501    0  0.00000000000E+00  0.00000000000E+00  0.14864977634E+04  0.14864977634E+04  0.25500000920E-02 0.  1.
       -2   -1    0    0    0  501  0.00000000000E+00  0.00000000000E+00 -0.15148600043E+04  0.15148600043E+04  0.25500000920E-02 0. -1.
    10030    2    1    2    0    0  0.00000000000E+00  0.00000000000E+00 -0.28362240928E+02  0.30013577677E+04  0.30012237559E+04 0.  0.
        4    1    3    3  502    0 -0.15754402769E+03 -0.13325349315E+04 -0.68604810212E+03  0.15070278948E+04  0.12699999809E+01 0. -1.
       -4    1    3    3    0  502  0.15754402769E+03  0.13325349315E+04  0.65768586119E+03  0.14943298730E+04  0.12699999809E+01 0.  1.
</event>
<event>
 5   0  0.5887179E-07  0.3013394E+04  0.7818609E-02  0.8239916E-01
       -1   -1    0    0    0  501  0.00000000000E+00  0.00000000000E+00  0.27359106912E+04  0.27359106912E+04  0.50400001928E-02 0. -1.
        1   -1    0    0  501    0  0.00000000000E+00  0.00000000000E+00 -0.82975511093E+03  0.82975511094E+03  0.50400001928E-02 0.  1.
    10030    2    1    2    0    0  0.00000000000E+00  0.00000000000E+00  0.19061555803E+04  0.35656658022E+04  0.30133940195E+04 0.  0.
        3    1    3    3  502    0  0.84935631689E+03  0.47139241723E+03 -0.40975142690E+03  0.10542832665E+04  0.10100000352E+00 0.  1.
       -3    1    3    3    0  502 -0.84935631689E+03 -0.47139241723E+03  0.23159070072E+04  0.25113825356E+04  0.10100000352E+00 0. -1.
</event>
<event>
 5   0  0.5874741E-07  0.3035533E+04  0.7818609E-02  0.8233656E-01
       -1   -1    0    0    0  501  0.00000000000E+00  0.00000000000E+00  0.13878729593E+04  0.13878729593E+04  0.50400001928E-02 0. -1.
        1   -1    0    0  501    0  0.00000000000E+00  0.00000000000E+00 -0.16598172997E+04  0.16598172997E+04  0.50400001928E-02 0.  1.
    10030    2    1    2    0    0  0.00000000000E+00  0.00000000000E+00 -0.27194434039E+03  0.30476902589E+04  0.30355332629E+04 0.  0.
        4    1    3    3  502    0  0.12536264335E+04 -0.46098979168E+03  0.58769399380E+03  0.14592726497E+04  0.12699999809E+01 0. -1.
       -4    1    3    3    0  502 -0.12536264335E+04  0.46098979168E+03 -0.85963833419E+03  0.15884176093E+04  0.12699999809E+01 0.  1.
</event>
<event>
 5   0  0.5931588E-07  0.2997834E+04  0.7818609E-02  0.8244350E-01
        1   -1    0    0  501    0  0.00000000000E+00  0.00000000000E+00  0.13549849717E+04  0.13549849717E+04  0.50400001928E-02 0.  1.
       -1   -1    0    0    0  501  0.00000000000E+00  0.00000000000E+00 -0.16581381096E+04  0.16581381096E+04  0.50400001928E-02 0. -1.
    10030    2    1    2    0    0  0.00000000000E+00  0.00000000000E+00 -0.30315313797E+03  0.30131230813E+04  0.29978340311E+04 0.  0.
        2    1    3    3  502    0 -0.12580899166E+04 -0.65484685543E+03  0.33580635196E+03  0.14575254881E+04  0.25500000920E-02 0. -1.
       -2    1    3    3    0  502  0.12580899166E+04  0.65484685543E+03 -0.63895948993E+03  0.15555975933E+04  0.25500000920E-02 0.  1.
</event>
<event>
 5   0  0.1723916E-06  0.3026704E+04  0.7818609E-02  0.8236146E-01
        2   -1    0    0  501    0  0.00000000000E+00  0.00000000000E+00  0.25339876139E+04  0.25339876139E+04  0.25500000920E-02 0.  1.
       -2   -1    0    0    0  501  0.00000000000E+00  0.00000000000E+00 -0.90380652849E+03  0.90380652849E+03  0.25500000920E-02 0. -1.
    10030    2    1    2    0    0  0.00000000000E+00  0.00000000000E+00  0.16301810854E+04  0.34377941424E+04  0.30267041802E+04 0.  0.
        1    1    3    3  502    0 -0.11807574128E+04 -0.62853885183E+03  0.11152792464E+02  0.13376746768E+04  0.50400001928E-02 0. -1.
       -1    1    3    3    0  502  0.11807574128E+04  0.62853885183E+03  0.16190282929E+04  0.21001194656E+04  0.50400001928E-02 0.  1.
</event>
<event>
 5   0  0.6291798E-07  0.3015012E+04  0.7818609E-02  0.8239457E-01
       -1   -1    0    0    0  501  0.00000000000E+00  0.00000000000E+00  0.95380696801E+03  0.95380696802E+03  0.50400001928E-02 0.  1.
        1   -1    0    0  501    0  0.00000000000E+00  0.00000000000E+00 -0.23826354608E+04  0.23826354608E+04  0.50400001928E-02 0. -1.
    10030    2    1    2    0    0  0.00000000000E+00  0.00000000000E+00 -0.14288284928E+04  0.33364424289E+04  0.30150119766E+04 0.  0.
        1    1    3    3  502    0  0.52178202739E+03  0.10643181926E+04 -0.17451337657E+04  0.21096259288E+04  0.50400001928E-02 0. -1.
       -1    1    3    3    0  502 -0.52178202739E+03 -0.10643181926E+04  0.31630527283E+03  0.12268165001E+04  0.50400001928E-02 0.  1.
</event>
<event>
 5   0  0.1723916E-06  0.3003357E+04  0.7818609E-02  0.8242773E-01
        2   -1    0    0  501    0  0.00000000000E+00  0.00000000000E+00  0.86623596478E+03  0.86623596478E+03  0.25500000920E-02 0. -1.
       -2   -1    0    0    0  501  0.00000000000E+00  0.00000000000E+00 -0.26032618808E+04  0.26032618808E+04  0.25500000920E-02 0.  1.
    10030    2    1    2    0    0  0.00000000000E+00  0.00000000000E+00 -0.17370259161E+04  0.34694978456E+04  0.30033574992E+04 0.  0.
        1    1    3    3  502    0  0.13711974118E+04 -0.52160312215E+03 -0.12388767244E+04  0.19201738717E+04  0.50400001928E-02 0.  1.
       -1    1    3    3    0  502 -0.13711974118E+04  0.52160312215E+03 -0.49814919166E+03  0.15493239740E+04  0.50400001928E-02 0. -1.
</event>
<event>
 5   0  0.1674806E-06  0.3013405E+04  0.7818609E-02  0.8239913E-01
        2   -1    0    0  501    0  0.00000000000E+00  0.00000000000E+00  0.18187661778E+04  0.18187661778E+04  0.25500000920E-02 0. -1.
       -2   -1    0    0    0  501  0.00000000000E+00  0.00000000000E+00 -0.12481823697E+04  0.12481823697E+04  0.25500000920E-02 0.  1.
    10030    2    1    2    0    0  0.00000000000E+00  0.00000000000E+00  0.57058380806E+03  0.30669485475E+04  0.30134046378E+04 0.  0.
        2    1    3    3  502    0 -0.33572619602E+01 -0.61530079703E+03 -0.11144805348E+04  0.12730566384E+04  0.25500000920E-02 0.  1.
       -2    1    3    3    0  502  0.33572619602E+01  0.61530079703E+03  0.16850643429E+04  0.17938919092E+04  0.25500000920E-02 0. -1.
</event>
<event>
 5   0  0.1625212E-06  0.3008266E+04  0.7818609E-02  0.8241375E-01
       -2   -1    0    0    0  501  0.00000000000E+00  0.00000000000E+00  0.76917384958E+03  0.76917384958E+03  0.25500000920E-02 0. -1.
        2   -1    0    0  501    0  0.00000000000E+00  0.00000000000E+00 -0.29413579658E+04  0.29413579658E+04  0.25500000920E-02 0.  1.
    10030    2    1    2    0    0  0.00000000000E+00  0.00000000000E+00 -0.21721841163E+04  0.37105318154E+04  0.30082656994E+04 0.  0.
        4    1    3    3  502    0 -0.27577009414E+03  0.64671424454E+03  0.55403131902E+03  0.89512053617E+03  0.12699999809E+01 0. -1.
       -4    1    3    3    0  502  0.27577009414E+03 -0.64671424454E+03 -0.27262154353E+04  0.28154112793E+04  0.12699999809E+01 0.  1.
</event>
<event>
 5   0  0.5874741E-07  0.3028155E+04  0.7818609E-02  0.8235736E-01
       -1   -1    0    0    0  501  0.00000000000E+00  0.00000000000E+00  0.20222968990E+04  0.20222968990E+04  0.50400001928E-02 0. -1.
        1   -1    0    0  501    0  0.00000000000E+00  0.00000000000E+00 -0.11335780322E+04  0.11335780322E+04  0.50400001928E-02 0.  1.
    10030    2    1    2    0    0  0.00000000000E+00  0.00000000000E+00  0.88871886684E+03  0.31558749312E+04  0.30281554381E+04 0.  0.
        4    1    3    3  502    0  0.20866229806E+03  0.14528633477E+04  0.83162033357E+03  0.16869931398E+04  0.12699999809E+01 0. -1.
       -4    1    3    3    0  502 -0.20866229806E+03 -0.14528633477E+04  0.57098533271E+02  0.14688817914E+04  0.12699999809E+01 0.  1.
</event>
<event>
 5   0  0.6291798E-07  0.2992873E+04  0.7818609E-02  0.8245769E-01
       -1   -1    0    0    0  501  0.00000000000E+00  0.00000000000E+00  0.11229990691E+04  0.11229990691E+04  0.50400001928E-02 0.  1.
        1   -1    0    0  501    0  0.00000000000E+00  0.00000000000E+00 -0.19940558946E+04  0.19940558946E+04  0.50400001928E-02 0. -1.
    10030    2    1    2    0    0  0.00000000000E+00  0.00000000000E+00 -0.87105682548E+03  0.31170549637E+04  0.29928734777E+04 0.  0.
        1    1    3    3  502    0  0.28622563710E+03  0.39127757459E+03  0.10389466398E+04  0.11464874077E+04  0.50400001928E-02 0.  1.
       -1    1    3    3    0  502 -0.28622563710E+03 -0.39127757459E+03 -0.19100034652E+04  0.19705675560E+04  0.50400001928E-02 0. -1.
</event>
<event>
 5   0  0.1625212E-06  0.3003054E+04  0.7818609E-02  0.8242859E-01
       -2   -1    0    0    0  501  0.00000000000E+00  0.00000000000E+00  0.85875983766E+03  0.85875983767E+03  0.25500000920E-02 0. -1.
        2   -1    0    0  501    0  0.00000000000E+00  0.00000000000E+00 -0.26253944620E+04  0.26253944620E+04  0.25500000920E-02 0.  1.
    10030    2    1    2    0    0  0.00000000000E+00  0.00000000000E+00 -0.17666346243E+04  0.34841542997E+04  0.30030539935E+04 0.  0.
        4    1    3    3  502    0 -0.54981011729E+03  0.98036075703E+03 -0.20383951041E+04  0.23277574170E+04  0.12699999809E+01 0.  1.
       -4    1    3    3    0  502  0.54981011729E+03 -0.98036075703E+03  0.27176047977E+03  0.11563968827E+04  0.12699999809E+01 0. -1.
</event>
<event>
 5   0  0.1560174E-06  0.3006534E+04  0.7818609E-02  0.8241867E-01
        2   -1    0    0  501    0  0.00000000000E+00  0.00000000000E+00  0.88993820783E+03  0.88993820783E+03  0.25500000920E-02 0.  1.
       -2   -1    0    0    0  501  0.00000000000E+00  0.00000000000E+00 -0.25392912135E+04  0.25392912135E+04  0.25500000920E-02 0. -1.
    10030    2    1    2    0    0  0.00000000000E+00  0.00000000000E+00 -0.16493530057E+04  0.34292294214E+04  0.30065343981E+04 0.  0.
        5    1    3    3  502    0  0.96927195483E+03  0.10827217069E+04 -0.12634944190E+04  0.19256725199E+04  0.46999998093E+01 0. -1.
       -5    1    3    3    0  502 -0.96927195483E+03 -0.10827217069E+04 -0.38585858673E+03  0.15035569015E+04  0.46999998093E+01 0.  1.
</event>
<event>
 5   0  0.5931588E-07  0.3002451E+04  0.7818609E-02  0.8243031E-01
        1   -1    0    0  501    0  0.00000000000E+00  0.00000000000E+00  0.24483926911E+04  0.24483926911E+04  0.50400001928E-02 0. -1.
       -1   -1    0    0    0  501  0.00000000000E+00  0.00000000000E+00 -0.92047256088E+03  0.92047256089E+03  0.50400001928E-02 0.  1.
    10030    2    1    2    0    0  0.00000000000E+00  0.00000000000E+00  0.15279201302E+04  0.33688652520E+04  0.30024511922E+04 0.  0.
        2    1    3    3  502    0  0.27196468428E+03  0.45525493556E+03 -0.81187730434E+03  0.96972501420E+03  0.25500000920E-02 0.  1.
       -2    1    3    3    0  502 -0.27196468428E+03 -0.45525493556E+03  0.23397974346E+04  0.23991402378E+04  0.25500000920E-02 0. -1.
</event>
<event>
 5   0  0.5887179E-07  0.3005356E+04  0.7818609E-02  0.8242203E-01
        1   -1    0    0  501    0  0.00000000000E+00  0.00000000000E+00  0.94638295808E+03  0.94638295809E+03  0.50400001928E-02 0. -1.
       -1   -1    0    0    0  501  0.00000000000E+00  0.00000000000E+00 -0.23859701750E+04  0.23859701750E+04  0.50400001928E-02 0.  1.
    10030    2    1    2    0    0  0.00000000000E+00  0.00000000000E+00 -0.14395872169E+04  0.33323531331E+04  0.30053562266E+04 0.  0.
        3    1    3    3  502    0  0.79674504506E+03  0.58679473697E+03 -0.19737290684E+04  0.22078806978E+04  0.10100000352E+00 0.  1.
       -3    1    3    3    0  502 -0.79674504506E+03 -0.58679473697E+03  0.53414185142E+03  0.11244724353E+04  0.10100000352E+00 0. -1.
</event>
<event>
 5   0  0.1674806E-06  0.2999881E+04  0.7818609E-02  0.8243765E-01
       -2   -1    0    0    0  501  0.00000000000E+00  0.00000000000E+00  0.13017332324E+04  0.13017332324E+04  0.25500000920E-02 0. -1.
        2   -1    0    0  501    0  0.00000000000E+00  0.00000000000E+00 -0.17283279888E+04  0.17283279888E+04  0.25500000920E-02 0.  1.
    10030    2    1    2    0    0  0.00000000000E+00  0.00000000000E+00 -0.42659475642E+03  0.30300612212E+04  0.29998813173E+04 0.  0.
        2    1    3    3  502    0  0.36392471036E+02  0.32607538532E+03  0.12650433466E+04  0.13068987098E+04  0.25500000920E-02 0. -1.
       -2    1    3    3    0  502 -0.36392471036E+02 -0.32607538532E+03 -0.16916381030E+04  0.17231625114E+04  0.25500000920E-02 0.  1.
</event>
<event>
 5   0  0.1625212E-06  0.2990477E+04  0.7818609E-02  0.8246455E-01
        2   -1    0    0  501    0  0.00000000000E+00  0.00000000000E+00  0.25380763797E+04  0.25380763797E+04  0.25500000920E-02 0.  1.
       -2   -1    0    0    0  501  0.00000000000E+00  0.00000000000E+00 -0.88087914696E+03  0.88087914697E+03  0.25500000920E-02 0. -1.
    10030    2    1    2    0    0  0.00000000000E+00  0.00000000000E+00  0.16571972327E+04  0.34189555266E+04  0.29904772571E+04 0.  0.
        4    1    3    3  502    0  0.12628096398E+04 -0.28874698575E+02  0.17433769573E+04  0.21528787153E+04  0.12699999809E+01 0.  1.
       -4    1    3    3    0  502 -0.12628096398E+04  0.28874698575E+02 -0.86179724589E+02  0.12660768114E+04  0.12699999809E+01 0. -1.
</event>
<event>
 5   0  0.6291798E-07  0.2982344E+04  0.7818609E-02  0.8248791E-01
       -1   -1    0    0    0  501  0.00000000000E+00  0.00000000000E+00  0.18398651751E+04  0.18398651751E+04  0.50400001928E-02 0. -1.
        1   -1    0    0  501    0  0.00000000000E+00  0.00000000000E+00 -0.12085636626E+04  0.12085636626E+04  0.50400001928E-02 0.  1.
    10030    2    1    2    0    0  0.00000000000E+00  0.00000000000E+00  0.63130151253E+03  0.30484288377E+04  0.29823441751E+04 0.  0.
        1    1    3    3  502    0  0.38414340492E+03 -0.74117213964E+03  0.15786235648E+04  0.17857644457E+04  0.50400001928E-02 0. -1.
       -1    1    3    3    0  502 -0.38414340492E+03  0.74117213964E+03 -0.94732205227E+03  0.12626643920E+04  0.50400001928E-02 0.  1.
</event>
<event>
 5   0  0.6291798E-07  0.2996570E+04  0.7818609E-02  0.8244711E-01
        1   -1    0    0  501    0  0.00000000000E+00  0.00000000000E+00  0.13950190201E+04  0.13950190201E+04  0.50400001928E-02 0.  1.
       -1   -1    0    0    0  501  0.00000000000E+00  0.00000000000E+00 -0.16091947618E+04  0.16091947618E+04  0.50400001928E-02 0. -1.
    10030    2    1    2    0    0  0.00000000000E+00  0.00000000000E+00 -0.21417574171E+03  0.30042137819E+04  0.29965695719E+04 0.  0.
        1    1    3    3  502    0 -0.11454069855E+04 -0.26473686021E+03 -0.10383355309E+04  0.15684971923E+04  0.50400001928E-02 0.  1.
       -1    1    3    3    0  502  0.11454069855E+04  0.26473686021E+03  0.82415978917E+03  0.14357165896E+04  0.50400001928E-02 0. -1.
</event>
<event>
 5   0  0.1635086E-06  0.2994295E+04  0.7818609E-02  0.8245362E-01
       -2   -1    0    0    0  501  0.00000000000E+00  0.00000000000E+00  0.14042100073E+04  0.14042100073E+04  0.25500000920E-02 0. -1.
        2   -1    0    0  501    0  0.00000000000E+00  0.00000000000E+00 -0.15962357224E+04  0.15962357224E+04  0.25500000920E-02 0.  1.
    10030    2    1    2    0    0  0.00000000000E+00  0.00000000000E+00 -0.19202571518E+03  0.30004457297E+04  0.29942946918E+04 0.  0.
        3    1    3    3  502    0 -0.10733851301E+04 -0.38027464195E+03  0.87793321754E+03  0.14378912287E+04  0.10100000352E+00 0. -1.
       -3    1    3    3    0  502  0.10733851301E+04  0.38027464195E+03 -0.10699589327E+04  0.15625545010E+04  0.10100000352E+00 0.  1.
</event>
<event>
 5   0  0.5874741E-07  0.2997286E+04  0.7818609E-02  0.8244506E-01
        1   -1    0    0  501    0  0.00000000000E+00  0.00000000000E+00  0.12562755608E+04  0.12562755608E+04  0.50400001928E-02 0.  1.
       -1   -1    0    0    0  501  0.00000000000E+00  0.00000000000E+00 -0.17877691087E+04  0.17877691087E+04  0.50400001928E-02 0. -1.
    10030    2    1    2    0    0  0.00000000000E+00  0.00000000000E+00 -0.53149354790E+03  0.30440446694E+04  0.29972858652E+04 0.  0.
        4    1    3    3  502    0  0.75712804780E+03 -0.41735469884E+03 -0.15089765501E+04  0.17390916213E+04  0.12699999809E+01 0. -1.
       -4    1    3    3    0  502 -0.75712804780E+03  0.41735469884E+03  0.97748300222E+03  0.13049530482E+04  0.12699999809E+01 0.  1.
</event>
<event>
 5   0  0.6291798E-07  0.2995472E+04  0.7818609E-02  0.8245025E-01
        1   -1    0    0  501    0  0.00000000000E+00  0.00000000000E+00  0.19674033170E+04  0.19674033170E+04  0.50400001928E-02 0.  1.
       -1   -1    0    0    0  501  0.00000000000E+00  0.00000000000E+00 -0.11401900575E+04  0.11401900575E+04  0.50400001928E-02 0. -1.
    10030    2    1    2    0    0  0.00000000000E+00  0.00000000000E+00  0.82721325949E+03  0.31075933746E+04  0.29954723843E+04 0.  0.
        1    1    3    3  502    0 -0.18786777077E+03  0.13979445840E+04 -0.10890229637E+03  0.14147095353E+04  0.50400001928E-02 0.  1.
       -1    1    3    3    0  502  0.18786777077E+03 -0.13979445840E+04  0.93611555586E+03  0.16928838392E+04  0.50400001928E-02 0. -1.
</event>
<event>
 5   0  0.6291798E-07  0.3005696E+04  0.7818609E-02  0.8242106E-01
        1   -1    0    0  501    0  0.00000000000E+00  0.00000000000E+00  0.17745096249E+04  0.17745096249E+04  0.50400001928E-02 0. -1.
       -1   -1    0    0    0  501  0.00000000000E+00  0.00000000000E+00 -0.12727752331E+04  0.12727752331E+04  0.50400001928E-02 0.  1.
    10030    2    1    2    0    0  0.00000000000E+00  0.00000000000E+00  0.50173439183E+03  0.30472848580E+04  0.30056958605E+04 0.  0.
        1    1    3    3  502    0  0.12116593112E+04  0.51388466340E+02  0.11507253062E+04  0.16718037538E+04  0.50400001928E-02 0. -1.
       -1    1    3    3    0  502 -0.12116593112E+04 -0.51388466340E+02 -0.64899091437E+03  0.13754811042E+04  0.50400001928E-02 0.  1.
</event>
<event>
 5   0  0.5887179E-07  0.3005645E+04  0.7818609E-02  0.8242121E-01
       -1   -1    0    0    0  501  0.00000000000E+00  0.00000000000E+00  0.10068678188E+04  0.10068678188E+04  0.50400001928E-02 0. -1.
        1   -1    0    0  501    0  0.00000000000E+00  0.00000000000E+00 -0.22430705637E+04  0.22430705637E+04  0.50400001928E-02 0.  1.
    10030    2    1    2    0    0  0.00000000000E+00  0.00000000000E+00 -0.12362027449E+04  0.32499383826E+04  0.30056450662E+04 0.  0.
        3    1    3    3  502    0 -0.12439770051E+04  0.66581931052E+03 -0.11775323882E+04  0.18377640433E+04  0.10100000352E+00 0.  1.
       -3    1    3    3    0  502  0.12439770051E+04 -0.66581931052E+03 -0.58670356741E+02  0.14121743393E+04  0.10100000352E+00 0. -1.
</event>
<event>
 5   0  0.1560174E-06  0.2980462E+04  0.7818609E-02  0.8249332E-01
       -2   -1    0    0    0  501  0.00000000000E+00  0.00000000000E+00  0.17838098560E+04  0.17838098561E+04  0.25500000920E-02 0.  1.
        2   -1    0    0  501    0  0.00000000000E+00  0.00000000000E+00 -0.12449692903E+04  0.12449692903E+04  0.25500000920E-02 0. -1.
    10030    2    1    2    0    0  0.00000000000E+00  0.00000000000E+00  0.53884056580E+03  0.30287791463E+04  0.29804620383E+04 0.  0.
        5    1    3    3  502    0  0.12618778684E+04  0.73032312069E+03  0.58273452819E+03  0.15701303245E+04  0.46999998093E+01 0.  1.
       -5    1    3    3    0  502 -0.12618778684E+04 -0.73032312069E+03 -0.43893962394E+02  0.14586488218E+04  0.46999998093E+01 0. -1.
</event>
<event>
 5   0  0.5874741E-07  0.2996399E+04  0.7818609E-02  0.8244760E-01
        1   -1    0    0  501    0  0.00000000000E+00  0.00000000000E+00  0.19505699421E+04  0.19505699421E+04  0.50400001928E-02 0. -1.
       -1   -1    0    0    0  501  0.00000000000E+00  0.00000000000E+00 -0.11507415991E+04  0.11507415991E+04  0.50400001928E-02 0.  1.
    10030    2    1    2    0    0  0.00000000000E+00  0.00000000000E+00  0.79982834303E+03  0.31013115413E+04  0.29963991553E+04 0.  0.
        4    1    3    3  502    0  0.12682802251E+04  0.79450604469E+03  0.47181424910E+03  0.15691988029E+04  0.12699999809E+01 0.  1.
       -4    1    3    3    0  502 -0.12682802251E+04 -0.79450604469E+03  0.32801409393E+03  0.15321127384E+04  0.12699999809E+01 0. -1.
</event>
<event>
 5   0  0.6291798E-07  0.2999082E+04  0.7818609E-02  0.8243993E-01
        1   -1    0    0  501    0  0.00000000000E+00  0.00000000000E+00  0.14022393447E+04  0.14022393447E+04  0.50400001928E-02 0. -1.
       -1   -1    0    0    0  501  0.00000000000E+00  0.00000000000E+00 -0.16035944998E+04  0.16035944998E+04  0.50400001928E-02 0.  1.
    10030    2    1    2    0    0  0.00000000000E+00  0.00000000000E+00 -0.20135515509E+03  0.30058338445E+04  0.29990820599E+04 0.  0.
        1    1    3    3  502    0  0.77573056684E+02 -0.63609885273E+03 -0.14594523687E+04  0.15939386896E+04  0.50400001928E-02 0.  1.
       -1    1    3    3    0  502 -0.77573056684E+02  0.63609885273E+03  0.12580972136E+04  0.14118951549E+04  0.50400001928E-02 0. -1.
</event>
<event>
 5   0  0.6291798E-07  0.3003219E+04  0.7818609E-02  0.8242812E-01
       -1   -1    0    0    0  501  0.00000000000E+00  0.00000000000E+00  0.14385966549E+04  0.14385966549E+04  0.50400001928E-02 0.  1.
        1   -1    0    0  501    0  0.00000000000E+00  0.00000000000E+00 -0.15673819732E+04  0.15673819732E+04  0.50400001928E-02 0. -1.
    10030    2    1    2    0    0  0.00000000000E+00  0.00000000000E+00 -0.12878531829E+03  0.30059786282E+04  0.30032185826E+04 0.  0.
        1    1    3    3  502    0  0.54158704990E+03  0.22323878908E+03 -0.14482979179E+04  0.15622800481E+04  0.50400001928E-02 0. -1.
       -1    1    3    3    0  502 -0.54158704990E+03 -0.22323878908E+03  0.13195125996E+04  0.14436985801E+04  0.50400001928E-02 0.  1.
</event>
<event>
 5   0  0.1560174E-06  0.2999656E+04  0.7818609E-02  0.8243829E-01
       -2   -1    0    0    0  501  0.00000000000E+00  0.00000000000E+00  0.17592313647E+04  0.17592313647E+04  0.25500000920E-02 0. -1.
        2   -1    0    0  501    0  0.00000000000E+00  0.00000000000E+00 -0.12786747225E+04  0.12786747225E+04  0.25500000920E-02 0.  1.
    10030    2    1    2    0    0  0.00000000000E+00  0.00000000000E+00  0.48055664221E+03  0.30379060871E+04  0.29996564316E+04 0.  0.
        5    1    3    3  502    0 -0.99259304028E+03  0.34476807509E+03  0.13241383328E+04  0.16904053903E+04  0.46999998093E+01 0. -1.
       -5    1    3    3    0  502  0.99259304028E+03 -0.34476807509E+03 -0.84358169059E+03  0.13475006968E+04  0.46999998093E+01 0.  1.
</event>
<event>
 5   0  0.1625212E-06  0.2994993E+04  0.7818609E-02  0.8245162E-01
       -2   -1    0    0    0  501  0.00000000000E+00  0.00000000000E+00  0.10111717837E+04  0.10111717837E+04  0.25500000920E-02 0.  1.
        2   -1    0    0  501    0  0.00000000000E+00  0.00000000000E+00 -0.22177204399E+04  0.22177204399E+04  0.25500000920E-02 0. -1.
    10030    2    1    2    0    0  0.00000000000E+00  0.00000000000E+00 -0.12065486562E+04  0.32288922236E+04  0.29949933776E+04 0.  0.
        4    1    3    3  502    0  0.10534640936E+03  0.19968686571E+03 -0.21992659271E+04  0.22108244935E+04  0.12699999809E+01 0. -1.
       -4    1    3    3    0  502 -0.10534640936E+03 -0.19968686571E+03  0.99271727085E+03  0.10180677301E+04  0.12699999809E+01 0.  1.
</event>
<event>
 5   0  0.5916703E-07  0.3017187E+04  0.7818609E-02  0.8238840E-01
       -1   -1    0    0    0  501  0.00000000000E+00  0.00000000000E+00  0.21097845099E+04  0.21097845099E+04  0.50400001928E-02 0.  1.
        1   -1    0    0  501    0  0.00000000000E+00  0.00000000000E+00 -0.10787143495E+04  0.10787143495E+04  0.50400001928E-02 0. -1.
    10030    2    1    2    0    0  0.00000000000E+00  0.00000000000E+00  0.10310701603E+04  0.31884988594E+04  0.30171873162E+04 0.  0.
        5    1    3    3  502    0 -0.78413118920E+03  0.18874971164E+03  0.18628115149E+04  0.20299204432E+04  0.46999998093E+01 0.  1.
       -5    1    3    3    0  502  0.78413118920E+03 -0.18874971164E+03 -0.83174135462E+03  0.11585784162E+04  0.46999998093E+01 0. -1.
</event>
<event>
 5   0  0.1625212E-06  0.3090937E+04  0.7818609E-02  0.8218230E-01
       -2   -1    0    0    0  501  0.00000000000E+00  0.00000000000E+00  0.13275253144E+04  0.13275253144E+04  0.25500000920E-02 0.  1.
        2   -1    0    0  501    0  0.00000000000E+00  0.00000000000E+00 -0.17991916798E+04  0.17991916798E+04  0.25500000920E-02 0. -1.
    10030    2    1    2    0    0  0.00000000000E+00  0.00000000000E+00 -0.47166636541E+03  0.31267169943E+04  0.30909367515E+04 0.  0.
        4    1    3    3  502    0 -0.29000100923E+03 -0.30534663959E+03 -0.17400344864E+04  0.17902677963E+04  0.12699999809E+01 0. -1.
       -4    1    3    3    0  502  0.29000100923E+03  0.30534663959E+03  0.12683681210E+04  0.13364491980E+04  0.12699999809E+01 0.  1.
</event>
<event>
 5   0  0.5887179E-07  0.2997922E+04  0.7818609E-02  0.8244325E-01
       -1   -1    0    0    0  501  0.00000000000E+00  0.00000000000E+00  0.18402485637E+04  0.18402485637E+04  0.50400001928E-02 0.  1.
        1   -1    0    0  501    0  0.00000000000E+00  0.00000000000E+00 -0.12209675762E+04  0.12209675762E+04  0.50400001928E-02 0. -1.
    10030    2    1    2    0    0  0.00000000000E+00  0.00000000000E+00  0.61928098746E+03  0.30612161399E+04  0.29979218325E+04 0.  0.
        3    1    3    3  502    0 -0.43427043604E+03 -0.14305498478E+04  0.19862464365E+03  0.15081496736E+04  0.10100000352E+00 0.  1.
       -3    1    3    3    0  502  0.43427043604E+03  0.14305498478E+04  0.42065634381E+03  0.15530664662E+04  0.10100000352E+00 0. -1.
</event>
<event>
 5   0  0.1674806E-06  0.3003004E+04  0.7818609E-02  0.8242874E-01
        2   -1    0    0  501    0  0.00000000000E+00  0.00000000000E+00  0.17317234109E+04  0.17317234109E+04  0.25500000920E-02 0.  1.
       -2   -1    0    0    0  501  0.00000000000E+00  0.00000000000E+00 -0.13018868658E+04  0.13018868658E+04  0.25500000920E-02 0. -1.
    10030    2    1    2    0    0  0.00000000000E+00  0.00000000000E+00  0.42983654510E+03  0.30336102767E+04  0.30030038055E+04 0.  0.
        2    1    3    3  502    0 -0.88693291593E+03  0.11611849093E+04  0.56414029064E+03  0.15662869017E+04  0.25500000920E-02 0.  1.
       -2    1    3    3    0  502  0.88693291593E+03 -0.11611849093E+04 -0.13430374555E+03  0.14673233750E+04  0.25500000920E-02 0. -1.
</event>
<event>
 5   0  0.1723916E-06  0.2994412E+04  0.7818609E-02  0.8245328E-01
       -2   -1    0    0    0  501  0.00000000000E+00  0.00000000000E+00  0.11168805782E+04  0.11168805782E+04  0.25500000920E-02 0.  1.
        2   -1    0    0  501    0  0.00000000000E+00  0.00000000000E+00 -0.20070420540E+04  0.20070420540E+04  0.25500000920E-02 0. -1.
    10030    2    1    2    0    0  0.00000000000E+00  0.00000000000E+00 -0.89016147583E+03  0.31239226323E+04  0.29944123229E+04 0.  0.
        1    1    3    3  502    0 -0.12937607323E+04  0.66559483329E+03 -0.81361997940E+03  0.16669765402E+04  0.50400001928E-02 0. -1.
       -1    1    3    3    0  502  0.12937607323E+04 -0.66559483329E+03 -0.76541496430E+02  0.14569460921E+04  0.50400001928E-02 0.  1.
</event>
<event>
 5   0  0.5874741E-07  0.2998463E+04  0.7818609E-02  0.8244170E-01
        1   -1    0    0  501    0  0.00000000000E+00  0.00000000000E+00  0.29158137372E+04  0.29158137372E+04  0.50400001928E-02 0.  1.
       -1   -1    0    0    0  501  0.00000000000E+00  0.00000000000E+00 -0.77086356499E+03  0.77086356501E+03  0.50400001928E-02 0. -1.
    10030    2    1    2    0    0  0.00000000000E+00  0.00000000000E+00  0.21449501722E+04  0.36866773022E+04  0.29984626543E+04 0.  0.
        4    1    3    3  502    0 -0.11252036383E+04 -0.70496577584E+03  0.19284143850E+04  0.23413337280E+04  0.12699999809E+01 0.  1.
       -4    1    3    3    0  502  0.11252036383E+04  0.70496577584E+03  0.21653578728E+03  0.13453435743E+04  0.12699999809E+01 0. -1.
</event>
<event>
 5   0  0.1723916E-06  0.2996106E+04  0.7818609E-02  0.8244844E-01
       -2   -1    0    0    0  501  0.00000000000E+00  0.00000000000E+00  0.10919149861E+04  0.10919149861E+04  0.25500000920E-02 0.  1.
        2   -1    0    0  501    0  0.00000000000E+00  0.00000000000E+00 -0.20552547971E+04  0.20552547971E+04  0.25500000920E-02 0. -1.
    10030    2    1    2    0    0  0.00000000000E+00  0.00000000000E+00 -0.96333981100E+03  0.31471697832E+04  0.29961064822E+04 0.  0.
        1    1    3    3  502    0  0.42600638480E+03  0.70074724042E+03  0.83518773176E+03  0.11704984759E+04  0.50400001928E-02 0.  1.
       -1    1    3    3    0  502 -0.42600638480E+03 -0.70074724042E+03 -0.17985275428E+04  0.19766713073E+04  0.50400001928E-02 0. -1.
</event>
<event>
 5   0  0.5931588E-07  0.3014300E+04  0.7818609E-02  0.8239659E-01
        1   -1    0    0  501    0  0.00000000000E+00  0.00000000000E+00  0.18319404554E+04  0.18319404554E+04  0.50400001928E-02 0.  1.
       -1   -1    0    0    0  501  0.00000000000E+00  0.00000000000E+00 -0.12399427192E+04  0.12399427192E+04  0.50400001928E-02 0. -1.
    10030    2    1    2    0    0  0.00000000000E+00  0.00000000000E+00  0.59199773621E+03  0.30718831746E+04  0.30143000711E+04 0.  0.
        2    1    3    3  502    0  0.11595140841E+04 -0.75380914327E+03 -0.31444324281E+03  0.14183002815E+04  0.25500000920E-02 0. -1.
       -2    1    3    3    0  502 -0.11595140841E+04  0.75380914327E+03  0.90644097902E+03  0.16535828930E+04  0.25500000920E-02 0.  1.
</event>
<event>
 5   0  0.1625212E-06  0.3013584E+04  0.7818609E-02  0.8239862E-01
       -2   -1    0    0    0  501  0.00000000000E+00  0.00000000000E+00  0.10198124497E+04  0.10198124497E+04  0.25500000920E-02 0. -1.
        2   -1    0    0  501    0  0.00000000000E+00  0.00000000000E+00 -0.22263140986E+04  0.22263140986E+04  0.25500000920E-02 0.  1.
    10030    2    1    2    0    0  0.00000000000E+00  0.00000000000E+00 -0.12065016489E+04  0.32461265482E+04  0.30135844668E+04 0.  0.
        4    1    3    3  502    0  0.75441826358E+02  0.14292423889E+04 -0.95729143245E+02  0.14344305341E+04  0.12699999809E+01 0. -1.
       -4    1    3    3    0  502 -0.75441826358E+02 -0.14292423889E+04 -0.11107725057E+04  0.18116960141E+04  0.12699999809E+01 0.  1.
</event>
<event>
 5   0  0.1635086E-06  0.2982484E+04  0.7818609E-02  0.8248751E-01
       -2   -1    0    0    0  501  0.00000000000E+00  0.00000000000E+00  0.10366493060E+04  0.10366493060E+04  0.25500000920E-02 0.  1.
        2   -1    0    0  501    0  0.00000000000E+00  0.00000000000E+00 -0.21451826453E+04  0.21451826453E+04  0.25500000920E-02 0. -1.
    10030    2    1    2    0    0  0.00000000000E+00  0.00000000000E+00 -0.11085333393E+04  0.31818319512E+04  0.29824835962E+04 0.  0.
        3    1    3    3  502    0 -0.72059745709E+03  0.46537273251E+03  0.74708959262E+03  0.11375303710E+04  0.10100000352E+00 0.  1.
       -3    1    3    3    0  502  0.72059745709E+03 -0.46537273251E+03 -0.18556229319E+04  0.20443015802E+04  0.10100000352E+00 0. -1.
</event>
<event>
 5   0  0.5931588E-07  0.3000646E+04  0.7818609E-02  0.8243546E-01
       -1   -1    0    0    0  501  0.00000000000E+00  0.00000000000E+00  0.92716617803E+03  0.92716617805E+03  0.50400001928E-02 0.  1.
        1   -1    0    0  501    0  0.00000000000E+00  0.00000000000E+00 -0.24277954271E+04  0.24277954271E+04  0.50400001928E-02 0. -1.
    10030    2    1    2    0    0  0.00000000000E+00  0.00000000000E+00 -0.15006292491E+04  0.33549616051E+04  0.30006464685E+04 0.  0.
        2    1    3    3  502    0  0.72921321964E+03  0.11256964869E+04  0.14019025289E+01  0.13412481000E+04  0.25500000920E-02 0.  1.
       -2    1    3    3    0  502 -0.72921321964E+03 -0.11256964869E+04 -0.15020311516E+04  0.20137135051E+04  0.25500000920E-02 0. -1.
</event>
<event>
 5   0  0.5874741E-07  0.3000535E+04  0.7818609E-02  0.8243578E-01
        1   -1    0    0  501    0  0.00000000000E+00  0.00000000000E+00  0.18455022119E+04  0.18455022119E+04  0.50400001928E-02 0.  1.
       -1   -1    0    0    0  501  0.00000000000E+00  0.00000000000E+00 -0.12196152404E+04  0.12196152405E+04  0.50400001928E-02 0. -1.
    10030    2    1    2    0    0  0.00000000000E+00  0.00000000000E+00  0.62588697141E+03  0.30651174523E+04  0.30005350349E+04 0.  0.
        4    1    3    3  502    0  0.93993825807E+01  0.23090961857E+03 -0.12013230603E+04  0.12233504439E+04  0.12699999809E+01 0. -1.
       -4    1    3    3    0  502 -0.93993825807E+01 -0.23090961857E+03  0.18272100317E+04  0.18417670084E+04  0.12699999809E+01 0.  1.
</event>
<event>
 5   0  0.5887179E-07  0.3003927E+04  0.7818609E-02  0.8242610E-01
        1   -1    0    0  501    0  0.00000000000E+00  0.00000000000E+00  0.19113774890E+04  0.19113774890E+04  0.50400001928E-02 0.  1.
       -1   -1    0    0    0  501  0.00000000000E+00  0.00000000000E+00 -0.11802452357E+04  0.11802452357E+04  0.50400001928E-02 0. -1.
    10030    2    1    2    0    0  0.00000000000E+00  0.00000000000E+00  0.73113225333E+03  0.30916227247E+04  0.30039268800E+04 0.  0.
        3    1    3    3  502    0  0.12628268504E+04 -0.20509081409E+03 -0.44423360795E+03  0.13543032912E+04  0.10100000352E+00 0. -1.
       -3    1    3    3    0  502 -0.12628268504E+04  0.20509081409E+03  0.11753658613E+04  0.17373194335E+04  0.10100000352E+00 0.  1.
</event>
<event>
 5   0  0.5887179E-07  0.3024752E+04  0.7818609E-02  0.8236698E-01
        1   -1    0    0  501    0  0.00000000000E+00  0.00000000000E+00  0.12451981243E+04  0.12451981243E+04  0.50400001928E-02 0.  1.
       -1   -1    0    0    0  501  0.00000000000E+00  0.00000000000E+00 -0.18368812089E+04  0.18368812089E+04  0.50400001928E-02 0. -1.
    10030    2    1    2    0    0  0.00000000000E+00  0.00000000000E+00 -0.59168308455E+03  0.30820793332E+04  0.30247519144E+04 0.  0.
        3    1    3    3  502    0  0.30360675647E+03 -0.52840264708E+02  0.12128665531E+04  0.12514049872E+04  0.10100000352E+00 0.  1.
       -3    1    3    3    0  502 -0.30360675647E+03  0.52840264708E+02 -0.18045496377E+04  0.18306743460E+04  0.10100000352E+00 0. -1.
</event>
<event>
 5   0  0.1635086E-06  0.2988812E+04  0.7818609E-02  0.8246933E-01
        2   -1    0    0  501    0  0.00000000000E+00  0.00000000000E+00  0.12980902796E+04  0.12980902796E+04  0.25500000920E-02 0. -1.
       -2   -1    0    0    0  501  0.00000000000E+00  0.00000000000E+00 -0.17204112345E+04  0.17204112345E+04  0.25500000920E-02 0.  1.
    10030    2    1    2    0    0  0.00000000000E+00  0.00000000000E+00 -0.42232095492E+03  0.30185015140E+04  0.29888118712E+04 0.  0.
        3    1    3    3  502    0 -0.97620006101E+02  0.13476119413E+04 -0.85598665077E+03  0.15994689014E+04  0.10100000352E+00 0.  1.
       -3    1    3    3    0  502  0.97620006101E+02 -0.13476119413E+04  0.43366569585E+03  0.14190326127E+04  0.10100000352E+00 0. -1.
</event>
<event>
 5   0  0.1560174E-06  0.2990771E+04  0.7818609E-02  0.8246371E-01
       -2   -1    0    0    0  501  0.00000000000E+00  0.00000000000E+00  0.91534799282E+03  0.91534799283E+03  0.25500000920E-02 0. -1.
        2   -1    0    0  501    0  0.00000000000E+00  0.00000000000E+00 -0.24429813029E+04  0.24429813029E+04  0.25500000920E-02 0.  1.
    10030    2    1    2    0    0  0.00000000000E+00  0.00000000000E+00 -0.15276333101E+04  0.33583292957E+04  0.29907711595E+04 0.  0.
        5    1    3    3  502    0 -0.99670173290E+02  0.67414332214E+03  0.73084065616E+03  0.99927649674E+03  0.46999998093E+01 0. -1.
       -5    1    3    3    0  502  0.99670173290E+02 -0.67414332214E+03 -0.22584739662E+04  0.23590527990E+04  0.46999998093E+01 0.  1.
</event>
<event>
 5   0  0.1674806E-06  0.3013202E+04  0.7818609E-02  0.8239971E-01
        2   -1    0    0  501    0  0.00000000000E+00  0.00000000000E+00  0.26196202302E+04  0.26196202302E+04  0.25500000920E-02 0. -1.
       -2   -1    0    0    0  501  0.00000000000E+00  0.00000000000E+00 -0.86647923183E+03  0.86647923183E+03  0.25500000920E-02 0.  1.
    10030    2    1    2    0    0  0.00000000000E+00  0.00000000000E+00  0.17531409984E+04  0.34860994621E+04  0.30132019679E+04 0.  0.
        2    1    3    3  502    0  0.46014872024E+03 -0.36855806865E+03 -0.72748447572E+03  0.93637896021E+03  0.25500000920E-02 0.  1.
       -2    1    3    3    0  502 -0.46014872024E+03  0.36855806865E+03  0.24806254741E+04  0.25497205018E+04  0.25500000920E-02 0. -1.
</event>
<event>
 5   0  0.6291798E-07  0.3003426E+04  0.7818609E-02  0.8242753E-01
       -1   -1    0    0    0  501  0.00000000000E+00  0.00000000000E+00  0.16769153481E+04  0.16769153481E+04  0.50400001928E-02 0. -1.
        1   -1    0    0  501    0  0.00000000000E+00  0.00000000000E+00 -0.13448154578E+04  0.13448154578E+04  0.50400001928E-02 0.  1.
    10030    2    1    2    0    0  0.00000000000E+00  0.00000000000E+00  0.33209989031E+03  0.30217308059E+04  0.30034258317E+04 0.  0.
        1    1    3    3  502    0  0.48391411736E+03 -0.37529772517E+03 -0.12134817860E+04  0.13592495358E+04  0.50400001928E-02 0.  1.
       -1    1    3    3    0  502 -0.48391411736E+03  0.37529772517E+03  0.15455816763E+04  0.16624812702E+04  0.50400001928E-02 0. -1.
</event>
<event>
 5   0  0.1674806E-06  0.2995635E+04  0.7818609E-02  0.8244978E-01
       -2   -1    0    0    0  501  0.00000000000E+00  0.00000000000E+00  0.13369289315E+04  0.13369289315E+04  0.25500000920E-02 0. -1.
        2   -1    0    0  501    0  0.00000000000E+00  0.00000000000E+00 -0.16780682067E+04  0.16780682067E+04  0.25500000920E-02 0.  1.
    10030    2    1    2    0    0  0.00000000000E+00  0.00000000000E+00 -0.34113927523E+03  0.30149971383E+04  0.29956354482E+04 0.  0.
        2    1    3    3  502    0  0.37675384019E+03  0.12699162952E+04  0.53311095329E+03  0.14278788960E+04  0.25500000920E-02 0. -1.
       -2    1    3    3    0  502 -0.37675384019E+03 -0.12699162952E+04 -0.87425022852E+03  0.15871182423E+04  0.25500000920E-02 0.  1.
</event>
<event>
 5   0  0.6291798E-07  0.3017057E+04  0.7818609E-02  0.8238877E-01
       -1   -1    0    0    0  501  0.00000000000E+00  0.00000000000E+00  0.12842929942E+04  0.12842929942E+04  0.50400001928E-02 0. -1.
        1   -1    0    0  501    0  0.00000000000E+00  0.00000000000E+00 -0.17719156752E+04  0.17719156752E+04  0.50400001928E-02 0.  1.
    10030    2    1    2    0    0  0.00000000000E+00  0.00000000000E+00 -0.48762268106E+03  0.30562086694E+04  0.30170574327E+04 0.  0.
        1    1    3    3  502    0 -0.12360348332E+04 -0.83931418972E+03 -0.45491059072E+03  0.15617855370E+04  0.50400001928E-02 0. -1.
       -1    1    3    3    0  502  0.12360348332E+04  0.83931418972E+03 -0.32712090340E+02  0.14944231324E+04  0.50400001928E-02 0.  1.
</event>
<event>
 5   0  0.5916703E-07  0.2999625E+04  0.7818609E-02  0.8243838E-01
        1   -1    0    0  501    0  0.00000000000E+00  0.00000000000E+00  0.22569254337E+04  0.22569254337E+04  0.50400001928E-02 0. -1.
       -1   -1    0    0    0  501  0.00000000000E+00  0.00000000000E+00 -0.99668217871E+03  0.99668217872E+03  0.50400001928E-02 0.  1.
    10030    2    1    2    0    0  0.00000000000E+00  0.00000000000E+00  0.12602432550E+04  0.32536076124E+04  0.29996248822E+04 0.  0.
        5    1    3    3  502    0 -0.45242565432E+03  0.32349380331E+02  0.21807390368E+04  0.22274156082E+04  0.46999998093E+01 0. -1.
       -5    1    3    3    0  502  0.45242565432E+03 -0.32349380331E+02 -0.92049578183E+03  0.10261920042E+04  0.46999998093E+01 0.  1.
</event>
<event>
 5   0  0.1625212E-06  0.3003506E+04  0.7818609E-02  0.8242730E-01
       -2   -1    0    0    0  501  0.00000000000E+00  0.00000000000E+00  0.11585148904E+04  0.11585148904E+04  0.25500000920E-02 0.  1.
        2   -1    0    0  501    0  0.00000000000E+00  0.00000000000E+00 -0.19466841016E+04  0.19466841016E+04  0.25500000920E-02 0. -1.
    10030    2    1    2    0    0  0.00000000000E+00  0.00000000000E+00 -0.78816921122E+03  0.31051989920E+04  0.30035062967E+04 0.  0.
        4    1    3    3  502    0 -0.46759605156E+03  0.84578752660E+03  0.79429380598E+03  0.12509623778E+04  0.12699999809E+01 0.  1.
       -4    1    3    3    0  502  0.46759605156E+03 -0.84578752660E+03 -0.15824630172E+04  0.18542366142E+04  0.12699999809E+01 0. -1.
</event>
<event>
 5   0  0.5887179E-07  0.3002096E+04  0.7818609E-02  0.8243133E-01
        1   -1    0    0  501    0  0.00000000000E+00  0.00000000000E+00  0.12645192683E+04  0.12645192683E+04  0.50400001928E-02 0.  1.
       -1   -1    0    0    0  501  0.00000000000E+00  0.00000000000E+00 -0.17818193911E+04  0.17818193911E+04  0.50400001928E-02 0. -1.
    10030    2    1    2    0    0  0.00000000000E+00  0.00000000000E+00 -0.51730012283E+03  0.30463386594E+04  0.30020959029E+04 0.  0.
        3    1    3    3  502    0 -0.16714391658E+03 -0.58294340763E+03  0.11346787741E+04  0.12865675403E+04  0.10100000352E+00 0.  1.
       -3    1    3    3    0  502  0.16714391658E+03  0.58294340763E+03 -0.16519788969E+04  0.17597711190E+04  0.10100000352E+00 0. -1.
</event>
<event>
 5   0  0.5431625E-07  0.3004980E+04  0.7818609E-02  0.8242310E-01
       -3   -1    0    0    0  501  0.00000000000E+00  0.00000000000E+00  0.20778283111E+04  0.20778283136E+04  0.10100000352E+00 0. -1.
        3   -1    0    0  501    0  0.00000000000E+00  0.00000000000E+00 -0.10864596453E+04  0.10864596500E+04  0.10100000352E+00 0.  1.
    10030    2    1    2    0    0  0.00000000000E+00  0.00000000000E+00  0.99136866584E+03  0.31642879636E+04  0.30049802803E+04 0.  0.
        1    1    3    3  502    0  0.90028693794E+03  0.82765191511E+03 -0.42349083177E+03  0.12941672024E+04  0.50400001928E-02 0.  1.
       -1    1    3    3    0  502 -0.90028693794E+03 -0.82765191511E+03  0.14148594976E+04  0.18701207611E+04  0.50400001928E-02 0. -1.
</event>
<event>
 5   0  0.6291798E-07  0.2992198E+04  0.7818609E-02  0.8245962E-01
       -1   -1    0    0    0  501  0.00000000000E+00  0.00000000000E+00  0.15141952026E+04  0.15141952026E+04  0.50400001928E-02 0.  1.
        1   -1    0    0  501    0  0.00000000000E+00  0.00000000000E+00 -0.14782194726E+04  0.14782194726E+04  0.50400001928E-02 0. -1.
    10030    2    1    2    0    0  0.00000000000E+00  0.00000000000E+00  0.35975730021E+02  0.29924146752E+04  0.29921984117E+04 0.  0.
        1    1    3    3  502    0 -0.13728460014E+04  0.51728425675E+03 -0.27533128412E+03  0.14926809645E+04  0.50400001928E-02 0.  1.
       -1    1    3    3    0  502  0.13728460014E+04 -0.51728425675E+03  0.31130701414E+03  0.14997337106E+04  0.50400001928E-02 0. -1.
</event>
<event>
 5   0  0.5931588E-07  0.2993002E+04  0.7818609E-02  0.8245732E-01
       -1   -1    0    0    0  501  0.00000000000E+00  0.00000000000E+00  0.14553798133E+04  0.14553798133E+04  0.50400001928E-02 0. -1.
        1   -1    0    0  501    0  0.00000000000E+00  0.00000000000E+00 -0.15387837496E+04  0.15387837496E+04  0.50400001928E-02 0.  1.
    10030    2    1    2    0    0  0.00000000000E+00  0.00000000000E+00 -0.83403936366E+02  0.29941635629E+04  0.29930017081E+04 0.  0.
        2    1    3    3  502    0 -0.11887533249E+04  0.60968543649E+03 -0.71625149810E+03  0.15158716989E+04  0.25500000920E-02 0.  1.
       -2    1    3    3    0  502  0.11887533249E+04 -0.60968543649E+03  0.63284756173E+03  0.14782918640E+04  0.25500000920E-02 0. -1.
</event>
<event>
 5   0  0.5874741E-07  0.2963102E+04  0.7818609E-02  0.8254346E-01
       -1   -1    0    0    0  501  0.00000000000E+00  0.00000000000E+00  0.13932061913E+04  0.13932061913E+04  0.50400001928E-02 0.  1.
        1   -1    0    0  501    0  0.00000000000E+00  0.00000000000E+00 -0.15754979955E+04  0.15754979956E+04  0.50400001928E-02 0. -1.
    10030    2    1    2    0    0  0.00000000000E+00  0.00000000000E+00 -0.18229180424E+03  0.29687041869E+04  0.29631021324E+04 0.  0.
        4    1    3    3  502    0  0.11685788534E+04 -0.28762145445E+03 -0.95689145859E+03  0.15375127688E+04  0.12699999809E+01 0. -1.
       -4    1    3    3    0  502 -0.11685788534E+04  0.28762145445E+03  0.77459965434E+03  0.14311914181E+04  0.12699999809E+01 0.  1.
</event>
<event>
 5   0  0.5916703E-07  0.3005699E+04  0.7818609E-02  0.8242105E-01
        1   -1    0    0  501    0  0.00000000000E+00  0.00000000000E+00  0.17039273141E+04  0.17039273141E+04  0.50400001928E-02 0. -1.
       -1   -1    0    0    0  501  0.00000000000E+00  0.00000000000E+00 -0.13255008116E+04  0.13255008116E+04  0.50400001928E-02 0.  1.
    10030    2    1    2    0    0  0.00000000000E+00  0.00000000000E+00  0.37842650252E+03  0.30294281258E+04  0.30056992783E+04 0.  0.
        5    1    3    3  502    0  0.13078227576E+03  0.71205205585E+03 -0.11381548078E+04  0.13489034771E+04  0.46999998093E+01 0.  1.
       -5    1    3    3    0  502 -0.13078227576E+03 -0.71205205585E+03  0.15165813104E+04  0.16805246487E+04  0.46999998093E+01 0. -1.
</event>
<event>
 5   0  0.1723916E-06  0.2969632E+04  0.7818609E-02  0.8252456E-01
        2   -1    0    0  501    0  0.00000000000E+00  0.00000000000E+00  0.25531563753E+04  0.25531563753E+04  0.25500000920E-02 0. -1.
       -2   -1    0    0    0  501  0.00000000000E+00  0.00000000000E+00 -0.86351092938E+03  0.86351092939E+03  0.25500000920E-02 0.  1.
    10030    2    1    2    0    0  0.00000000000E+00  0.00000000000E+00  0.16896454459E+04  0.34166673047E+04  0.29696319196E+04 0.  0.
        1    1    3    3  502    0 -0.83403558190E+03 -0.76113353713E+03  0.19542032841E+04  0.22569559342E+04  0.50400001928E-02 0. -1.
       -1    1    3    3    0  502  0.83403558190E+03  0.76113353713E+03 -0.26455783814E+03  0.11597113705E+04  0.50400001928E-02 0.  1.
</event>
<event>
 5   0  0.5931588E-07  0.3002159E+04  0.7818609E-02  0.8243115E-01
        1   -1    0    0  501    0  0.00000000000E+00  0.00000000000E+00  0.12670169592E+04  0.12670169592E+04  0.50400001928E-02 0. -1.
       -1   -1    0    0    0  501  0.00000000000E+00  0.00000000000E+00 -0.17783811892E+04  0.17783811892E+04  0.50400001928E-02 0.  1.
    10030    2    1    2    0    0  0.00000000000E+00  0.00000000000E+00 -0.51136423006E+03  0.30453981484E+04  0.30021586411E+04 0.  0.
        2    1    3    3  502    0 -0.28947562360E+03  0.14231883235E+04  0.12922725956E+03  0.14580674968E+04  0.25500000920E-02 0. -1.
       -2    1    3    3    0  502  0.28947562360E+03 -0.14231883235E+04 -0.64059148962E+03  0.15873306515E+04  0.25500000920E-02 0.  1.
</event>
<event>
 5   0  0.1635086E-06  0.3014038E+04  0.7818609E-02  0.8239734E-01
       -2   -1    0    0    0  501  0.00000000000E+00  0.00000000000E+00  0.16342571640E+04  0.16342571640E+04  0.25500000920E-02 0.  1.
        2   -1    0    0  501    0  0.00000000000E+00  0.00000000000E+00 -0.13896873773E+04  0.13896873773E+04  0.25500000920E-02 0. -1.
    10030    2    1    2    0    0  0.00000000000E+00  0.00000000000E+00  0.24456978668E+03  0.30239445413E+04  0.30140381896E+04 0.  0.
        3    1    3    3  502    0 -0.58277416824E+03 -0.88527044671E+03 -0.95257990241E+03  0.14250396400E+04  0.10100000352E+00 0. -1.
       -3    1    3    3    0  502  0.58277416824E+03  0.88527044671E+03  0.11971496891E+04  0.15989049013E+04  0.10100000352E+00 0.  1.
</event>
<event>
 5   0  0.5874741E-07  0.3027550E+04  0.7818609E-02  0.8235907E-01
        1   -1    0    0  501    0  0.00000000000E+00  0.00000000000E+00  0.20974284629E+04  0.20974284629E+04  0.50400001928E-02 0.  1.
       -1   -1    0    0    0  501  0.00000000000E+00  0.00000000000E+00 -0.10925354523E+04  0.10925354523E+04  0.50400001928E-02 0. -1.
    10030    2    1    2    0    0  0.00000000000E+00  0.00000000000E+00  0.10048930105E+04  0.31899639152E+04  0.30275501346E+04 0.  0.
        4    1    3    3  502    0 -0.54391822471E+03 -0.99969561378E+03 -0.54923452409E+03  0.12636845060E+04  0.12699999809E+01 0. -1.
       -4    1    3    3    0  502  0.54391822471E+03  0.99969561378E+03  0.15541275346E+04  0.19262794092E+04  0.12699999809E+01 0.  1.
</event>
<event>
 5   0  0.1723916E-06  0.2947106E+04  0.7818609E-02  0.8258998E-01
       -2   -1    0    0    0  501  0.00000000000E+00  0.00000000000E+00  0.95371358504E+03  0.95371358505E+03  0.25500000920E-02 0.  1.
        2   -1    0    0  501    0  0.00000000000E+00  0.00000000000E+00 -0.22767409633E+04  0.22767409633E+04  0.25500000920E-02 0. -1.
    10030    2    1    2    0    0  0.00000000000E+00  0.00000000000E+00 -0.13230273783E+04  0.32304545484E+04  0.29471062324E+04 0.  0.
        1    1    3    3  502    0  0.13952368156E+04 -0.40182976940E+03 -0.93709292168E+03  0.17280902983E+04  0.50400001928E-02 0.  1.
       -1    1    3    3    0  502 -0.13952368156E+04  0.40182976940E+03 -0.38593445658E+03  0.15023642501E+04  0.50400001928E-02 0. -1.
</event>
<event>
 5   0  0.5887179E-07  0.3029603E+04  0.7818609E-02  0.8235328E-01
       -1   -1    0    0    0  501  0.00000000000E+00  0.00000000000E+00  0.13265827982E+04  0.13265827982E+04  0.50400001928E-02 0. -1.
        1   -1    0    0  501    0  0.00000000000E+00  0.00000000000E+00 -0.17297246890E+04  0.17297246890E+04  0.50400001928E-02 0.  1.
    10030    2    1    2    0    0  0.00000000000E+00  0.00000000000E+00 -0.40314189082E+03  0.30563074872E+04  0.30296026262E+04 0.  0.
        3    1    3    3  502    0 -0.94694771127E+03  0.10389923825E+04  0.36767936081E+03  0.14530668468E+04  0.10100000352E+00 0. -1.
       -3    1    3    3    0  502  0.94694771127E+03 -0.10389923825E+04 -0.77082125163E+03  0.16032406404E+04  0.10100000352E+00 0.  1.
</event>
<event>
 5   0  0.1625212E-06  0.2990583E+04  0.7818609E-02  0.8246425E-01
       -2   -1    0    0    0  501  0.00000000000E+00  0.00000000000E+00  0.16610369343E+04  0.16610369343E+04  0.25500000920E-02 0. -1.
        2   -1    0    0  501    0  0.00000000000E+00  0.00000000000E+00 -0.13460848155E+04  0.13460848155E+04  0.25500000920E-02 0.  1.
    10030    2    1    2    0    0  0.00000000000E+00  0.00000000000E+00  0.31495211879E+03  0.30071217498E+04  0.29905829500E+04 0.  0.
        4    1    3    3  502    0  0.34452226977E+02 -0.14076181367E+04  0.66356776449E+03  0.15565665953E+04  0.12699999809E+01 0. -1.
       -4    1    3    3    0  502 -0.34452226977E+02  0.14076181367E+04 -0.34861564570E+03  0.14505551544E+04  0.12699999809E+01 0.  1.
</event>
<event>
 5   0  0.1625212E-06  0.3009224E+04  0.7818609E-02  0.8241102E-01
        2   -1    0    0  501    0  0.00000000000E+00  0.00000000000E+00  0.24661925871E+04  0.24661925871E+04  0.25500000920E-02 0. -1.
       -2   -1    0    0    0  501  0.00000000000E+00  0.00000000000E+00 -0.91795619994E+03  0.91795619995E+03  0.25500000920E-02 0.  1.
    10030    2    1    2    0    0  0.00000000000E+00  0.00000000000E+00  0.15482363872E+04  0.33841487871E+04  0.30092236711E+04 0.  0.
        4    1    3    3  502    0 -0.91995561559E+03 -0.87817790137E+03 -0.13000088012E+03  0.12784430386E+04  0.12699999809E+01 0. -1.
       -4    1    3    3    0  502  0.91995561559E+03  0.87817790137E+03  0.16782372673E+04  0.21057057485E+04  0.12699999809E+01 0.  1.
</event>
<event>
 5   0  0.1560174E-06  0.3016773E+04  0.7818609E-02  0.8238958E-01
        2   -1    0    0  501    0  0.00000000000E+00  0.00000000000E+00  0.11576043554E+04  0.11576043554E+04  0.25500000920E-02 0. -1.
       -2   -1    0    0    0  501  0.00000000000E+00  0.00000000000E+00 -0.19654634997E+04  0.19654634997E+04  0.25500000920E-02 0.  1.
    10030    2    1    2    0    0  0.00000000000E+00  0.00000000000E+00 -0.80785914436E+03  0.31230678551E+04  0.30167725188E+04 0.  0.
        5    1    3    3  502    0 -0.72109874912E+03 -0.12805747834E+04 -0.75553139024E+03  0.16524844791E+04  0.46999998093E+01 0.  1.
       -5    1    3    3    0  502  0.72109874912E+03  0.12805747834E+04 -0.52327754117E+02  0.14705833760E+04  0.46999998093E+01 0. -1.
</event>
<event>
 5   0  0.1674806E-06  0.3005085E+04  0.7818609E-02  0.8242280E-01
       -2   -1    0    0    0  501  0.00000000000E+00  0.00000000000E+00  0.10762438863E+04  0.10762438863E+04  0.25500000920E-02 0. -1.
        2   -1    0    0  501    0  0.00000000000E+00  0.00000000000E+00 -0.20976975157E+04  0.20976975157E+04  0.25500000920E-02 0.  1.
    10030    2    1    2    0    0  0.00000000000E+00  0.00000000000E+00 -0.10214536294E+04  0.31739414020E+04  0.30050851080E+04 0.  0.
        2    1    3    3  502    0  0.98120682590E+03 -0.71879983955E+03 -0.14424482564E+04  0.18868219357E+04  0.25500000920E-02 0.  1.
       -2    1    3    3    0  502 -0.98120682590E+03  0.71879983955E+03  0.42099462703E+03  0.12871194663E+04  0.25500000920E-02 0. -1.
</event>
<event>
 5   0  0.1635086E-06  0.3008425E+04  0.7818609E-02  0.8241329E-01
        2   -1    0    0  501    0  0.00000000000E+00  0.00000000000E+00  0.25190498861E+04  0.25190498861E+04  0.25500000920E-02 0. -1.
       -2   -1    0    0    0  501  0.00000000000E+00  0.00000000000E+00 -0.89821799292E+03  0.89821799292E+03  0.25500000920E-02 0.  1.
    10030    2    1    2    0    0  0.00000000000E+00  0.00000000000E+00  0.16208318932E+04  0.34172678790E+04  0.30084254571E+04 0.  0.
        3    1    3    3  502    0 -0.90381965592E+03  0.11243090237E+04  0.12946010932E+04  0.19382860346E+04  0.10100000352E+00 0.  1.
       -3    1    3    3    0  502  0.90381965592E+03 -0.11243090237E+04  0.32623079996E+03  0.14789818444E+04  0.10100000352E+00 0. -1.
</event>
<event>
 5   0  0.1635086E-06  0.2989366E+04  0.7818609E-02  0.8246774E-01
        2   -1    0    0  501    0  0.00000000000E+00  0.00000000000E+00  0.18089782759E+04  0.18089782759E+04  0.25500000920E-02 0.  1.
       -2   -1    0    0    0  501  0.00000000000E+00  0.00000000000E+00 -0.12349939747E+04  0.12349939747E+04  0.25500000920E-02 0. -1.
    10030    2    1    2    0    0  0.00000000000E+00  0.00000000000E+00  0.57398430119E+03  0.30439722507E+04  0.29893660005E+04 0.  0.
        3    1    3    3  502    0  0.78741230990E+03 -0.58402887747E+03 -0.86187702617E+03  0.13053504870E+04  0.10100000352E+00 0. -1.
       -3    1    3    3    0  502 -0.78741230990E+03  0.58402887747E+03  0.14358613274E+04  0.17386217637E+04  0.10100000352E+00 0.  1.
</event>
<event>
 5   0  0.1674806E-06  0.3001429E+04  0.7818609E-02  0.8243323E-01
        2   -1    0    0  501    0  0.00000000000E+00  0.00000000000E+00  0.16767899624E+04  0.16767899624E+04  0.25500000920E-02 0. -1.
       -2   -1    0    0    0  501  0.00000000000E+00  0.00000000000E+00 -0.13431278371E+04  0.13431278371E+04  0.25500000920E-02 0.  1.
    10030    2    1    2    0    0  0.00000000000E+00  0.00000000000E+00  0.33366212522E+03  0.30199177995E+04  0.30014285102E+04 0.  0.
        2    1    3    3  502    0 -0.18161079393E+03  0.57689030493E+03 -0.12150772211E+04  0.13572757854E+04  0.25500000920E-02 0.  1.
       -2    1    3    3    0  502  0.18161079393E+03 -0.57689030493E+03  0.15487393463E+04  0.16626420141E+04  0.25500000920E-02 0. -1.
</event>
<event>
 5   0  0.5431625E-07  0.3007385E+04  0.7818609E-02  0.8241625E-01
       -3   -1    0    0    0  501  0.00000000000E+00  0.00000000000E+00  0.14799262593E+04  0.14799262628E+04  0.10100000352E+00 0. -1.
        3   -1    0    0  501    0  0.00000000000E+00  0.00000000000E+00 -0.15278405912E+04  0.15278405945E+04  0.10100000352E+00 0.  1.
    10030    2    1    2    0    0  0.00000000000E+00  0.00000000000E+00 -0.47914331889E+02  0.30077668573E+04  0.30073851906E+04 0.  0.
        5    1    3    3  502    0  0.35283490227E+01 -0.10108175478E+04  0.10894247752E+04  0.14861470301E+04  0.46999998093E+01 0. -1.
       -5    1    3    3    0  502 -0.35283490227E+01  0.10108175478E+04 -0.11373391071E+04  0.15216198272E+04  0.46999998093E+01 0.  1.
</event>
<event>
 5   0  0.1560174E-06  0.2981643E+04  0.7818609E-02  0.8248992E-01
       -2   -1    0    0    0  501  0.00000000000E+00  0.00000000000E+00  0.17193318046E+04  0.17193318046E+04  0.25500000920E-02 0. -1.
        2   -1    0    0  501    0  0.00000000000E+00  0.00000000000E+00 -0.12926813553E+04  0.12926813553E+04  0.25500000920E-02 0.  1.
    10030    2    1    2    0    0  0.00000000000E+00  0.00000000000E+00  0.42665044933E+03  0.30120131598E+04  0.29816426126E+04 0.  0.
        5    1    3    3  502    0  0.48531181043E+03  0.95789510413E+03 -0.83134345756E+03  0.13580296824E+04  0.46999998093E+01 0.  1.
       -5    1    3    3    0  502 -0.48531181043E+03 -0.95789510413E+03  0.12579939069E+04  0.16539834774E+04  0.46999998093E+01 0. -1.
</event>
<event>
 5   0  0.1635086E-06  0.3013782E+04  0.7818609E-02  0.8239806E-01
        2   -1    0    0  501    0  0.00000000000E+00  0.00000000000E+00  0.16831376442E+04  0.16831376442E+04  0.25500000920E-02 0. -1.
       -2   -1    0    0    0  501  0.00000000000E+00  0.00000000000E+00 -0.13490994322E+04  0.13490994322E+04  0.25500000920E-02 0.  1.
    10030    2    1    2    0    0  0.00000000000E+00  0.00000000000E+00  0.33403821195E+03  0.30322370764E+04  0.30137817042E+04 0.  0.
        3    1    3    3  502    0 -0.55924731175E+03  0.81416371775E+03 -0.97797433564E+03  0.13899834267E+04  0.10100000352E+00 0.  1.
       -3    1    3    3    0  502  0.55924731175E+03 -0.81416371775E+03  0.13120125476E+04  0.16422536498E+04  0.10100000352E+00 0. -1.
</event>
<event>
 5   0  0.5874741E-07  0.2993679E+04  0.7818609E-02  0.8245538E-01
       -1   -1    0    0    0  501  0.00000000000E+00  0.00000000000E+00  0.93909878468E+03  0.93909878469E+03  0.50400001928E-02 0. -1.
        1   -1    0    0  501    0  0.00000000000E+00  0.00000000000E+00 -0.23858278474E+04  0.23858278474E+04  0.50400001928E-02 0.  1.
    10030    2    1    2    0    0  0.00000000000E+00  0.00000000000E+00 -0.14467290627E+04  0.33249266321E+04  0.29936786948E+04 0.  0.
        4    1    3    3  502    0  0.53661091269E+03 -0.13551495571E+04 -0.11018740560E+04  0.18271588990E+04  0.12699999809E+01 0.  1.
       -4    1    3    3    0  502 -0.53661091269E+03  0.13551495571E+04 -0.34485500670E+03  0.14977677331E+04  0.12699999809E+01 0. -1.
</event>
<event>
 5   0  0.1723916E-06  0.3017502E+04  0.7818609E-02  0.8238751E-01
        2   -1    0    0  501    0  0.00000000000E+00  0.00000000000E+00  0.21547910601E+04  0.21547910601E+04  0.25500000920E-02 0.  1.
       -2   -1    0    0    0  501  0.00000000000E+00  0.00000000000E+00 -0.10564039198E+04  0.10564039198E+04  0.25500000920E-02 0. -1.
    10030    2    1    2    0    0  0.00000000000E+00  0.00000000000E+00  0.10983871403E+04  0.32111949800E+04  0.30175020943E+04 0.  0.
        1    1    3    3  502    0 -0.24625081515E+03 -0.13577017029E+04  0.11985554814E+04  0.18277113065E+04  0.50400001928E-02 0. -1.
       -1    1    3    3    0  502  0.24625081515E+03  0.13577017029E+04 -0.10016834102E+03  0.13834836734E+04  0.50400001928E-02 0.  1.
</event>
<event>
 5   0  0.1674806E-06  0.2998630E+04  0.7818609E-02  0.8244122E-01
        2   -1    0    0  501    0  0.00000000000E+00  0.00000000000E+00  0.11761354191E+04  0.11761354191E+04  0.25500000920E-02 0.  1.
       -2   -1    0    0    0  501  0.00000000000E+00  0.00000000000E+00 -0.19112981035E+04  0.19112981035E+04  0.25500000920E-02 0. -1.
    10030    2    1    2    0    0  0.00000000000E+00  0.00000000000E+00 -0.73516268439E+03  0.30874335226E+04  0.29986299512E+04 0.  0.
        2    1    3    3  502    0 -0.76616624654E+03  0.10029787343E+04  0.46568702178E+03  0.13453034829E+04  0.25500000920E-02 0.  1.
       -2    1    3    3    0  502  0.76616624654E+03 -0.10029787343E+04 -0.12008497062E+04  0.17421300398E+04  0.25500000920E-02 0. -1.
</event>
<event>
 5   0  0.5931588E-07  0.3015686E+04  0.7818609E-02  0.8239266E-01
        1   -1    0    0  501    0  0.00000000000E+00  0.00000000000E+00  0.19748426301E+04  0.19748426301E+04  0.50400001928E-02 0. -1.
       -1   -1    0    0    0  501  0.00000000000E+00  0.00000000000E+00 -0.11512771274E+04  0.11512771274E+04  0.50400001928E-02 0.  1.
    10030    2    1    2    0    0  0.00000000000E+00  0.00000000000E+00  0.82356550264E+03  0.31261197575E+04  0.30156864229E+04 0.  0.
        2    1    3    3  502    0  0.71221698147E+03  0.98176469761E+03 -0.51683185609E+03  0.13184195530E+04  0.25500000920E-02 0.  1.
       -2    1    3    3    0  502 -0.71221698147E+03 -0.98176469761E+03  0.13403973587E+04  0.18077002045E+04  0.25500000920E-02 0. -1.
</event>
<event>
 5   0  0.1560174E-06  0.2979059E+04  0.7818609E-02  0.8249736E-01
        2   -1    0    0  501    0  0.00000000000E+00  0.00000000000E+00  0.10650312039E+04  0.10650312039E+04  0.25500000920E-02 0. -1.
       -2   -1    0    0    0  501  0.00000000000E+00  0.00000000000E+00 -0.20832242613E+04  0.20832242613E+04  0.25500000920E-02 0.  1.
    10030    2    1    2    0    0  0.00000000000E+00  0.00000000000E+00 -0.10181930573E+04  0.31482554652E+04  0.29790594778E+04 0.  0.
        5    1    3    3  502    0 -0.14372712493E+04 -0.36354013349E+03 -0.66138756114E+03  0.16233809376E+04  0.46999998093E+01 0.  1.
       -5    1    3    3    0  502  0.14372712493E+04  0.36354013349E+03 -0.35680549621E+03  0.15248745275E+04  0.46999998093E+01 0. -1.
</event>
<event>
 5   0  0.5887179E-07  0.3002519E+04  0.7818609E-02  0.8243012E-01
        1   -1    0    0  501    0  0.00000000000E+00  0.00000000000E+00  0.15819329650E+04  0.15819329650E+04  0.50400001928E-02 0. -1.
       -1   -1    0    0    0  501  0.00000000000E+00  0.00000000000E+00 -0.14246999522E+04  0.14246999522E+04  0.50400001928E-02 0.  1.
    10030    2    1    2    0    0  0.00000000000E+00  0.00000000000E+00  0.15723301288E+03  0.30066329172E+04  0.30025188223E+04 0.  0.
        3    1    3    3  502    0 -0.27240465921E+03 -0.14100121372E+04  0.51675606720E+03  0.15262291337E+04  0.10100000352E+00 0. -1.
       -3    1    3    3    0  502  0.27240465921E+03  0.14100121372E+04 -0.35952305432E+03  0.14804037835E+04  0.10100000352E+00 0.  1.
</event>
<event>
 5   0  0.5887179E-07  0.3034014E+04  0.7818609E-02  0.8234084E-01
        1   -1    0    0  501    0  0.00000000000E+00  0.00000000000E+00  0.25172707381E+04  0.25172707381E+04  0.50400001928E-02 0.  1.
       -1   -1    0    0    0  501  0.00000000000E+00  0.00000000000E+00 -0.91420870245E+03  0.91420870246E+03  0.50400001928E-02 0. -1.
    10030    2    1    2    0    0  0.00000000000E+00  0.00000000000E+00  0.16030620356E+04  0.34314794405E+04  0.30340143804E+04 0.  0.
        3    1    3    3  502    0 -0.93680303227E+03  0.57540080302E+03  0.19837537152E+04  0.22680310444E+04  0.10100000352E+00 0.  1.
       -3    1    3    3    0  502  0.93680303227E+03 -0.57540080302E+03 -0.38069167961E+03  0.11634483962E+04  0.10100000352E+00 0. -1.
</event>
<event>
 5   0  0.5874741E-07  0.2997409E+04  0.7818609E-02  0.8244471E-01
       -1   -1    0    0    0  501  0.00000000000E+00  0.00000000000E+00  0.20955937234E+04  0.20955937234E+04  0.50400001928E-02 0. -1.
        1   -1    0    0  501    0  0.00000000000E+00  0.00000000000E+00 -0.10718275243E+04  0.10718275243E+04  0.50400001928E-02 0.  1.
    10030    2    1    2    0    0  0.00000000000E+00  0.00000000000E+00  0.10237661992E+04  0.31674212477E+04  0.29974089027E+04 0.  0.
        4    1    3    3  502    0  0.47596338461E+03  0.63131196595E+03  0.18572900953E+04  0.20185698038E+04  0.12699999809E+01 0. -1.
       -4    1    3    3    0  502 -0.47596338461E+03 -0.63131196595E+03 -0.83352389612E+03  0.11488514439E+04  0.12699999809E+01 0.  1.
</event>
<event>
 5   0  0.1625212E-06  0.3003157E+04  0.7818609E-02  0.8242830E-01
        2   -1    0    0  501    0  0.00000000000E+00  0.00000000000E+00  0.14482735160E+04  0.14482735160E+04  0.25500000920E-02 0.  1.
       -2   -1    0    0    0  501  0.00000000000E+00  0.00000000000E+00 -0.15568453392E+04  0.15568453392E+04  0.25500000920E-02 0. -1.
    10030    2    1    2    0    0  0.00000000000E+00  0.00000000000E+00 -0.10857182316E+03  0.30051188552E+04  0.30031569211E+04 0.  0.
        4    1    3    3  502    0 -0.43903154100E+03 -0.99435479871E+03  0.98236679871E+03  0.14651062418E+04  0.12699999809E+01 0.  1.
       -4    1    3    3    0  502  0.43903154100E+03  0.99435479871E+03 -0.10909386219E+04  0.15400126134E+04  0.12699999809E+01 0. -1.
</event>
<event>
 5   0  0.1674806E-06  0.2997546E+04  0.7818609E-02  0.8244432E-01
        2   -1    0    0  501    0  0.00000000000E+00  0.00000000000E+00  0.24264063257E+04  0.24264063257E+04  0.25500000920E-02 0. -1.
       -2   -1    0    0    0  501  0.00000000000E+00  0.00000000000E+00 -0.92578101963E+03  0.92578101964E+03  0.25500000920E-02 0.  1.
    10030    2    1    2    0    0  0.00000000000E+00  0.00000000000E+00  0.15006253060E+04  0.33521873453E+04  0.29975462780E+04 0.  0.
        2    1    3    3  502    0 -0.14509574939E+04 -0.31639180250E+03  0.97658613202E+03  0.17773862538E+04  0.25500000920E-02 0. -1.
       -2    1    3    3    0  502  0.14509574939E+04  0.31639180250E+03  0.52403917403E+03  0.15748010915E+04  0.25500000920E-02 0.  1.
</event>
<event>
 5   0  0.1625212E-06  0.2989806E+04  0.7818609E-02  0.8246648E-01
       -2   -1    0    0    0  501  0.00000000000E+00  0.00000000000E+00  0.12851182395E+04  0.12851182395E+04  0.25500000920E-02 0. -1.
        2   -1    0    0  501    0  0.00000000000E+00  0.00000000000E+00 -0.17389339093E+04  0.17389339093E+04  0.25500000920E-02 0.  1.
    10030    2    1    2    0    0  0.00000000000E+00  0.00000000000E+00 -0.45381566981E+03  0.30240521488E+04  0.29898064714E+04 0.  0.
        4    1    3    3  502    0 -0.12609319984E+04 -0.55159962219E+03 -0.81713481298E+03  0.16006006883E+04  0.12699999809E+01 0.  1.
       -4    1    3    3    0  502  0.12609319984E+04  0.55159962219E+03  0.36331914317E+03  0.14234514605E+04  0.12699999809E+01 0. -1.
</event>
<event>
 5   0  0.1723916E-06  0.3000613E+04  0.7818609E-02  0.8243556E-01
        2   -1    0    0  501    0  0.00000000000E+00  0.00000000000E+00  0.21603115966E+04  0.21603115966E+04  0.25500000920E-02 0. -1.
       -2   -1    0    0    0  501  0.00000000000E+00  0.00000000000E+00 -0.10419418372E+04  0.10419418372E+04  0.25500000920E-02 0.  1.
    10030    2    1    2    0    0  0.00000000000E+00  0.00000000000E+00  0.11183697593E+04  0.32022534338E+04  0.30006126267E+04 0.  0.
        1    1    3    3  502    0  0.74869296991E+03 -0.14718186844E+03 -0.81941075953E+03  0.11196596172E+04  0.50400001928E-02 0.  1.
       -1    1    3    3    0  502 -0.74869296991E+03  0.14718186844E+03  0.19377805189E+04  0.20825938166E+04  0.50400001928E-02 0. -1.
</event>
<event>
 5   0  0.1635086E-06  0.2985705E+04  0.7818609E-02  0.8247825E-01
        2   -1    0    0  501    0  0.00000000000E+00  0.00000000000E+00  0.93550924697E+03  0.93550924698E+03  0.25500000920E-02 0. -1.
       -2   -1    0    0    0  501  0.00000000000E+00  0.00000000000E+00 -0.23822408768E+04  0.23822408768E+04  0.25500000920E-02 0.  1.
    10030    2    1    2    0    0  0.00000000000E+00  0.00000000000E+00 -0.14467316299E+04  0.33177501238E+04  0.29857048540E+04 0.  0.
        3    1    3    3  502    0 -0.14408636734E+04 -0.44323399611E+01 -0.28942294340E+03  0.14696507821E+04  0.10100000352E+00 0. -1.
       -3    1    3    3    0  502  0.14408636734E+04  0.44323399611E+01 -0.11573086865E+04  0.18480993417E+04  0.10100000352E+00 0.  1.
</event>
<event>
 5   0  0.6291798E-07  0.2971342E+04  0.7818609E-02  0.8251962E-01
        1   -1    0    0  501    0  0.00000000000E+00  0.00000000000E+00  0.19960808976E+04  0.19960808976E+04  0.50400001928E-02 0. -1.
       -1   -1    0    0    0  501  0.00000000000E+00  0.00000000000E+00 -0.11057760682E+04  0.11057760682E+04  0.50400001928E-02 0.  1.
    10030    2    1    2    0    0  0.00000000000E+00  0.00000000000E+00  0.89030482940E+03  0.31018569658E+04  0.29713421121E+04 0.  0.
        1    1    3    3  502    0  0.11968299508E+04 -0.19589679573E+03 -0.45070334299E+03  0.12937971205E+04  0.50400001928E-02 0.  1.
       -1    1    3    3    0  502 -0.11968299508E+04  0.19589679573E+03  0.13410081724E+04  0.18080598453E+04  0.50400001928E-02 0. -1.
</event>
<event>
 5   0  0.1674806E-06  0.3005208E+04  0.7818609E-02  0.8242245E-01
        2   -1    0    0  501    0  0.00000000000E+00  0.00000000000E+00  0.20279700594E+04  0.20279700594E+04  0.25500000920E-02 0.  1.
       -2   -1    0    0    0  501  0.00000000000E+00  0.00000000000E+00 -0.11133396695E+04  0.11133396695E+04  0.25500000920E-02 0. -1.
    10030    2    1    2    0    0  0.00000000000E+00  0.00000000000E+00  0.91463038987E+03  0.31413097289E+04  0.30052084891E+04 0.  0.
        2    1    3    3  502    0  0.11307193563E+04 -0.51408584370E+03  0.13411923438E+04  0.18280064060E+04  0.25500000920E-02 0. -1.
       -2    1    3    3    0  502 -0.11307193563E+04  0.51408584370E+03 -0.42656195390E+03  0.13133033229E+04  0.25500000920E-02 0.  1.
</event>
<event>
 5   0  0.5931588E-07  0.3022137E+04  0.7818609E-02  0.8237438E-01
       -1   -1    0    0    0  501  0.00000000000E+00  0.00000000000E+00  0.19629576698E+04  0.19629576698E+04  0.50400001928E-02 0.  1.
        1   -1    0    0  501    0  0.00000000000E+00  0.00000000000E+00 -0.11632080103E+04  0.11632080103E+04  0.50400001928E-02 0. -1.
    10030    2    1    2    0    0  0.00000000000E+00  0.00000000000E+00  0.79974965953E+03  0.31261656802E+04  0.30221370488E+04 0.  0.
        2    1    3    3  502    0  0.78525181664E+03  0.56852885170E+03  0.15988601378E+04  0.18698126139E+04  0.25500000920E-02 0.  1.
       -2    1    3    3    0  502 -0.78525181664E+03 -0.56852885170E+03 -0.79911047825E+03  0.12563530663E+04  0.25500000920E-02 0. -1.
</event>
<event>
 5   0  0.1625212E-06  0.3007070E+04  0.7818609E-02  0.8241715E-01
        2   -1    0    0  501    0  0.00000000000E+00  0.00000000000E+00  0.18861855194E+04  0.18861855194E+04  0.25500000920E-02 0. -1.
       -2   -1    0    0    0  501  0.00000000000E+00  0.00000000000E+00 -0.11985128042E+04  0.11985128042E+04  0.25500000920E-02 0.  1.
    10030    2    1    2    0    0  0.00000000000E+00  0.00000000000E+00  0.68767271519E+03  0.30846983235E+04  0.30070699998E+04 0.  0.
        4    1    3    3  502    0  0.56162339038E+03 -0.72989686413E+03  0.15629804186E+04  0.18141333101E+04  0.12699999809E+01 0. -1.
       -4    1    3    3    0  502 -0.56162339038E+03  0.72989686413E+03 -0.87530770340E+03  0.12705650135E+04  0.12699999809E+01 0.  1.
</event>
<event>
 5   0  0.1625212E-06  0.3004042E+04  0.7818609E-02  0.8242578E-01
        2   -1    0    0  501    0  0.00000000000E+00  0.00000000000E+00  0.14507753897E+04  0.14507753897E+04  0.25500000920E-02 0.  1.
       -2   -1    0    0    0  501  0.00000000000E+00  0.00000000000E+00 -0.15550763746E+04  0.15550763746E+04  0.25500000920E-02 0. -1.
    10030    2    1    2    0    0  0.00000000000E+00  0.00000000000E+00 -0.10430098485E+03  0.30058517643E+04  0.30040416332E+04 0.  0.
        4    1    3    3  502    0  0.10352432922E+04 -0.40468109067E+03 -0.10629916032E+04  0.15380013721E+04  0.12699999809E+01 0. -1.
       -4    1    3    3    0  502 -0.10352432922E+04  0.40468109067E+03  0.95869061836E+03  0.14678503922E+04  0.12699999809E+01 0.  1.
</event>
<event>
 5   0  0.6291798E-07  0.3016367E+04  0.7818609E-02  0.8239073E-01
       -1   -1    0    0    0  501  0.00000000000E+00  0.00000000000E+00  0.80278300700E+03  0.80278300702E+03  0.50400001928E-02 0.  1.
        1   -1    0    0  501    0  0.00000000000E+00  0.00000000000E+00 -0.28334153178E+04  0.28334153178E+04  0.50400001928E-02 0. -1.
    10030    2    1    2    0    0  0.00000000000E+00  0.00000000000E+00 -0.20306323108E+04  0.36361983248E+04  0.30163671321E+04 0.  0.
        1    1    3    3  502    0  0.14944286857E+04 -0.18215211947E+02 -0.77131613143E+03  0.16818375264E+04  0.50400001928E-02 0.  1.
       -1    1    3    3    0  502 -0.14944286857E+04  0.18215211947E+02 -0.12593161793E+04  0.19543607984E+04  0.50400001928E-02 0. -1.
</event>
<event>
 5   0  0.5887179E-07  0.2811492E+04  0.7818609E-02  0.8299710E-01
        1   -1    0    0  501    0  0.00000000000E+00  0.00000000000E+00  0.23853569306E+04  0.23853569306E+04  0.50400001928E-02 0. -1.
       -1   -1    0    0    0  501  0.00000000000E+00  0.00000000000E+00 -0.82843842575E+03  0.82843842576E+03  0.50400001928E-02 0.  1.
    10030    2    1    2    0    0  0.00000000000E+00  0.00000000000E+00  0.15569185048E+04  0.32137953563E+04  0.28114916613E+04 0.  0.
        3    1    3    3  502    0 -0.56059878341E+03 -0.71830405639E+03  0.20020968459E+04  0.21996871378E+04  0.10100000352E+00 0. -1.
       -3    1    3    3    0  502  0.56059878341E+03  0.71830405639E+03 -0.44517834110E+03  0.10141082186E+04  0.10100000352E+00 0.  1.
</event>
<event>
 5   0  0.1635086E-06  0.3002966E+04  0.7818609E-02  0.8242884E-01
        2   -1    0    0  501    0  0.00000000000E+00  0.00000000000E+00  0.14838423769E+04  0.14838423769E+04  0.25500000920E-02 0.  1.
       -2   -1    0    0    0  501  0.00000000000E+00  0.00000000000E+00 -0.15193332887E+04  0.15193332887E+04  0.25500000920E-02 0. -1.
    10030    2    1    2    0    0  0.00000000000E+00  0.00000000000E+00 -0.35490911840E+02  0.30031756656E+04  0.30029659461E+04 0.  0.
        3    1    3    3  502    0  0.53293747402E+03  0.74484371126E+03 -0.12076338282E+04  0.15156496887E+04  0.10100000352E+00 0. -1.
       -3    1    3    3    0  502 -0.53293747402E+03 -0.74484371126E+03  0.11721429164E+04  0.14875259769E+04  0.10100000352E+00 0.  1.
</event>
<event>
 5   0  0.5916703E-07  0.3000085E+04  0.7818609E-02  0.8243707E-01
        1   -1    0    0  501    0  0.00000000000E+00  0.00000000000E+00  0.18385630519E+04  0.18385630520E+04  0.50400001928E-02 0. -1.
       -1   -1    0    0    0  501  0.00000000000E+00  0.00000000000E+00 -0.12238513617E+04  0.12238513617E+04  0.50400001928E-02 0.  1.
    10030    2    1    2    0    0  0.00000000000E+00  0.00000000000E+00  0.61471169026E+03  0.30624144136E+04  0.30000852619E+04 0.  0.
        5    1    3    3  502    0  0.85049767984E+03 -0.12109079849E+04  0.56358403444E+02  0.14808250440E+04  0.46999998093E+01 0.  1.
       -5    1    3    3    0  502 -0.85049767984E+03  0.12109079849E+04  0.55835328682E+03  0.15815893697E+04  0.46999998093E+01 0. -1.
</event>
<event>
 5   0  0.5874741E-07  0.3000650E+04  0.7818609E-02  0.8243545E-01
       -1   -1    0    0    0  501  0.00000000000E+00  0.00000000000E+00  0.12186285787E+04  0.12186285787E+04  0.50400001928E-02 0. -1.
        1   -1    0    0  501    0  0.00000000000E+00  0.00000000000E+00 -0.18471380652E+04  0.18471380653E+04  0.50400001928E-02 0.  1.
    10030    2    1    2    0    0  0.00000000000E+00  0.00000000000E+00 -0.62850948658E+03  0.30657666439E+04  0.30006500863E+04 0.  0.
        4    1    3    3  502    0 -0.14724958521E+04 -0.25959073424E+03 -0.44080647827E+03  0.15588275556E+04  0.12699999809E+01 0.  1.
       -4    1    3    3    0  502  0.14724958521E+04  0.25959073424E+03 -0.18770300831E+03  0.15069390884E+04  0.12699999809E+01 0. -1.
</event>
<event>
 5   0  0.1625212E-06  0.2999872E+04  0.7818609E-02  0.8243767E-01
       -2   -1    0    0    0  501  0.00000000000E+00  0.00000000000E+00  0.14749917735E+04  0.14749917735E+04  0.25500000920E-02 0. -1.
        2   -1    0    0  501    0  0.00000000000E+00  0.00000000000E+00 -0.15253023311E+04  0.15253023311E+04  0.25500000920E-02 0.  1.
    10030    2    1    2    0    0  0.00000000000E+00  0.00000000000E+00 -0.50310557560E+02  0.30002941046E+04  0.29998722576E+04 0.  0.
        4    1    3    3  502    0  0.96987333727E+03  0.11427749425E+04  0.31579393994E+02  0.14991956946E+04  0.12699999809E+01 0. -1.
       -4    1    3    3    0  502 -0.96987333727E+03 -0.11427749425E+04 -0.81889951555E+02  0.15010984100E+04  0.12699999809E+01 0.  1.
</event>
<event>
 5   0  0.1723916E-06  0.2991046E+04  0.7818609E-02  0.8246292E-01
       -2   -1    0    0    0  501  0.00000000000E+00  0.00000000000E+00  0.11134964695E+04  0.11134964695E+04  0.25500000920E-02 0. -1.
        2   -1    0    0  501    0  0.00000000000E+00  0.00000000000E+00 -0.20086184087E+04  0.20086184087E+04  0.25500000920E-02 0.  1.
    10030    2    1    2    0    0  0.00000000000E+00  0.00000000000E+00 -0.89512193918E+03  0.31221148782E+04  0.29910463097E+04 0.  0.
        1    1    3    3  502    0  0.96876087124E+03 -0.10870778264E+04 -0.80361491651E+03  0.16631394290E+04  0.50400001928E-02 0. -1.
       -1    1    3    3    0  502 -0.96876087124E+03  0.10870778264E+04 -0.91507022672E+02  0.14589754492E+04  0.50400001928E-02 0.  1.
</event>
<event>
 5   0  0.5931588E-07  0.3004494E+04  0.7818609E-02  0.8242449E-01
        1   -1    0    0  501    0  0.00000000000E+00  0.00000000000E+00  0.19283658090E+04  0.19283658090E+04  0.50400001928E-02 0. -1.
       -1   -1    0    0    0  501  0.00000000000E+00  0.00000000000E+00 -0.11702895949E+04  0.11702895949E+04  0.50400001928E-02 0.  1.
    10030    2    1    2    0    0  0.00000000000E+00  0.00000000000E+00  0.75807621409E+03  0.30986554039E+04  0.30044942613E+04 0.  0.
        2    1    3    3  502    0 -0.24093082980E+03  0.14485660730E+03 -0.11429191582E+04  0.11769856854E+04  0.25500000920E-02 0.  1.
       -2    1    3    3    0  502  0.24093082980E+03 -0.14485660730E+03  0.19009953723E+04  0.19216697185E+04  0.25500000920E-02 0. -1.
</event>
<event>
 5   0  0.1674806E-06  0.2892106E+04  0.7818609E-02  0.8275230E-01
        2   -1    0    0  501    0  0.00000000000E+00  0.00000000000E+00  0.17478771330E+04  0.17478771330E+04  0.25500000920E-02 0.  1.
       -2   -1    0    0    0  501  0.00000000000E+00  0.00000000000E+00 -0.11963478022E+04  0.11963478022E+04  0.25500000920E-02 0. -1.
    10030    2    1    2    0    0  0.00000000000E+00  0.00000000000E+00  0.55152933080E+03  0.29442249352E+04  0.28921057841E+04 0.  0.
        2    1    3    3  502    0 -0.97190515127E+03  0.69386785973E+03 -0.55441692826E+03  0.13165980253E+04  0.25500000920E-02 0. -1.
       -2    1    3    3    0  502  0.97190515127E+03 -0.69386785973E+03  0.11059462591E+04  0.16276269099E+04  0.25500000920E-02 0.  1.
</event>
<event>
 5   0  0.1723916E-06  0.3009589E+04  0.7818609E-02  0.8240998E-01
       -2   -1    0    0    0  501  0.00000000000E+00  0.00000000000E+00  0.10602607422E+04  0.10602607422E+04  0.25500000920E-02 0.  1.
        2   -1    0    0  501    0  0.00000000000E+00  0.00000000000E+00 -0.21357066471E+04  0.21357066471E+04  0.25500000920E-02 0. -1.
    10030    2    1    2    0    0  0.00000000000E+00  0.00000000000E+00 -0.10754459049E+04  0.31959673892E+04  0.30095886195E+04 0.  0.
        1    1    3    3  502    0  0.84326085555E+03  0.69103124036E+03 -0.16391596290E+04  0.19686181283E+04  0.50400001928E-02 0. -1.
       -1    1    3    3    0  502 -0.84326085555E+03 -0.69103124036E+03  0.56371372406E+03  0.12273492610E+04  0.50400001928E-02 0.  1.
</event>
<event>
 5   0  0.1635086E-06  0.3003010E+04  0.7818609E-02  0.8242872E-01
       -2   -1    0    0    0  501  0.00000000000E+00  0.00000000000E+00  0.24948685724E+04  0.24948685724E+04  0.25500000920E-02 0.  1.
        2   -1    0    0  501    0  0.00000000000E+00  0.00000000000E+00 -0.90366173671E+03  0.90366173671E+03  0.25500000920E-02 0. -1.
    10030    2    1    2    0    0  0.00000000000E+00  0.00000000000E+00  0.15912068357E+04  0.33985303091E+04  0.30030100013E+04 0.  0.
        3    1    3    3  502    0  0.63845102590E+03 -0.10831747060E+04 -0.13324556818E+03  0.12643739747E+04  0.10100000352E+00 0. -1.
       -3    1    3    3    0  502 -0.63845102590E+03  0.10831747060E+04  0.17244524039E+04  0.21341563344E+04  0.10100000352E+00 0.  1.
</event>
<event>
 5   0  0.1674806E-06  0.3029661E+04  0.7818609E-02  0.8235311E-01
        2   -1    0    0  501    0  0.00000000000E+00  0.00000000000E+00  0.14272989393E+04  0.14272989393E+04  0.25500000920E-02 0.  1.
       -2   -1    0    0    0  501  0.00000000000E+00  0.00000000000E+00 -0.16077302228E+04  0.16077302228E+04  0.25500000920E-02 0. -1.
    10030    2    1    2    0    0  0.00000000000E+00  0.00000000000E+00 -0.18043128349E+03  0.30350291621E+04  0.30296611307E+04 0.  0.
        2    1    3    3  502    0 -0.10063116349E+04 -0.61694117011E+03 -0.10413356757E+04  0.15740582909E+04  0.25500000920E-02 0. -1.
       -2    1    3    3    0  502  0.10063116349E+04  0.61694117011E+03  0.86090439217E+03  0.14609708712E+04  0.25500000920E-02 0.  1.
</event>
<event>
 5   0  0.5916703E-07  0.2982213E+04  0.7818609E-02  0.8248828E-01
        1   -1    0    0  501    0  0.00000000000E+00  0.00000000000E+00  0.18846294690E+04  0.18846294691E+04  0.50400001928E-02 0.  1.
       -1   -1    0    0    0  501  0.00000000000E+00  0.00000000000E+00 -0.11797539415E+04  0.11797539415E+04  0.50400001928E-02 0. -1.
    10030    2    1    2    0    0  0.00000000000E+00  0.00000000000E+00  0.70487552756E+03  0.30643834105E+04  0.29822133018E+04 0.  0.
        5    1    3    3  502    0  0.70649297839E+03 -0.12517954606E+04 -0.55039634822E+02  0.14384629488E+04  0.46999998093E+01 0. -1.
       -5    1    3    3    0  502 -0.70649297839E+03  0.12517954606E+04  0.75991516238E+03  0.16259204617E+04  0.46999998093E+01 0.  1.
</event>
<event>
 5   0  0.1625212E-06  0.2993197E+04  0.7818609E-02  0.8245676E-01
        2   -1    0    0  501    0  0.00000000000E+00  0.00000000000E+00  0.96719899775E+03  0.96719899776E+03  0.25500000920E-02 0. -1.
       -2   -1    0    0    0  501  0.00000000000E+00  0.00000000000E+00 -0.23157657913E+04  0.23157657913E+04  0.25500000920E-02 0.  1.
    10030    2    1    2    0    0  0.00000000000E+00  0.00000000000E+00 -0.13485667935E+04  0.32829647890E+04  0.29931965203E+04 0.  0.
        4    1    3    3  502    0 -0.49543203575E+03  0.11335470812E+04 -0.15980953559E+04  0.20209632028E+04  0.12699999809E+01 0.  1.
       -4    1    3    3    0  502  0.49543203575E+03 -0.11335470812E+04  0.24952856244E+03  0.12620015863E+04  0.12699999809E+01 0. -1.
</event>
<event>
 5   0  0.5887179E-07  0.2995186E+04  0.7818609E-02  0.8245107E-01
       -1   -1    0    0    0  501  0.00000000000E+00  0.00000000000E+00  0.16855259282E+04  0.16855259282E+04  0.50400001928E-02 0. -1.
        1   -1    0    0  501    0  0.00000000000E+00  0.00000000000E+00 -0.13306146376E+04  0.13306146376E+04  0.50400001928E-02 0.  1.
    10030    2    1    2    0    0  0.00000000000E+00  0.00000000000E+00  0.35491129066E+03  0.30161405658E+04  0.29951864530E+04 0.  0.
        3    1    3    3  502    0  0.14353900384E+04 -0.38125746510E+03 -0.16462711516E+02  0.14852517793E+04  0.10100000352E+00 0.  1.
       -3    1    3    3    0  502 -0.14353900384E+04  0.38125746510E+03  0.37137400218E+03  0.15308887865E+04  0.10100000352E+00 0. -1.
</event>
<event>
 5   0  0.5887179E-07  0.2825185E+04  0.7818609E-02  0.8295492E-01
        1   -1    0    0  501    0  0.00000000000E+00  0.00000000000E+00  0.17035220380E+04  0.17035220380E+04  0.50400001928E-02 0.  1.
       -1   -1    0    0    0  501  0.00000000000E+00  0.00000000000E+00 -0.11713486135E+04  0.11713486135E+04  0.50400001928E-02 0. -1.
    10030    2    1    2    0    0  0.00000000000E+00  0.00000000000E+00  0.53217342451E+03  0.28748706514E+04  0.28251854291E+04 0.  0.
        3    1    3    3  502    0 -0.11002365020E+04  0.63522985590E+03 -0.36233442641E+03  0.13211069513E+04  0.10100000352E+00 0. -1.
       -3    1    3    3    0  502  0.11002365020E+04 -0.63522985590E+03  0.89450785092E+03  0.15537637001E+04  0.10100000352E+00 0.  1.
</event>
<event>
 5   0  0.1635086E-06  0.3026119E+04  0.7818609E-02  0.8236312E-01
       -2   -1    0    0    0  501  0.00000000000E+00  0.00000000000E+00  0.13457522687E+04  0.13457522687E+04  0.25500000920E-02 0. -1.
        2   -1    0    0  501    0  0.00000000000E+00  0.00000000000E+00 -0.17011662563E+04  0.17011662563E+04  0.25500000920E-02 0.  1.
    10030    2    1    2    0    0  0.00000000000E+00  0.00000000000E+00 -0.35541398765E+03  0.30469185250E+04  0.30261185362E+04 0.  0.
        3    1    3    3  502    0 -0.13929641574E+04 -0.54546112787E+03 -0.40613939088E+03  0.15501052225E+04  0.10100000352E+00 0. -1.
       -3    1    3    3    0  502  0.13929641574E+04  0.54546112787E+03  0.50725403230E+02  0.14968133025E+04  0.10100000352E+00 0.  1.
</event>
<event>
 5   0  0.5431625E-07  0.2963883E+04  0.7818609E-02  0.8254120E-01
       -3   -1    0    0    0  501  0.00000000000E+00  0.00000000000E+00  0.14784248484E+04  0.14784248518E+04  0.10100000352E+00 0.  1.
        3   -1    0    0  501    0  0.00000000000E+00  0.00000000000E+00 -0.14854667175E+04  0.14854667210E+04  0.10100000352E+00 0. -1.
    10030    2    1    2    0    0  0.00000000000E+00  0.00000000000E+00 -0.70418691663E+01  0.29638915728E+04  0.29638832074E+04 0.  0.
        1    1    3    3  502    0  0.69424241692E+03 -0.10835990736E+04  0.73132223183E+03  0.14801998826E+04  0.50400001928E-02 0.  1.
       -1    1    3    3    0  502 -0.69424241692E+03  0.10835990736E+04 -0.73836410100E+03  0.14836916902E+04  0.50400001928E-02 0. -1.
</event>
<event>
 5   0  0.5887179E-07  0.2946299E+04  0.7818609E-02  0.8259234E-01
       -1   -1    0    0    0  501  0.00000000000E+00  0.00000000000E+00  0.13307377913E+04  0.13307377913E+04  0.50400001928E-02 0.  1.
        1   -1    0    0  501    0  0.00000000000E+00  0.00000000000E+00 -0.16308011963E+04  0.16308011963E+04  0.50400001928E-02 0. -1.
    10030    2    1    2    0    0  0.00000000000E+00  0.00000000000E+00 -0.30006340497E+03  0.29615389876E+04  0.29462985470E+04 0.  0.
        3    1    3    3  502    0 -0.40809062756E+03 -0.13175338309E+04 -0.67013979885E+03  0.15334668944E+04  0.10100000352E+00 0. -1.
       -3    1    3    3    0  502  0.40809062756E+03  0.13175338309E+04  0.37007639388E+03  0.14280720932E+04  0.10100000352E+00 0.  1.
</event>
<event>
 5   0  0.5874741E-07  0.3084388E+04  0.7818609E-02  0.8220036E-01
        1   -1    0    0  501    0  0.00000000000E+00  0.00000000000E+00  0.20253612843E+04  0.20253612843E+04  0.50400001928E-02 0. -1.
       -1   -1    0    0    0  501  0.00000000000E+00  0.00000000000E+00 -0.11742900955E+04  0.11742900956E+04  0.50400001928E-02 0.  1.
    10030    2    1    2    0    0  0.00000000000E+00  0.00000000000E+00  0.85107118872E+03  0.31996513798E+04  0.30843875866E+04 0.  0.
        4    1    3    3  502    0 -0.10368631086E+04  0.61858427170E+03 -0.56981462707E+03  0.13350737543E+04  0.12699999809E+01 0.  1.
       -4    1    3    3    0  502  0.10368631086E+04 -0.61858427170E+03  0.14208858158E+04  0.18645776255E+04  0.12699999809E+01 0. -1.
</event>
<event>
 5   0  0.5916703E-07  0.3033482E+04  0.7818609E-02  0.8234234E-01
        1   -1    0    0  501    0  0.00000000000E+00  0.00000000000E+00  0.15594380434E+04  0.15594380434E+04  0.50400001928E-02 0.  1.
       -1   -1    0    0    0  501  0.00000000000E+00  0.00000000000E+00 -0.14752131186E+04  0.14752131186E+04  0.50400001928E-02 0. -1.
    10030    2    1    2    0    0  0.00000000000E+00  0.00000000000E+00  0.84224924831E+02  0.30346511620E+04  0.30334821307E+04 0.  0.
        5    1    3    3  502    0  0.47173799461E+03 -0.13724249122E+04 -0.39895936039E+03  0.15050838968E+04  0.46999998093E+01 0. -1.
       -5    1    3    3    0  502 -0.47173799461E+03  0.13724249122E+04  0.48318428522E+03  0.15295672652E+04  0.46999998093E+01 0.  1.
</event>
<event>
 5   0  0.5874741E-07  0.2999974E+04  0.7818609E-02  0.8243738E-01
       -1   -1    0    0    0  501  0.00000000000E+00  0.00000000000E+00  0.13735305298E+04  0.13735305298E+04  0.50400001928E-02 0.  1.
        1   -1    0    0  501    0  0.00000000000E+00  0.00000000000E+00 -0.16380859769E+04  0.16380859769E+04  0.50400001928E-02 0. -1.
    10030    2    1    2    0    0  0.00000000000E+00  0.00000000000E+00 -0.26455544708E+03  0.30116165067E+04  0.29999740664E+04 0.  0.
        4    1    3    3  502    0 -0.21241044307E+03  0.67619878740E+03 -0.14593749770E+04  0.16223871094E+04  0.12699999809E+01 0. -1.
       -4    1    3    3    0  502  0.21241044307E+03 -0.67619878740E+03  0.11948195299E+04  0.13892293973E+04  0.12699999809E+01 0.  1.
</event>
<event>
 5   0  0.1635086E-06  0.3009618E+04  0.7818609E-02  0.8240990E-01
       -2   -1    0    0    0  501  0.00000000000E+00  0.00000000000E+00  0.17820572838E+04  0.17820572838E+04  0.25500000920E-02 0. -1.
        2   -1    0    0  501    0  0.00000000000E+00  0.00000000000E+00 -0.12706940331E+04  0.12706940331E+04  0.25500000920E-02 0.  1.
    10030    2    1    2    0    0  0.00000000000E+00  0.00000000000E+00  0.51136325075E+03  0.30527513169E+04  0.30096176216E+04 0.  0.
        3    1    3    3  502    0  0.22676610730E+03 -0.12497686635E+04  0.10741569870E+04  0.16634776291E+04  0.10100000352E+00 0. -1.
       -3    1    3    3    0  502 -0.22676610730E+03  0.12497686635E+04 -0.56279373629E+03  0.13892736877E+04  0.10100000352E+00 0.  1.
</event>
<event>
 5   0  0.6291798E-07  0.2993437E+04  0.7818609E-02  0.8245607E-01
        1   -1    0    0  501    0  0.00000000000E+00  0.00000000000E+00  0.26811607483E+04  0.26811607483E+04  0.50400001928E-02 0.  1.
       -1   -1    0    0    0  501  0.00000000000E+00  0.00000000000E+00 -0.83552099991E+03  0.83552099993E+03  0.50400001928E-02 0. -1.
    10030    2    1    2    0    0  0.00000000000E+00  0.00000000000E+00  0.18456397484E+04  0.35166817482E+04  0.29934368938E+04 0.  0.
        1    1    3    3  502    0  0.13922023262E+04  0.10711176297E+03  0.15559755578E+04  0.20906363106E+04  0.50400001928E-02 0.  1.
       -1    1    3    3    0  502 -0.13922023262E+04 -0.10711176297E+03  0.28966419059E+03  0.14260454376E+04  0.50400001928E-02 0. -1.
</event>
<event>
 5   0  0.1635086E-06  0.2998978E+04  0.7818609E-02  0.8244023E-01
       -2   -1    0    0    0  501  0.00000000000E+00  0.00000000000E+00  0.12464897877E+04  0.12464897877E+04  0.25500000920E-02 0. -1.
        2   -1    0    0  501    0  0.00000000000E+00  0.00000000000E+00 -0.18038391831E+04  0.18038391831E+04  0.25500000920E-02 0.  1.
    10030    2    1    2    0    0  0.00000000000E+00  0.00000000000E+00 -0.55734939540E+03  0.30503289708E+04  0.29989779062E+04 0.  0.
        3    1    3    3  502    0  0.12226320462E+04  0.73309280807E+03  0.19427422330E+03  0.14387482996E+04  0.10100000352E+00 0. -1.
       -3    1    3    3    0  502 -0.12226320462E+04 -0.73309280807E+03 -0.75162361870E+03  0.16115806712E+04  0.10100000352E+00 0.  1.
</event>
<event>
 5   0  0.1625212E-06  0.3000584E+04  0.7818609E-02  0.8243564E-01
        2   -1    0    0  501    0  0.00000000000E+00  0.00000000000E+00  0.22408716838E+04  0.22408716838E+04  0.25500000920E-02 0. -1.
       -2   -1    0    0    0  501  0.00000000000E+00  0.00000000000E+00 -0.10044647381E+04  0.10044647381E+04  0.25500000920E-02 0.  1.
    10030    2    1    2    0    0  0.00000000000E+00  0.00000000000E+00  0.12364069457E+04  0.32453364220E+04  0.30005843358E+04 0.  0.
        4    1    3    3  502    0 -0.10264272831E+04 -0.29249224729E+03  0.17586145286E+04  0.20571415496E+04  0.12699999809E+01 0.  1.
       -4    1    3    3    0  502  0.10264272831E+04  0.29249224729E+03 -0.52220758291E+03  0.11881948723E+04  0.12699999809E+01 0. -1.
</event>
<event>
 5   0  0.5874741E-07  0.2981740E+04  0.7818609E-02  0.8248964E-01
       -1   -1    0    0    0  501  0.00000000000E+00  0.00000000000E+00  0.16430595440E+04  0.16430595440E+04  0.50400001928E-02 0. -1.
        1   -1    0    0  501    0  0.00000000000E+00  0.00000000000E+00 -0.13527770459E+04  0.13527770459E+04  0.50400001928E-02 0.  1.
    10030    2    1    2    0    0  0.00000000000E+00  0.00000000000E+00  0.29028249810E+03  0.29958365899E+04  0.29817399190E+04 0.  0.
        4    1    3    3  502    0  0.72993180972E+03 -0.10420322390E+04  0.92602861513E+03  0.15735826139E+04  0.12699999809E+01 0. -1.
       -4    1    3    3    0  502 -0.72993180972E+03  0.10420322390E+04 -0.63574611703E+03  0.14222539760E+04  0.12699999809E+01 0.  1.
</event>
<event>
 5   0  0.6291798E-07  0.3000551E+04  0.7818609E-02  0.8243573E-01
       -1   -1    0    0    0  501  0.00000000000E+00  0.00000000000E+00  0.12562352834E+04  0.12562352834E+04  0.50400001928E-02 0. -1.
        1   -1    0    0  501    0  0.00000000000E+00  0.00000000000E+00 -0.17917240649E+04  0.17917240649E+04  0.50400001928E-02 0.  1.
    10030    2    1    2    0    0  0.00000000000E+00  0.00000000000E+00 -0.53548878144E+03  0.30479593483E+04  0.30005512750E+04 0.  0.
        1    1    3    3  502    0  0.12085630149E+03  0.33485032673E+03 -0.17481993136E+04  0.17840773041E+04  0.50400001928E-02 0.  1.
       -1    1    3    3    0  502 -0.12085630149E+03 -0.33485032673E+03  0.12127105321E+04  0.12638820442E+04  0.50400001928E-02 0. -1.
</event>
<event>
 5   0  0.1674806E-06  0.3008900E+04  0.7818609E-02  0.8241194E-01
       -2   -1    0    0    0  501  0.00000000000E+00  0.00000000000E+00  0.11598632468E+04  0.11598632468E+04  0.25500000920E-02 0.  1.
        2   -1    0    0  501    0  0.00000000000E+00  0.00000000000E+00 -0.19514109783E+04  0.19514109783E+04  0.25500000920E-02 0. -1.
    10030    2    1    2    0    0  0.00000000000E+00  0.00000000000E+00 -0.79154773154E+03  0.31112742251E+04  0.30089000469E+04 0.  0.
        2    1    3    3  502    0 -0.15302670973E+03  0.11541380769E+04  0.58949292077E+03  0.13049727116E+04  0.25500000920E-02 0.  1.
       -2    1    3    3    0  502  0.15302670973E+03 -0.11541380769E+04 -0.13810406523E+04  0.18063015135E+04  0.25500000920E-02 0. -1.
</event>
<event>
 5   0  0.1635086E-06  0.2994963E+04  0.7818609E-02  0.8245171E-01
        2   -1    0    0  501    0  0.00000000000E+00  0.00000000000E+00  0.24696721054E+04  0.24696721054E+04  0.25500000920E-02 0. -1.
       -2   -1    0    0    0  501  0.00000000000E+00  0.00000000000E+00 -0.90799547884E+03  0.90799547885E+03  0.25500000920E-02 0.  1.
    10030    2    1    2    0    0  0.00000000000E+00  0.00000000000E+00  0.15616766266E+04  0.33776675843E+04  0.29949631757E+04 0.  0.
        3    1    3    3  502    0 -0.21040372202E+03  0.14321738557E+04  0.12133240989E+04  0.18887951340E+04  0.10100000352E+00 0. -1.
       -3    1    3    3    0  502  0.21040372202E+03 -0.14321738557E+04  0.34835252772E+03  0.14888724502E+04  0.10100000352E+00 0.  1.
</event>
<event>
 5   0  0.5874741E-07  0.3009197E+04  0.7818609E-02  0.8241109E-01
       -1   -1    0    0    0  501  0.00000000000E+00  0.00000000000E+00  0.90841603561E+03  0.90841603562E+03  0.50400001928E-02 0. -1.
        1   -1    0    0  501    0  0.00000000000E+00  0.00000000000E+00 -0.24920486174E+04  0.24920486174E+04  0.50400001928E-02 0.  1.
    10030    2    1    2    0    0  0.00000000000E+00  0.00000000000E+00 -0.15836325818E+04  0.34004646530E+04  0.30091971857E+04 0.  0.
        4    1    3    3  502    0 -0.32209233147E+03  0.26519351647E+03  0.84174030828E+03  0.93946763151E+03  0.12699999809E+01 0. -1.
       -4    1    3    3    0  502  0.32209233147E+03 -0.26519351647E+03 -0.24253728901E+04  0.24609970215E+04  0.12699999809E+01 0.  1.
</event>
<event>
 5   0  0.5931588E-07  0.2991743E+04  0.7818609E-02  0.8246093E-01
       -1   -1    0    0    0  501  0.00000000000E+00  0.00000000000E+00  0.13772057150E+04  0.13772057150E+04  0.50400001928E-02 0.  1.
        1   -1    0    0  501    0  0.00000000000E+00  0.00000000000E+00 -0.16247622106E+04  0.16247622106E+04  0.50400001928E-02 0. -1.
    10030    2    1    2    0    0  0.00000000000E+00  0.00000000000E+00 -0.24755649558E+03  0.30019679257E+04  0.29917431722E+04 0.  0.
        2    1    3    3  502    0 -0.80168340602E+03 -0.12461989454E+04 -0.32923081759E+03  0.15179265550E+04  0.25500000920E-02 0.  1.
       -2    1    3    3    0  502  0.80168340602E+03  0.12461989454E+04  0.81674322011E+02  0.14840413707E+04  0.25500000920E-02 0. -1.
</event>
<event>
 5   0  0.6291798E-07  0.3001750E+04  0.7818609E-02  0.8243231E-01
       -1   -1    0    0    0  501  0.00000000000E+00  0.00000000000E+00  0.12804197157E+04  0.12804197157E+04  0.50400001928E-02 0. -1.
        1   -1    0    0  501    0  0.00000000000E+00  0.00000000000E+00 -0.17592869199E+04  0.17592869199E+04  0.50400001928E-02 0.  1.
    10030    2    1    2    0    0  0.00000000000E+00  0.00000000000E+00 -0.47886720420E+03  0.30397066356E+04  0.30017499282E+04 0.  0.
        1    1    3    3  502    0 -0.50113744675E+03  0.83209707805E+03  0.91919381533E+03  0.13373262721E+04  0.50400001928E-02 0. -1.
       -1    1    3    3    0  502  0.50113744675E+03 -0.83209707805E+03 -0.13980610195E+04  0.17023803635E+04  0.50400001928E-02 0.  1.
</event>
<event>
 5   0  0.1674806E-06  0.2986476E+04  0.7818609E-02  0.8247603E-01
        2   -1    0    0  501    0  0.00000000000E+00  0.00000000000E+00  0.19590880430E+04  0.19590880430E+04  0.25500000920E-02 0.  1.
       -2   -1    0    0    0  501  0.00000000000E+00  0.00000000000E+00 -0.11381624242E+04  0.11381624242E+04  0.25500000920E-02 0. -1.
    10030    2    1    2    0    0  0.00000000000E+00  0.00000000000E+00  0.82092561886E+03  0.30972504672E+04  0.29864764497E+04 0.  0.
        2    1    3    3  502    0  0.13915050917E+04  0.34027339873E+02  0.97117966634E+03  0.16972431247E+04  0.25500000920E-02 0.  1.
       -2    1    3    3    0  502 -0.13915050917E+04 -0.34027339873E+02 -0.15025404749E+03  0.14000073424E+04  0.25500000920E-02 0. -1.
</event>
<event>
 5   0  0.5916703E-07  0.2961200E+04  0.7818609E-02  0.8254898E-01
        1   -1    0    0  501    0  0.00000000000E+00  0.00000000000E+00  0.12405115947E+04  0.12405115947E+04  0.50400001928E-02 0.  1.
       -1   -1    0    0    0  501  0.00000000000E+00  0.00000000000E+00 -0.17671545819E+04  0.17671545819E+04  0.50400001928E-02 0. -1.
    10030    2    1    2    0    0  0.00000000000E+00  0.00000000000E+00 -0.52664298718E+03  0.30076661767E+04  0.29611995870E+04 0.  0.
        5    1    3    3  502    0  0.90211410786E+03 -0.57053226928E+03  0.77885785826E+03  0.13213472622E+04  0.46999998093E+01 0.  1.
       -5    1    3    3    0  502 -0.90211410786E+03  0.57053226928E+03 -0.13055008454E+04  0.16863189145E+04  0.46999998093E+01 0. -1.
</event>
<event>
 5   0  0.5887179E-07  0.2992743E+04  0.7818609E-02  0.8245806E-01
        1   -1    0    0  501    0  0.00000000000E+00  0.00000000000E+00  0.22498764757E+04  0.22498764757E+04  0.50400001928E-02 0. -1.
       -1   -1    0    0    0  501  0.00000000000E+00  0.00000000000E+00 -0.99522269921E+03  0.99522269922E+03  0.50400001928E-02 0.  1.
    10030    2    1    2    0    0  0.00000000000E+00  0.00000000000E+00  0.12546537764E+04  0.32450991749E+04  0.29927433161E+04 0.  0.
        3    1    3    3  502    0 -0.66778593185E+03 -0.71779139054E+03 -0.59846879031E+03  0.11486197954E+04  0.10100000352E+00 0.  1.
       -3    1    3    3    0  502  0.66778593185E+03  0.71779139054E+03  0.18531225668E+04  0.20964793795E+04  0.10100000352E+00 0. -1.
</event>
<event>
 5   0  0.1635086E-06  0.2964988E+04  0.7818609E-02  0.8253800E-01
        2   -1    0    0  501    0  0.00000000000E+00  0.00000000000E+00  0.15669708645E+04  0.15669708645E+04  0.25500000920E-02 0. -1.
       -2   -1    0    0    0  501  0.00000000000E+00  0.00000000000E+00 -0.14025712620E+04  0.14025712620E+04  0.25500000920E-02 0.  1.
    10030    2    1    2    0    0  0.00000000000E+00  0.00000000000E+00  0.16439960242E+03  0.29695421265E+04  0.29649878940E+04 0.  0.
        3    1    3    3  502    0  0.87219816336E+03  0.10874288124E+04  0.58751142469E+03  0.15127460932E+04  0.10100000352E+00 0. -1.
       -3    1    3    3    0  502 -0.87219816336E+03 -0.10874288124E+04 -0.42311182227E+03  0.14567960333E+04  0.10100000352E+00 0.  1.
</event>
<event>
 5   0  0.1635086E-06  0.2990321E+04  0.7818609E-02  0.8246500E-01
        2   -1    0    0  501    0  0.00000000000E+00  0.00000000000E+00  0.26443941658E+04  0.26443941658E+04  0.25500000920E-02 0.  1.
       -2   -1    0    0    0  501  0.00000000000E+00  0.00000000000E+00 -0.84537533273E+03  0.84537533273E+03  0.25500000920E-02 0. -1.
    10030    2    1    2    0    0  0.00000000000E+00  0.00000000000E+00  0.17990188331E+04  0.34897694985E+04  0.29903214528E+04 0.  0.
        3    1    3    3  502    0  0.21921590790E+03 -0.13096447028E+04  0.17015179273E+04  0.21583299398E+04  0.10100000352E+00 0.  1.
       -3    1    3    3    0  502 -0.21921590790E+03  0.13096447028E+04  0.97500905751E+02  0.13314395587E+04  0.10100000352E+00 0. -1.
</event>
<event>
 5   0  0.6291798E-07  0.3001215E+04  0.7818609E-02  0.8243384E-01
        1   -1    0    0  501    0  0.00000000000E+00  0.00000000000E+00  0.23226440808E+04  0.23226440808E+04  0.50400001928E-02 0. -1.
       -1   -1    0    0    0  501  0.00000000000E+00  0.00000000000E+00 -0.96950810912E+03  0.96950810913E+03  0.50400001928E-02 0.  1.
    10030    2    1    2    0    0  0.00000000000E+00  0.00000000000E+00  0.13531359717E+04  0.32921521900E+04  0.30012146014E+04 0.  0.
        1    1    3    3  502    0 -0.48565198040E+03 -0.12630089315E+04  0.13881201025E+04  0.19385372903E+04  0.50400001928E-02 0.  1.
       -1    1    3    3    0  502  0.48565198040E+03  0.12630089315E+04 -0.34984130788E+02  0.13536148996E+04  0.50400001928E-02 0. -1.
</event>
<event>
 5   0  0.1723916E-06  0.2908435E+04  0.7818609E-02  0.8270372E-01
        2   -1    0    0  501    0  0.00000000000E+00  0.00000000000E+00  0.26216277947E+04  0.26216277947E+04  0.25500000920E-02 0. -1.
       -2   -1    0    0    0  501  0.00000000000E+00  0.00000000000E+00 -0.80665475878E+03  0.80665475878E+03  0.25500000920E-02 0.  1.
    10030    2    1    2    0    0  0.00000000000E+00  0.00000000000E+00  0.18149730359E+04  0.34282825535E+04  0.29084349994E+04 0.  0.
        1    1    3    3  502    0  0.73682490372E+03  0.11907617460E+04  0.44503042665E+03  0.14693115922E+04  0.50400001928E-02 0.  1.
       -1    1    3    3    0  502 -0.73682490372E+03 -0.11907617460E+04  0.13699426093E+04  0.19589709613E+04  0.50400001928E-02 0. -1.
</event>
<event>
 5   0  0.5931588E-07  0.2986164E+04  0.7818609E-02  0.8247693E-01
        1   -1    0    0  501    0  0.00000000000E+00  0.00000000000E+00  0.21290194435E+04  0.21290194435E+04  0.50400001928E-02 0. -1.
       -1   -1    0    0    0  501  0.00000000000E+00  0.00000000000E+00 -0.10470987293E+04  0.10470987293E+04  0.50400001928E-02 0.  1.
    10030    2    1    2    0    0  0.00000000000E+00  0.00000000000E+00  0.10819207142E+04  0.31761181729E+04  0.29861637959E+04 0.  0.
        2    1    3    3  502    0  0.11035246817E+04 -0.52322920577E+03 -0.37260579248E+03  0.12768596640E+04  0.25500000920E-02 0.  1.
       -2    1    3    3    0  502 -0.11035246817E+04  0.52322920577E+03  0.14545265067E+04  0.18992585089E+04  0.25500000920E-02 0. -1.
</event>
<event>
 5   0  0.6291798E-07  0.2968556E+04  0.7818609E-02  0.8252767E-01
        1   -1    0    0  501    0  0.00000000000E+00  0.00000000000E+00  0.23532900986E+04  0.23532900986E+04  0.50400001928E-02 0.  1.
       -1   -1    0    0    0  501  0.00000000000E+00  0.00000000000E+00 -0.93617039984E+03  0.93617039985E+03  0.50400001928E-02 0. -1.
    10030    2    1    2    0    0  0.00000000000E+00  0.00000000000E+00  0.14171196987E+04  0.32894604984E+04  0.29685555629E+04 0.  0.
        1    1    3    3  502    0  0.13348375785E+03 -0.12852028899E+04  0.15179413595E+04  0.19934167534E+04  0.50400001928E-02 0.  1.
       -1    1    3    3    0  502 -0.13348375785E+03  0.12852028899E+04 -0.10082166071E+03  0.12960437451E+04  0.50400001928E-02 0. -1.
</event>
<event>
 5   0  0.5431625E-07  0.2999414E+04  0.7818609E-02  0.8243898E-01
        4   -1    0    0  501    0  0.00000000000E+00  0.00000000000E+00  0.17594062452E+04  0.17594067036E+04  0.12699999809E+01 0. -1.
       -4   -1    0    0    0  501  0.00000000000E+00  0.00000000000E+00 -0.12783400181E+04  0.12783406490E+04  0.12699999809E+01 0.  1.
    10030    2    1    2    0    0  0.00000000000E+00  0.00000000000E+00  0.48106622711E+03  0.30377473526E+04  0.29994139866E+04 0.  0.
        4    1    3    3  502    0  0.32882010130E+03  0.14525241921E+04  0.41934051358E+03  0.15471901198E+04  0.12699999809E+01 0.  1.
       -4    1    3    3    0  502 -0.32882010130E+03 -0.14525241921E+04  0.61725713530E+02  0.14905572328E+04  0.12699999809E+01 0. -1.
</event>
<event>
 5   0  0.1723916E-06  0.3001920E+04  0.7818609E-02  0.8243183E-01
        2   -1    0    0  501    0  0.00000000000E+00  0.00000000000E+00  0.17437993888E+04  0.17437993888E+04  0.25500000920E-02 0.  1.
       -2   -1    0    0    0  501  0.00000000000E+00  0.00000000000E+00 -0.12919378780E+04  0.12919378780E+04  0.25500000920E-02 0. -1.
    10030    2    1    2    0    0  0.00000000000E+00  0.00000000000E+00  0.45186151088E+03  0.30357372668E+04  0.30019197071E+04 0.  0.
        1    1    3    3  502    0  0.23938678475E+03  0.22424584788E+03  0.17071110892E+04  0.17383384319E+04  0.50400001928E-02 0.  1.
       -1    1    3    3    0  502 -0.23938678475E+03 -0.22424584788E+03 -0.12552495783E+04  0.12973988349E+04  0.50400001928E-02 0. -1.
</event>
<event>
 5   0  0.5874741E-07  0.2987009E+04  0.7818609E-02  0.8247450E-01
        1   -1    0    0  501    0  0.00000000000E+00  0.00000000000E+00  0.21900284173E+04  0.21900284173E+04  0.50400001928E-02 0.  1.
       -1   -1    0    0    0  501  0.00000000000E+00  0.00000000000E+00 -0.10185053226E+04  0.10185053226E+04  0.50400001928E-02 0. -1.
    10030    2    1    2    0    0  0.00000000000E+00  0.00000000000E+00  0.11715230947E+04  0.32085337399E+04  0.29870089385E+04 0.  0.
        4    1    3    3  502    0 -0.79100999961E+03 -0.36561822695E+03  0.18886374906E+04  0.20799823776E+04  0.12699999809E+01 0.  1.
       -4    1    3    3    0  502  0.79100999961E+03  0.36561822695E+03 -0.71711439598E+03  0.11285513622E+04  0.12699999809E+01 0. -1.
</event>
<event>
 5   0  0.5931588E-07  0.2989924E+04  0.7818609E-02  0.8246614E-01
        1   -1    0    0  501    0  0.00000000000E+00  0.00000000000E+00  0.13609268794E+04  0.13609268794E+04  0.50400001928E-02 0. -1.
       -1   -1    0    0    0  501  0.00000000000E+00  0.00000000000E+00 -0.16421985275E+04  0.16421985275E+04  0.50400001928E-02 0.  1.
    10030    2    1    2    0    0  0.00000000000E+00  0.00000000000E+00 -0.28127164816E+03  0.30031254069E+04  0.29899244923E+04 0.  0.
        2    1    3    3  502    0  0.10484086547E+04  0.10551147569E+04 -0.29124538630E+03  0.15156687410E+04  0.25500000920E-02 0.  1.
       -2    1    3    3    0  502 -0.10484086547E+04 -0.10551147569E+04  0.99737381438E+01  0.14874566659E+04  0.25500000920E-02 0. -1.
</event>
<event>
 5   0  0.1674806E-06  0.2997900E+04  0.7818609E-02  0.8244331E-01
       -2   -1    0    0    0  501  0.00000000000E+00  0.00000000000E+00  0.82665245866E+03  0.82665245866E+03  0.25500000920E-02 0.  1.
        2   -1    0    0  501    0  0.00000000000E+00  0.00000000000E+00 -0.27180116586E+04  0.27180116586E+04  0.25500000920E-02 0. -1.
    10030    2    1    2    0    0  0.00000000000E+00  0.00000000000E+00 -0.18913591999E+04  0.35446641173E+04  0.29978999451E+04 0.  0.
        2    1    3    3  502    0 -0.48343739398E+03  0.14179899347E+04 -0.10041310585E+04  0.18035205437E+04  0.25500000920E-02 0. -1.
       -2    1    3    3    0  502  0.48343739398E+03 -0.14179899347E+04 -0.88722814139E+03  0.17411435735E+04  0.25500000920E-02 0.  1.
</event>
<event>
 5   0  0.5887179E-07  0.3023567E+04  0.7818609E-02  0.8237033E-01
        1   -1    0    0  501    0  0.00000000000E+00  0.00000000000E+00  0.31190818230E+04  0.31190818231E+04  0.50400001928E-02 0. -1.
       -1   -1    0    0    0  501  0.00000000000E+00  0.00000000000E+00 -0.73274406565E+03  0.73274406566E+03  0.50400001928E-02 0.  1.
    10030    2    1    2    0    0  0.00000000000E+00  0.00000000000E+00  0.23863377574E+04  0.38518258887E+04  0.30235665669E+04 0.  0.
        3    1    3    3  502    0 -0.31240053559E+03 -0.13768838109E+04  0.18816660477E+04  0.23524604669E+04  0.10100000352E+00 0. -1.
       -3    1    3    3    0  502  0.31240053559E+03  0.13768838109E+04  0.50467170973E+03  0.14993654218E+04  0.10100000352E+00 0.  1.
</event>
<event>
 5   0  0.1560174E-06  0.2994894E+04  0.7818609E-02  0.8245190E-01
        2   -1    0    0  501    0  0.00000000000E+00  0.00000000000E+00  0.17875223601E+04  0.17875223601E+04  0.25500000920E-02 0. -1.
       -2   -1    0    0    0  501  0.00000000000E+00  0.00000000000E+00 -0.12544444799E+04  0.12544444799E+04  0.25500000920E-02 0.  1.
    10030    2    1    2    0    0  0.00000000000E+00  0.00000000000E+00  0.53307788022E+03  0.30419668400E+04  0.29948940264E+04 0.  0.
        5    1    3    3  502    0 -0.33306776823E+03 -0.12059851576E+04 -0.56918819773E+03  0.13745296043E+04  0.46999998093E+01 0. -1.
       -5    1    3    3    0  502  0.33306776823E+03  0.12059851576E+04  0.11022660780E+04  0.16674372358E+04  0.46999998093E+01 0.  1.
</event>
<event>
 5   0  0.5887179E-07  0.2995532E+04  0.7818609E-02  0.8245008E-01
        1   -1    0    0  501    0  0.00000000000E+00  0.00000000000E+00  0.14193949092E+04  0.14193949092E+04  0.50400001928E-02 0. -1.
       -1   -1    0    0    0  501  0.00000000000E+00  0.00000000000E+00 -0.15804644588E+04  0.15804644588E+04  0.50400001928E-02 0.  1.
    10030    2    1    2    0    0  0.00000000000E+00  0.00000000000E+00 -0.16106954958E+03  0.29998593680E+04  0.29955321444E+04 0.  0.
        3    1    3    3  502    0  0.10056752717E+04 -0.76005534629E+03  0.72948241433E+03  0.14564379440E+04  0.10100000352E+00 0. -1.
       -3    1    3    3    0  502 -0.10056752717E+04  0.76005534629E+03 -0.89055196391E+03  0.15434214240E+04  0.10100000352E+00 0.  1.
</event>
<event>
 5   0  0.1674806E-06  0.3001850E+04  0.7818609E-02  0.8243203E-01
       -2   -1    0    0    0  501  0.00000000000E+00  0.00000000000E+00  0.92376213424E+03  0.92376213424E+03  0.25500000920E-02 0.  1.
        2   -1    0    0  501    0  0.00000000000E+00  0.00000000000E+00 -0.24386976383E+04  0.24386976383E+04  0.25500000920E-02 0. -1.
    10030    2    1    2    0    0  0.00000000000E+00  0.00000000000E+00 -0.15149355041E+04  0.33624597726E+04  0.30018504527E+04 0.  0.
        2    1    3    3  502    0  0.36985352549E+03  0.13523509765E+04 -0.13576852429E+04  0.19516541734E+04  0.25500000920E-02 0. -1.
       -2    1    3    3    0  502 -0.36985352549E+03 -0.13523509765E+04 -0.15725026123E+03  0.14108055991E+04  0.25500000920E-02 0.  1.
</event>
<event>
 5   0  0.1674806E-06  0.2995135E+04  0.7818609E-02  0.8245122E-01
       -2   -1    0    0    0  501  0.00000000000E+00  0.00000000000E+00  0.11868330333E+04  0.11868330333E+04  0.25500000920E-02 0.  1.
        2   -1    0    0  501    0  0.00000000000E+00  0.00000000000E+00 -0.18896576275E+04  0.18896576275E+04  0.25500000920E-02 0. -1.
    10030    2    1    2    0    0  0.00000000000E+00  0.00000000000E+00 -0.70282459425E+03  0.30764906608E+04  0.29951347842E+04 0.  0.
        2    1    3    3  502    0  0.99619064105E+03 -0.89450013056E+03  0.33776855870E+03  0.13808018961E+04  0.25500000920E-02 0.  1.
       -2    1    3    3    0  502 -0.99619064105E+03  0.89450013056E+03 -0.10405931530E+04  0.16956887647E+04  0.25500000920E-02 0. -1.
</event>
<event>
 5   0  0.6291798E-07  0.2999428E+04  0.7818609E-02  0.8243894E-01
       -1   -1    0    0    0  501  0.00000000000E+00  0.00000000000E+00  0.78037851815E+03  0.78037851816E+03  0.50400001928E-02 0.  1.
        1   -1    0    0  501    0  0.00000000000E+00  0.00000000000E+00 -0.28821168654E+04  0.28821168654E+04  0.50400001928E-02 0. -1.
    10030    2    1    2    0    0  0.00000000000E+00  0.00000000000E+00 -0.21017383472E+04  0.36624953835E+04  0.29994280045E+04 0.  0.
        1    1    3    3  502    0 -0.40302165932E+03 -0.11563165191E+04 -0.21080937773E+04  0.24379404678E+04  0.50400001928E-02 0. -1.
       -1    1    3    3    0  502  0.40302165932E+03  0.11563165191E+04  0.63554301273E+01  0.12245549158E+04  0.50400001928E-02 0.  1.
</event>
<event>
 5   0  0.1635086E-06  0.3001146E+04  0.7818609E-02  0.8243404E-01
       -2   -1    0    0    0  501  0.00000000000E+00  0.00000000000E+00  0.14800166407E+04  0.14800166407E+04  0.25500000920E-02 0. -1.
        2   -1    0    0  501    0  0.00000000000E+00  0.00000000000E+00 -0.15214145758E+04  0.15214145758E+04  0.25500000920E-02 0.  1.
    10030    2    1    2    0    0  0.00000000000E+00  0.00000000000E+00 -0.41397935156E+02  0.30014312165E+04  0.30011457076E+04 0.  0.
        3    1    3    3  502    0 -0.14140004906E+04  0.39221129513E+03 -0.33456284351E+03  0.15050446484E+04  0.10100000352E+00 0.  1.
       -3    1    3    3    0  502  0.14140004906E+04 -0.39221129513E+03  0.29316490836E+03  0.14963865680E+04  0.10100000352E+00 0. -1.
</event>
<event>
 5   0  0.1674806E-06  0.2996391E+04  0.7818609E-02  0.8244762E-01
        2   -1    0    0  501    0  0.00000000000E+00  0.00000000000E+00  0.13931134328E+04  0.13931134328E+04  0.25500000920E-02 0. -1.
       -2   -1    0    0    0  501  0.00000000000E+00  0.00000000000E+00 -0.16112038095E+04  0.16112038095E+04  0.25500000920E-02 0.  1.
    10030    2    1    2    0    0  0.00000000000E+00  0.00000000000E+00 -0.21809037672E+03  0.30043172423E+04  0.29963909424E+04 0.  0.
        2    1    3    3  502    0 -0.58937970062E+03 -0.12489046042E+04 -0.69149367147E+03  0.15444399113E+04  0.25500000920E-02 0.  1.
       -2    1    3    3    0  502  0.58937970062E+03  0.12489046042E+04  0.47340329475E+03  0.14598773309E+04  0.25500000920E-02 0. -1.
</event>
<event>
 5   0  0.5887179E-07  0.3001701E+04  0.7818609E-02  0.8243245E-01
       -1   -1    0    0    0  501  0.00000000000E+00  0.00000000000E+00  0.15361868542E+04  0.15361868542E+04  0.50400001928E-02 0. -1.
        1   -1    0    0  501    0  0.00000000000E+00  0.00000000000E+00 -0.14663273432E+04  0.14663273432E+04  0.50400001928E-02 0.  1.
    10030    2    1    2    0    0  0.00000000000E+00  0.00000000000E+00  0.69859511065E+02  0.30025141974E+04  0.30017013766E+04 0.  0.
        3    1    3    3  502    0 -0.22440198485E+03  0.14816317641E+04  0.11840199697E+03  0.15031992477E+04  0.10100000352E+00 0.  1.
       -3    1    3    3    0  502  0.22440198485E+03 -0.14816317641E+04 -0.48542485906E+02  0.14993149497E+04  0.10100000352E+00 0. -1.
</event>
<event>
 5   0  0.5887179E-07  0.2997266E+04  0.7818609E-02  0.8244512E-01
        1   -1    0    0  501    0  0.00000000000E+00  0.00000000000E+00  0.10141879057E+04  0.10141879057E+04  0.50400001928E-02 0. -1.
       -1   -1    0    0    0  501  0.00000000000E+00  0.00000000000E+00 -0.22144815907E+04  0.22144815907E+04  0.50400001928E-02 0.  1.
    10030    2    1    2    0    0  0.00000000000E+00  0.00000000000E+00 -0.12002936850E+04  0.32286694964E+04  0.29972657184E+04 0.  0.
        3    1    3    3  502    0 -0.68370772323E+03  0.13774187330E+03  0.82871239030E+03  0.10831404851E+04  0.10100000352E+00 0. -1.
       -3    1    3    3    0  502  0.68370772323E+03 -0.13774187330E+03 -0.20290060753E+04  0.21455290113E+04  0.10100000352E+00 0.  1.
</event>
<event>
 5   0  0.5874741E-07  0.3041193E+04  0.7818609E-02  0.8232065E-01
        1   -1    0    0  501    0  0.00000000000E+00  0.00000000000E+00  0.22798422587E+04  0.22798422587E+04  0.50400001928E-02 0.  1.
       -1   -1    0    0    0  501  0.00000000000E+00  0.00000000000E+00 -0.10141991277E+04  0.10141991277E+04  0.50400001928E-02 0. -1.
    10030    2    1    2    0    0  0.00000000000E+00  0.00000000000E+00  0.12656431310E+04  0.32940413864E+04  0.30411932066E+04 0.  0.
        4    1    3    3  502    0  0.61047153080E+03  0.11776898095E+04 -0.17234188253E+03  0.13376591923E+04  0.12699999809E+01 0. -1.
       -4    1    3    3    0  502 -0.61047153080E+03 -0.11776898095E+04  0.14379850136E+04  0.19563821941E+04  0.12699999809E+01 0.  1.
</event>
<event>
 5   0  0.1635086E-06  0.2990495E+04  0.7818609E-02  0.8246450E-01
        2   -1    0    0  501    0  0.00000000000E+00  0.00000000000E+00  0.13243989135E+04  0.13243989135E+04  0.25500000920E-02 0. -1.
       -2   -1    0    0    0  501  0.00000000000E+00  0.00000000000E+00 -0.16881358577E+04  0.16881358577E+04  0.25500000920E-02 0.  1.
    10030    2    1    2    0    0  0.00000000000E+00  0.00000000000E+00 -0.36373694414E+03  0.30125347712E+04  0.29904951401E+04 0.  0.
        3    1    3    3  502    0  0.22645348583E+03  0.14287656724E+04 -0.56295898973E+03  0.15522806969E+04  0.10100000352E+00 0.  1.
       -3    1    3    3    0  502 -0.22645348583E+03 -0.14287656724E+04  0.19922204559E+03  0.14602540743E+04  0.10100000352E+00 0. -1.
</event>
<event>
 5   0  0.1674806E-06  0.3001590E+04  0.7818609E-02  0.8243277E-01
        2   -1    0    0  501    0  0.00000000000E+00  0.00000000000E+00  0.24187773498E+04  0.24187773498E+04  0.25500000920E-02 0.  1.
       -2   -1    0    0    0  501  0.00000000000E+00  0.00000000000E+00 -0.93120815037E+03  0.93120815037E+03  0.25500000920E-02 0. -1.
    10030    2    1    2    0    0  0.00000000000E+00  0.00000000000E+00  0.14875691994E+04  0.33499855002E+04  0.30015897002E+04 0.  0.
        2    1    3    3  502    0 -0.97602219090E+03 -0.10956152182E+04  0.10956445580E+04  0.18312370193E+04  0.25500000920E-02 0.  1.
       -2    1    3    3    0  502  0.97602219090E+03  0.10956152182E+04  0.39192464143E+03  0.15187484808E+04  0.25500000920E-02 0. -1.
</event>
<event>
 5   0  0.1625212E-06  0.3003349E+04  0.7818609E-02  0.8242775E-01
       -2   -1    0    0    0  501  0.00000000000E+00  0.00000000000E+00  0.10290602594E+04  0.10290602594E+04  0.25500000920E-02 0. -1.
        2   -1    0    0  501    0  0.00000000000E+00  0.00000000000E+00 -0.21913454426E+04  0.21913454426E+04  0.25500000920E-02 0.  1.
    10030    2    1    2    0    0  0.00000000000E+00  0.00000000000E+00 -0.11622851832E+04  0.32204057021E+04  0.30033491370E+04 0.  0.
        4    1    3    3  502    0  0.61453937236E+03 -0.13652184596E+04 -0.45634928546E+03  0.15651633671E+04  0.12699999809E+01 0. -1.
       -4    1    3    3    0  502 -0.61453937236E+03  0.13652184596E+04 -0.70593589778E+03  0.16552423349E+04  0.12699999809E+01 0.  1.
</event>
<event>
 5   0  0.5931588E-07  0.2997034E+04  0.7818609E-02  0.8244578E-01
        1   -1    0    0  501    0  0.00000000000E+00  0.00000000000E+00  0.18412226862E+04  0.18412226862E+04  0.50400001928E-02 0.  1.
       -1   -1    0    0    0  501  0.00000000000E+00  0.00000000000E+00 -0.12195987877E+04  0.12195987877E+04  0.50400001928E-02 0. -1.
    10030    2    1    2    0    0  0.00000000000E+00  0.00000000000E+00  0.62162389845E+03  0.30608214739E+04  0.29970338376E+04 0.  0.
        2    1    3    3  502    0 -0.12007333050E+03  0.14435549190E+04  0.70275678377E+03  0.16100110266E+04  0.25500000920E-02 0.  1.
       -2    1    3    3    0  502  0.12007333050E+03 -0.14435549190E+04 -0.81132885321E+02  0.14508104473E+04  0.25500000920E-02 0. -1.
</event>
<event>
 5   0  0.5431625E-07  0.2993319E+04  0.7818609E-02  0.8245641E-01
       -3   -1    0    0    0  501  0.00000000000E+00  0.00000000000E+00  0.13491577461E+04  0.13491577498E+04  0.10100000352E+00 0.  1.
        3   -1    0    0  501    0  0.00000000000E+00  0.00000000000E+00 -0.16602870269E+04  0.16602870300E+04  0.10100000352E+00 0. -1.
    10030    2    1    2    0    0  0.00000000000E+00  0.00000000000E+00 -0.31112928083E+03  0.30094447798E+04  0.29933186354E+04 0.  0.
        5    1    3    3  502    0 -0.66194874547E+03 -0.13407287568E+04 -0.22100973974E+03  0.15114883843E+04  0.46999998093E+01 0.  1.
       -5    1    3    3    0  502  0.66194874547E+03  0.13407287568E+04 -0.90119541096E+02  0.14979563954E+04  0.46999998093E+01 0. -1.
</event>
<event>
 5   0  0.1635086E-06  0.3011486E+04  0.7818609E-02  0.8240459E-01
       -2   -1    0    0    0  501  0.00000000000E+00  0.00000000000E+00  0.16046907720E+04  0.16046907720E+04  0.25500000920E-02 0.  1.
        2   -1    0    0  501    0  0.00000000000E+00  0.00000000000E+00 -0.14128961589E+04  0.14128961589E+04  0.25500000920E-02 0. -1.
    10030    2    1    2    0    0  0.00000000000E+00  0.00000000000E+00  0.19179461309E+03  0.30175869310E+04  0.30114856321E+04 0.  0.
        3    1    3    3  502    0 -0.10547405120E+04 -0.87014053711E+03  0.72776136654E+03  0.15489540725E+04  0.10100000352E+00 0.  1.
       -3    1    3    3    0  502  0.10547405120E+04  0.87014053711E+03 -0.53596675345E+03  0.14686328584E+04  0.10100000352E+00 0. -1.
</event>
<event>
 5   0  0.1674806E-06  0.2969547E+04  0.7818609E-02  0.8252481E-01
        2   -1    0    0  501    0  0.00000000000E+00  0.00000000000E+00  0.17708621442E+04  0.17708621442E+04  0.25500000920E-02 0.  1.
       -2   -1    0    0    0  501  0.00000000000E+00  0.00000000000E+00 -0.12449035086E+04  0.12449035086E+04  0.25500000920E-02 0. -1.
    10030    2    1    2    0    0  0.00000000000E+00  0.00000000000E+00  0.52595863557E+03  0.30157656528E+04  0.29695471012E+04 0.  0.
        2    1    3    3  502    0  0.64426759757E+03 -0.61910557846E+03  0.14672603254E+04  0.17179130703E+04  0.25500000920E-02 0.  1.
       -2    1    3    3    0  502 -0.64426759757E+03  0.61910557846E+03 -0.94130168983E+03  0.12978525825E+04  0.25500000920E-02 0. -1.
</event>
<event>
 5   0  0.6291798E-07  0.3188852E+04  0.7818609E-02  0.8191768E-01
        1   -1    0    0  501    0  0.00000000000E+00  0.00000000000E+00  0.22086541065E+04  0.22086541065E+04  0.50400001928E-02 0.  1.
       -1   -1    0    0    0  501  0.00000000000E+00  0.00000000000E+00 -0.11510149540E+04  0.11510149541E+04  0.50400001928E-02 0. -1.
    10030    2    1    2    0    0  0.00000000000E+00  0.00000000000E+00  0.10576391525E+04  0.33596690606E+04  0.31888517714E+04 0.  0.
        1    1    3    3  502    0 -0.68438720928E+03  0.87159657468E+03  0.17365803312E+04  0.20600431277E+04  0.50400001928E-02 0.  1.
       -1    1    3    3    0  502  0.68438720928E+03 -0.87159657468E+03 -0.67894117872E+03  0.12996259329E+04  0.50400001928E-02 0. -1.
</event>
<event>
 5   0  0.5887179E-07  0.2994312E+04  0.7818609E-02  0.8245357E-01
        1   -1    0    0  501    0  0.00000000000E+00  0.00000000000E+00  0.18729714815E+04  0.18729714815E+04  0.50400001928E-02 0. -1.
       -1   -1    0    0    0  501  0.00000000000E+00  0.00000000000E+00 -0.11967489751E+04  0.11967489751E+04  0.50400001928E-02 0.  1.
    10030    2    1    2    0    0  0.00000000000E+00  0.00000000000E+00  0.67622250638E+03  0.30697204566E+04  0.29943124092E+04 0.  0.
        3    1    3    3  502    0 -0.10185785880E+04 -0.53147629205E+02 -0.78545913092E+03  0.12873511825E+04  0.10100000352E+00 0.  1.
       -3    1    3    3    0  502  0.10185785880E+04  0.53147629205E+02  0.14616816373E+04  0.17823692742E+04  0.10100000352E+00 0. -1.
</event>
<event>
 5   0  0.5874741E-07  0.2995461E+04  0.7818609E-02  0.8245028E-01
        1   -1    0    0  501    0  0.00000000000E+00  0.00000000000E+00  0.14129331147E+04  0.14129331147E+04  0.50400001928E-02 0.  1.
       -1   -1    0    0    0  501  0.00000000000E+00  0.00000000000E+00 -0.15876170795E+04  0.15876170795E+04  0.50400001928E-02 0. -1.
    10030    2    1    2    0    0  0.00000000000E+00  0.00000000000E+00 -0.17468396478E+03  0.30005501941E+04  0.29954610630E+04 0.  0.
        4    1    3    3  502    0  0.93389531240E+03 -0.11492731076E+04 -0.31178961865E+03  0.15133418350E+04  0.12699999809E+01 0. -1.
       -4    1    3    3    0  502 -0.93389531240E+03  0.11492731076E+04  0.13710565386E+03  0.14872083592E+04  0.12699999809E+01 0.  1.
</event>
<event>
 5   0  0.5887179E-07  0.2999117E+04  0.7818609E-02  0.8243983E-01
       -1   -1    0    0    0  501  0.00000000000E+00  0.00000000000E+00  0.13586098312E+04  0.13586098312E+04  0.50400001928E-02 0. -1.
        1   -1    0    0  501    0  0.00000000000E+00  0.00000000000E+00 -0.16551303703E+04  0.16551303704E+04  0.50400001928E-02 0.  1.
    10030    2    1    2    0    0  0.00000000000E+00  0.00000000000E+00 -0.29652053914E+03  0.30137402016E+04  0.29991174656E+04 0.  0.
        3    1    3    3  502    0  0.67452608994E+03  0.54881568467E+02 -0.14929472490E+04  0.16391732462E+04  0.10100000352E+00 0.  1.
       -3    1    3    3    0  502 -0.67452608994E+03 -0.54881568467E+02  0.11964267098E+04  0.13745669554E+04  0.10100000352E+00 0. -1.
</event>
<event>
 5   0  0.1635086E-06  0.2997033E+04  0.7818609E-02  0.8244579E-01
       -2   -1    0    0    0  501  0.00000000000E+00  0.00000000000E+00  0.10719609024E+04  0.10719609024E+04  0.25500000920E-02 0.  1.
        2   -1    0    0  501    0  0.00000000000E+00  0.00000000000E+00 -0.20948080248E+04  0.20948080248E+04  0.25500000920E-02 0. -1.
    10030    2    1    2    0    0  0.00000000000E+00  0.00000000000E+00 -0.10228471224E+04  0.31667689272E+04  0.29970334004E+04 0.  0.
        3    1    3    3  502    0  0.37392260600E+03  0.10977798954E+04 -0.15141766598E+04  0.19072676218E+04  0.10100000352E+00 0. -1.
       -3    1    3    3    0  502 -0.37392260600E+03 -0.10977798954E+04  0.49132953740E+03  0.12595013055E+04  0.10100000352E+00 0.  1.
</event>
<event>
 5   0  0.5931588E-07  0.2969294E+04  0.7818609E-02  0.8252554E-01
        1   -1    0    0  501    0  0.00000000000E+00  0.00000000000E+00  0.26917120881E+04  0.26917120881E+04  0.50400001928E-02 0.  1.
       -1   -1    0    0    0  501  0.00000000000E+00  0.00000000000E+00 -0.81887522274E+03  0.81887522276E+03  0.50400001928E-02 0. -1.
    10030    2    1    2    0    0  0.00000000000E+00  0.00000000000E+00  0.18728368653E+04  0.35105873108E+04  0.29692937448E+04 0.  0.
        2    1    3    3  502    0 -0.79884988542E+03 -0.12287347840E+04  0.65607181982E+03  0.16057336459E+04  0.25500000920E-02 0. -1.
       -2    1    3    3    0  502  0.79884988542E+03  0.12287347840E+04  0.12167650455E+04  0.19048536649E+04  0.25500000920E-02 0.  1.
</event>
<event>
 5   0  0.1723916E-06  0.3012495E+04  0.7818609E-02  0.8240172E-01
       -2   -1    0    0    0  501  0.00000000000E+00  0.00000000000E+00  0.13475462997E+04  0.13475462997E+04  0.25500000920E-02 0. -1.
        2   -1    0    0  501    0  0.00000000000E+00  0.00000000000E+00 -0.16836392741E+04  0.16836392741E+04  0.25500000920E-02 0.  1.
    10030    2    1    2    0    0  0.00000000000E+00  0.00000000000E+00 -0.33609297444E+03  0.30311855738E+04  0.30124952274E+04 0.  0.
        1    1    3    3  502    0  0.13332820157E+04  0.62154345223E+03 -0.49382161600E+03  0.15517142085E+04  0.50400001928E-02 0.  1.
       -1    1    3    3    0  502 -0.13332820157E+04 -0.62154345223E+03  0.15772864156E+03  0.14794713653E+04  0.50400001928E-02 0. -1.
</event>
<event>
 5   0  0.5931588E-07  0.3020988E+04  0.7818609E-02  0.8237763E-01
        1   -1    0    0  501    0  0.00000000000E+00  0.00000000000E+00  0.17369529474E+04  0.17369529474E+04  0.50400001928E-02 0. -1.
       -1   -1    0    0    0  501  0.00000000000E+00  0.00000000000E+00 -0.13135605089E+04  0.13135605089E+04  0.50400001928E-02 0.  1.
    10030    2    1    2    0    0  0.00000000000E+00  0.00000000000E+00  0.42339243852E+03  0.30505134563E+04  0.30209884459E+04 0.  0.
        2    1    3    3  502    0  0.47673225954E+03 -0.11996196015E+04 -0.58033686958E+03  0.14153274242E+04  0.25500000920E-02 0.  1.
       -2    1    3    3    0  502 -0.47673225954E+03  0.11996196015E+04  0.10037293081E+04  0.16351860321E+04  0.25500000920E-02 0. -1.
</event>
<event>
 5   0  0.5887179E-07  0.2997897E+04  0.7818609E-02  0.8244332E-01
       -1   -1    0    0    0  501  0.00000000000E+00  0.00000000000E+00  0.15030132525E+04  0.15030132525E+04  0.50400001928E-02 0. -1.
        1   -1    0    0  501    0  0.00000000000E+00  0.00000000000E+00 -0.14948950359E+04  0.14948950359E+04  0.50400001928E-02 0.  1.
    10030    2    1    2    0    0  0.00000000000E+00  0.00000000000E+00  0.81182165651E+01  0.29979082884E+04  0.29978972965E+04 0.  0.
        3    1    3    3  502    0  0.84349331897E+03 -0.94727585899E+03  0.80283265974E+03  0.15011171913E+04  0.10100000352E+00 0. -1.
       -3    1    3    3    0  502 -0.84349331897E+03  0.94727585899E+03 -0.79471444318E+03  0.14967910972E+04  0.10100000352E+00 0.  1.
</event>
<event>
 5   0  0.1625212E-06  0.3008906E+04  0.7818609E-02  0.8241192E-01
       -2   -1    0    0    0  501  0.00000000000E+00  0.00000000000E+00  0.83888226704E+03  0.83888226705E+03  0.25500000920E-02 0.  1.
        2   -1    0    0  501    0  0.00000000000E+00  0.00000000000E+00 -0.26980884843E+04  0.26980884843E+04  0.25500000920E-02 0. -1.
    10030    2    1    2    0    0  0.00000000000E+00  0.00000000000E+00 -0.18592062173E+04  0.35369707514E+04  0.30089058373E+04 0.  0.
        4    1    3    3  502    0  0.81512844600E+03  0.92279729933E+03 -0.19458421003E+04  0.23026706954E+04  0.12699999809E+01 0. -1.
       -4    1    3    3    0  502 -0.81512844600E+03 -0.92279729933E+03  0.86635883018E+02  0.12343000560E+04  0.12699999809E+01 0.  1.
</event>
<event>
 5   0  0.5874741E-07  0.3019311E+04  0.7818609E-02  0.8238238E-01
        1   -1    0    0  501    0  0.00000000000E+00  0.00000000000E+00  0.21810412469E+04  0.21810412469E+04  0.50400001928E-02 0. -1.
       -1   -1    0    0    0  501  0.00000000000E+00  0.00000000000E+00 -0.10449408056E+04  0.10449408056E+04  0.50400001928E-02 0.  1.
    10030    2    1    2    0    0  0.00000000000E+00  0.00000000000E+00  0.11361004413E+04  0.32259820526E+04  0.30193105158E+04 0.  0.
        4    1    3    3  502    0  0.13319364206E+04 -0.69378840139E+03  0.40370188720E+03  0.15551121506E+04  0.12699999809E+01 0. -1.
       -4    1    3    3    0  502 -0.13319364206E+04  0.69378840139E+03  0.73239855409E+03  0.16708699020E+04  0.12699999809E+01 0.  1.
</event>
<event>
 5   0  0.1674806E-06  0.2982167E+04  0.7818609E-02  0.8248842E-01
        2   -1    0    0  501    0  0.00000000000E+00  0.00000000000E+00  0.17094707475E+04  0.17094707475E+04  0.25500000920E-02 0. -1.
       -2   -1    0    0    0  501  0.00000000000E+00  0.00000000000E+00 -0.13005953559E+04  0.13005953559E+04  0.25500000920E-02 0.  1.
    10030    2    1    2    0    0  0.00000000000E+00  0.00000000000E+00  0.40887539160E+03  0.30100661033E+04  0.29821668063E+04 0.  0.
        2    1    3    3  502    0  0.12842540846E+04  0.54278215113E+03  0.73797410541E+03  0.15775065127E+04  0.25500000920E-02 0. -1.
       -2    1    3    3    0  502 -0.12842540846E+04 -0.54278215113E+03 -0.32909871381E+03  0.14325595906E+04  0.25500000920E-02 0.  1.
</event>
<event>
 5   0  0.5916703E-07  0.2977249E+04  0.7818609E-02  0.8250258E-01
        1   -1    0    0  501    0  0.00000000000E+00  0.00000000000E+00  0.16580046531E+04  0.16580046531E+04  0.50400001928E-02 0. -1.
       -1   -1    0    0    0  501  0.00000000000E+00  0.00000000000E+00 -0.13365480774E+04  0.13365480774E+04  0.50400001928E-02 0.  1.
    10030    2    1    2    0    0  0.00000000000E+00  0.00000000000E+00  0.32145657574E+03  0.29945527305E+04  0.29772490197E+04 0.  0.
        5    1    3    3  502    0 -0.10718306360E+04  0.30177063138E+03 -0.83298870829E+03  0.13906037194E+04  0.46999998093E+01 0.  1.
       -5    1    3    3    0  502  0.10718306360E+04 -0.30177063138E+03  0.11544452840E+04  0.16039490111E+04  0.46999998093E+01 0. -1.
</event>
<event>
 5   0  0.1635086E-06  0.3001790E+04  0.7818609E-02  0.8243220E-01
       -2   -1    0    0    0  501  0.00000000000E+00  0.00000000000E+00  0.21490056047E+04  0.21490056047E+04  0.25500000920E-02 0. -1.
        2   -1    0    0  501    0  0.00000000000E+00  0.00000000000E+00 -0.10482458926E+04  0.10482458926E+04  0.25500000920E-02 0.  1.
    10030    2    1    2    0    0  0.00000000000E+00  0.00000000000E+00  0.11007597121E+04  0.31972514973E+04  0.30017903313E+04 0.  0.
        3    1    3    3  502    0  0.54484062584E+03  0.28552738481E+03  0.20085797122E+04  0.21006593407E+04  0.10100000352E+00 0. -1.
       -3    1    3    3    0  502 -0.54484062584E+03 -0.28552738481E+03 -0.90782000013E+03  0.10965921566E+04  0.10100000352E+00 0.  1.
</event>
<event>
 5   0  0.5931588E-07  0.3005350E+04  0.7818609E-02  0.8242205E-01
       -1   -1    0    0    0  501  0.00000000000E+00  0.00000000000E+00  0.16778376619E+04  0.16778376619E+04  0.50400001928E-02 0. -1.
        1   -1    0    0  501    0  0.00000000000E+00  0.00000000000E+00 -0.13457991097E+04  0.13457991097E+04  0.50400001928E-02 0.  1.
    10030    2    1    2    0    0  0.00000000000E+00  0.00000000000E+00  0.33203855213E+03  0.30236367716E+04  0.30053501837E+04 0.  0.
        2    1    3    3  502    0  0.33541650071E+03 -0.14384367029E+04  0.44415766624E+03  0.15423619581E+04  0.25500000920E-02 0.  1.
       -2    1    3    3    0  502 -0.33541650071E+03  0.14384367029E+04 -0.11211911411E+03  0.14812748135E+04  0.25500000920E-02 0. -1.
</event>
<event>
 5   0  0.1674806E-06  0.3008643E+04  0.7818609E-02  0.8241267E-01
        2   -1    0    0  501    0  0.00000000000E+00  0.00000000000E+00  0.15594724930E+04  0.15594724930E+04  0.25500000920E-02 0.  1.
       -2   -1    0    0    0  501  0.00000000000E+00  0.00000000000E+00 -0.14511208641E+04  0.14511208641E+04  0.25500000920E-02 0. -1.
    10030    2    1    2    0    0  0.00000000000E+00  0.00000000000E+00  0.10835162898E+03  0.30105933571E+04  0.30086429310E+04 0.  0.
        2    1    3    3  502    0 -0.27279295772E+03  0.40223935583E+03  0.14787456559E+04  0.15565671241E+04  0.25500000920E-02 0.  1.
       -2    1    3    3    0  502  0.27279295772E+03 -0.40223935583E+03 -0.13703940269E+04  0.14540262330E+04  0.25500000920E-02 0. -1.
</event>
<event>
 5   0  0.1723916E-06  0.2982517E+04  0.7818609E-02  0.8248741E-01
        2   -1    0    0  501    0  0.00000000000E+00  0.00000000000E+00  0.23738175230E+04  0.23738175230E+04  0.25500000920E-02 0. -1.
       -2   -1    0    0    0  501  0.00000000000E+00  0.00000000000E+00 -0.93682511076E+03  0.93682511076E+03  0.25500000920E-02 0.  1.
    10030    2    1    2    0    0  0.00000000000E+00  0.00000000000E+00  0.14369924123E+04  0.33106426338E+04  0.29825169665E+04 0.  0.
        1    1    3    3  502    0  0.14630211934E+04  0.16296712612E+03  0.98318930143E+03  0.17702119927E+04  0.50400001928E-02 0.  1.
       -1    1    3    3    0  502 -0.14630211934E+04 -0.16296712612E+03  0.45380311083E+03  0.15404306411E+04  0.50400001928E-02 0. -1.
</event>
<event>
 5   0  0.5887179E-07  0.2998246E+04  0.7818609E-02  0.8244232E-01
        1   -1    0    0  501    0  0.00000000000E+00  0.00000000000E+00  0.18634477748E+04  0.18634477748E+04  0.50400001928E-02 0. -1.
       -1   -1    0    0    0  501  0.00000000000E+00  0.00000000000E+00 -0.12060280598E+04  0.12060280598E+04  0.50400001928E-02 0.  1.
    10030    2    1    2    0    0  0.00000000000E+00  0.00000000000E+00  0.65741971504E+03  0.30694758346E+04  0.29982463570E+04 0.  0.
        3    1    3    3  502    0  0.93381054551E+03  0.19210292076E+03 -0.85569547222E+03  0.12810622227E+04  0.10100000352E+00 0.  1.
       -3    1    3    3    0  502 -0.93381054551E+03 -0.19210292076E+03  0.15131151873E+04  0.17884136119E+04  0.10100000352E+00 0. -1.
</event>
<event>
 5   0  0.5874741E-07  0.2989441E+04  0.7818609E-02  0.8246752E-01
        1   -1    0    0  501    0  0.00000000000E+00  0.00000000000E+00  0.14040895378E+04  0.14040895379E+04  0.50400001928E-02 0. -1.
       -1   -1    0    0    0  501  0.00000000000E+00  0.00000000000E+00 -0.15912018585E+04  0.15912018585E+04  0.50400001928E-02 0.  1.
    10030    2    1    2    0    0  0.00000000000E+00  0.00000000000E+00 -0.18711232069E+03  0.29952913964E+04  0.29894413406E+04 0.  0.
        4    1    3    3  502    0 -0.64019466144E+03 -0.58897421589E+03  0.11243258336E+04  0.14215660465E+04  0.12699999809E+01 0. -1.
       -4    1    3    3    0  502  0.64019466144E+03  0.58897421589E+03 -0.13114381543E+04  0.15737253499E+04  0.12699999809E+01 0.  1.
</event>
<event>
 5   0  0.1674806E-06  0.3002479E+04  0.7818609E-02  0.8243023E-01
        2   -1    0    0  501    0  0.00000000000E+00  0.00000000000E+00  0.17540720715E+04  0.17540720715E+04  0.25500000920E-02 0. -1.
       -2   -1    0    0    0  501  0.00000000000E+00  0.00000000000E+00 -0.12848504811E+04  0.12848504811E+04  0.25500000920E-02 0.  1.
    10030    2    1    2    0    0  0.00000000000E+00  0.00000000000E+00  0.46922159038E+03  0.30389225526E+04  0.30024792056E+04 0.  0.
        2    1    3    3  502    0  0.99626183918E+03  0.32644579586E+03 -0.85296210791E+03  0.13515357440E+04  0.25500000920E-02 0.  1.
       -2    1    3    3    0  502 -0.99626183918E+03 -0.32644579586E+03  0.13221836983E+04  0.16873868086E+04  0.25500000920E-02 0. -1.
</event>
<event>
 5   0  0.1625212E-06  0.2991831E+04  0.7818609E-02  0.8246067E-01
       -2   -1    0    0    0  501  0.00000000000E+00  0.00000000000E+00  0.18182379825E+04  0.18182379825E+04  0.25500000920E-02 0. -1.
        2   -1    0    0  501    0  0.00000000000E+00  0.00000000000E+00 -0.12307319223E+04  0.12307319223E+04  0.25500000920E-02 0.  1.
    10030    2    1    2    0    0  0.00000000000E+00  0.00000000000E+00  0.58750606016E+03  0.30489699048E+04  0.29918312301E+04 0.  0.
        4    1    3    3  502    0  0.58388294510E+03  0.17559498444E+03  0.16858609878E+04  0.17927302572E+04  0.12699999809E+01 0. -1.
       -4    1    3    3    0  502 -0.58388294510E+03 -0.17559498444E+03 -0.10983549276E+04  0.12562396476E+04  0.12699999809E+01 0.  1.
</event>
<event>
 5   0  0.1635086E-06  0.2995816E+04  0.7818609E-02  0.8244927E-01
       -2   -1    0    0    0  501  0.00000000000E+00  0.00000000000E+00  0.15883967815E+04  0.15883967815E+04  0.25500000920E-02 0. -1.
        2   -1    0    0  501    0  0.00000000000E+00  0.00000000000E+00 -0.14125746463E+04  0.14125746463E+04  0.25500000920E-02 0.  1.
    10030    2    1    2    0    0  0.00000000000E+00  0.00000000000E+00  0.17582213522E+03  0.30009714278E+04  0.29958164308E+04 0.  0.
        3    1    3    3  502    0  0.14020946057E+04 -0.42189970666E+03  0.40446173862E+03  0.15190319134E+04  0.10100000352E+00 0. -1.
       -3    1    3    3    0  502 -0.14020946057E+04  0.42189970666E+03 -0.22863960341E+03  0.14819395144E+04  0.10100000352E+00 0.  1.
</event>
<event>
 5   0  0.1560174E-06  0.2984435E+04  0.7818609E-02  0.8248190E-01
       -2   -1    0    0    0  501  0.00000000000E+00  0.00000000000E+00  0.19968581811E+04  0.19968581811E+04  0.25500000920E-02 0.  1.
        2   -1    0    0  501    0  0.00000000000E+00  0.00000000000E+00 -0.11151082472E+04  0.11151082472E+04  0.25500000920E-02 0. -1.
    10030    2    1    2    0    0  0.00000000000E+00  0.00000000000E+00  0.88174993389E+03  0.31119664282E+04  0.29844349724E+04 0.  0.
        5    1    3    3  502    0  0.13211505008E+04  0.37681163090E+03  0.10482298037E+04  0.17280721809E+04  0.46999998093E+01 0.  1.
       -5    1    3    3    0  502 -0.13211505008E+04 -0.37681163090E+03 -0.16647986981E+03  0.13838942474E+04  0.46999998093E+01 0. -1.
</event>
<event>
 5   0  0.5874741E-07  0.3014697E+04  0.7818609E-02  0.8239546E-01
       -1   -1    0    0    0  501  0.00000000000E+00  0.00000000000E+00  0.11935748176E+04  0.11935748176E+04  0.50400001928E-02 0. -1.
        1   -1    0    0  501    0  0.00000000000E+00  0.00000000000E+00 -0.19036088218E+04  0.19036088218E+04  0.50400001928E-02 0.  1.
    10030    2    1    2    0    0  0.00000000000E+00  0.00000000000E+00 -0.71003400419E+03  0.30971836393E+04  0.30146970343E+04 0.  0.
        4    1    3    3  502    0  0.63386790365E+03 -0.55449167409E+03  0.92932802785E+03  0.12541537913E+04  0.12699999809E+01 0. -1.
       -4    1    3    3    0  502 -0.63386790365E+03  0.55449167409E+03 -0.16393620320E+04  0.18430298481E+04  0.12699999809E+01 0.  1.
</event>
<event>
 5   0  0.5916703E-07  0.2977421E+04  0.7818609E-02  0.8250208E-01
        1   -1    0    0  501    0  0.00000000000E+00  0.00000000000E+00  0.17281746234E+04  0.17281746234E+04  0.50400001928E-02 0.  1.
       -1   -1    0    0    0  501  0.00000000000E+00  0.00000000000E+00 -0.12824274864E+04  0.12824274864E+04  0.50400001928E-02 0. -1.
    10030    2    1    2    0    0  0.00000000000E+00  0.00000000000E+00  0.44574713693E+03  0.30106021098E+04  0.29774207888E+04 0.  0.
        5    1    3    3  502    0 -0.83153349618E+03  0.16662272520E+03 -0.10142917549E+04  0.13221274303E+04  0.46999998093E+01 0. -1.
       -5    1    3    3    0  502  0.83153349618E+03 -0.16662272520E+03  0.14600388918E+04  0.16884746795E+04  0.46999998093E+01 0.  1.
</event>
<event>
 5   0  0.6291798E-07  0.2957742E+04  0.7818609E-02  0.8255902E-01
       -1   -1    0    0    0  501  0.00000000000E+00  0.00000000000E+00  0.16086462395E+04  0.16086462395E+04  0.50400001928E-02 0. -1.
        1   -1    0    0  501    0  0.00000000000E+00  0.00000000000E+00 -0.13595649121E+04  0.13595649122E+04  0.50400001928E-02 0.  1.
    10030    2    1    2    0    0  0.00000000000E+00  0.00000000000E+00  0.24908132737E+03  0.29682111517E+04  0.29577416948E+04 0.  0.
        1    1    3    3  502    0  0.14453000484E+04 -0.30609321005E+03  0.19166314277E+03  0.14897382466E+04  0.50400001928E-02 0. -1.
       -1    1    3    3    0  502 -0.14453000484E+04  0.30609321005E+03  0.57418184604E+02  0.14784729051E+04  0.50400001928E-02 0.  1.
</event>
<event>
 5   0  0.1625212E-06  0.3014553E+04  0.7818609E-02  0.8239587E-01
       -2   -1    0    0    0  501  0.00000000000E+00  0.00000000000E+00  0.14329447333E+04  0.14329447333E+04  0.25500000920E-02 0. -1.
        2   -1    0    0  501    0  0.00000000000E+00  0.00000000000E+00 -0.15854637040E+04  0.15854637040E+04  0.25500000920E-02 0.  1.
    10030    2    1    2    0    0  0.00000000000E+00  0.00000000000E+00 -0.15251897071E+03  0.30184084374E+04  0.30145526133E+04 0.  0.
        4    1    3    3  502    0 -0.90300830145E+03  0.93290278016E+03  0.69032323774E+03  0.14704691004E+04  0.12699999809E+01 0. -1.
       -4    1    3    3    0  502  0.90300830145E+03 -0.93290278016E+03 -0.84284220845E+03  0.15479393370E+04  0.12699999809E+01 0.  1.
</event>
<event>
 5   0  0.1625212E-06  0.2991816E+04  0.7818609E-02  0.8246072E-01
        2   -1    0    0  501    0  0.00000000000E+00  0.00000000000E+00  0.15308808954E+04  0.15308808954E+04  0.25500000920E-02 0. -1.
       -2   -1    0    0    0  501  0.00000000000E+00  0.00000000000E+00 -0.14617340561E+04  0.14617340561E+04  0.25500000920E-02 0.  1.
    10030    2    1    2    0    0  0.00000000000E+00  0.00000000000E+00  0.69146839318E+02  0.29926149515E+04  0.29918159974E+04 0.  0.
        4    1    3    3  502    0  0.35606963804E+03  0.14278602515E+04 -0.23414054117E+03  0.14900986178E+04  0.12699999809E+01 0. -1.
       -4    1    3    3    0  502 -0.35606963804E+03 -0.14278602515E+04  0.30328738049E+03  0.15025163337E+04  0.12699999809E+01 0.  1.
</event>
<event>
 5   0  0.5431625E-07  0.2993002E+04  0.7818609E-02  0.8245732E-01
       -3   -1    0    0    0  501  0.00000000000E+00  0.00000000000E+00  0.13205185865E+04  0.13205185904E+04  0.10100000352E+00 0. -1.
        3   -1    0    0  501    0  0.00000000000E+00  0.00000000000E+00 -0.16959357791E+04  0.16959357821E+04  0.10100000352E+00 0.  1.
    10030    2    1    2    0    0  0.00000000000E+00  0.00000000000E+00 -0.37541719254E+03  0.30164543724E+04  0.29930016560E+04 0.  0.
        2    1    3    3  502    0  0.20084579015E+03  0.13083392126E+04 -0.89133697605E+03  0.15957982741E+04  0.25500000920E-02 0.  1.
       -2    1    3    3    0  502 -0.20084579015E+03 -0.13083392126E+04  0.51591978351E+03  0.14206560983E+04  0.25500000920E-02 0. -1.
</event>
<event>
 5   0  0.1674806E-06  0.3000470E+04  0.7818609E-02  0.8243597E-01
       -2   -1    0    0    0  501  0.00000000000E+00  0.00000000000E+00  0.15434383358E+04  0.15434383358E+04  0.25500000920E-02 0. -1.
        2   -1    0    0  501    0  0.00000000000E+00  0.00000000000E+00 -0.14582413934E+04  0.14582413934E+04  0.25500000920E-02 0.  1.
    10030    2    1    2    0    0  0.00000000000E+00  0.00000000000E+00  0.85196942434E+02  0.30016797292E+04  0.30004704094E+04 0.  0.
        2    1    3    3  502    0 -0.13276499369E+04 -0.24921866933E+03 -0.61030641023E+03  0.14823084073E+04  0.25500000920E-02 0.  1.
       -2    1    3    3    0  502  0.13276499369E+04  0.24921866933E+03  0.69550335266E+03  0.15193713218E+04  0.25500000920E-02 0. -1.
</event>
<event>
 5   0  0.5931588E-07  0.3021904E+04  0.7818609E-02  0.8237504E-01
       -1   -1    0    0    0  501  0.00000000000E+00  0.00000000000E+00  0.17162675941E+04  0.17162675941E+04  0.50400001928E-02 0. -1.
        1   -1    0    0  501    0  0.00000000000E+00  0.00000000000E+00 -0.13301978576E+04  0.13301978577E+04  0.50400001928E-02 0.  1.
    10030    2    1    2    0    0  0.00000000000E+00  0.00000000000E+00  0.38606973644E+03  0.30464654518E+04  0.30219036893E+04 0.  0.
        2    1    3    3  502    0  0.50486386358E+03  0.11376507762E+04  0.10566414319E+04  0.16326750825E+04  0.25500000920E-02 0. -1.
       -2    1    3    3    0  502 -0.50486386358E+03 -0.11376507762E+04 -0.67057169549E+03  0.14137903692E+04  0.25500000920E-02 0.  1.
</event>
<event>
 5   0  0.5887179E-07  0.2997450E+04  0.7818609E-02  0.8244460E-01
        1   -1    0    0  501    0  0.00000000000E+00  0.00000000000E+00  0.20179267837E+04  0.20179267837E+04  0.50400001928E-02 0. -1.
       -1   -1    0    0    0  501  0.00000000000E+00  0.00000000000E+00 -0.11131107221E+04  0.11131107221E+04  0.50400001928E-02 0.  1.
    10030    2    1    2    0    0  0.00000000000E+00  0.00000000000E+00  0.90481606163E+03  0.31310375058E+04  0.29974495421E+04 0.  0.
        3    1    3    3  502    0 -0.31511194401E+03  0.14651183269E+04  0.43405572290E+03  0.15602152511E+04  0.10100000352E+00 0.  1.
       -3    1    3    3    0  502  0.31511194401E+03 -0.14651183269E+04  0.47076033874E+03  0.15708222547E+04  0.10100000352E+00 0. -1.
</event>
<event>
 5   0  0.1560174E-06  0.2994091E+04  0.7818609E-02  0.8245420E-01
        2   -1    0    0  501    0  0.00000000000E+00  0.00000000000E+00  0.19217695847E+04  0.19217695847E+04  0.25500000920E-02 0. -1.
       -2   -1    0    0    0  501  0.00000000000E+00  0.00000000000E+00 -0.11661881702E+04  0.11661881702E+04  0.25500000920E-02 0.  1.
    10030    2    1    2    0    0  0.00000000000E+00  0.00000000000E+00  0.75558141451E+03  0.30879577549E+04  0.29940908173E+04 0.  0.
        5    1    3    3  502    0 -0.18508725611E+03 -0.10019166871E+04 -0.75342217842E+03  0.12671864146E+04  0.46999998093E+01 0.  1.
       -5    1    3    3    0  502  0.18508725611E+03  0.10019166871E+04  0.15090035929E+04  0.18207713403E+04  0.46999998093E+01 0. -1.
</event>
<event>
 5   0  0.1723916E-06  0.2987157E+04  0.7818609E-02  0.8247408E-01
        2   -1    0    0  501    0  0.00000000000E+00  0.00000000000E+00  0.23976765688E+04  0.23976765688E+04  0.25500000920E-02 0.  1.
       -2   -1    0    0    0  501  0.00000000000E+00  0.00000000000E+00 -0.93039100021E+03  0.93039100021E+03  0.25500000920E-02 0. -1.
    10030    2    1    2    0    0  0.00000000000E+00  0.00000000000E+00  0.14672855686E+04  0.33280675690E+04  0.29871569768E+04 0.  0.
        1    1    3    3  502    0 -0.11757473396E+04  0.91800034870E+03  0.81753764392E+03  0.17010215302E+04  0.50400001928E-02 0. -1.
       -1    1    3    3    0  502  0.11757473396E+04 -0.91800034870E+03  0.64974792464E+03  0.16270460388E+04  0.50400001928E-02 0.  1.
</event>
<event>
 5   0  0.5874741E-07  0.3018058E+04  0.7818609E-02  0.8238593E-01
        1   -1    0    0  501    0  0.00000000000E+00  0.00000000000E+00  0.16085732840E+04  0.16085732841E+04  0.50400001928E-02 0.  1.
       -1   -1    0    0    0  501  0.00000000000E+00  0.00000000000E+00 -0.14156446076E+04  0.14156446076E+04  0.50400001928E-02 0. -1.
    10030    2    1    2    0    0  0.00000000000E+00  0.00000000000E+00  0.19292867648E+03  0.30242178916E+04  0.30180577168E+04 0.  0.
        4    1    3    3  502    0  0.63296151884E+03 -0.39483955854E+03 -0.12179401111E+04  0.14282570807E+04  0.12699999809E+01 0. -1.
       -4    1    3    3    0  502 -0.63296151884E+03  0.39483955854E+03  0.14108687876E+04  0.15959608109E+04  0.12699999809E+01 0.  1.
</event>
<event>
 5   0  0.5874741E-07  0.2980982E+04  0.7818609E-02  0.8249182E-01
       -1   -1    0    0    0  501  0.00000000000E+00  0.00000000000E+00  0.14703653647E+04  0.14703653647E+04  0.50400001928E-02 0.  1.
        1   -1    0    0  501    0  0.00000000000E+00  0.00000000000E+00 -0.15108925313E+04  0.15108925313E+04  0.50400001928E-02 0. -1.
    10030    2    1    2    0    0  0.00000000000E+00  0.00000000000E+00 -0.40527166607E+02  0.29812578961E+04  0.29809824205E+04 0.  0.
        4    1    3    3  502    0  0.88025880250E+03  0.48338734476E+02  0.11816670328E+04  0.14742899247E+04  0.12699999809E+01 0.  1.
       -4    1    3    3    0  502 -0.88025880250E+03 -0.48338734476E+02 -0.12221941995E+04  0.15069679714E+04  0.12699999809E+01 0. -1.
</event>
<event>
 5   0  0.5916703E-07  0.2986714E+04  0.7818609E-02  0.8247535E-01
        1   -1    0    0  501    0  0.00000000000E+00  0.00000000000E+00  0.11035437788E+04  0.11035437789E+04  0.50400001928E-02 0. -1.
       -1   -1    0    0    0  501  0.00000000000E+00  0.00000000000E+00 -0.20208673896E+04  0.20208673896E+04  0.50400001928E-02 0.  1.
    10030    2    1    2    0    0  0.00000000000E+00  0.00000000000E+00 -0.91732361076E+03  0.31244111685E+04  0.29867143390E+04 0.  0.
        5    1    3    3  502    0 -0.15264017643E+03 -0.48978062318E+03 -0.19257853255E+04  0.19929514023E+04  0.46999998093E+01 0.  1.
       -5    1    3    3    0  502  0.15264017643E+03  0.48978062318E+03  0.10084617147E+04  0.11314597661E+04  0.46999998093E+01 0. -1.
</event>
<event>
 5   0  0.1625212E-06  0.2999265E+04  0.7818609E-02  0.8243941E-01
        2   -1    0    0  501    0  0.00000000000E+00  0.00000000000E+00  0.16408279940E+04  0.16408279940E+04  0.25500000920E-02 0. -1.
       -2   -1    0    0    0  501  0.00000000000E+00  0.00000000000E+00 -0.13705874825E+04  0.13705874825E+04  0.25500000920E-02 0.  1.
    10030    2    1    2    0    0  0.00000000000E+00  0.00000000000E+00  0.27024051155E+03  0.30114154765E+04  0.29992654497E+04 0.  0.
        4    1    3    3  502    0 -0.37192263147E+03  0.36214926240E+03 -0.12774971366E+04  0.13789412891E+04  0.12699999809E+01 0.  1.
       -4    1    3    3    0  502  0.37192263147E+03 -0.36214926240E+03  0.15477376481E+04  0.16324741873E+04  0.12699999809E+01 0. -1.
</event>
<event>
 5   0  0.5916703E-07  0.3010380E+04  0.7818609E-02  0.8240773E-01
        1   -1    0    0  501    0  0.00000000000E+00  0.00000000000E+00  0.12482303273E+04  0.12482303273E+04  0.50400001928E-02 0. -1.
       -1   -1    0    0    0  501  0.00000000000E+00  0.00000000000E+00 -0.18150467743E+04  0.18150467743E+04  0.50400001928E-02 0.  1.
    10030    2    1    2    0    0  0.00000000000E+00  0.00000000000E+00 -0.56681644704E+03  0.30632771016E+04  0.30103796632E+04 0.  0.
        5    1    3    3  502    0  0.67448314591E+03  0.12808990846E+04 -0.70289511232E+03  0.16092587138E+04  0.46999998093E+01 0. -1.
       -5    1    3    3    0  502 -0.67448314591E+03 -0.12808990846E+04  0.13607866528E+03  0.14540183878E+04  0.46999998093E+01 0.  1.
</event>
<event>
 5   0  0.1635086E-06  0.3013333E+04  0.7818609E-02  0.8239934E-01
       -2   -1    0    0    0  501  0.00000000000E+00  0.00000000000E+00  0.95290014632E+03  0.95290014633E+03  0.25500000920E-02 0. -1.
        2   -1    0    0  501    0  0.00000000000E+00  0.00000000000E+00 -0.23822471230E+04  0.23822471230E+04  0.25500000920E-02 0.  1.
    10030    2    1    2    0    0  0.00000000000E+00  0.00000000000E+00 -0.14293469767E+04  0.33351472694E+04  0.30133327942E+04 0.  0.
        3    1    3    3  502    0  0.10788801625E+04  0.45111374877E+03 -0.17661640580E+04  0.21182118660E+04  0.10100000352E+00 0.  1.
       -3    1    3    3    0  502 -0.10788801625E+04 -0.45111374877E+03  0.33681708128E+03  0.12169354033E+04  0.10100000352E+00 0. -1.
</event>
<event>
 5   0  0.1635086E-06  0.2983020E+04  0.7818609E-02  0.8248596E-01
        2   -1    0    0  501    0  0.00000000000E+00  0.00000000000E+00  0.19042170411E+04  0.19042170411E+04  0.25500000920E-02 0.  1.
       -2   -1    0    0    0  501  0.00000000000E+00  0.00000000000E+00 -0.11682506069E+04  0.11682506069E+04  0.25500000920E-02 0. -1.
    10030    2    1    2    0    0  0.00000000000E+00  0.00000000000E+00  0.73596643412E+03  0.30724676480E+04  0.29830204250E+04 0.  0.
        3    1    3    3  502    0 -0.24426482023E+03  0.56692197516E+03 -0.10304991861E+04  0.12012470234E+04  0.10100000352E+00 0. -1.
       -3    1    3    3    0  502  0.24426482023E+03 -0.56692197516E+03  0.17664656203E+04  0.18712206246E+04  0.10100000352E+00 0.  1.
</event>
<event>
 5   0  0.5431625E-07  0.2986569E+04  0.7818609E-02  0.8247577E-01
       -3   -1    0    0    0  501  0.00000000000E+00  0.00000000000E+00  0.21071993742E+04  0.21071993767E+04  0.10100000352E+00 0.  1.
        3   -1    0    0  501    0  0.00000000000E+00  0.00000000000E+00 -0.10582282888E+04  0.10582282937E+04  0.10100000352E+00 0. -1.
    10030    2    1    2    0    0  0.00000000000E+00  0.00000000000E+00  0.10489710854E+04  0.31654276703E+04  0.29865685993E+04 0.  0.
        1    1    3    3  502    0  0.50364887436E+03  0.53779924879E+03 -0.85214830141E+03  0.11265198393E+04  0.50400001928E-02 0. -1.
       -1    1    3    3    0  502 -0.50364887436E+03 -0.53779924879E+03  0.19011193868E+04  0.20389078311E+04  0.50400001928E-02 0.  1.
</event>
<event>
 5   0  0.5916703E-07  0.3001329E+04  0.7818609E-02  0.8243351E-01
       -1   -1    0    0    0  501  0.00000000000E+00  0.00000000000E+00  0.12696304232E+04  0.12696304232E+04  0.50400001928E-02 0. -1.
        1   -1    0    0  501    0  0.00000000000E+00  0.00000000000E+00 -0.17737400745E+04  0.17737400745E+04  0.50400001928E-02 0.  1.
    10030    2    1    2    0    0  0.00000000000E+00  0.00000000000E+00 -0.50410965131E+03  0.30433704977E+04  0.30013292798E+04 0.  0.
        5    1    3    3  502    0  0.64334211922E+03 -0.55646215471E+03  0.10015607880E+04  0.13140339851E+04  0.46999998093E+01 0. -1.
       -5    1    3    3    0  502 -0.64334211922E+03  0.55646215471E+03 -0.15056704393E+04  0.17293365126E+04  0.46999998093E+01 0.  1.
</event>
<event>
 5   0  0.1635086E-06  0.2997368E+04  0.7818609E-02  0.8244483E-01
       -2   -1    0    0    0  501  0.00000000000E+00  0.00000000000E+00  0.13461807064E+04  0.13461807064E+04  0.25500000920E-02 0. -1.
        2   -1    0    0  501    0  0.00000000000E+00  0.00000000000E+00 -0.16684640986E+04  0.16684640986E+04  0.25500000920E-02 0.  1.
    10030    2    1    2    0    0  0.00000000000E+00  0.00000000000E+00 -0.32228339221E+03  0.30146448051E+04  0.29973682983E+04 0.  0.
        3    1    3    3  502    0 -0.26295569883E+03 -0.14656670661E+04  0.93301519946E+01  0.14890979519E+04  0.10100000352E+00 0.  1.
       -3    1    3    3    0  502  0.26295569883E+03  0.14656670661E+04 -0.33161354420E+03  0.15255468532E+04  0.10100000352E+00 0. -1.
</event>
<event>
 5   0  0.1674806E-06  0.2948643E+04  0.7818609E-02  0.8258550E-01
        2   -1    0    0  501    0  0.00000000000E+00  0.00000000000E+00  0.13678218489E+04  0.13678218489E+04  0.25500000920E-02 0. -1.
       -2   -1    0    0    0  501  0.00000000000E+00  0.00000000000E+00 -0.15891131607E+04  0.15891131607E+04  0.25500000920E-02 0.  1.
    10030    2    1    2    0    0  0.00000000000E+00  0.00000000000E+00 -0.22129131177E+03  0.29569350096E+04  0.29486428754E+04 0.  0.
        2    1    3    3  502    0 -0.83768950896E+02 -0.40631579285E+03  0.13080816017E+04  0.13722926938E+04  0.25500000920E-02 0. -1.
       -2    1    3    3    0  502  0.83768950896E+02  0.40631579285E+03 -0.15293729135E+04  0.15846423158E+04  0.25500000920E-02 0.  1.
</event>
<event>
 5   0  0.1723916E-06  0.2994548E+04  0.7818609E-02  0.8245289E-01
        2   -1    0    0  501    0  0.00000000000E+00  0.00000000000E+00  0.18813631422E+04  0.18813631422E+04  0.25500000920E-02 0. -1.
       -2   -1    0    0    0  501  0.00000000000E+00  0.00000000000E+00 -0.11915986359E+04  0.11915986359E+04  0.25500000920E-02 0.  1.
    10030    2    1    2    0    0  0.00000000000E+00  0.00000000000E+00  0.68976450630E+03  0.30729617780E+04  0.29945482155E+04 0.  0.
        1    1    3    3  502    0 -0.39337545789E+03 -0.10208189836E+04  0.13939098773E+04  0.17719481918E+04  0.50400001928E-02 0. -1.
       -1    1    3    3    0  502  0.39337545789E+03  0.10208189836E+04 -0.70414537104E+03  0.13010135863E+04  0.50400001928E-02 0.  1.
</event>
<event>
 5   0  0.6291798E-07  0.3007863E+04  0.7818609E-02  0.8241489E-01
        1   -1    0    0  501    0  0.00000000000E+00  0.00000000000E+00  0.16167133404E+04  0.16167133404E+04  0.50400001928E-02 0.  1.
       -1   -1    0    0    0  501  0.00000000000E+00  0.00000000000E+00 -0.13990177661E+04  0.13990177661E+04  0.50400001928E-02 0. -1.
    10030    2    1    2    0    0  0.00000000000E+00  0.00000000000E+00  0.21769557433E+03  0.30157311065E+04  0.30078634849E+04 0.  0.
        1    1    3    3  502    0 -0.26141490302E+03  0.64978688535E+03 -0.12255165252E+04  0.14115422422E+04  0.50400001928E-02 0. -1.
       -1    1    3    3    0  502  0.26141490302E+03 -0.64978688535E+03  0.14432120996E+04  0.16041888643E+04  0.50400001928E-02 0.  1.
</event>
<event>
 5   0  0.1625212E-06  0.2974945E+04  0.7818609E-02  0.8250922E-01
       -2   -1    0    0    0  501  0.00000000000E+00  0.00000000000E+00  0.10662462601E+04  0.10662462601E+04  0.25500000920E-02 0. -1.
        2   -1    0    0  501    0  0.00000000000E+00  0.00000000000E+00 -0.20751059632E+04  0.20751059632E+04  0.25500000920E-02 0.  1.
    10030    2    1    2    0    0  0.00000000000E+00  0.00000000000E+00 -0.10088597031E+04  0.31413522233E+04  0.29749446869E+04 0.  0.
        4    1    3    3  502    0  0.54798239386E+03  0.11437501090E+04  0.31630060073E+03  0.13070947551E+04  0.12699999809E+01 0. -1.
       -4    1    3    3    0  502 -0.54798239386E+03 -0.11437501090E+04 -0.13251603039E+04  0.18342574682E+04  0.12699999809E+01 0.  1.
</event>
<event>
 5   0  0.1625212E-06  0.2997184E+04  0.7818609E-02  0.8244535E-01
       -2   -1    0    0    0  501  0.00000000000E+00  0.00000000000E+00  0.96149179599E+03  0.96149179600E+03  0.25500000920E-02 0.  1.
        2   -1    0    0  501    0  0.00000000000E+00  0.00000000000E+00 -0.23357229719E+04  0.23357229719E+04  0.25500000920E-02 0. -1.
    10030    2    1    2    0    0  0.00000000000E+00  0.00000000000E+00 -0.13742311759E+04  0.32972147679E+04  0.29971843288E+04 0.  0.
        4    1    3    3  502    0  0.54654579926E+02 -0.54949792976E+03  0.84548450553E+03  0.10098419480E+04  0.12699999809E+01 0.  1.
       -4    1    3    3    0  502 -0.54654579926E+02  0.54949792976E+03 -0.22197156814E+04  0.22873728199E+04  0.12699999809E+01 0. -1.
</event>
<event>
 5   0  0.1560174E-06  0.2992853E+04  0.7818609E-02  0.8245775E-01
        2   -1    0    0  501    0  0.00000000000E+00  0.00000000000E+00  0.22047209648E+04  0.22047209648E+04  0.25500000920E-02 0.  1.
       -2   -1    0    0    0  501  0.00000000000E+00  0.00000000000E+00 -0.10156802584E+04  0.10156802584E+04  0.25500000920E-02 0. -1.
    10030    2    1    2    0    0  0.00000000000E+00  0.00000000000E+00  0.11890407064E+04  0.32204012232E+04  0.29928525250E+04 0.  0.
        5    1    3    3  502    0  0.93101964458E+03 -0.33776851411E+03  0.18015871813E+04  0.20558753876E+04  0.46999998093E+01 0.  1.
       -5    1    3    3    0  502 -0.93101964458E+03  0.33776851411E+03 -0.61254647488E+03  0.11645258355E+04  0.46999998093E+01 0. -1.
</event>
<event>
 5   0  0.5874741E-07  0.2961712E+04  0.7818609E-02  0.8254750E-01
       -1   -1    0    0    0  501  0.00000000000E+00  0.00000000000E+00  0.11082199143E+04  0.11082199143E+04  0.50400001928E-02 0.  1.
        1   -1    0    0  501    0  0.00000000000E+00  0.00000000000E+00 -0.19787899529E+04  0.19787899529E+04  0.50400001928E-02 0. -1.
    10030    2    1    2    0    0  0.00000000000E+00  0.00000000000E+00 -0.87057003866E+03  0.30870098672E+04  0.29617119590E+04 0.  0.
        4    1    3    3  502    0  0.48329054986E+03 -0.13944224274E+04 -0.56272437261E+03  0.15794442041E+04  0.12699999809E+01 0.  1.
       -4    1    3    3    0  502 -0.48329054986E+03  0.13944224274E+04 -0.30784566605E+03  0.15075656631E+04  0.12699999809E+01 0. -1.
</event>
<event>
 5   0  0.5931588E-07  0.3005391E+04  0.7818609E-02  0.8242193E-01
       -1   -1    0    0    0  501  0.00000000000E+00  0.00000000000E+00  0.12480854934E+04  0.12480854934E+04  0.50400001928E-02 0.  1.
        1   -1    0    0  501    0  0.00000000000E+00  0.00000000000E+00 -0.18092458123E+04  0.18092458123E+04  0.50400001928E-02 0. -1.
    10030    2    1    2    0    0  0.00000000000E+00  0.00000000000E+00 -0.56116031897E+03  0.30573313057E+04  0.30053907914E+04 0.  0.
        2    1    3    3  502    0  0.15785251734E+03 -0.97607261851E+03 -0.14317098831E+04  0.17399506783E+04  0.25500000920E-02 0. -1.
       -2    1    3    3    0  502 -0.15785251734E+03  0.97607261851E+03  0.87054956409E+03  0.13173806274E+04  0.25500000920E-02 0.  1.
</event>
<event>
 5   0  0.1635086E-06  0.3005199E+04  0.7818609E-02  0.8242248E-01
        2   -1    0    0  501    0  0.00000000000E+00  0.00000000000E+00  0.19180298096E+04  0.19180298096E+04  0.25500000920E-02 0.  1.
       -2   -1    0    0    0  501  0.00000000000E+00  0.00000000000E+00 -0.11771483490E+04  0.11771483490E+04  0.25500000920E-02 0. -1.
    10030    2    1    2    0    0  0.00000000000E+00  0.00000000000E+00  0.74088146064E+03  0.30951781586E+04  0.30051992438E+04 0.  0.
        3    1    3    3  502    0 -0.40461776697E+03  0.13263482843E+04  0.96646462178E+03  0.16902571354E+04  0.10100000352E+00 0.  1.
       -3    1    3    3    0  502  0.40461776697E+03 -0.13263482843E+04 -0.22558316114E+03  0.14049210232E+04  0.10100000352E+00 0. -1.
</event>
<event>
 5   0  0.1625212E-06  0.2981033E+04  0.7818609E-02  0.8249168E-01
        2   -1    0    0  501    0  0.00000000000E+00  0.00000000000E+00  0.26083410667E+04  0.26083410667E+04  0.25500000920E-02 0.  1.
       -2   -1    0    0    0  501  0.00000000000E+00  0.00000000000E+00 -0.85174395198E+03  0.85174395199E+03  0.25500000920E-02 0. -1.
    10030    2    1    2    0    0  0.00000000000E+00  0.00000000000E+00  0.17565971147E+04  0.34600850187E+04  0.29810325247E+04 0.  0.
        4    1    3    3  502    0 -0.12890696322E+04  0.63924735591E+03  0.42681838468E+03  0.15008375146E+04  0.12699999809E+01 0.  1.
       -4    1    3    3    0  502  0.12890696322E+04 -0.63924735591E+03  0.13297787301E+04  0.19592475042E+04  0.12699999809E+01 0. -1.
</event>
<event>
 5   0  0.1625212E-06  0.2999520E+04  0.7818609E-02  0.8243868E-01
        2   -1    0    0  501    0  0.00000000000E+00  0.00000000000E+00  0.17869117861E+04  0.17869117861E+04  0.25500000920E-02 0. -1.
       -2   -1    0    0    0  501  0.00000000000E+00  0.00000000000E+00 -0.12587528823E+04  0.12587528823E+04  0.25500000920E-02 0.  1.
    10030    2    1    2    0    0  0.00000000000E+00  0.00000000000E+00  0.52815890383E+03  0.30456646684E+04  0.29995202024E+04 0.  0.
        4    1    3    3  502    0  0.26495421521E+03 -0.35467821423E+03 -0.11908921871E+04  0.12705208326E+04  0.12699999809E+01 0.  1.
       -4    1    3    3    0  502 -0.26495421521E+03  0.35467821423E+03  0.17190510909E+04  0.17751438358E+04  0.12699999809E+01 0. -1.
</event>
<event>
 5   0  0.5887179E-07  0.3026661E+04  0.7818609E-02  0.8236158E-01
       -1   -1    0    0    0  501  0.00000000000E+00  0.00000000000E+00  0.12088765931E+04  0.12088765931E+04  0.50400001928E-02 0.  1.
        1   -1    0    0  501    0  0.00000000000E+00  0.00000000000E+00 -0.18944604680E+04  0.18944604680E+04  0.50400001928E-02 0. -1.
    10030    2    1    2    0    0  0.00000000000E+00  0.00000000000E+00 -0.68558387491E+03  0.31033370611E+04  0.30266608110E+04 0.  0.
        3    1    3    3  502    0 -0.11905831870E+04  0.81023772517E+03 -0.81953944224E+03  0.16569907676E+04  0.10100000352E+00 0.  1.
       -3    1    3    3    0  502  0.11905831870E+04 -0.81023772517E+03  0.13395556733E+03  0.14463462935E+04  0.10100000352E+00 0. -1.
</event>
<event>
 5   0  0.6291798E-07  0.3004675E+04  0.7818609E-02  0.8242397E-01
        1   -1    0    0  501    0  0.00000000000E+00  0.00000000000E+00  0.13805406092E+04  0.13805406092E+04  0.50400001928E-02 0.  1.
       -1   -1    0    0    0  501  0.00000000000E+00  0.00000000000E+00 -0.16348794723E+04  0.16348794723E+04  0.50400001928E-02 0. -1.
    10030    2    1    2    0    0  0.00000000000E+00  0.00000000000E+00 -0.25433886309E+03  0.30154200816E+04  0.30046746931E+04 0.  0.
        1    1    3    3  502    0  0.87101083745E+02 -0.14759324583E+04 -0.39468280153E+03  0.15302737449E+04  0.50400001928E-02 0.  1.
       -1    1    3    3    0  502 -0.87101083745E+02  0.14759324583E+04  0.14034393844E+03  0.14851463367E+04  0.50400001928E-02 0. -1.
</event>
<event>
 5   0  0.5931588E-07  0.3003084E+04  0.7818609E-02  0.8242851E-01
       -1   -1    0    0    0  501  0.00000000000E+00  0.00000000000E+00  0.12686532543E+04  0.12686532544E+04  0.50400001928E-02 0.  1.
        1   -1    0    0  501    0  0.00000000000E+00  0.00000000000E+00 -0.17771823354E+04  0.17771823355E+04  0.50400001928E-02 0. -1.
    10030    2    1    2    0    0  0.00000000000E+00  0.00000000000E+00 -0.50852908111E+03  0.30458355898E+04  0.30030838506E+04 0.  0.
        2    1    3    3  502    0  0.35894195333E+03  0.14580053075E+04 -0.25736598072E+03  0.15234356077E+04  0.25500000920E-02 0.  1.
       -2    1    3    3    0  502 -0.35894195333E+03 -0.14580053075E+04 -0.25116310038E+03  0.15223999821E+04  0.25500000920E-02 0. -1.
</event>
<event>
 5   0  0.1723916E-06  0.3000086E+04  0.7818609E-02  0.8243706E-01
       -2   -1    0    0    0  501  0.00000000000E+00  0.00000000000E+00  0.91974903312E+03  0.91974903312E+03  0.25500000920E-02 0.  1.
        2   -1    0    0  501    0  0.00000000000E+00  0.00000000000E+00 -0.24464592299E+04  0.24464592299E+04  0.25500000920E-02 0. -1.
    10030    2    1    2    0    0  0.00000000000E+00  0.00000000000E+00 -0.15267101968E+04  0.33662082630E+04  0.30000856730E+04 0.  0.
        1    1    3    3  502    0 -0.11891542519E+04 -0.35003138095E+03 -0.17111404828E+04  0.21129627433E+04  0.50400001928E-02 0. -1.
       -1    1    3    3    0  502  0.11891542519E+04  0.35003138095E+03  0.18443028603E+03  0.12532455198E+04  0.50400001928E-02 0.  1.
</event>
<event>
 5   0  0.1625212E-06  0.3003684E+04  0.7818609E-02  0.8242680E-01
        2   -1    0    0  501    0  0.00000000000E+00  0.00000000000E+00  0.12823718585E+04  0.12823718585E+04  0.25500000920E-02 0.  1.
       -2   -1    0    0    0  501  0.00000000000E+00  0.00000000000E+00 -0.17588726482E+04  0.17588726482E+04  0.25500000920E-02 0. -1.
    10030    2    1    2    0    0  0.00000000000E+00  0.00000000000E+00 -0.47650078972E+03  0.30412445067E+04  0.30036835964E+04 0.  0.
        4    1    3    3  502    0 -0.10679239145E+04  0.46830559273E+03  0.72002847193E+03  0.13704795615E+04  0.12699999809E+01 0.  1.
       -4    1    3    3    0  502  0.10679239145E+04 -0.46830559273E+03 -0.11965292617E+04  0.16707649452E+04  0.12699999809E+01 0. -1.
</event>
<event>
 5   0  0.5916703E-07  0.2994707E+04  0.7818609E-02  0.8245244E-01
        1   -1    0    0  501    0  0.00000000000E+00  0.00000000000E+00  0.12041211405E+04  0.12041211405E+04  0.50400001928E-02 0. -1.
       -1   -1    0    0    0  501  0.00000000000E+00  0.00000000000E+00 -0.18619949758E+04  0.18619949758E+04  0.50400001928E-02 0.  1.
    10030    2    1    2    0    0  0.00000000000E+00  0.00000000000E+00 -0.65787383527E+03  0.30661161163E+04  0.29947070066E+04 0.  0.
        5    1    3    3  502    0 -0.11588472106E+04 -0.29985898187E+03 -0.12499441563E+04  0.17306717627E+04  0.46999998093E+01 0.  1.
       -5    1    3    3    0  502  0.11588472106E+04  0.29985898187E+03  0.59207032101E+03  0.13354443536E+04  0.46999998093E+01 0. -1.
</event>
<event>
 5   0  0.1723916E-06  0.2990929E+04  0.7818609E-02  0.8246326E-01
        2   -1    0    0  501    0  0.00000000000E+00  0.00000000000E+00  0.15120290866E+04  0.15120290866E+04  0.25500000920E-02 0. -1.
       -2   -1    0    0    0  501  0.00000000000E+00  0.00000000000E+00 -0.14790818675E+04  0.14790818675E+04  0.25500000920E-02 0.  1.
    10030    2    1    2    0    0  0.00000000000E+00  0.00000000000E+00  0.32947219110E+02  0.29911109541E+04  0.29909294910E+04 0.  0.
        1    1    3    3  502    0 -0.35497466463E+02  0.21101289339E+03 -0.14636933126E+04  0.14792513731E+04  0.50400001928E-02 0.  1.
       -1    1    3    3    0  502  0.35497466463E+02 -0.21101289339E+03  0.14966405317E+04  0.15118595810E+04  0.50400001928E-02 0. -1.
</event>
<event>
 5   0  0.5887179E-07  0.3002155E+04  0.7818609E-02  0.8243116E-01
       -1   -1    0    0    0  501  0.00000000000E+00  0.00000000000E+00  0.13025303929E+04  0.13025303929E+04  0.50400001928E-02 0. -1.
        1   -1    0    0  501    0  0.00000000000E+00  0.00000000000E+00 -0.17298896319E+04  0.17298896319E+04  0.50400001928E-02 0.  1.
    10030    2    1    2    0    0  0.00000000000E+00  0.00000000000E+00 -0.42735923899E+03  0.30324200248E+04  0.30021551072E+04 0.  0.
        3    1    3    3  502    0  0.31242443570E+03  0.41389428165E+03 -0.16365380131E+04  0.17167335795E+04  0.10100000352E+00 0.  1.
       -3    1    3    3    0  502 -0.31242443570E+03 -0.41389428165E+03  0.12091787741E+04  0.13156864453E+04  0.10100000352E+00 0. -1.
</event>
<event>
 5   0  0.5916703E-07  0.3004760E+04  0.7818609E-02  0.8242373E-01
       -1   -1    0    0    0  501  0.00000000000E+00  0.00000000000E+00  0.16384957617E+04  0.16384957617E+04  0.50400001928E-02 0.  1.
        1   -1    0    0  501    0  0.00000000000E+00  0.00000000000E+00 -0.13775715971E+04  0.13775715971E+04  0.50400001928E-02 0. -1.
    10030    2    1    2    0    0  0.00000000000E+00  0.00000000000E+00  0.26092416456E+03  0.30160673588E+04  0.30047597063E+04 0.  0.
        5    1    3    3  502    0  0.34141529934E+03 -0.40121415893E+03 -0.12818103068E+04  0.13858560389E+04  0.46999998093E+01 0. -1.
       -5    1    3    3    0  502 -0.34141529934E+03  0.40121415893E+03  0.15427344714E+04  0.16302113198E+04  0.46999998093E+01 0.  1.
</event>
<event>
 5   0  0.5916703E-07  0.2991036E+04  0.7818609E-02  0.8246295E-01
       -1   -1    0    0    0  501  0.00000000000E+00  0.00000000000E+00  0.16558379000E+04  0.16558379000E+04  0.50400001928E-02 0. -1.
        1   -1    0    0  501    0  0.00000000000E+00  0.00000000000E+00 -0.13507208717E+04  0.13507208717E+04  0.50400001928E-02 0.  1.
    10030    2    1    2    0    0  0.00000000000E+00  0.00000000000E+00  0.30511702824E+03  0.30065587717E+04  0.29910364837E+04 0.  0.
        5    1    3    3  502    0 -0.38514487539E+03 -0.40694787989E+03  0.15463362960E+04  0.16447252604E+04  0.46999998093E+01 0. -1.
       -5    1    3    3    0  502  0.38514487539E+03  0.40694787989E+03 -0.12412192677E+04  0.13618335113E+04  0.46999998093E+01 0.  1.
</event>
<event>
 5   0  0.1560174E-06  0.2998512E+04  0.7818609E-02  0.8244156E-01
        2   -1    0    0  501    0  0.00000000000E+00  0.00000000000E+00  0.13823954128E+04  0.13823954128E+04  0.25500000920E-02 0.  1.
       -2   -1    0    0    0  501  0.00000000000E+00  0.00000000000E+00 -0.16259957056E+04  0.16259957057E+04  0.25500000920E-02 0. -1.
    10030    2    1    2    0    0  0.00000000000E+00  0.00000000000E+00 -0.24360029281E+03  0.30083911185E+04  0.29985123010E+04 0.  0.
        5    1    3    3  502    0 -0.35174651259E+03 -0.12823880944E+04  0.57294210416E+03  0.14479397704E+04  0.46999998093E+01 0.  1.
       -5    1    3    3    0  502  0.35174651259E+03  0.12823880944E+04 -0.81654239697E+03  0.15604513481E+04  0.46999998093E+01 0. -1.
</event>
<event>
 5   0  0.1560174E-06  0.2993386E+04  0.7818609E-02  0.8245622E-01
        2   -1    0    0  501    0  0.00000000000E+00  0.00000000000E+00  0.18956535276E+04  0.18956535276E+04  0.25500000920E-02 0.  1.
       -2   -1    0    0    0  501  0.00000000000E+00  0.00000000000E+00 -0.11816982941E+04  0.11816982941E+04  0.25500000920E-02 0. -1.
    10030    2    1    2    0    0  0.00000000000E+00  0.00000000000E+00  0.71395523344E+03  0.30773518217E+04  0.29933864032E+04 0.  0.
        5    1    3    3  502    0 -0.12633054687E+03 -0.14750353754E+04  0.58310121206E+03  0.15911372912E+04  0.46999998093E+01 0. -1.
       -5    1    3    3    0  502  0.12633054687E+03  0.14750353754E+04  0.13085402139E+03  0.14862145305E+04  0.46999998093E+01 0.  1.
</event>
<event>
 5   0  0.1625212E-06  0.3010540E+04  0.7818609E-02  0.8240727E-01
       -2   -1    0    0    0  501  0.00000000000E+00  0.00000000000E+00  0.14291677355E+04  0.14291677355E+04  0.25500000920E-02 0. -1.
        2   -1    0    0  501    0  0.00000000000E+00  0.00000000000E+00 -0.15854248211E+04  0.15854248211E+04  0.25500000920E-02 0.  1.
    10030    2    1    2    0    0  0.00000000000E+00  0.00000000000E+00 -0.15625708558E+03  0.30145925566E+04  0.30105401518E+04 0.  0.
        4    1    3    3  502    0  0.10507613823E+03  0.81781976365E+03 -0.13391752318E+04  0.15726608265E+04  0.12699999809E+01 0.  1.
       -4    1    3    3    0  502 -0.10507613823E+03 -0.81781976365E+03  0.11829181463E+04  0.14419317301E+04  0.12699999809E+01 0. -1.
</event>
<event>
 5   0  0.6291798E-07  0.3001471E+04  0.7818609E-02  0.8243311E-01
        1   -1    0    0  501    0  0.00000000000E+00  0.00000000000E+00  0.13812580727E+04  0.13812580727E+04  0.50400001928E-02 0. -1.
       -1   -1    0    0    0  501  0.00000000000E+00  0.00000000000E+00 -0.16305481315E+04  0.16305481315E+04  0.50400001928E-02 0.  1.
    10030    2    1    2    0    0  0.00000000000E+00  0.00000000000E+00 -0.24929005881E+03  0.30118062042E+04  0.30014714855E+04 0.  0.
        1    1    3    3  502    0  0.10597329121E+04  0.32300946463E+03 -0.11404739747E+04  0.15899842283E+04  0.50400001928E-02 0.  1.
       -1    1    3    3    0  502 -0.10597329121E+04 -0.32300946463E+03  0.89118391589E+03  0.14218219759E+04  0.50400001928E-02 0. -1.
</event>
<event>
 5   0  0.1560174E-06  0.3026641E+04  0.7818609E-02  0.8236164E-01
       -2   -1    0    0    0  501  0.00000000000E+00  0.00000000000E+00  0.16938924970E+04  0.16938924970E+04  0.25500000920E-02 0.  1.
        2   -1    0    0  501    0  0.00000000000E+00  0.00000000000E+00 -0.13519977336E+04  0.13519977336E+04  0.25500000920E-02 0. -1.
    10030    2    1    2    0    0  0.00000000000E+00  0.00000000000E+00  0.34189476333E+03  0.30458902306E+04  0.30266409215E+04 0.  0.
        5    1    3    3  502    0  0.95248877025E+03 -0.32318132969E+03  0.13088177626E+04  0.16506686690E+04  0.46999998093E+01 0.  1.
       -5    1    3    3    0  502 -0.95248877025E+03  0.32318132969E+03 -0.96692299925E+03  0.13952215615E+04  0.46999998093E+01 0. -1.
</event>
<event>
 5   0  0.5916703E-07  0.3022414E+04  0.7818609E-02  0.8237359E-01
       -1   -1    0    0    0  501  0.00000000000E+00  0.00000000000E+00  0.24679254910E+04  0.24679254910E+04  0.50400001928E-02 0. -1.
        1   -1    0    0  501    0  0.00000000000E+00  0.00000000000E+00 -0.92537112189E+03  0.92537112191E+03  0.50400001928E-02 0.  1.
    10030    2    1    2    0    0  0.00000000000E+00  0.00000000000E+00  0.15425543691E+04  0.33932966129E+04  0.30224142538E+04 0.  0.
        5    1    3    3  502    0 -0.86649561728E+03  0.11864494988E+04  0.37394574847E+03  0.15160259169E+04  0.46999998093E+01 0.  1.
       -5    1    3    3    0  502  0.86649561728E+03 -0.11864494988E+04  0.11686086207E+04  0.18772706960E+04  0.46999998093E+01 0. -1.
</event>
<event>
 5   0  0.1635086E-06  0.2997563E+04  0.7818609E-02  0.8244427E-01
        2   -1    0    0  501    0  0.00000000000E+00  0.00000000000E+00  0.13607616093E+04  0.13607616093E+04  0.25500000920E-02 0.  1.
       -2   -1    0    0    0  501  0.00000000000E+00  0.00000000000E+00 -0.16508010566E+04  0.16508010566E+04  0.25500000920E-02 0. -1.
    10030    2    1    2    0    0  0.00000000000E+00  0.00000000000E+00 -0.29003944731E+03  0.30115626659E+04  0.29975634788E+04 0.  0.
        3    1    3    3  502    0  0.37982522197E+03  0.22923527113E+03 -0.15833238553E+04  0.16443024204E+04  0.10100000352E+00 0. -1.
       -3    1    3    3    0  502 -0.37982522197E+03 -0.22923527113E+03  0.12932844080E+04  0.13672602455E+04  0.10100000352E+00 0.  1.
</event>
<event>
 5   0  0.1560174E-06  0.2988037E+04  0.7818609E-02  0.8247155E-01
        2   -1    0    0  501    0  0.00000000000E+00  0.00000000000E+00  0.16177012436E+04  0.16177012436E+04  0.25500000920E-02 0. -1.
       -2   -1    0    0    0  501  0.00000000000E+00  0.00000000000E+00 -0.13797920380E+04  0.13797920380E+04  0.25500000920E-02 0.  1.
    10030    2    1    2    0    0  0.00000000000E+00  0.00000000000E+00  0.23790920552E+03  0.29974932816E+04  0.29880370117E+04 0.  0.
        5    1    3    3  502    0 -0.10070957882E+04  0.22128438832E+03  0.12035146121E+04  0.15848275044E+04  0.46999998093E+01 0. -1.
       -5    1    3    3    0  502  0.10070957882E+04 -0.22128438832E+03 -0.96560540656E+03  0.14126657773E+04  0.46999998093E+01 0.  1.
</event>
<event>
 5   0  0.5874741E-07  0.2998327E+04  0.7818609E-02  0.8244209E-01
        1   -1    0    0  501    0  0.00000000000E+00  0.00000000000E+00  0.19803971739E+04  0.19803971739E+04  0.50400001928E-02 0.  1.
       -1   -1    0    0    0  501  0.00000000000E+00  0.00000000000E+00 -0.11348692491E+04  0.11348692491E+04  0.50400001928E-02 0. -1.
    10030    2    1    2    0    0  0.00000000000E+00  0.00000000000E+00  0.84552792477E+03  0.31152664230E+04  0.29983274362E+04 0.  0.
        4    1    3    3  502    0 -0.61144642395E+03 -0.17733992649E+03  0.18329664192E+04  0.19403823555E+04  0.12699999809E+01 0.  1.
       -4    1    3    3    0  502  0.61144642395E+03  0.17733992649E+03 -0.98743849442E+03  0.11748840675E+04  0.12699999809E+01 0. -1.
</event>
<event>
 5   0  0.1635086E-06  0.3006514E+04  0.7818609E-02  0.8241873E-01
       -2   -1    0    0    0  501  0.00000000000E+00  0.00000000000E+00  0.12252231808E+04  0.12252231808E+04  0.25500000920E-02 0.  1.
        2   -1    0    0  501    0  0.00000000000E+00  0.00000000000E+00 -0.18443841393E+04  0.18443841393E+04  0.25500000920E-02 0. -1.
    10030    2    1    2    0    0  0.00000000000E+00  0.00000000000E+00 -0.61916095848E+03  0.30696073202E+04  0.30065143950E+04 0.  0.
        3    1    3    3  502    0 -0.32163412962E+03 -0.46121224153E+02 -0.18081027488E+04  0.18370659327E+04  0.10100000352E+00 0. -1.
       -3    1    3    3    0  502  0.32163412962E+03  0.46121224153E+02  0.11889417904E+04  0.12325413874E+04  0.10100000352E+00 0.  1.
</event>
<event>
 5   0  0.1674806E-06  0.3004291E+04  0.7818609E-02  0.8242507E-01
       -2   -1    0    0    0  501  0.00000000000E+00  0.00000000000E+00  0.21213116070E+04  0.21213116070E+04  0.25500000920E-02 0. -1.
        2   -1    0    0  501    0  0.00000000000E+00  0.00000000000E+00 -0.10637006104E+04  0.10637006104E+04  0.25500000920E-02 0.  1.
    10030    2    1    2    0    0  0.00000000000E+00  0.00000000000E+00  0.10576109967E+04  0.31850122174E+04  0.30042905660E+04 0.  0.
        2    1    3    3  502    0  0.11934611442E+04 -0.14869453255E+03 -0.42532230941E+03  0.12756796751E+04  0.25500000920E-02 0.  1.
       -2    1    3    3    0  502 -0.11934611442E+04  0.14869453255E+03  0.14829333061E+04  0.19093325423E+04  0.25500000920E-02 0. -1.
</event>
<event>
 5   0  0.1625212E-06  0.2988889E+04  0.7818609E-02  0.8246911E-01
        2   -1    0    0  501    0  0.00000000000E+00  0.00000000000E+00  0.20187474585E+04  0.20187474585E+04  0.25500000920E-02 0. -1.
       -2   -1    0    0    0  501  0.00000000000E+00  0.00000000000E+00 -0.11063122436E+04  0.11063122436E+04  0.25500000920E-02 0.  1.
    10030    2    1    2    0    0  0.00000000000E+00  0.00000000000E+00  0.91243521487E+03  0.31250597022E+04  0.29888894460E+04 0.  0.
        4    1    3    3  502    0 -0.26693506240E+03  0.22710327225E+02 -0.10810003991E+04  0.11137026363E+04  0.12699999809E+01 0.  1.
       -4    1    3    3    0  502  0.26693506240E+03 -0.22710327225E+02  0.19934356139E+04  0.20113570658E+04  0.12699999809E+01 0. -1.
</event>
<event>
 5   0  0.1560174E-06  0.3000077E+04  0.7818609E-02  0.8243709E-01
        2   -1    0    0  501    0  0.00000000000E+00  0.00000000000E+00  0.75501795787E+03  0.75501795787E+03  0.25500000920E-02 0.  1.
       -2   -1    0    0    0  501  0.00000000000E+00  0.00000000000E+00 -0.29802137771E+04  0.29802137771E+04  0.25500000920E-02 0. -1.
    10030    2    1    2    0    0  0.00000000000E+00  0.00000000000E+00 -0.22251958192E+04  0.37352317350E+04  0.30000766124E+04 0.  0.
        5    1    3    3  502    0  0.46306885048E+03 -0.30950951939E+03 -0.28466847360E+04  0.29006662992E+04  0.46999998093E+01 0. -1.
       -5    1    3    3    0  502 -0.46306885048E+03  0.30950951939E+03  0.62148891680E+03  0.83456543578E+03  0.46999998093E+01 0.  1.
</event>
<event>
 5   0  0.1723916E-06  0.3002242E+04  0.7818609E-02  0.8243091E-01
        2   -1    0    0  501    0  0.00000000000E+00  0.00000000000E+00  0.21865610894E+04  0.21865610894E+04  0.25500000920E-02 0.  1.
       -2   -1    0    0    0  501  0.00000000000E+00  0.00000000000E+00 -0.10305518393E+04  0.10305518393E+04  0.25500000920E-02 0. -1.
    10030    2    1    2    0    0  0.00000000000E+00  0.00000000000E+00  0.11560092501E+04  0.32171129287E+04  0.30022421971E+04 0.  0.
        1    1    3    3  502    0 -0.18002871222E+03  0.33462203050E+03  0.21341746652E+04  0.21677370095E+04  0.50400001928E-02 0.  1.
       -1    1    3    3    0  502  0.18002871222E+03 -0.33462203050E+03 -0.97816541516E+03  0.10493759193E+04  0.50400001928E-02 0. -1.
</event>
<event>
 5   0  0.1723916E-06  0.2991874E+04  0.7818609E-02  0.8246055E-01
        2   -1    0    0  501    0  0.00000000000E+00  0.00000000000E+00  0.22301934471E+04  0.22301934471E+04  0.25500000920E-02 0. -1.
       -2   -1    0    0    0  501  0.00000000000E+00  0.00000000000E+00 -0.10034228512E+04  0.10034228512E+04  0.25500000920E-02 0.  1.
    10030    2    1    2    0    0  0.00000000000E+00  0.00000000000E+00  0.12267705958E+04  0.32336162983E+04  0.29918737056E+04 0.  0.
        1    1    3    3  502    0 -0.13423663545E+04 -0.16189698536E+03  0.13051553888E+04  0.18792521525E+04  0.50400001928E-02 0. -1.
       -1    1    3    3    0  502  0.13423663545E+04  0.16189698536E+03 -0.78384792992E+02  0.13543641458E+04  0.50400001928E-02 0.  1.
</event>
<event>
 5   0  0.6291798E-07  0.3029804E+04  0.7818609E-02  0.8235271E-01
       -1   -1    0    0    0  501  0.00000000000E+00  0.00000000000E+00  0.10900392228E+04  0.10900392228E+04  0.50400001928E-02 0.  1.
        1   -1    0    0  501    0  0.00000000000E+00  0.00000000000E+00 -0.21053629729E+04  0.21053629729E+04  0.50400001928E-02 0. -1.
    10030    2    1    2    0    0  0.00000000000E+00  0.00000000000E+00 -0.10153237501E+04  0.31954021957E+04  0.30298040984E+04 0.  0.
        1    1    3    3  502    0 -0.64239416051E+03  0.58993558487E+03 -0.18140035360E+04  0.20127849067E+04  0.50400001928E-02 0. -1.
       -1    1    3    3    0  502  0.64239416051E+03 -0.58993558487E+03  0.79867978595E+03  0.11826172890E+04  0.50400001928E-02 0.  1.
</event>
<event>
 5   0  0.5931588E-07  0.3010303E+04  0.7818609E-02  0.8240795E-01
        1   -1    0    0  501    0  0.00000000000E+00  0.00000000000E+00  0.93415844851E+03  0.93415844852E+03  0.50400001928E-02 0.  1.
       -1   -1    0    0    0  501  0.00000000000E+00  0.00000000000E+00 -0.24251578127E+04  0.24251578127E+04  0.50400001928E-02 0. -1.
    10030    2    1    2    0    0  0.00000000000E+00  0.00000000000E+00 -0.14909993642E+04  0.33593162612E+04  0.30103034131E+04 0.  0.
        2    1    3    3  502    0  0.68971274524E+03  0.68167289832E+03  0.53909155800E+03  0.11095049883E+04  0.25500000920E-02 0.  1.
       -2    1    3    3    0  502 -0.68971274524E+03 -0.68167289832E+03 -0.20300909222E+04  0.22498112729E+04  0.25500000920E-02 0. -1.
</event>
<event>
 5   0  0.1723916E-06  0.2985170E+04  0.7818609E-02  0.8247978E-01
        2   -1    0    0  501    0  0.00000000000E+00  0.00000000000E+00  0.14715656227E+04  0.14715656227E+04  0.25500000920E-02 0.  1.
       -2   -1    0    0    0  501  0.00000000000E+00  0.00000000000E+00 -0.15139043675E+04  0.15139043675E+04  0.25500000920E-02 0. -1.
    10030    2    1    2    0    0  0.00000000000E+00  0.00000000000E+00 -0.42338744773E+02  0.29854699902E+04  0.29851697595E+04 0.  0.
        1    1    3    3  502    0  0.69606783944E+03  0.97063006855E+03  0.87400525830E+03  0.14800399855E+04  0.50400001928E-02 0.  1.
       -1    1    3    3    0  502 -0.69606783944E+03 -0.97063006855E+03 -0.91634400307E+03  0.15054300047E+04  0.50400001928E-02 0. -1.
</event>
<event>
 5   0  0.5916703E-07  0.3004827E+04  0.7818609E-02  0.8242354E-01
        1   -1    0    0  501    0  0.00000000000E+00  0.00000000000E+00  0.22692824342E+04  0.22692824342E+04  0.50400001928E-02 0. -1.
       -1   -1    0    0    0  501  0.00000000000E+00  0.00000000000E+00 -0.99469598057E+03  0.99469598058E+03  0.50400001928E-02 0.  1.
    10030    2    1    2    0    0  0.00000000000E+00  0.00000000000E+00  0.12745864537E+04  0.32639784148E+04  0.30048268610E+04 0.  0.
        5    1    3    3  502    0  0.22931598164E+03 -0.30523616214E+02 -0.97522526250E+03  0.10022993132E+04  0.46999998093E+01 0.  1.
       -5    1    3    3    0  502 -0.22931598164E+03  0.30523616214E+02  0.22498117162E+04  0.22616791016E+04  0.46999998093E+01 0. -1.
</event>
<event>
 5   0  0.1560174E-06  0.2986149E+04  0.7818609E-02  0.8247697E-01
        2   -1    0    0  501    0  0.00000000000E+00  0.00000000000E+00  0.12128248021E+04  0.12128248021E+04  0.25500000920E-02 0. -1.
       -2   -1    0    0    0  501  0.00000000000E+00  0.00000000000E+00 -0.18380821904E+04  0.18380821904E+04  0.25500000920E-02 0.  1.
    10030    2    1    2    0    0  0.00000000000E+00  0.00000000000E+00 -0.62525738836E+03  0.30509069925E+04  0.29861491381E+04 0.  0.
        5    1    3    3  502    0 -0.58615210459E+03  0.57743028685E+03  0.96028291097E+03  0.12645811105E+04  0.46999998093E+01 0. -1.
       -5    1    3    3    0  502  0.58615210459E+03 -0.57743028685E+03 -0.15855402993E+04  0.17863258820E+04  0.46999998093E+01 0.  1.
</event>
<event>
 5   0  0.5887179E-07  0.3003124E+04  0.7818609E-02  0.8242839E-01
        1   -1    0    0  501    0  0.00000000000E+00  0.00000000000E+00  0.13838932179E+04  0.13838932179E+04  0.50400001928E-02 0. -1.
       -1   -1    0    0    0  501  0.00000000000E+00  0.00000000000E+00 -0.16292355410E+04  0.16292355410E+04  0.50400001928E-02 0.  1.
    10030    2    1    2    0    0  0.00000000000E+00  0.00000000000E+00 -0.24534232310E+03  0.30131287588E+04  0.30031237174E+04 0.  0.
        3    1    3    3  502    0  0.23832875927E+03 -0.73434696415E+03 -0.14148367470E+04  0.16117782391E+04  0.10100000352E+00 0.  1.
       -3    1    3    3    0  502 -0.23832875927E+03  0.73434696415E+03  0.11694944239E+04  0.14013505197E+04  0.10100000352E+00 0. -1.
</event>
<event>
 5   0  0.1674806E-06  0.2981717E+04  0.7818609E-02  0.8248971E-01
        2   -1    0    0  501    0  0.00000000000E+00  0.00000000000E+00  0.13558338332E+04  0.13558338332E+04  0.25500000920E-02 0. -1.
       -2   -1    0    0    0  501  0.00000000000E+00  0.00000000000E+00 -0.16393300305E+04  0.16393300305E+04  0.25500000920E-02 0.  1.
    10030    2    1    2    0    0  0.00000000000E+00  0.00000000000E+00 -0.28349619734E+03  0.29951638637E+04  0.29817170349E+04 0.  0.
        2    1    3    3  502    0  0.25456869580E+03 -0.12363876266E+03  0.13286041924E+04  0.13584111545E+04  0.25500000920E-02 0. -1.
       -2    1    3    3    0  502 -0.25456869580E+03  0.12363876266E+03 -0.16121003897E+04  0.16367527092E+04  0.25500000920E-02 0.  1.
</event>
<event>
 5   0  0.5874741E-07  0.3023425E+04  0.7818609E-02  0.8237073E-01
       -1   -1    0    0    0  501  0.00000000000E+00  0.00000000000E+00  0.96374240099E+03  0.96374240100E+03  0.50400001928E-02 0. -1.
        1   -1    0    0  501    0  0.00000000000E+00  0.00000000000E+00 -0.23712503132E+04  0.23712503132E+04  0.50400001928E-02 0.  1.
    10030    2    1    2    0    0  0.00000000000E+00  0.00000000000E+00 -0.14075079122E+04  0.33349927142E+04  0.30234248595E+04 0.  0.
        4    1    3    3  502    0  0.75152897384E+03 -0.10387438260E+04  0.17971254625E+03  0.12946361446E+04  0.12699999809E+01 0. -1.
       -4    1    3    3    0  502 -0.75152897384E+03  0.10387438260E+04 -0.15872204585E+04  0.20403565697E+04  0.12699999809E+01 0.  1.
</event>
<event>
 5   0  0.5916703E-07  0.3015677E+04  0.7818609E-02  0.8239268E-01
       -1   -1    0    0    0  501  0.00000000000E+00  0.00000000000E+00  0.84663011955E+03  0.84663011957E+03  0.50400001928E-02 0.  1.
        1   -1    0    0  501    0  0.00000000000E+00  0.00000000000E+00 -0.26854431046E+04  0.26854431046E+04  0.50400001928E-02 0. -1.
    10030    2    1    2    0    0  0.00000000000E+00  0.00000000000E+00 -0.18388129851E+04  0.35320732242E+04  0.30156770495E+04 0.  0.
        5    1    3    3  502    0  0.11347373907E+04  0.99266295924E+03 -0.89203284213E+03  0.17517857683E+04  0.46999998093E+01 0. -1.
       -5    1    3    3    0  502 -0.11347373907E+04 -0.99266295924E+03 -0.94678014293E+03  0.17802874559E+04  0.46999998093E+01 0.  1.
</event>
<event>
 5   0  0.6291798E-07  0.3015189E+04  0.7818609E-02  0.8239407E-01
        1   -1    0    0  501    0  0.00000000000E+00  0.00000000000E+00  0.23326641951E+04  0.23326641951E+04  0.50400001928E-02 0.  1.
       -1   -1    0    0    0  501  0.00000000000E+00  0.00000000000E+00 -0.97435443438E+03  0.97435443440E+03  0.50400001928E-02 0. -1.
    10030    2    1    2    0    0  0.00000000000E+00  0.00000000000E+00  0.13583097607E+04  0.33070186295E+04  0.30151893489E+04 0.  0.
        1    1    3    3  502    0  0.35768443082E+03  0.69588230978E+02  0.22836379186E+04  0.23125273657E+04  0.50400001928E-02 0.  1.
       -1    1    3    3    0  502 -0.35768443082E+03 -0.69588230978E+02 -0.92532815788E+03  0.99449126378E+03  0.50400001928E-02 0. -1.
</event>
<event>
 5   0  0.5931588E-07  0.2998149E+04  0.7818609E-02  0.8244260E-01
        1   -1    0    0  501    0  0.00000000000E+00  0.00000000000E+00  0.14024045000E+04  0.14024045000E+04  0.50400001928E-02 0. -1.
       -1   -1    0    0    0  501  0.00000000000E+00  0.00000000000E+00 -0.16024079496E+04  0.16024079496E+04  0.50400001928E-02 0.  1.
    10030    2    1    2    0    0  0.00000000000E+00  0.00000000000E+00 -0.20000344962E+03  0.30048124496E+04  0.29981488418E+04 0.  0.
        2    1    3    3  502    0 -0.13633942332E+04  0.44262445035E+03  0.33968038936E+03  0.14731405248E+04  0.25500000920E-02 0.  1.
       -2    1    3    3    0  502  0.13633942332E+04 -0.44262445035E+03 -0.53968383898E+03  0.15316719248E+04  0.25500000920E-02 0. -1.
</event>
<event>
 5   0  0.1635086E-06  0.3011062E+04  0.7818609E-02  0.8240579E-01
        2   -1    0    0  501    0  0.00000000000E+00  0.00000000000E+00  0.18730498026E+04  0.18730498026E+04  0.25500000920E-02 0.  1.
       -2   -1    0    0    0  501  0.00000000000E+00  0.00000000000E+00 -0.12101245021E+04  0.12101245021E+04  0.25500000920E-02 0. -1.
    10030    2    1    2    0    0  0.00000000000E+00  0.00000000000E+00  0.66292530052E+03  0.30831743047E+04  0.30110619122E+04 0.  0.
        3    1    3    3  502    0 -0.67919079582E+03  0.13396289727E+04  0.43746749225E+03  0.15643796658E+04  0.10100000352E+00 0. -1.
       -3    1    3    3    0  502  0.67919079582E+03 -0.13396289727E+04  0.22545780827E+03  0.15187946389E+04  0.10100000352E+00 0.  1.
</event>
<event>
 5   0  0.1723916E-06  0.3005047E+04  0.7818609E-02  0.8242291E-01
        2   -1    0    0  501    0  0.00000000000E+00  0.00000000000E+00  0.18443214778E+04  0.18443214778E+04  0.25500000920E-02 0. -1.
       -2   -1    0    0    0  501  0.00000000000E+00  0.00000000000E+00 -0.12240688483E+04  0.12240688483E+04  0.25500000920E-02 0.  1.
    10030    2    1    2    0    0  0.00000000000E+00  0.00000000000E+00  0.62025262953E+03  0.30683903261E+04  0.30050467332E+04 0.  0.
        1    1    3    3  502    0 -0.16884279984E+03 -0.72848867114E+03 -0.10205606160E+04  0.12652065468E+04  0.50400001928E-02 0.  1.
       -1    1    3    3    0  502  0.16884279984E+03  0.72848867114E+03  0.16408132456E+04  0.18031837793E+04  0.50400001928E-02 0. -1.
</event>
<event>
 5   0  0.5931588E-07  0.3008182E+04  0.7818609E-02  0.8241398E-01
        1   -1    0    0  501    0  0.00000000000E+00  0.00000000000E+00  0.13935274971E+04  0.13935274971E+04  0.50400001928E-02 0. -1.
       -1   -1    0    0    0  501  0.00000000000E+00  0.00000000000E+00 -0.16234268975E+04  0.16234268975E+04  0.50400001928E-02 0.  1.
    10030    2    1    2    0    0  0.00000000000E+00  0.00000000000E+00 -0.22989940047E+03  0.30169543946E+04  0.30081821894E+04 0.  0.
        2    1    3    3  502    0 -0.67848939044E+03 -0.13416137731E+04 -0.69933934970E+02  0.15050468845E+04  0.25500000920E-02 0. -1.
       -2    1    3    3    0  502  0.67848939044E+03  0.13416137731E+04 -0.15996546550E+03  0.15119075102E+04  0.25500000920E-02 0.  1.
</event>
<event>
 5   0  0.5874741E-07  0.3016975E+04  0.7818609E-02  0.8238900E-01
        1   -1    0    0  501    0  0.00000000000E+00  0.00000000000E+00  0.27573974480E+04  0.27573974480E+04  0.50400001928E-02 0. -1.
       -1   -1    0    0    0  501  0.00000000000E+00  0.00000000000E+00 -0.82524737398E+03  0.82524737399E+03  0.50400001928E-02 0.  1.
    10030    2    1    2    0    0  0.00000000000E+00  0.00000000000E+00  0.19321500741E+04  0.35826448220E+04  0.30169753085E+04 0.  0.
        4    1    3    3  502    0  0.10419594620E+04  0.85928285637E+03  0.17639862135E+04  0.22216425279E+04  0.12699999809E+01 0. -1.
       -4    1    3    3    0  502 -0.10419594620E+04 -0.85928285637E+03  0.16816386059E+03  0.13610022941E+04  0.12699999809E+01 0.  1.
</event>
<event>
 5   0  0.5887179E-07  0.2995753E+04  0.7818609E-02  0.8244945E-01
        1   -1    0    0  501    0  0.00000000000E+00  0.00000000000E+00  0.20669231446E+04  0.20669231446E+04  0.50400001928E-02 0.  1.
       -1   -1    0    0    0  501  0.00000000000E+00  0.00000000000E+00 -0.10854949706E+04  0.10854949707E+04  0.50400001928E-02 0. -1.
    10030    2    1    2    0    0  0.00000000000E+00  0.00000000000E+00  0.98142817399E+03  0.31524181153E+04  0.29957534466E+04 0.  0.
        3    1    3    3  502    0  0.64014025422E+03 -0.46004076923E+03 -0.84955593302E+03  0.11589488116E+04  0.10100000352E+00 0. -1.
       -3    1    3    3    0  502 -0.64014025422E+03  0.46004076923E+03  0.18309841070E+04  0.19934693037E+04  0.10100000352E+00 0.  1.
</event>
<event>
 5   0  0.5874741E-07  0.2991273E+04  0.7818609E-02  0.8246227E-01
       -1   -1    0    0    0  501  0.00000000000E+00  0.00000000000E+00  0.14537164861E+04  0.14537164861E+04  0.50400001928E-02 0. -1.
        1   -1    0    0  501    0  0.00000000000E+00  0.00000000000E+00 -0.15387651006E+04  0.15387651006E+04  0.50400001928E-02 0.  1.
    10030    2    1    2    0    0  0.00000000000E+00  0.00000000000E+00 -0.85048614571E+02  0.29924815867E+04  0.29912727692E+04 0.  0.
        4    1    3    3  502    0  0.62002067866E+03 -0.30726134567E+03 -0.13689905278E+04  0.15339399775E+04  0.12699999809E+01 0.  1.
       -4    1    3    3    0  502 -0.62002067866E+03  0.30726134567E+03  0.12839419132E+04  0.14585416092E+04  0.12699999809E+01 0. -1.
</event>
<event>
 5   0  0.1674806E-06  0.3017375E+04  0.7818609E-02  0.8238787E-01
        2   -1    0    0  501    0  0.00000000000E+00  0.00000000000E+00  0.19367021689E+04  0.19367021689E+04  0.25500000920E-02 0. -1.
       -2   -1    0    0    0  501  0.00000000000E+00  0.00000000000E+00 -0.11752645701E+04  0.11752645701E+04  0.25500000920E-02 0.  1.
    10030    2    1    2    0    0  0.00000000000E+00  0.00000000000E+00  0.76143759877E+03  0.31119667389E+04  0.30173746482E+04 0.  0.
        2    1    3    3  502    0  0.28982559566E+03  0.13790510746E+04  0.93645877165E+03  0.16919621075E+04  0.25500000920E-02 0. -1.
       -2    1    3    3    0  502 -0.28982559566E+03 -0.13790510746E+04 -0.17502117288E+03  0.14200046314E+04  0.25500000920E-02 0.  1.
</event>
<event>
 5   0  0.1723916E-06  0.2959898E+04  0.7818609E-02  0.8255276E-01
       -2   -1    0    0    0  501  0.00000000000E+00  0.00000000000E+00  0.89258212557E+03  0.89258212557E+03  0.25500000920E-02 0.  1.
        2   -1    0    0  501    0  0.00000000000E+00  0.00000000000E+00 -0.24538344463E+04  0.24538344463E+04  0.25500000920E-02 0. -1.
    10030    2    1    2    0    0  0.00000000000E+00  0.00000000000E+00 -0.15612523207E+04  0.33464165719E+04  0.29598978130E+04 0.  0.
        1    1    3    3  502    0  0.41752478580E+03  0.14068020120E+04 -0.56365417625E+03  0.15719811953E+04  0.50400001928E-02 0.  1.
       -1    1    3    3    0  502 -0.41752478580E+03 -0.14068020120E+04 -0.99759814448E+03  0.17744353766E+04  0.50400001928E-02 0. -1.
</event>
<event>
 5   0  0.6291798E-07  0.2976221E+04  0.7818609E-02  0.8250554E-01
        1   -1    0    0  501    0  0.00000000000E+00  0.00000000000E+00  0.18015225306E+04  0.18015225306E+04  0.50400001928E-02 0.  1.
       -1   -1    0    0    0  501  0.00000000000E+00  0.00000000000E+00 -0.12292230896E+04  0.12292230896E+04  0.50400001928E-02 0. -1.
    10030    2    1    2    0    0  0.00000000000E+00  0.00000000000E+00  0.57229944101E+03  0.30307456202E+04  0.29762211551E+04 0.  0.
        1    1    3    3  502    0  0.77561110975E+03 -0.11447148392E+04 -0.27395261915E+03  0.14096079931E+04  0.50400001928E-02 0. -1.
       -1    1    3    3    0  502 -0.77561110975E+03  0.11447148392E+04  0.84625206016E+03  0.16211376271E+04  0.50400001928E-02 0.  1.
</event>
<event>
 5   0  0.1674806E-06  0.3001304E+04  0.7818609E-02  0.8243359E-01
       -2   -1    0    0    0  501  0.00000000000E+00  0.00000000000E+00  0.13345688762E+04  0.13345688762E+04  0.25500000920E-02 0.  1.
        2   -1    0    0  501    0  0.00000000000E+00  0.00000000000E+00 -0.16874033843E+04  0.16874033843E+04  0.25500000920E-02 0. -1.
    10030    2    1    2    0    0  0.00000000000E+00  0.00000000000E+00 -0.35283450817E+03  0.30219722605E+04  0.30013037423E+04 0.  0.
        2    1    3    3  502    0  0.14526725947E+04  0.29383637101E+03 -0.41332153459E+03  0.15386462138E+04  0.25500000920E-02 0. -1.
       -2    1    3    3    0  502 -0.14526725947E+04 -0.29383637101E+03  0.60487026426E+02  0.14833260467E+04  0.25500000920E-02 0.  1.
</event>
<event>
 5   0  0.5887179E-07  0.3052269E+04  0.7818609E-02  0.8228961E-01
       -1   -1    0    0    0  501  0.00000000000E+00  0.00000000000E+00  0.17510572018E+04  0.17510572018E+04  0.50400001928E-02 0.  1.
        1   -1    0    0  501    0  0.00000000000E+00  0.00000000000E+00 -0.13301028851E+04  0.13301028851E+04  0.50400001928E-02 0. -1.
    10030    2    1    2    0    0  0.00000000000E+00  0.00000000000E+00  0.42095431669E+03  0.30811600869E+04  0.30522688192E+04 0.  0.
        3    1    3    3  502    0 -0.81566532706E+03 -0.29761174659E+02 -0.10912600505E+04  0.13627340758E+04  0.10100000352E+00 0. -1.
       -3    1    3    3    0  502  0.81566532706E+03  0.29761174659E+02  0.15122143672E+04  0.17184260112E+04  0.10100000352E+00 0.  1.
</event>
<event>
 5   0  0.1723916E-06  0.2966969E+04  0.7818609E-02  0.8253227E-01
        2   -1    0    0  501    0  0.00000000000E+00  0.00000000000E+00  0.27752127133E+04  0.27752127133E+04  0.25500000920E-02 0.  1.
       -2   -1    0    0    0  501  0.00000000000E+00  0.00000000000E+00 -0.79299351735E+03  0.79299351735E+03  0.25500000920E-02 0. -1.
    10030    2    1    2    0    0  0.00000000000E+00  0.00000000000E+00  0.19822191960E+04  0.35682062307E+04  0.29669686152E+04 0.  0.
        1    1    3    3  502    0  0.49403326082E+02  0.10872966634E+04 -0.22115944830E+03  0.11106602651E+04  0.50400001928E-02 0. -1.
       -1    1    3    3    0  502 -0.49403326082E+02 -0.10872966634E+04  0.22033786443E+04  0.24575459656E+04  0.50400001928E-02 0.  1.
</event>
<event>
 5   0  0.5887179E-07  0.3007322E+04  0.7818609E-02  0.8241643E-01
        1   -1    0    0  501    0  0.00000000000E+00  0.00000000000E+00  0.20077635451E+04  0.20077635451E+04  0.50400001928E-02 0. -1.
       -1   -1    0    0    0  501  0.00000000000E+00  0.00000000000E+00 -0.11261264641E+04  0.11261264642E+04  0.50400001928E-02 0.  1.
    10030    2    1    2    0    0  0.00000000000E+00  0.00000000000E+00  0.88163708098E+03  0.31338900093E+04  0.30073215072E+04 0.  0.
        3    1    3    3  502    0  0.15079645008E+02 -0.11204329403E+04  0.14857142819E+04  0.18608987901E+04  0.10100000352E+00 0. -1.
       -3    1    3    3    0  502 -0.15079645008E+02  0.11204329403E+04 -0.60407720093E+03  0.12729912192E+04  0.10100000352E+00 0.  1.
</event>
<event>
 5   0  0.1560174E-06  0.3006034E+04  0.7818609E-02  0.8242010E-01
        2   -1    0    0  501    0  0.00000000000E+00  0.00000000000E+00  0.19336949742E+04  0.19336949742E+04  0.25500000920E-02 0. -1.
       -2   -1    0    0    0  501  0.00000000000E+00  0.00000000000E+00 -0.11682609842E+04  0.11682609842E+04  0.25500000920E-02 0.  1.
    10030    2    1    2    0    0  0.00000000000E+00  0.00000000000E+00  0.76543399005E+03  0.31019559584E+04  0.30060341939E+04 0.  0.
        5    1    3    3  502    0 -0.31043226254E+03  0.14657751458E+04  0.50556772869E+03  0.15812924416E+04  0.46999998093E+01 0. -1.
       -5    1    3    3    0  502  0.31043226254E+03 -0.14657751458E+04  0.25986626136E+03  0.15206635168E+04  0.46999998093E+01 0.  1.
</event>
<event>
 5   0  0.1723916E-06  0.3000062E+04  0.7818609E-02  0.8243713E-01
       -2   -1    0    0    0  501  0.00000000000E+00  0.00000000000E+00  0.10892598827E+04  0.10892598827E+04  0.25500000920E-02 0. -1.
        2   -1    0    0  501    0  0.00000000000E+00  0.00000000000E+00 -0.20657077769E+04  0.20657077769E+04  0.25500000920E-02 0.  1.
    10030    2    1    2    0    0  0.00000000000E+00  0.00000000000E+00 -0.97644789423E+03  0.31549676596E+04  0.30000617399E+04 0.  0.
        1    1    3    3  502    0  0.42689407763E+03 -0.14375143865E+04 -0.44878491763E+03  0.15652776327E+04  0.50400001928E-02 0.  1.
       -1    1    3    3    0  502 -0.42689407763E+03  0.14375143865E+04 -0.52766297660E+03  0.15896900270E+04  0.50400001928E-02 0. -1.
</event>
<event>
 5   0  0.5931588E-07  0.3007324E+04  0.7818609E-02  0.8241643E-01
        1   -1    0    0  501    0  0.00000000000E+00  0.00000000000E+00  0.19104651964E+04  0.19104651964E+04  0.50400001928E-02 0.  1.
       -1   -1    0    0    0  501  0.00000000000E+00  0.00000000000E+00 -0.11834807715E+04  0.11834807715E+04  0.50400001928E-02 0. -1.
    10030    2    1    2    0    0  0.00000000000E+00  0.00000000000E+00  0.72698442492E+03  0.30939459679E+04  0.30073236105E+04 0.  0.
        2    1    3    3  502    0  0.78694316010E+03  0.12798824204E+04  0.30159038390E+03  0.15324279125E+04  0.25500000920E-02 0. -1.
       -2    1    3    3    0  502 -0.78694316010E+03 -0.12798824204E+04  0.42539404103E+03  0.15615180554E+04  0.25500000920E-02 0.  1.
</event>
<event>
 5   0  0.1674806E-06  0.3001820E+04  0.7818609E-02  0.8243211E-01
       -2   -1    0    0    0  501  0.00000000000E+00  0.00000000000E+00  0.18758843918E+04  0.18758843918E+04  0.25500000920E-02 0. -1.
        2   -1    0    0  501    0  0.00000000000E+00  0.00000000000E+00 -0.12008902837E+04  0.12008902837E+04  0.25500000920E-02 0.  1.
    10030    2    1    2    0    0  0.00000000000E+00  0.00000000000E+00  0.67499410812E+03  0.30767746755E+04  0.30018203406E+04 0.  0.
        2    1    3    3  502    0 -0.12247737883E+04  0.70315569513E+03  0.85835166037E+03  0.16526543308E+04  0.25500000920E-02 0.  1.
       -2    1    3    3    0  502  0.12247737883E+04 -0.70315569513E+03 -0.18335755225E+03  0.14241203447E+04  0.25500000920E-02 0. -1.
</event>
<event>
 5   0  0.1723916E-06  0.2993237E+04  0.7818609E-02  0.8245665E-01
        2   -1    0    0  501    0  0.00000000000E+00  0.00000000000E+00  0.21368531668E+04  0.21368531668E+04  0.25500000920E-02 0.  1.
       -2   -1    0    0    0  501  0.00000000000E+00  0.00000000000E+00 -0.10482082610E+04  0.10482082610E+04  0.25500000920E-02 0. -1.
    10030    2    1    2    0    0  0.00000000000E+00  0.00000000000E+00  0.10886449057E+04  0.31850614278E+04  0.29932371386E+04 0.  0.
        1    1    3    3  502    0  0.31802333658E+03 -0.66852410138E+03  0.19283721634E+04  0.20655949548E+04  0.50400001928E-02 0.  1.
       -1    1    3    3    0  502 -0.31802333658E+03  0.66852410138E+03 -0.83972725771E+03  0.11194664730E+04  0.50400001928E-02 0. -1.
</event>
<event>
 5   0  0.5931588E-07  0.2996567E+04  0.7818609E-02  0.8244712E-01
        1   -1    0    0  501    0  0.00000000000E+00  0.00000000000E+00  0.14091311406E+04  0.14091311406E+04  0.50400001928E-02 0.  1.
       -1   -1    0    0    0  501  0.00000000000E+00  0.00000000000E+00 -0.15930761082E+04  0.15930761082E+04  0.50400001928E-02 0. -1.
    10030    2    1    2    0    0  0.00000000000E+00  0.00000000000E+00 -0.18394496754E+03  0.30022072488E+04  0.29965668045E+04 0.  0.
        2    1    3    3  502    0 -0.32330123443E+03 -0.69903079603E+03  0.11956257477E+04  0.14222125968E+04  0.25500000920E-02 0.  1.
       -2    1    3    3    0  502  0.32330123443E+03  0.69903079603E+03 -0.13795707152E+04  0.15799946520E+04  0.25500000920E-02 0. -1.
</event>
<event>
 5   0  0.5874741E-07  0.2955644E+04  0.7818609E-02  0.8256512E-01
       -1   -1    0    0    0  501  0.00000000000E+00  0.00000000000E+00  0.99998013505E+03  0.99998013507E+03  0.50400001928E-02 0.  1.
        1   -1    0    0  501    0  0.00000000000E+00  0.00000000000E+00 -0.21840016484E+04  0.21840016485E+04  0.50400001928E-02 0. -1.
    10030    2    1    2    0    0  0.00000000000E+00  0.00000000000E+00 -0.11840215134E+04  0.31839817835E+04  0.29556442705E+04 0.  0.
        4    1    3    3  502    0 -0.13043795145E+04  0.17543860954E+03 -0.13160766316E+04  0.18612479514E+04  0.12699999809E+01 0. -1.
       -4    1    3    3    0  502  0.13043795145E+04 -0.17543860954E+03  0.13205511821E+03  0.13227338321E+04  0.12699999809E+01 0.  1.
</event>
<event>
 5   0  0.1560174E-06  0.2972176E+04  0.7818609E-02  0.8251721E-01
       -2   -1    0    0    0  501  0.00000000000E+00  0.00000000000E+00  0.14974296100E+04  0.14974296100E+04  0.25500000920E-02 0.  1.
        2   -1    0    0  501    0  0.00000000000E+00  0.00000000000E+00 -0.14748321477E+04  0.14748321477E+04  0.25500000920E-02 0. -1.
    10030    2    1    2    0    0  0.00000000000E+00  0.00000000000E+00  0.22597462254E+02  0.29722617577E+04  0.29721758546E+04 0.  0.
        5    1    3    3  502    0 -0.64782819002E+03 -0.84050407344E+03 -0.10290710781E+04  0.14782211726E+04  0.46999998093E+01 0. -1.
       -5    1    3    3    0  502  0.64782819002E+03  0.84050407344E+03  0.10516685403E+04  0.14940405851E+04  0.46999998093E+01 0.  1.
</event>
<event>
 5   0  0.5887179E-07  0.2995103E+04  0.7818609E-02  0.8245131E-01
        1   -1    0    0  501    0  0.00000000000E+00  0.00000000000E+00  0.18638937801E+04  0.18638937801E+04  0.50400001928E-02 0. -1.
       -1   -1    0    0    0  501  0.00000000000E+00  0.00000000000E+00 -0.12032123291E+04  0.12032123291E+04  0.50400001928E-02 0.  1.
    10030    2    1    2    0    0  0.00000000000E+00  0.00000000000E+00  0.66068145100E+03  0.30671061093E+04  0.29951026536E+04 0.  0.
        3    1    3    3  502    0  0.10477542102E+04 -0.60728252044E+03  0.12324726694E+04  0.17278801566E+04  0.10100000352E+00 0. -1.
       -3    1    3    3    0  502 -0.10477542102E+04  0.60728252044E+03 -0.57179121842E+03  0.13392259526E+04  0.10100000352E+00 0.  1.
</event>
<event>
 5   0  0.5887179E-07  0.2996802E+04  0.7818609E-02  0.8244645E-01
       -1   -1    0    0    0  501  0.00000000000E+00  0.00000000000E+00  0.11035902192E+04  0.11035902192E+04  0.50400001928E-02 0.  1.
        1   -1    0    0  501    0  0.00000000000E+00  0.00000000000E+00 -0.20344559568E+04  0.20344559568E+04  0.50400001928E-02 0. -1.
    10030    2    1    2    0    0  0.00000000000E+00  0.00000000000E+00 -0.93086573760E+03  0.31380461759E+04  0.29968020924E+04 0.  0.
        3    1    3    3  502    0 -0.62101546480E+03  0.13167282522E+04 -0.94074193878E+02  0.14588637571E+04  0.10100000352E+00 0.  1.
       -3    1    3    3    0  502  0.62101546480E+03 -0.13167282522E+04 -0.83679154372E+03  0.16791824188E+04  0.10100000352E+00 0. -1.
</event>
<event>
 5   0  0.1635086E-06  0.2995902E+04  0.7818609E-02  0.8244902E-01
        2   -1    0    0  501    0  0.00000000000E+00  0.00000000000E+00  0.14178646709E+04  0.14178646709E+04  0.25500000920E-02 0.  1.
       -2   -1    0    0    0  501  0.00000000000E+00  0.00000000000E+00 -0.15825608443E+04  0.15825608443E+04  0.25500000920E-02 0. -1.
    10030    2    1    2    0    0  0.00000000000E+00  0.00000000000E+00 -0.16469617342E+03  0.30004255152E+04  0.29959019414E+04 0.  0.
        3    1    3    3  502    0  0.30891357293E+03 -0.11059626418E+04 -0.10457132492E+04  0.15530927758E+04  0.10100000352E+00 0. -1.
       -3    1    3    3    0  502 -0.30891357293E+03  0.11059626418E+04  0.88101707574E+03  0.14473327394E+04  0.10100000352E+00 0.  1.
</event>
<event>
 5   0  0.1560174E-06  0.2996208E+04  0.7818609E-02  0.8244814E-01
        2   -1    0    0  501    0  0.00000000000E+00  0.00000000000E+00  0.21153111888E+04  0.21153111888E+04  0.25500000920E-02 0. -1.
       -2   -1    0    0    0  501  0.00000000000E+00  0.00000000000E+00 -0.10609862849E+04  0.10609862849E+04  0.25500000920E-02 0.  1.
    10030    2    1    2    0    0  0.00000000000E+00  0.00000000000E+00  0.10543249039E+04  0.31762974737E+04  0.29962083770E+04 0.  0.
        5    1    3    3  502    0 -0.13597599305E+04 -0.53332802309E+03  0.17411667221E+03  0.14709604190E+04  0.46999998093E+01 0.  1.
       -5    1    3    3    0  502  0.13597599305E+04  0.53332802309E+03  0.88020823165E+03  0.17053370546E+04  0.46999998093E+01 0. -1.
</event>
<event>
 5   0  0.5916703E-07  0.3007114E+04  0.7818609E-02  0.8241702E-01
       -1   -1    0    0    0  501  0.00000000000E+00  0.00000000000E+00  0.88110519007E+03  0.88110519008E+03  0.50400001928E-02 0.  1.
        1   -1    0    0  501    0  0.00000000000E+00  0.00000000000E+00 -0.25657364748E+04  0.25657364748E+04  0.50400001928E-02 0. -1.
    10030    2    1    2    0    0  0.00000000000E+00  0.00000000000E+00 -0.16846312847E+04  0.34468416649E+04  0.30071140479E+04 0.  0.
        5    1    3    3  502    0  0.10017111597E+04 -0.26676113196E+03 -0.20906401289E+04  0.23335348695E+04  0.46999998093E+01 0. -1.
       -5    1    3    3    0  502 -0.10017111597E+04  0.26676113196E+03  0.40600884414E+03  0.11133067953E+04  0.46999998093E+01 0.  1.
</event>
<event>
 5   0  0.5931588E-07  0.2994061E+04  0.7818609E-02  0.8245429E-01
        1   -1    0    0  501    0  0.00000000000E+00  0.00000000000E+00  0.18645620832E+04  0.18645620832E+04  0.50400001928E-02 0. -1.
       -1   -1    0    0    0  501  0.00000000000E+00  0.00000000000E+00 -0.12019444452E+04  0.12019444452E+04  0.50400001928E-02 0.  1.
    10030    2    1    2    0    0  0.00000000000E+00  0.00000000000E+00  0.66261763801E+03  0.30665065284E+04  0.29940608134E+04 0.  0.
        2    1    3    3  502    0  0.10017900309E+04 -0.17359162299E+03 -0.79408818475E+03  0.12900749447E+04  0.25500000920E-02 0.  1.
       -2    1    3    3    0  502 -0.10017900309E+04  0.17359162299E+03  0.14567058228E+04  0.17764315837E+04  0.25500000920E-02 0. -1.
</event>
<event>
 5   0  0.1625212E-06  0.2985223E+04  0.7818609E-02  0.8247963E-01
       -2   -1    0    0    0  501  0.00000000000E+00  0.00000000000E+00  0.12498153372E+04  0.12498153372E+04  0.25500000920E-02 0. -1.
        2   -1    0    0  501    0  0.00000000000E+00  0.00000000000E+00 -0.17825743209E+04  0.17825743209E+04  0.25500000920E-02 0.  1.
    10030    2    1    2    0    0  0.00000000000E+00  0.00000000000E+00 -0.53275898369E+03  0.30323896581E+04  0.29852227562E+04 0.  0.
        4    1    3    3  502    0  0.14914453300E+03 -0.70844055951E+03  0.10595237556E+04  0.12832475676E+04  0.12699999809E+01 0. -1.
       -4    1    3    3    0  502 -0.14914453300E+03  0.70844055951E+03 -0.15922827393E+04  0.17491420905E+04  0.12699999809E+01 0.  1.
</event>
<event>
 5   0  0.1560174E-06  0.3001193E+04  0.7818609E-02  0.8243390E-01
       -2   -1    0    0    0  501  0.00000000000E+00  0.00000000000E+00  0.10469862438E+04  0.10469862438E+04  0.25500000920E-02 0. -1.
        2   -1    0    0  501    0  0.00000000000E+00  0.00000000000E+00 -0.21507345269E+04  0.21507345269E+04  0.25500000920E-02 0.  1.
    10030    2    1    2    0    0  0.00000000000E+00  0.00000000000E+00 -0.11037482831E+04  0.31977207708E+04  0.30011927388E+04 0.  0.
        5    1    3    3  502    0  0.14327451628E+04  0.12248846595E+03 -0.94826201601E+02  0.14411024337E+04  0.46999998093E+01 0. -1.
       -5    1    3    3    0  502 -0.14327451628E+04 -0.12248846595E+03 -0.10089220815E+04  0.17566183371E+04  0.46999998093E+01 0.  1.
</event>
<event>
 5   0  0.6291798E-07  0.3004570E+04  0.7818609E-02  0.8242427E-01
        1   -1    0    0  501    0  0.00000000000E+00  0.00000000000E+00  0.26756290707E+04  0.26756290707E+04  0.50400001928E-02 0.  1.
       -1   -1    0    0    0  501  0.00000000000E+00  0.00000000000E+00 -0.84348763940E+03  0.84348763941E+03  0.50400001928E-02 0. -1.
    10030    2    1    2    0    0  0.00000000000E+00  0.00000000000E+00  0.18321414313E+04  0.35191167101E+04  0.30045698852E+04 0.  0.
        1    1    3    3  502    0 -0.85098293710E+03  0.11762482343E+04  0.46376589099E+03  0.15240769894E+04  0.50400001928E-02 0. -1.
       -1    1    3    3    0  502  0.85098293710E+03 -0.11762482343E+04  0.13683755403E+04  0.19950397207E+04  0.50400001928E-02 0.  1.
</event>
<event>
 5   0  0.1674806E-06  0.3005814E+04  0.7818609E-02  0.8242073E-01
        2   -1    0    0  501    0  0.00000000000E+00  0.00000000000E+00  0.20185493654E+04  0.20185493655E+04  0.25500000920E-02 0.  1.
       -2   -1    0    0    0  501  0.00000000000E+00  0.00000000000E+00 -0.11189861834E+04  0.11189861834E+04  0.25500000920E-02 0. -1.
    10030    2    1    2    0    0  0.00000000000E+00  0.00000000000E+00  0.89956318205E+03  0.31375355488E+04  0.30058136006E+04 0.  0.
        2    1    3    3  502    0 -0.83660507982E+03  0.97495022514E+02  0.17490430159E+04  0.19412791686E+04  0.25500000920E-02 0.  1.
       -2    1    3    3    0  502  0.83660507982E+03 -0.97495022514E+02 -0.84947983389E+03  0.11962563802E+04  0.25500000920E-02 0. -1.
</event>
<event>
 5   0  0.5931588E-07  0.2999835E+04  0.7818609E-02  0.8243778E-01
        1   -1    0    0  501    0  0.00000000000E+00  0.00000000000E+00  0.16416403903E+04  0.16416403903E+04  0.50400001928E-02 0. -1.
       -1   -1    0    0    0  501  0.00000000000E+00  0.00000000000E+00 -0.13704294897E+04  0.13704294897E+04  0.50400001928E-02 0.  1.
    10030    2    1    2    0    0  0.00000000000E+00  0.00000000000E+00  0.27121090060E+03  0.30120698801E+04  0.29998349304E+04 0.  0.
        2    1    3    3  502    0 -0.13612684692E+04 -0.59801470565E+03  0.33409572562E+03  0.15239072765E+04  0.25500000920E-02 0. -1.
       -2    1    3    3    0  502  0.13612684692E+04  0.59801470565E+03 -0.62884825022E+02  0.14881626036E+04  0.25500000920E-02 0.  1.
</event>
<event>
 5   0  0.1723916E-06  0.2999064E+04  0.7818609E-02  0.8243998E-01
       -2   -1    0    0    0  501  0.00000000000E+00  0.00000000000E+00  0.85213723734E+03  0.85213723734E+03  0.25500000920E-02 0.  1.
        2   -1    0    0  501    0  0.00000000000E+00  0.00000000000E+00 -0.26387716408E+04  0.26387716408E+04  0.25500000920E-02 0. -1.
    10030    2    1    2    0    0  0.00000000000E+00  0.00000000000E+00 -0.17866344034E+04  0.34909088781E+04  0.29990635711E+04 0.  0.
        1    1    3    3  502    0  0.14939618481E+04  0.37678558025E+02 -0.74955547899E+03  0.16718777149E+04  0.50400001928E-02 0. -1.
       -1    1    3    3    0  502 -0.14939618481E+04 -0.37678558025E+02 -0.10370789244E+04  0.18190311632E+04  0.50400001928E-02 0.  1.
</event>
<event>
 5   0  0.5887179E-07  0.3010382E+04  0.7818609E-02  0.8240772E-01
        1   -1    0    0  501    0  0.00000000000E+00  0.00000000000E+00  0.17208430099E+04  0.17208430099E+04  0.50400001928E-02 0. -1.
       -1   -1    0    0    0  501  0.00000000000E+00  0.00000000000E+00 -0.13165638979E+04  0.13165638979E+04  0.50400001928E-02 0.  1.
    10030    2    1    2    0    0  0.00000000000E+00  0.00000000000E+00  0.40427911201E+03  0.30374069079E+04  0.30103818900E+04 0.  0.
        3    1    3    3  502    0  0.85396947079E+03 -0.57094429749E+03 -0.90789985922E+03  0.13709571155E+04  0.10100000352E+00 0.  1.
       -3    1    3    3    0  502 -0.85396947079E+03  0.57094429749E+03  0.13121789712E+04  0.16664497924E+04  0.10100000352E+00 0. -1.
</event>
<event>
 5   0  0.5887179E-07  0.3134661E+04  0.7818609E-02  0.8206289E-01
        1   -1    0    0  501    0  0.00000000000E+00  0.00000000000E+00  0.15201517041E+04  0.15201517041E+04  0.50400001928E-02 0.  1.
       -1   -1    0    0    0  501  0.00000000000E+00  0.00000000000E+00 -0.16159739036E+04  0.16159739036E+04  0.50400001928E-02 0. -1.
    10030    2    1    2    0    0  0.00000000000E+00  0.00000000000E+00 -0.95822199536E+02  0.31361256077E+04  0.31346613746E+04 0.  0.
        3    1    3    3  502    0 -0.78638851364E+03  0.12881104128E+04  0.37524053401E+03  0.15551336915E+04  0.10100000352E+00 0.  1.
       -3    1    3    3    0  502  0.78638851364E+03 -0.12881104128E+04 -0.47106273354E+03  0.15809919162E+04  0.10100000352E+00 0. -1.
</event>
<event>
 5   0  0.1625212E-06  0.2996661E+04  0.7818609E-02  0.8244685E-01
       -2   -1    0    0    0  501  0.00000000000E+00  0.00000000000E+00  0.13877907193E+04  0.13877907193E+04  0.25500000920E-02 0.  1.
        2   -1    0    0  501    0  0.00000000000E+00  0.00000000000E+00 -0.16176744473E+04  0.16176744473E+04  0.25500000920E-02 0. -1.
    10030    2    1    2    0    0  0.00000000000E+00  0.00000000000E+00 -0.22988372805E+03  0.30054651666E+04  0.29966605312E+04 0.  0.
        4    1    3    3  502    0 -0.23139033397E+03 -0.14329498413E+04 -0.48765888444E+03  0.15312411746E+04  0.12699999809E+01 0. -1.
       -4    1    3    3    0  502  0.23139033397E+03  0.14329498413E+04  0.25777515639E+03  0.14742239920E+04  0.12699999809E+01 0.  1.
</event>
<event>
 5   0  0.1723916E-06  0.2800521E+04  0.7818609E-02  0.8303107E-01
       -2   -1    0    0    0  501  0.00000000000E+00  0.00000000000E+00  0.11224992134E+04  0.11224992134E+04  0.25500000920E-02 0.  1.
        2   -1    0    0  501    0  0.00000000000E+00  0.00000000000E+00 -0.17467529687E+04  0.17467529687E+04  0.25500000920E-02 0. -1.
    10030    2    1    2    0    0  0.00000000000E+00  0.00000000000E+00 -0.62425375537E+03  0.28692521821E+04  0.28005205468E+04 0.  0.
        1    1    3    3  502    0  0.30163599591E+03 -0.13474587637E+04 -0.73825617268E+02  0.13827796700E+04  0.50400001928E-02 0. -1.
       -1    1    3    3    0  502 -0.30163599591E+03  0.13474587637E+04 -0.55042813810E+03  0.14864725121E+04  0.50400001928E-02 0.  1.
</event>
<event>
 5   0  0.5431625E-07  0.2993549E+04  0.7818609E-02  0.8245575E-01
        4   -1    0    0  501    0  0.00000000000E+00  0.00000000000E+00  0.10864534910E+04  0.10864542333E+04  0.12699999809E+01 0.  1.
       -4   -1    0    0    0  501  0.00000000000E+00  0.00000000000E+00 -0.20620604292E+04  0.20620608203E+04  0.12699999809E+01 0. -1.
    10030    2    1    2    0    0  0.00000000000E+00  0.00000000000E+00 -0.97560693826E+03  0.31485150536E+04  0.29935494225E+04 0.  0.
        4    1    3    3  502    0 -0.10893257136E+04  0.99482579584E+03 -0.22167526148E+03  0.14917943588E+04  0.12699999809E+01 0.  1.
       -4    1    3    3    0  502  0.10893257136E+04 -0.99482579584E+03 -0.75393167678E+03  0.16567206948E+04  0.12699999809E+01 0. -1.
</event>
<event>
 5   0  0.5874741E-07  0.2991544E+04  0.7818609E-02  0.8246150E-01
        1   -1    0    0  501    0  0.00000000000E+00  0.00000000000E+00  0.12126695035E+04  0.12126695035E+04  0.50400001928E-02 0. -1.
       -1   -1    0    0    0  501  0.00000000000E+00  0.00000000000E+00 -0.18449657351E+04  0.18449657351E+04  0.50400001928E-02 0.  1.
    10030    2    1    2    0    0  0.00000000000E+00  0.00000000000E+00 -0.63229623161E+03  0.30576352387E+04  0.29915438704E+04 0.  0.
        4    1    3    3  502    0  0.98667231045E+03  0.28616719245E+03 -0.14273270551E+04  0.17586011616E+04  0.12699999809E+01 0.  1.
       -4    1    3    3    0  502 -0.98667231045E+03 -0.28616719245E+03  0.79503082352E+03  0.12990340771E+04  0.12699999809E+01 0. -1.
</event>
<event>
 5   0  0.5916703E-07  0.3025895E+04  0.7818609E-02  0.8236375E-01
        1   -1    0    0  501    0  0.00000000000E+00  0.00000000000E+00  0.28989238854E+04  0.28989238855E+04  0.50400001928E-02 0.  1.
       -1   -1    0    0    0  501  0.00000000000E+00  0.00000000000E+00 -0.78960663874E+03  0.78960663875E+03  0.50400001928E-02 0. -1.
    10030    2    1    2    0    0  0.00000000000E+00  0.00000000000E+00  0.21093172467E+04  0.36885305242E+04  0.30258946083E+04 0.  0.
        5    1    3    3  502    0 -0.12090044172E+04 -0.31340357415E+03  0.13815249041E+02  0.12490502121E+04  0.46999998093E+01 0.  1.
       -5    1    3    3    0  502  0.12090044172E+04  0.31340357415E+03  0.20955019977E+04  0.24394803121E+04  0.46999998093E+01 0. -1.
</event>
<event>
 5   0  0.1674806E-06  0.2999880E+04  0.7818609E-02  0.8243765E-01
       -2   -1    0    0    0  501  0.00000000000E+00  0.00000000000E+00  0.14327862464E+04  0.14327862464E+04  0.25500000920E-02 0.  1.
        2   -1    0    0  501    0  0.00000000000E+00  0.00000000000E+00 -0.15702412651E+04  0.15702412651E+04  0.25500000920E-02 0. -1.
    10030    2    1    2    0    0  0.00000000000E+00  0.00000000000E+00 -0.13745501865E+03  0.30030275115E+04  0.29998800564E+04 0.  0.
        2    1    3    3  502    0 -0.52568035064E+03  0.73382970942E+03  0.11304334165E+04  0.14466255848E+04  0.25500000920E-02 0.  1.
       -2    1    3    3    0  502  0.52568035064E+03 -0.73382970942E+03 -0.12678884351E+04  0.15564019267E+04  0.25500000920E-02 0. -1.
</event>
<event>
 5   0  0.5874741E-07  0.2994890E+04  0.7818609E-02  0.8245192E-01
       -1   -1    0    0    0  501  0.00000000000E+00  0.00000000000E+00  0.11472933049E+04  0.11472933049E+04  0.50400001928E-02 0.  1.
        1   -1    0    0  501    0  0.00000000000E+00  0.00000000000E+00 -0.19544619254E+04  0.19544619254E+04  0.50400001928E-02 0. -1.
    10030    2    1    2    0    0  0.00000000000E+00  0.00000000000E+00 -0.80716862055E+03  0.31017552303E+04  0.29948897020E+04 0.  0.
        4    1    3    3  502    0  0.50982688777E+03 -0.91988599053E+03  0.70039010761E+03  0.12635907592E+04  0.12699999809E+01 0.  1.
       -4    1    3    3    0  502 -0.50982688777E+03  0.91988599053E+03 -0.15075587282E+04  0.18381644711E+04  0.12699999809E+01 0. -1.
</event>
<event>
 5   0  0.1560174E-06  0.3001048E+04  0.7818609E-02  0.8243432E-01
       -2   -1    0    0    0  501  0.00000000000E+00  0.00000000000E+00  0.11270475278E+04  0.11270475278E+04  0.25500000920E-02 0.  1.
        2   -1    0    0  501    0  0.00000000000E+00  0.00000000000E+00 -0.19977615085E+04  0.19977615085E+04  0.25500000920E-02 0. -1.
    10030    2    1    2    0    0  0.00000000000E+00  0.00000000000E+00 -0.87071398069E+03  0.31248090364E+04  0.30010479299E+04 0.  0.
        5    1    3    3  502    0 -0.44625578392E+03 -0.89427388462E+03 -0.16007452399E+04  0.18871347113E+04  0.46999998093E+01 0. -1.
       -5    1    3    3    0  502  0.44625578392E+03  0.89427388462E+03  0.73003125926E+03  0.12376743250E+04  0.46999998093E+01 0.  1.
</event>
<event>
 5   0  0.5916703E-07  0.3003445E+04  0.7818609E-02  0.8242748E-01
        1   -1    0    0  501    0  0.00000000000E+00  0.00000000000E+00  0.12718001908E+04  0.12718001908E+04  0.50400001928E-02 0.  1.
       -1   -1    0    0    0  501  0.00000000000E+00  0.00000000000E+00 -0.17732108405E+04  0.17732108405E+04  0.50400001928E-02 0. -1.
    10030    2    1    2    0    0  0.00000000000E+00  0.00000000000E+00 -0.50141064977E+03  0.30450110313E+04  0.30034446126E+04 0.  0.
        5    1    3    3  502    0 -0.39857733092E+03  0.11351130207E+04  0.66051163728E+03  0.13724588050E+04  0.46999998093E+01 0.  1.
       -5    1    3    3    0  502  0.39857733092E+03 -0.11351130207E+04 -0.11619222870E+04  0.16725522263E+04  0.46999998093E+01 0. -1.
</event>
<event>
 5   0  0.6291798E-07  0.2993057E+04  0.7818609E-02  0.8245716E-01
        1   -1    0    0  501    0  0.00000000000E+00  0.00000000000E+00  0.18490049165E+04  0.18490049165E+04  0.50400001928E-02 0. -1.
       -1   -1    0    0    0  501  0.00000000000E+00  0.00000000000E+00 -0.12112446695E+04  0.12112446696E+04  0.50400001928E-02 0.  1.
    10030    2    1    2    0    0  0.00000000000E+00  0.00000000000E+00  0.63776024691E+03  0.30602495860E+04  0.29930568649E+04 0.  0.
        1    1    3    3  502    0 -0.42863088388E+03  0.11389870452E+03  0.17802677772E+04  0.18346800016E+04  0.50400001928E-02 0. -1.
       -1    1    3    3    0  502  0.42863088388E+03 -0.11389870452E+03 -0.11425075303E+04  0.12255695845E+04  0.50400001928E-02 0.  1.
</event>
<event>
 5   0  0.1674806E-06  0.3005679E+04  0.7818609E-02  0.8242111E-01
        2   -1    0    0  501    0  0.00000000000E+00  0.00000000000E+00  0.19382640640E+04  0.19382640640E+04  0.25500000920E-02 0.  1.
       -2   -1    0    0    0  501  0.00000000000E+00  0.00000000000E+00 -0.11652316925E+04  0.11652316925E+04  0.25500000920E-02 0. -1.
    10030    2    1    2    0    0  0.00000000000E+00  0.00000000000E+00  0.77303237155E+03  0.31034957565E+04  0.30056791018E+04 0.  0.
        2    1    3    3  502    0  0.70177752174E+03  0.14553833016E+03  0.17504335032E+04  0.18914784019E+04  0.25500000920E-02 0.  1.
       -2    1    3    3    0  502 -0.70177752174E+03 -0.14553833016E+03 -0.97740113169E+03  0.12120173546E+04  0.25500000920E-02 0. -1.
</event>
<event>
 5   0  0.5916703E-07  0.2994789E+04  0.7818609E-02  0.8245221E-01
       -1   -1    0    0    0  501  0.00000000000E+00  0.00000000000E+00  0.14014445315E+04  0.14014445315E+04  0.50400001928E-02 0. -1.
        1   -1    0    0  501    0  0.00000000000E+00  0.00000000000E+00 -0.15999135928E+04  0.15999135928E+04  0.50400001928E-02 0.  1.
    10030    2    1    2    0    0  0.00000000000E+00  0.00000000000E+00 -0.19846906125E+03  0.30013581243E+04  0.29947889111E+04 0.  0.
        5    1    3    3  502    0 -0.55683082601E+03 -0.52037811038E+02 -0.14913097109E+04  0.15927320071E+04  0.46999998093E+01 0.  1.
       -5    1    3    3    0  502  0.55683082601E+03  0.52037811038E+02  0.12928406497E+04  0.14086261172E+04  0.46999998093E+01 0. -1.
</event>
<event>
 5   0  0.1723916E-06  0.2992382E+04  0.7818609E-02  0.8245910E-01
        2   -1    0    0  501    0  0.00000000000E+00  0.00000000000E+00  0.17923662130E+04  0.17923662130E+04  0.25500000920E-02 0. -1.
       -2   -1    0    0    0  501  0.00000000000E+00  0.00000000000E+00 -0.12489566720E+04  0.12489566720E+04  0.25500000920E-02 0.  1.
    10030    2    1    2    0    0  0.00000000000E+00  0.00000000000E+00  0.54340954100E+03  0.30413228850E+04  0.29923821550E+04 0.  0.
        1    1    3    3  502    0 -0.11540763258E+04  0.79415747541E+02  0.12361120836E+04  0.16929772916E+04  0.50400001928E-02 0. -1.
       -1    1    3    3    0  502  0.11540763258E+04 -0.79415747541E+02 -0.69270254258E+03  0.13483455934E+04  0.50400001928E-02 0.  1.
</event>
<event>
 5   0  0.6291798E-07  0.2990363E+04  0.7818609E-02  0.8246488E-01
       -1   -1    0    0    0  501  0.00000000000E+00  0.00000000000E+00  0.14225048389E+04  0.14225048390E+04  0.50400001928E-02 0.  1.
        1   -1    0    0  501    0  0.00000000000E+00  0.00000000000E+00 -0.15715712176E+04  0.15715712176E+04  0.50400001928E-02 0. -1.
    10030    2    1    2    0    0  0.00000000000E+00  0.00000000000E+00 -0.14906637864E+03  0.29940760565E+04  0.29903629624E+04 0.  0.
        1    1    3    3  502    0 -0.48900709426E+03 -0.13480661558E+04 -0.49832860468E+03  0.15181375751E+04  0.50400001928E-02 0. -1.
       -1    1    3    3    0  502  0.48900709426E+03  0.13480661558E+04  0.34926222604E+03  0.14759384815E+04  0.50400001928E-02 0.  1.
</event>
<event>
 5   0  0.5931588E-07  0.3004096E+04  0.7818609E-02  0.8242562E-01
       -1   -1    0    0    0  501  0.00000000000E+00  0.00000000000E+00  0.91168204184E+03  0.91168204185E+03  0.50400001928E-02 0. -1.
        1   -1    0    0  501    0  0.00000000000E+00  0.00000000000E+00 -0.24747087850E+04  0.24747087850E+04  0.50400001928E-02 0.  1.
    10030    2    1    2    0    0  0.00000000000E+00  0.00000000000E+00 -0.15630267431E+04  0.33863908268E+04  0.30040955764E+04 0.  0.
        2    1    3    3  502    0 -0.51391789981E+03 -0.11765013943E+04  0.97372353091E+02  0.12875358301E+04  0.25500000920E-02 0. -1.
       -2    1    3    3    0  502  0.51391789981E+03  0.11765013943E+04 -0.16603990962E+04  0.20988549968E+04  0.25500000920E-02 0.  1.
</event>
<event>
 5   0  0.1625212E-06  0.3002952E+04  0.7818609E-02  0.8242888E-01
        2   -1    0    0  501    0  0.00000000000E+00  0.00000000000E+00  0.15019917202E+04  0.15019917202E+04  0.25500000920E-02 0. -1.
       -2   -1    0    0    0  501  0.00000000000E+00  0.00000000000E+00 -0.15009608409E+04  0.15009608409E+04  0.25500000920E-02 0.  1.
    10030    2    1    2    0    0  0.00000000000E+00  0.00000000000E+00  0.10308792957E+01  0.30029525611E+04  0.30029523842E+04 0.  0.
        4    1    3    3  502    0  0.18513287356E+03 -0.14888788288E+04  0.58780311577E+02  0.15014962822E+04  0.12699999809E+01 0. -1.
       -4    1    3    3    0  502 -0.18513287356E+03  0.14888788288E+04 -0.57749432281E+02  0.15014562789E+04  0.12699999809E+01 0.  1.
</event>
<event>
 5   0  0.1674806E-06  0.3005656E+04  0.7818609E-02  0.8242118E-01
       -2   -1    0    0    0  501  0.00000000000E+00  0.00000000000E+00  0.12947728981E+04  0.12947728981E+04  0.25500000920E-02 0. -1.
        2   -1    0    0  501    0  0.00000000000E+00  0.00000000000E+00 -0.17443148868E+04  0.17443148868E+04  0.25500000920E-02 0.  1.
    10030    2    1    2    0    0  0.00000000000E+00  0.00000000000E+00 -0.44954198867E+03  0.30390877850E+04  0.30056557629E+04 0.  0.
        2    1    3    3  502    0  0.14810618507E+04  0.14881883059E+03 -0.43395471108E+03  0.15504863564E+04  0.25500000920E-02 0.  1.
       -2    1    3    3    0  502 -0.14810618507E+04 -0.14881883059E+03 -0.15587277583E+02  0.14886014286E+04  0.25500000920E-02 0. -1.
</event>
<event>
 5   0  0.1625212E-06  0.2993637E+04  0.7818609E-02  0.8245550E-01
       -2   -1    0    0    0  501  0.00000000000E+00  0.00000000000E+00  0.11258454788E+04  0.11258454788E+04  0.25500000920E-02 0. -1.
        2   -1    0    0  501    0  0.00000000000E+00  0.00000000000E+00 -0.19900299603E+04  0.19900299603E+04  0.25500000920E-02 0.  1.
    10030    2    1    2    0    0  0.00000000000E+00  0.00000000000E+00 -0.86418448150E+03  0.31158754392E+04  0.29936374086E+04 0.  0.
        4    1    3    3  502    0 -0.14019640427E+04  0.34588018651E+03 -0.84230223906E+03  0.16717089924E+04  0.12699999809E+01 0.  1.
       -4    1    3    3    0  502  0.14019640427E+04 -0.34588018651E+03 -0.21882242444E+02  0.14441664468E+04  0.12699999809E+01 0. -1.
</event>
<event>
 5   0  0.5931588E-07  0.3001083E+04  0.7818609E-02  0.8243422E-01
       -1   -1    0    0    0  501  0.00000000000E+00  0.00000000000E+00  0.19103461683E+04  0.19103461684E+04  0.50400001928E-02 0. -1.
        1   -1    0    0  501    0  0.00000000000E+00  0.00000000000E+00 -0.11786473000E+04  0.11786473000E+04  0.50400001928E-02 0.  1.
    10030    2    1    2    0    0  0.00000000000E+00  0.00000000000E+00  0.73169886835E+03  0.30889934684E+04  0.30010827069E+04 0.  0.
        2    1    3    3  502    0 -0.96568276808E+03  0.25986259822E+03  0.15173484595E+04  0.18172556579E+04  0.25500000920E-02 0. -1.
       -2    1    3    3    0  502  0.96568276808E+03 -0.25986259822E+03 -0.78564959116E+03  0.12717378105E+04  0.25500000920E-02 0.  1.
</event>
<event>
 5   0  0.1723916E-06  0.3034765E+04  0.7818609E-02  0.8233873E-01
        2   -1    0    0  501    0  0.00000000000E+00  0.00000000000E+00  0.26266257110E+04  0.26266257110E+04  0.25500000920E-02 0. -1.
       -2   -1    0    0    0  501  0.00000000000E+00  0.00000000000E+00 -0.87658059832E+03  0.87658059832E+03  0.25500000920E-02 0.  1.
    10030    2    1    2    0    0  0.00000000000E+00  0.00000000000E+00  0.17500451127E+04  0.35032063093E+04  0.30347646613E+04 0.  0.
        1    1    3    3  502    0  0.16774686684E+03 -0.93208883486E+03 -0.49352310736E+03  0.10679389800E+04  0.50400001928E-02 0.  1.
       -1    1    3    3    0  502 -0.16774686684E+03  0.93208883486E+03  0.22435682201E+04  0.24352673294E+04  0.50400001928E-02 0. -1.
</event>
<event>
 5   0  0.5874741E-07  0.2999610E+04  0.7818609E-02  0.8243842E-01
        1   -1    0    0  501    0  0.00000000000E+00  0.00000000000E+00  0.19126056347E+04  0.19126056347E+04  0.50400001928E-02 0.  1.
       -1   -1    0    0    0  501  0.00000000000E+00  0.00000000000E+00 -0.11760997263E+04  0.11760997263E+04  0.50400001928E-02 0. -1.
    10030    2    1    2    0    0  0.00000000000E+00  0.00000000000E+00  0.73650590838E+03  0.30887053610E+04  0.29996099503E+04 0.  0.
        4    1    3    3  502    0 -0.14742295633E+04 -0.27433593319E+03  0.33912236793E+03  0.15374064534E+04  0.12699999809E+01 0. -1.
       -4    1    3    3    0  502  0.14742295633E+04  0.27433593319E+03  0.39738354045E+03  0.15512989076E+04  0.12699999809E+01 0.  1.
</event>
<event>
 5   0  0.5931588E-07  0.3006366E+04  0.7818609E-02  0.8241915E-01
        1   -1    0    0  501    0  0.00000000000E+00  0.00000000000E+00  0.13396962895E+04  0.13396962895E+04  0.50400001928E-02 0. -1.
       -1   -1    0    0    0  501  0.00000000000E+00  0.00000000000E+00 -0.16866201833E+04  0.16866201833E+04  0.50400001928E-02 0.  1.
    10030    2    1    2    0    0  0.00000000000E+00  0.00000000000E+00 -0.34692389377E+03  0.30263164728E+04  0.30063657804E+04 0.  0.
        2    1    3    3  502    0  0.75512670006E+03  0.93335334686E+03  0.73708148721E+03  0.14087774565E+04  0.25500000920E-02 0. -1.
       -2    1    3    3    0  502 -0.75512670006E+03 -0.93335334686E+03 -0.10840053810E+04  0.16175390163E+04  0.25500000920E-02 0.  1.
</event>
<event>
 5   0  0.6291798E-07  0.3025596E+04  0.7818609E-02  0.8236459E-01
        1   -1    0    0  501    0  0.00000000000E+00  0.00000000000E+00  0.21054072880E+04  0.21054072880E+04  0.50400001928E-02 0.  1.
       -1   -1    0    0    0  501  0.00000000000E+00  0.00000000000E+00 -0.10869903676E+04  0.10869903676E+04  0.50400001928E-02 0. -1.
    10030    2    1    2    0    0  0.00000000000E+00  0.00000000000E+00  0.10184169204E+04  0.31923976557E+04  0.30255957708E+04 0.  0.
        1    1    3    3  502    0 -0.12581412219E+04  0.70760143091E+03  0.31549787529E+02  0.14438194168E+04  0.50400001928E-02 0. -1.
       -1    1    3    3    0  502  0.12581412219E+04 -0.70760143091E+03  0.98686713291E+03  0.17485782388E+04  0.50400001928E-02 0.  1.
</event>
<event>
 5   0  0.1723916E-06  0.2999478E+04  0.7818609E-02  0.8243880E-01
        2   -1    0    0  501    0  0.00000000000E+00  0.00000000000E+00  0.18416918184E+04  0.18416918184E+04  0.25500000920E-02 0.  1.
       -2   -1    0    0    0  501  0.00000000000E+00  0.00000000000E+00 -0.12212775685E+04  0.12212775685E+04  0.25500000920E-02 0. -1.
    10030    2    1    2    0    0  0.00000000000E+00  0.00000000000E+00  0.62041424990E+03  0.30629693869E+04  0.29994778919E+04 0.  0.
        1    1    3    3  502    0  0.86767527998E+03  0.87862166398E+03 -0.55891411233E+03  0.13554414059E+04  0.50400001928E-02 0. -1.
       -1    1    3    3    0  502 -0.86767527998E+03 -0.87862166398E+03  0.11793283622E+04  0.17075279810E+04  0.50400001928E-02 0.  1.
</event>
<event>
 5   0  0.5887179E-07  0.3023115E+04  0.7818609E-02  0.8237161E-01
        1   -1    0    0  501    0  0.00000000000E+00  0.00000000000E+00  0.88968428202E+03  0.88968428204E+03  0.50400001928E-02 0.  1.
       -1   -1    0    0    0  501  0.00000000000E+00  0.00000000000E+00 -0.25681096615E+04  0.25681096615E+04  0.50400001928E-02 0. -1.
    10030    2    1    2    0    0  0.00000000000E+00  0.00000000000E+00 -0.16784253795E+04  0.34577939436E+04  0.30231154794E+04 0.  0.
        3    1    3    3  502    0 -0.13542218152E+04 -0.16757977737E+03 -0.15829430316E+04  0.20899063036E+04  0.10100000352E+00 0. -1.
       -3    1    3    3    0  502  0.13542218152E+04  0.16757977737E+03 -0.95482347944E+02  0.13678876399E+04  0.10100000352E+00 0.  1.
</event>
<event>
 5   0  0.5916703E-07  0.3027444E+04  0.7818609E-02  0.8235937E-01
        1   -1    0    0  501    0  0.00000000000E+00  0.00000000000E+00  0.16953438115E+04  0.16953438116E+04  0.50400001928E-02 0.  1.
       -1   -1    0    0    0  501  0.00000000000E+00  0.00000000000E+00 -0.13515569746E+04  0.13515569746E+04  0.50400001928E-02 0. -1.
    10030    2    1    2    0    0  0.00000000000E+00  0.00000000000E+00  0.34378683693E+03  0.30469007862E+04  0.30274436430E+04 0.  0.
        5    1    3    3  502    0  0.10109540463E+04 -0.26353612432E+03  0.12743110182E+04  0.16478379876E+04  0.46999998093E+01 0.  1.
       -5    1    3    3    0  502 -0.10109540463E+04  0.26353612432E+03 -0.93052418123E+03  0.13990627986E+04  0.46999998093E+01 0. -1.
</event>
<event>
 5   0  0.5887179E-07  0.2993830E+04  0.7818609E-02  0.8245495E-01
       -1   -1    0    0    0  501  0.00000000000E+00  0.00000000000E+00  0.17111003735E+04  0.17111003735E+04  0.50400001928E-02 0. -1.
        1   -1    0    0  501    0  0.00000000000E+00  0.00000000000E+00 -0.13095399481E+04  0.13095399481E+04  0.50400001928E-02 0.  1.
    10030    2    1    2    0    0  0.00000000000E+00  0.00000000000E+00  0.40156042542E+03  0.30206403215E+04  0.29938298510E+04 0.  0.
        3    1    3    3  502    0  0.71022680265E+03  0.97558063710E+03  0.10944745810E+04  0.16291268549E+04  0.10100000352E+00 0. -1.
       -3    1    3    3    0  502 -0.71022680265E+03 -0.97558063710E+03 -0.69291415556E+03  0.13915134667E+04  0.10100000352E+00 0.  1.
</event>
<event>
 5   0  0.1674806E-06  0.3016890E+04  0.7818609E-02  0.8238924E-01
       -2   -1    0    0    0  501  0.00000000000E+00  0.00000000000E+00  0.25819916599E+04  0.25819916599E+04  0.25500000920E-02 0.  1.
        2   -1    0    0  501    0  0.00000000000E+00  0.00000000000E+00 -0.88125987712E+03  0.88125987713E+03  0.25500000920E-02 0. -1.
    10030    2    1    2    0    0  0.00000000000E+00  0.00000000000E+00  0.17007317828E+04  0.34632515370E+04  0.30168895591E+04 0.  0.
        2    1    3    3  502    0  0.16355244243E+03 -0.14974054652E+04  0.94243959021E+03  0.17768412732E+04  0.25500000920E-02 0.  1.
       -2    1    3    3    0  502 -0.16355244243E+03  0.14974054652E+04  0.75829219255E+03  0.16864102639E+04  0.25500000920E-02 0. -1.
</event>
<event>
 5   0  0.1674806E-06  0.2986787E+04  0.7818609E-02  0.8247514E-01
       -2   -1    0    0    0  501  0.00000000000E+00  0.00000000000E+00  0.13837329985E+04  0.13837329985E+04  0.25500000920E-02 0. -1.
        2   -1    0    0  501    0  0.00000000000E+00  0.00000000000E+00 -0.16117446195E+04  0.16117446195E+04  0.25500000920E-02 0.  1.
    10030    2    1    2    0    0  0.00000000000E+00  0.00000000000E+00 -0.22801162098E+03  0.29954776180E+04  0.29867870464E+04 0.  0.
        2    1    3    3  502    0  0.55803495690E+03  0.31589365678E+03 -0.14666452215E+04  0.16006998536E+04  0.25500000920E-02 0.  1.
       -2    1    3    3    0  502 -0.55803495690E+03 -0.31589365678E+03  0.12386336005E+04  0.13947777644E+04  0.25500000920E-02 0. -1.
</event>
<event>
 5   0  0.1625212E-06  0.3001000E+04  0.7818609E-02  0.8243445E-01
        2   -1    0    0  501    0  0.00000000000E+00  0.00000000000E+00  0.14634405852E+04  0.14634405852E+04  0.25500000920E-02 0.  1.
       -2   -1    0    0    0  501  0.00000000000E+00  0.00000000000E+00 -0.15384980271E+04  0.15384980271E+04  0.25500000920E-02 0. -1.
    10030    2    1    2    0    0  0.00000000000E+00  0.00000000000E+00 -0.75057441955E+02  0.30019386123E+04  0.30010001354E+04 0.  0.
        4    1    3    3  502    0 -0.12072032912E+04  0.52110164981E+03  0.68561652001E+03  0.14828885127E+04  0.12699999809E+01 0.  1.
       -4    1    3    3    0  502  0.12072032912E+04 -0.52110164981E+03 -0.76067396197E+03  0.15190500996E+04  0.12699999809E+01 0. -1.
</event>
<event>
 5   0  0.5431625E-07  0.3008410E+04  0.7818609E-02  0.8241333E-01
        3   -1    0    0  501    0  0.00000000000E+00  0.00000000000E+00  0.12979476002E+04  0.12979476041E+04  0.10100000352E+00 0.  1.
       -3   -1    0    0    0  501  0.00000000000E+00  0.00000000000E+00 -0.17432393350E+04  0.17432393379E+04  0.10100000352E+00 0. -1.
    10030    2    1    2    0    0  0.00000000000E+00  0.00000000000E+00 -0.44529173478E+03  0.30411869420E+04  0.30084104253E+04 0.  0.
        1    1    3    3  502    0 -0.76835783813E+03 -0.11092130911E+04 -0.89464841390E+03  0.16189883364E+04  0.50400001928E-02 0. -1.
       -1    1    3    3    0  502  0.76835783813E+03  0.11092130911E+04  0.44935667913E+03  0.14221986056E+04  0.50400001928E-02 0.  1.
</event>
<event>
 5   0  0.5887179E-07  0.2996278E+04  0.7818609E-02  0.8244794E-01
        1   -1    0    0  501    0  0.00000000000E+00  0.00000000000E+00  0.12069390324E+04  0.12069390324E+04  0.50400001928E-02 0. -1.
       -1   -1    0    0    0  501  0.00000000000E+00  0.00000000000E+00 -0.18595975201E+04  0.18595975201E+04  0.50400001928E-02 0.  1.
    10030    2    1    2    0    0  0.00000000000E+00  0.00000000000E+00 -0.65265848775E+03  0.30665365526E+04  0.29962782458E+04 0.  0.
        3    1    3    3  502    0 -0.31475351444E+03 -0.95322175243E+02  0.11695396791E+04  0.12148988284E+04  0.10100000352E+00 0. -1.
       -3    1    3    3    0  502  0.31475351444E+03  0.95322175243E+02 -0.18221981669E+04  0.18516377242E+04  0.10100000352E+00 0.  1.
</event>
<event>
 5   0  0.5874741E-07  0.2992890E+04  0.7818609E-02  0.8245764E-01
        1   -1    0    0  501    0  0.00000000000E+00  0.00000000000E+00  0.20646115223E+04  0.20646115223E+04  0.50400001928E-02 0. -1.
       -1   -1    0    0    0  501  0.00000000000E+00  0.00000000000E+00 -0.10846336214E+04  0.10846336214E+04  0.50400001928E-02 0.  1.
    10030    2    1    2    0    0  0.00000000000E+00  0.00000000000E+00  0.97997790095E+03  0.31492451437E+04  0.29928896219E+04 0.  0.
        4    1    3    3  502    0  0.12738275568E+04 -0.24594971769E+03 -0.29477331529E+03  0.13304212973E+04  0.12699999809E+01 0.  1.
       -4    1    3    3    0  502 -0.12738275568E+04  0.24594971769E+03  0.12747512162E+04  0.18188238464E+04  0.12699999809E+01 0. -1.
</event>
<event>
 5   0  0.1560174E-06  0.2993239E+04  0.7818609E-02  0.8245664E-01
       -2   -1    0    0    0  501  0.00000000000E+00  0.00000000000E+00  0.10776830259E+04  0.10776830259E+04  0.25500000920E-02 0. -1.
        2   -1    0    0  501    0  0.00000000000E+00  0.00000000000E+00 -0.20784126056E+04  0.20784126056E+04  0.25500000920E-02 0.  1.
    10030    2    1    2    0    0  0.00000000000E+00  0.00000000000E+00 -0.10007295797E+04  0.31560956315E+04  0.29932390388E+04 0.  0.
        5    1    3    3  502    0  0.13824012695E+03  0.22830917070E+01 -0.20716566580E+04  0.20762704409E+04  0.46999998093E+01 0.  1.
       -5    1    3    3    0  502 -0.13824012695E+03 -0.22830917070E+01  0.10709270783E+04  0.10798251906E+04  0.46999998093E+01 0. -1.
</event>
<event>
 5   0  0.5916703E-07  0.2984335E+04  0.7818609E-02  0.8248218E-01
       -1   -1    0    0    0  501  0.00000000000E+00  0.00000000000E+00  0.92276205150E+03  0.92276205151E+03  0.50400001928E-02 0.  1.
        1   -1    0    0  501    0  0.00000000000E+00  0.00000000000E+00 -0.24129338627E+04  0.24129338627E+04  0.50400001928E-02 0. -1.
    10030    2    1    2    0    0  0.00000000000E+00  0.00000000000E+00 -0.14901718112E+04  0.33356959142E+04  0.29843349687E+04 0.  0.
        5    1    3    3  502    0 -0.58112500801E+03  0.39003630765E+03  0.72791216171E+03  0.10098082993E+04  0.46999998093E+01 0.  1.
       -5    1    3    3    0  502  0.58112500801E+03 -0.39003630765E+03 -0.22180839729E+04  0.23258876149E+04  0.46999998093E+01 0. -1.
</event>
<event>
 5   0  0.5931588E-07  0.2992589E+04  0.7818609E-02  0.8245850E-01
       -1   -1    0    0    0  501  0.00000000000E+00  0.00000000000E+00  0.10402220442E+04  0.10402220442E+04  0.50400001928E-02 0. -1.
        1   -1    0    0  501    0  0.00000000000E+00  0.00000000000E+00 -0.21523262290E+04  0.21523262290E+04  0.50400001928E-02 0.  1.
    10030    2    1    2    0    0  0.00000000000E+00  0.00000000000E+00 -0.11121041848E+04  0.31925482732E+04  0.29925889726E+04 0.  0.
        2    1    3    3  502    0 -0.11105199706E+04 -0.49238848515E+03  0.37593198141E+03  0.12716233248E+04  0.25500000920E-02 0. -1.
       -2    1    3    3    0  502  0.11105199706E+04  0.49238848515E+03 -0.14880361662E+04  0.19209249484E+04  0.25500000920E-02 0.  1.
</event>
<event>
 5   0  0.1635086E-06  0.3055857E+04  0.7818609E-02  0.8227958E-01
       -2   -1    0    0    0  501  0.00000000000E+00  0.00000000000E+00  0.92463727491E+03  0.92463727491E+03  0.25500000920E-02 0.  1.
        2   -1    0    0  501    0  0.00000000000E+00  0.00000000000E+00 -0.25248454798E+04  0.25248454798E+04  0.25500000920E-02 0. -1.
    10030    2    1    2    0    0  0.00000000000E+00  0.00000000000E+00 -0.16002082049E+04  0.34494827548E+04  0.30558574862E+04 0.  0.
        3    1    3    3  502    0  0.86971896428E+03 -0.10653023984E+04 -0.48545468666E+02  0.13760948185E+04  0.10100000352E+00 0. -1.
       -3    1    3    3    0  502 -0.86971896428E+03  0.10653023984E+04 -0.15516627363E+04  0.20733879362E+04  0.10100000352E+00 0.  1.
</event>
<event>
 5   0  0.5887179E-07  0.3001690E+04  0.7818609E-02  0.8243248E-01
        1   -1    0    0  501    0  0.00000000000E+00  0.00000000000E+00  0.16401764642E+04  0.16401764642E+04  0.50400001928E-02 0.  1.
       -1   -1    0    0    0  501  0.00000000000E+00  0.00000000000E+00 -0.13733495430E+04  0.13733495430E+04  0.50400001928E-02 0. -1.
    10030    2    1    2    0    0  0.00000000000E+00  0.00000000000E+00  0.26682692117E+03  0.30135260072E+04  0.30016899224E+04 0.  0.
        3    1    3    3  502    0 -0.71050564747E+03  0.84585097949E+03 -0.88659150168E+03  0.14164486068E+04  0.10100000352E+00 0. -1.
       -3    1    3    3    0  502  0.71050564747E+03 -0.84585097949E+03  0.11534184228E+04  0.15970774004E+04  0.10100000352E+00 0.  1.
</event>
<event>
 5   0  0.5887179E-07  0.3001824E+04  0.7818609E-02  0.8243210E-01
        1   -1    0    0  501    0  0.00000000000E+00  0.00000000000E+00  0.19119476200E+04  0.19119476200E+04  0.50400001928E-02 0. -1.
       -1   -1    0    0    0  501  0.00000000000E+00  0.00000000000E+00 -0.11782416115E+04  0.11782416115E+04  0.50400001928E-02 0.  1.
    10030    2    1    2    0    0  0.00000000000E+00  0.00000000000E+00  0.73370600847E+03  0.30901892315E+04  0.30018236090E+04 0.  0.
        3    1    3    3  502    0 -0.51894408196E+03 -0.64847444545E+03 -0.92011417029E+03  0.12395290086E+04  0.10100000352E+00 0.  1.
       -3    1    3    3    0  502  0.51894408196E+03  0.64847444545E+03  0.16538201788E+04  0.18506602229E+04  0.10100000352E+00 0. -1.
</event>
<event>
 5   0  0.5887179E-07  0.2996563E+04  0.7818609E-02  0.8244713E-01
        1   -1    0    0  501    0  0.00000000000E+00  0.00000000000E+00  0.13798607383E+04  0.13798607383E+04  0.50400001928E-02 0.  1.
       -1   -1    0    0    0  501  0.00000000000E+00  0.00000000000E+00 -0.16268647977E+04  0.16268647977E+04  0.50400001928E-02 0. -1.
    10030    2    1    2    0    0  0.00000000000E+00  0.00000000000E+00 -0.24700405932E+03  0.30067255360E+04  0.29965626047E+04 0.  0.
        3    1    3    3  502    0 -0.10466011801E+04  0.41730047940E+03 -0.11144410247E+04  0.15847689194E+04  0.10100000352E+00 0. -1.
       -3    1    3    3    0  502  0.10466011801E+04 -0.41730047940E+03  0.86743696539E+03  0.14219566166E+04  0.10100000352E+00 0.  1.
</event>
<event>
 5   0  0.5431625E-07  0.2978487E+04  0.7818609E-02  0.8249901E-01
       -4   -1    0    0    0  501  0.00000000000E+00  0.00000000000E+00  0.15717550065E+04  0.15717555196E+04  0.12699999809E+01 0. -1.
        4   -1    0    0  501    0  0.00000000000E+00  0.00000000000E+00 -0.14110625226E+04  0.14110630942E+04  0.12699999809E+01 0.  1.
    10030    2    1    2    0    0  0.00000000000E+00  0.00000000000E+00  0.16069248388E+03  0.29828186138E+04  0.29784869998E+04 0.  0.
        3    1    3    3  502    0  0.48337202820E+03  0.10768339115E+04  0.98975630012E+03  0.15404016795E+04  0.10100000352E+00 0. -1.
       -3    1    3    3    0  502 -0.48337202820E+03 -0.10768339115E+04 -0.82906381624E+03  0.14424169342E+04  0.10100000352E+00 0.  1.
</event>
<event>
 5   0  0.5874741E-07  0.2999067E+04  0.7818609E-02  0.8243997E-01
        1   -1    0    0  501    0  0.00000000000E+00  0.00000000000E+00  0.14830330746E+04  0.14830330746E+04  0.50400001928E-02 0. -1.
       -1   -1    0    0    0  501  0.00000000000E+00  0.00000000000E+00 -0.15162175671E+04  0.15162175671E+04  0.50400001928E-02 0.  1.
    10030    2    1    2    0    0  0.00000000000E+00  0.00000000000E+00 -0.33184492426E+02  0.29992506417E+04  0.29990670551E+04 0.  0.
        4    1    3    3  502    0  0.41427357151E+02  0.12014946564E+04  0.87972906985E+03  0.14897081877E+04  0.12699999809E+01 0. -1.
       -4    1    3    3    0  502 -0.41427357151E+02 -0.12014946564E+04 -0.91291356228E+03  0.15095424540E+04  0.12699999809E+01 0.  1.
</event>
<event>
 5   0  0.5874741E-07  0.2998868E+04  0.7818609E-02  0.8244054E-01
       -1   -1    0    0    0  501  0.00000000000E+00  0.00000000000E+00  0.10532076285E+04  0.10532076285E+04  0.50400001928E-02 0. -1.
        1   -1    0    0  501    0  0.00000000000E+00  0.00000000000E+00 -0.21347182971E+04  0.21347182972E+04  0.50400001928E-02 0.  1.
    10030    2    1    2    0    0  0.00000000000E+00  0.00000000000E+00 -0.10815106687E+04  0.31879259256E+04  0.29988675164E+04 0.  0.
        4    1    3    3  502    0  0.10977149063E+04 -0.48359129619E+03 -0.14971761515E+04  0.19184307647E+04  0.12699999809E+01 0.  1.
       -4    1    3    3    0  502 -0.10977149063E+04  0.48359129619E+03  0.41566548285E+03  0.12694951610E+04  0.12699999809E+01 0. -1.
</event>
<event>
 5   0  0.1635086E-06  0.3052102E+04  0.7818609E-02  0.8229007E-01
        2   -1    0    0  501    0  0.00000000000E+00  0.00000000000E+00  0.16216138156E+04  0.16216138156E+04  0.25500000920E-02 0. -1.
       -2   -1    0    0    0  501  0.00000000000E+00  0.00000000000E+00 -0.14361201495E+04  0.14361201495E+04  0.25500000920E-02 0.  1.
    10030    2    1    2    0    0  0.00000000000E+00  0.00000000000E+00  0.18549366605E+03  0.30577339651E+04  0.30521024067E+04 0.  0.
        3    1    3    3  502    0  0.64365645101E+03 -0.19357474435E+03 -0.12798422367E+04  0.14456005567E+04  0.10100000352E+00 0.  1.
       -3    1    3    3    0  502 -0.64365645101E+03  0.19357474435E+03  0.14653359027E+04  0.16121334084E+04  0.10100000352E+00 0. -1.
</event>
<event>
 5   0  0.1625212E-06  0.2994919E+04  0.7818609E-02  0.8245183E-01
       -2   -1    0    0    0  501  0.00000000000E+00  0.00000000000E+00  0.20102668720E+04  0.20102668720E+04  0.25500000920E-02 0.  1.
        2   -1    0    0  501    0  0.00000000000E+00  0.00000000000E+00 -0.11154664462E+04  0.11154664462E+04  0.25500000920E-02 0. -1.
    10030    2    1    2    0    0  0.00000000000E+00  0.00000000000E+00  0.89480042582E+03  0.31257333182E+04  0.29949191934E+04 0.  0.
        4    1    3    3  502    0 -0.14674491638E+04 -0.69963962747E+02  0.75003396645E+03  0.16495013090E+04  0.12699999809E+01 0. -1.
       -4    1    3    3    0  502  0.14674491638E+04  0.69963962747E+02  0.14476645937E+03  0.14762320093E+04  0.12699999809E+01 0.  1.
</event>
<event>
 5   0  0.1625212E-06  0.3008682E+04  0.7818609E-02  0.8241256E-01
        2   -1    0    0  501    0  0.00000000000E+00  0.00000000000E+00  0.14163635160E+04  0.14163635160E+04  0.25500000920E-02 0. -1.
       -2   -1    0    0    0  501  0.00000000000E+00  0.00000000000E+00 -0.15977829173E+04  0.15977829173E+04  0.25500000920E-02 0.  1.
    10030    2    1    2    0    0  0.00000000000E+00  0.00000000000E+00 -0.18141940138E+03  0.30141464333E+04  0.30086817250E+04 0.  0.
        4    1    3    3  502    0  0.31566393693E+02 -0.24556428987E+03 -0.15772314557E+04  0.15965459390E+04  0.12699999809E+01 0.  1.
       -4    1    3    3    0  502 -0.31566393693E+02  0.24556428987E+03  0.13958120543E+04  0.14176004943E+04  0.12699999809E+01 0. -1.
</event>
<event>
 5   0  0.5916703E-07  0.2989860E+04  0.7818609E-02  0.8246632E-01
        1   -1    0    0  501    0  0.00000000000E+00  0.00000000000E+00  0.19284883327E+04  0.19284883327E+04  0.50400001928E-02 0. -1.
       -1   -1    0    0    0  501  0.00000000000E+00  0.00000000000E+00 -0.11588429356E+04  0.11588429356E+04  0.50400001928E-02 0.  1.
    10030    2    1    2    0    0  0.00000000000E+00  0.00000000000E+00  0.76964539708E+03  0.30873312683E+04  0.29898595825E+04 0.  0.
        5    1    3    3  502    0  0.53628944898E+02  0.14522765555E+04  0.22955820618E+02  0.14534553027E+04  0.46999998093E+01 0.  1.
       -5    1    3    3    0  502 -0.53628944898E+02 -0.14522765555E+04  0.74668957646E+03  0.16338759656E+04  0.46999998093E+01 0. -1.
</event>
<event>
 5   0  0.5887179E-07  0.3001758E+04  0.7818609E-02  0.8243229E-01
       -1   -1    0    0    0  501  0.00000000000E+00  0.00000000000E+00  0.85702810978E+03  0.85702810979E+03  0.50400001928E-02 0.  1.
        1   -1    0    0  501    0  0.00000000000E+00  0.00000000000E+00 -0.26284289699E+04  0.26284289699E+04  0.50400001928E-02 0. -1.
    10030    2    1    2    0    0  0.00000000000E+00  0.00000000000E+00 -0.17714008601E+04  0.34854570797E+04  0.30017578262E+04 0.  0.
        3    1    3    3  502    0  0.39594953564E+03  0.14371062324E+04 -0.68262679266E+03  0.16395211820E+04  0.10100000352E+00 0. -1.
       -3    1    3    3    0  502 -0.39594953564E+03 -0.14371062324E+04 -0.10887740675E+04  0.18459358977E+04  0.10100000352E+00 0.  1.
</event>
<event>
 5   0  0.1625212E-06  0.3015908E+04  0.7818609E-02  0.8239203E-01
        2   -1    0    0  501    0  0.00000000000E+00  0.00000000000E+00  0.15748958688E+04  0.15748958688E+04  0.25500000920E-02 0.  1.
       -2   -1    0    0    0  501  0.00000000000E+00  0.00000000000E+00 -0.14438570763E+04  0.14438570763E+04  0.25500000920E-02 0. -1.
    10030    2    1    2    0    0  0.00000000000E+00  0.00000000000E+00  0.13103879245E+03  0.30187529451E+04  0.30159075215E+04 0.  0.
        4    1    3    3  502    0 -0.10884716241E+04  0.83350549372E+03 -0.56310262728E+03  0.14820890885E+04  0.12699999809E+01 0. -1.
       -4    1    3    3    0  502  0.10884716241E+04 -0.83350549372E+03  0.69414141973E+03  0.15366638566E+04  0.12699999809E+01 0.  1.
</event>
<event>
 5   0  0.1560174E-06  0.2995889E+04  0.7818609E-02  0.8244906E-01
       -2   -1    0    0    0  501  0.00000000000E+00  0.00000000000E+00  0.13497203786E+04  0.13497203786E+04  0.25500000920E-02 0.  1.
        2   -1    0    0  501    0  0.00000000000E+00  0.00000000000E+00 -0.16624461197E+04  0.16624461197E+04  0.25500000920E-02 0. -1.
    10030    2    1    2    0    0  0.00000000000E+00  0.00000000000E+00 -0.31272574108E+03  0.30121664982E+04  0.29958887870E+04 0.  0.
        5    1    3    3  502    0  0.28093703328E+03  0.54318168054E+03  0.12184889713E+04  0.13633449372E+04  0.46999998093E+01 0.  1.
       -5    1    3    3    0  502 -0.28093703328E+03 -0.54318168054E+03 -0.15312147123E+04  0.16488215610E+04  0.46999998093E+01 0. -1.
</event>
<event>
 5   0  0.5916703E-07  0.2999215E+04  0.7818609E-02  0.8243955E-01
        1   -1    0    0  501    0  0.00000000000E+00  0.00000000000E+00  0.20508298894E+04  0.20508298894E+04  0.50400001928E-02 0. -1.
       -1   -1    0    0    0  501  0.00000000000E+00  0.00000000000E+00 -0.10965427062E+04  0.10965427062E+04  0.50400001928E-02 0.  1.
    10030    2    1    2    0    0  0.00000000000E+00  0.00000000000E+00  0.95428718321E+03  0.31473725957E+04  0.29992149353E+04 0.  0.
        5    1    3    3  502    0 -0.11019581583E+04  0.92895860260E+03  0.91175765512E+03  0.17054618083E+04  0.46999998093E+01 0. -1.
       -5    1    3    3    0  502  0.11019581583E+04 -0.92895860260E+03  0.42529528095E+02  0.14419107874E+04  0.46999998093E+01 0.  1.
</event>
<event>
 5   0  0.5887179E-07  0.3041774E+04  0.7818609E-02  0.8231902E-01
       -1   -1    0    0    0  501  0.00000000000E+00  0.00000000000E+00  0.11445471463E+04  0.11445471463E+04  0.50400001928E-02 0. -1.
        1   -1    0    0  501    0  0.00000000000E+00  0.00000000000E+00 -0.20209710549E+04  0.20209710549E+04  0.50400001928E-02 0.  1.
    10030    2    1    2    0    0  0.00000000000E+00  0.00000000000E+00 -0.87642390857E+03  0.31655182012E+04  0.30417735969E+04 0.  0.
        3    1    3    3  502    0 -0.73718381526E+03 -0.25083012974E+03 -0.17977824417E+04  0.19591777483E+04  0.10100000352E+00 0.  1.
       -3    1    3    3    0  502  0.73718381526E+03  0.25083012974E+03  0.92135853315E+03  0.12063404529E+04  0.10100000352E+00 0. -1.
</event>
<event>
 5   0  0.1674806E-06  0.2978148E+04  0.7818609E-02  0.8249999E-01
       -2   -1    0    0    0  501  0.00000000000E+00  0.00000000000E+00  0.83673389961E+03  0.83673389961E+03  0.25500000920E-02 0.  1.
        2   -1    0    0  501    0  0.00000000000E+00  0.00000000000E+00 -0.26499955517E+04  0.26499955517E+04  0.25500000920E-02 0. -1.
    10030    2    1    2    0    0  0.00000000000E+00  0.00000000000E+00 -0.18132616520E+04  0.34867294513E+04  0.29781478216E+04 0.  0.
        2    1    3    3  502    0  0.37533453672E+03  0.45567979908E+03  0.69386982336E+03  0.91102987082E+03  0.25500000920E-02 0.  1.
       -2    1    3    3    0  502 -0.37533453672E+03 -0.45567979908E+03 -0.25071314754E+04  0.25756995805E+04  0.25500000920E-02 0. -1.
</event>
<event>
 5   0  0.1560174E-06  0.2811885E+04  0.7818609E-02  0.8299588E-01
       -2   -1    0    0    0  501  0.00000000000E+00  0.00000000000E+00  0.70695587208E+03  0.70695587209E+03  0.25500000920E-02 0. -1.
        2   -1    0    0  501    0  0.00000000000E+00  0.00000000000E+00 -0.27960357885E+04  0.27960357885E+04  0.25500000920E-02 0.  1.
    10030    2    1    2    0    0  0.00000000000E+00  0.00000000000E+00 -0.20890799164E+04  0.35029916605E+04  0.28118847197E+04 0.  0.
        5    1    3    3  502    0  0.54620420290E+03 -0.34676068348E+03 -0.25995566323E+04  0.26788614704E+04  0.46999998093E+01 0.  1.
       -5    1    3    3    0  502 -0.54620420290E+03  0.34676068348E+03  0.51047671592E+03  0.82413019019E+03  0.46999998093E+01 0. -1.
</event>
<event>
 5   0  0.1723916E-06  0.2986917E+04  0.7818609E-02  0.8247477E-01
        2   -1    0    0  501    0  0.00000000000E+00  0.00000000000E+00  0.13219327382E+04  0.13219327382E+04  0.25500000920E-02 0. -1.
       -2   -1    0    0    0  501  0.00000000000E+00  0.00000000000E+00 -0.16872399032E+04  0.16872399032E+04  0.25500000920E-02 0.  1.
    10030    2    1    2    0    0  0.00000000000E+00  0.00000000000E+00 -0.36530716504E+03  0.30091726414E+04  0.29869165808E+04 0.  0.
        1    1    3    3  502    0 -0.10246771175E+04 -0.10197196106E+04  0.19514247242E+03  0.14587226823E+04  0.50400001928E-02 0.  1.
       -1    1    3    3    0  502  0.10246771175E+04  0.10197196106E+04 -0.56044963745E+03  0.15504499590E+04  0.50400001928E-02 0. -1.
</event>
<event>
 5   0  0.1625212E-06  0.3009204E+04  0.7818609E-02  0.8241108E-01
        2   -1    0    0  501    0  0.00000000000E+00  0.00000000000E+00  0.21439596668E+04  0.21439596668E+04  0.25500000920E-02 0. -1.
       -2   -1    0    0    0  501  0.00000000000E+00  0.00000000000E+00 -0.10559091637E+04  0.10559091637E+04  0.25500000920E-02 0.  1.
    10030    2    1    2    0    0  0.00000000000E+00  0.00000000000E+00  0.10880505031E+04  0.31998688305E+04  0.30092036547E+04 0.  0.
        4    1    3    3  502    0  0.55609362500E+03 -0.13390980967E+03  0.20238371395E+04  0.21031144375E+04  0.12699999809E+01 0. -1.
       -4    1    3    3    0  502 -0.55609362500E+03  0.13390980967E+03 -0.93578663641E+03  0.10967543931E+04  0.12699999809E+01 0.  1.
</event>
<event>
 5   0  0.1560174E-06  0.2980938E+04  0.7818609E-02  0.8249195E-01
        2   -1    0    0  501    0  0.00000000000E+00  0.00000000000E+00  0.10923759445E+04  0.10923759445E+04  0.25500000920E-02 0.  1.
       -2   -1    0    0    0  501  0.00000000000E+00  0.00000000000E+00 -0.20336389809E+04  0.20336389809E+04  0.25500000920E-02 0. -1.
    10030    2    1    2    0    0  0.00000000000E+00  0.00000000000E+00 -0.94126303638E+03  0.31260149255E+04  0.29809383104E+04 0.  0.
        5    1    3    3  502    0  0.13756675397E+04 -0.31554038678E+03 -0.97295262219E+03  0.17142595517E+04  0.46999998093E+01 0.  1.
       -5    1    3    3    0  502 -0.13756675397E+04  0.31554038678E+03  0.31689585805E+02  0.14117553738E+04  0.46999998093E+01 0. -1.
</event>
<event>
 5   0  0.1635086E-06  0.3000910E+04  0.7818609E-02  0.8243471E-01
        2   -1    0    0  501    0  0.00000000000E+00  0.00000000000E+00  0.16935090886E+04  0.16935090886E+04  0.25500000920E-02 0. -1.
       -2   -1    0    0    0  501  0.00000000000E+00  0.00000000000E+00 -0.13294086122E+04  0.13294086122E+04  0.25500000920E-02 0.  1.
    10030    2    1    2    0    0  0.00000000000E+00  0.00000000000E+00  0.36410047646E+03  0.30229177008E+04  0.30009102400E+04 0.  0.
        3    1    3    3  502    0 -0.13077126684E+04  0.46114017096E+03  0.75949307551E+03  0.15810099374E+04  0.10100000352E+00 0. -1.
       -3    1    3    3    0  502  0.13077126684E+04 -0.46114017096E+03 -0.39539259905E+03  0.14419077633E+04  0.10100000352E+00 0.  1.
</event>
<event>
 5   0  0.5874741E-07  0.3002037E+04  0.7818609E-02  0.8243149E-01
        1   -1    0    0  501    0  0.00000000000E+00  0.00000000000E+00  0.13140250388E+04  0.13140250388E+04  0.50400001928E-02 0. -1.
       -1   -1    0    0    0  501  0.00000000000E+00  0.00000000000E+00 -0.17146221781E+04  0.17146221781E+04  0.50400001928E-02 0.  1.
    10030    2    1    2    0    0  0.00000000000E+00  0.00000000000E+00 -0.40059713923E+03  0.30286472169E+04  0.30020369579E+04 0.  0.
        4    1    3    3  502    0  0.67913913535E+03  0.25205454744E+03 -0.15265974107E+04  0.16897522680E+04  0.12699999809E+01 0.  1.
       -4    1    3    3    0  502 -0.67913913535E+03 -0.25205454744E+03  0.11260002714E+04  0.13388949489E+04  0.12699999809E+01 0. -1.
</event>
<event>
 5   0  0.1560174E-06  0.3013350E+04  0.7818609E-02  0.8239929E-01
        2   -1    0    0  501    0  0.00000000000E+00  0.00000000000E+00  0.11047244607E+04  0.11047244607E+04  0.25500000920E-02 0. -1.
       -2   -1    0    0    0  501  0.00000000000E+00  0.00000000000E+00 -0.20548743921E+04  0.20548743921E+04  0.25500000920E-02 0.  1.
    10030    2    1    2    0    0  0.00000000000E+00  0.00000000000E+00 -0.95014993138E+03  0.31595988528E+04  0.30133502980E+04 0.  0.
        5    1    3    3  502    0 -0.11688483151E+04 -0.45808019796E+03 -0.13485758183E+04  0.18424773212E+04  0.46999998093E+01 0.  1.
       -5    1    3    3    0  502  0.11688483151E+04  0.45808019796E+03  0.39842588690E+03  0.13171215316E+04  0.46999998093E+01 0. -1.
</event>
<event>
 5   0  0.5916703E-07  0.2978213E+04  0.7818609E-02  0.8249980E-01
        1   -1    0    0  501    0  0.00000000000E+00  0.00000000000E+00  0.20989951467E+04  0.20989951467E+04  0.50400001928E-02 0. -1.
       -1   -1    0    0    0  501  0.00000000000E+00  0.00000000000E+00 -0.10564285584E+04  0.10564285585E+04  0.50400001928E-02 0.  1.
    10030    2    1    2    0    0  0.00000000000E+00  0.00000000000E+00  0.10425665882E+04  0.31554237051E+04  0.29782131670E+04 0.  0.
        5    1    3    3  502    0 -0.48465557580E+03  0.13153375023E+04  0.10535844151E+04  0.17535866052E+04  0.46999998093E+01 0. -1.
       -5    1    3    3    0  502  0.48465557580E+03 -0.13153375023E+04 -0.11017826857E+02  0.14018370999E+04  0.46999998093E+01 0.  1.
</event>
<event>
 5   0  0.5916703E-07  0.2996053E+04  0.7818609E-02  0.8244859E-01
        1   -1    0    0  501    0  0.00000000000E+00  0.00000000000E+00  0.13450870828E+04  0.13450870828E+04  0.50400001928E-02 0.  1.
       -1   -1    0    0    0  501  0.00000000000E+00  0.00000000000E+00 -0.16683554805E+04  0.16683554805E+04  0.50400001928E-02 0. -1.
    10030    2    1    2    0    0  0.00000000000E+00  0.00000000000E+00 -0.32326839769E+03  0.30134425632E+04  0.29960530077E+04 0.  0.
        5    1    3    3  502    0 -0.85740369595E+03  0.81209750051E+03  0.76535382108E+03  0.14072782275E+04  0.46999998093E+01 0.  1.
       -5    1    3    3    0  502  0.85740369595E+03 -0.81209750051E+03 -0.10886222188E+04  0.16061643357E+04  0.46999998093E+01 0. -1.
</event>
<event>
 5   0  0.5916703E-07  0.2993160E+04  0.7818609E-02  0.8245687E-01
        1   -1    0    0  501    0  0.00000000000E+00  0.00000000000E+00  0.26238970948E+04  0.26238970948E+04  0.50400001928E-02 0. -1.
       -1   -1    0    0    0  501  0.00000000000E+00  0.00000000000E+00 -0.85359715058E+03  0.85359715059E+03  0.50400001928E-02 0.  1.
    10030    2    1    2    0    0  0.00000000000E+00  0.00000000000E+00  0.17702999442E+04  0.34774942454E+04  0.29931595905E+04 0.  0.
        5    1    3    3  502    0 -0.10845997731E+04  0.29990252365E+03 -0.26112573580E+03  0.11552086095E+04  0.46999998093E+01 0.  1.
       -5    1    3    3    0  502  0.10845997731E+04 -0.29990252365E+03  0.20314256800E+04  0.23222856360E+04  0.46999998093E+01 0. -1.
</event>
<event>
 5   0  0.6291798E-07  0.2996958E+04  0.7818609E-02  0.8244600E-01
       -1   -1    0    0    0  501  0.00000000000E+00  0.00000000000E+00  0.10718116568E+04  0.10718116568E+04  0.50400001928E-02 0. -1.
        1   -1    0    0  501    0  0.00000000000E+00  0.00000000000E+00 -0.20949947239E+04  0.20949947239E+04  0.50400001928E-02 0.  1.
    10030    2    1    2    0    0  0.00000000000E+00  0.00000000000E+00 -0.10231830671E+04  0.31668063808E+04  0.29969583021E+04 0.  0.
        1    1    3    3  502    0  0.56943147626E+03 -0.10712947490E+04 -0.14409327844E+04  0.18836698051E+04  0.50400001928E-02 0.  1.
       -1    1    3    3    0  502 -0.56943147626E+03  0.10712947490E+04  0.41774971732E+03  0.12831365757E+04  0.50400001928E-02 0. -1.
</event>
<event>
 5   0  0.1635086E-06  0.3006361E+04  0.7818609E-02  0.8241917E-01
       -2   -1    0    0    0  501  0.00000000000E+00  0.00000000000E+00  0.16238251211E+04  0.16238251211E+04  0.25500000920E-02 0.  1.
        2   -1    0    0  501    0  0.00000000000E+00  0.00000000000E+00 -0.13914990944E+04  0.13914990944E+04  0.25500000920E-02 0. -1.
    10030    2    1    2    0    0  0.00000000000E+00  0.00000000000E+00  0.23232602673E+03  0.30153242155E+04  0.30063607139E+04 0.  0.
        3    1    3    3  502    0 -0.11149110734E+04  0.10081669901E+04  0.10500358164E+03  0.15068022909E+04  0.10100000352E+00 0.  1.
       -3    1    3    3    0  502  0.11149110734E+04 -0.10081669901E+04  0.12732244509E+03  0.15085219246E+04  0.10100000352E+00 0. -1.
</event>
<event>
 5   0  0.1560174E-06  0.2994986E+04  0.7818609E-02  0.8245164E-01
        2   -1    0    0  501    0  0.00000000000E+00  0.00000000000E+00  0.21105831195E+04  0.21105831195E+04  0.25500000920E-02 0.  1.
       -2   -1    0    0    0  501  0.00000000000E+00  0.00000000000E+00 -0.10624953268E+04  0.10624953268E+04  0.25500000920E-02 0. -1.
    10030    2    1    2    0    0  0.00000000000E+00  0.00000000000E+00  0.10480877927E+04  0.31730784463E+04  0.29949856101E+04 0.  0.
        5    1    3    3  502    0  0.74562421303E+01  0.12265984058E+03 -0.10571365353E+04  0.10642653693E+04  0.46999998093E+01 0. -1.
       -5    1    3    3    0  502 -0.74562421303E+01 -0.12265984058E+03  0.21052243281E+04  0.21088130769E+04  0.46999998093E+01 0.  1.
</event>
<event>
 5   0  0.5874741E-07  0.2993893E+04  0.7818609E-02  0.8245477E-01
       -1   -1    0    0    0  501  0.00000000000E+00  0.00000000000E+00  0.13509488338E+04  0.13509488338E+04  0.50400001928E-02 0.  1.
        1   -1    0    0  501    0  0.00000000000E+00  0.00000000000E+00 -0.16587224261E+04  0.16587224261E+04  0.50400001928E-02 0. -1.
    10030    2    1    2    0    0  0.00000000000E+00  0.00000000000E+00 -0.30777359235E+03  0.30096712599E+04  0.29938932026E+04 0.  0.
        4    1    3    3  502    0  0.13493311244E+04 -0.21740981808E+03 -0.76774886253E+03  0.15676101050E+04  0.12699999809E+01 0. -1.
       -4    1    3    3    0  502 -0.13493311244E+04  0.21740981808E+03  0.45997527017E+03  0.14420611549E+04  0.12699999809E+01 0.  1.
</event>
<event>
 5   0  0.1674806E-06  0.2984251E+04  0.7818609E-02  0.8248242E-01
       -2   -1    0    0    0  501  0.00000000000E+00  0.00000000000E+00  0.13330494679E+04  0.13330494679E+04  0.25500000920E-02 0. -1.
        2   -1    0    0  501    0  0.00000000000E+00  0.00000000000E+00 -0.16701845204E+04  0.16701845204E+04  0.25500000920E-02 0.  1.
    10030    2    1    2    0    0  0.00000000000E+00  0.00000000000E+00 -0.33713505252E+03  0.30032339883E+04  0.29842510526E+04 0.  0.
        2    1    3    3  502    0 -0.34451477709E+03  0.48640741129E+03 -0.15451708415E+04  0.16561508176E+04  0.25500000920E-02 0.  1.
       -2    1    3    3    0  502  0.34451477709E+03 -0.48640741129E+03  0.12080357889E+04  0.13470831707E+04  0.25500000920E-02 0. -1.
</event>
<event>
 5   0  0.1674806E-06  0.3016926E+04  0.7818609E-02  0.8238914E-01
        2   -1    0    0  501    0  0.00000000000E+00  0.00000000000E+00  0.12220567003E+04  0.12220567003E+04  0.25500000920E-02 0. -1.
       -2   -1    0    0    0  501  0.00000000000E+00  0.00000000000E+00 -0.18619929954E+04  0.18619929954E+04  0.25500000920E-02 0.  1.
    10030    2    1    2    0    0  0.00000000000E+00  0.00000000000E+00 -0.63993629515E+03  0.30840496957E+04  0.30169262609E+04 0.  0.
        2    1    3    3  502    0 -0.37598612552E+03 -0.38127118820E+02 -0.18128162758E+04  0.18517888902E+04  0.25500000920E-02 0.  1.
       -2    1    3    3    0  502  0.37598612552E+03  0.38127118820E+02  0.11728799807E+04  0.12322608055E+04  0.25500000920E-02 0. -1.
</event>
<event>
 5   0  0.6291798E-07  0.3018226E+04  0.7818609E-02  0.8238545E-01
       -1   -1    0    0    0  501  0.00000000000E+00  0.00000000000E+00  0.13364238006E+04  0.13364238006E+04  0.50400001928E-02 0. -1.
        1   -1    0    0  501    0  0.00000000000E+00  0.00000000000E+00 -0.17041171739E+04  0.17041171739E+04  0.50400001928E-02 0.  1.
    10030    2    1    2    0    0  0.00000000000E+00  0.00000000000E+00 -0.36769337330E+03  0.30405409744E+04  0.30182264661E+04 0.  0.
        1    1    3    3  502    0 -0.11015195960E+04  0.84206401887E+02  0.85185284662E+03  0.13950230861E+04  0.50400001928E-02 0. -1.
       -1    1    3    3    0  502  0.11015195960E+04 -0.84206401887E+02 -0.12195462199E+04  0.16455178884E+04  0.50400001928E-02 0.  1.
</event>
<event>
 5   0  0.1560174E-06  0.3043295E+04  0.7818609E-02  0.8231475E-01
        2   -1    0    0  501    0  0.00000000000E+00  0.00000000000E+00  0.29670541941E+04  0.29670541941E+04  0.25500000920E-02 0.  1.
       -2   -1    0    0    0  501  0.00000000000E+00  0.00000000000E+00 -0.78037380049E+03  0.78037380049E+03  0.25500000920E-02 0. -1.
    10030    2    1    2    0    0  0.00000000000E+00  0.00000000000E+00  0.21866803936E+04  0.37474279946E+04  0.30432951600E+04 0.  0.
        5    1    3    3  502    0 -0.74931433170E+03 -0.81776891997E+03  0.23760794057E+04  0.26222115487E+04  0.46999998093E+01 0.  1.
       -5    1    3    3    0  502  0.74931433170E+03  0.81776891997E+03 -0.18939901212E+03  0.11252164458E+04  0.46999998093E+01 0. -1.
</event>
<event>
 5   0  0.5887179E-07  0.3000670E+04  0.7818609E-02  0.8243539E-01
       -1   -1    0    0    0  501  0.00000000000E+00  0.00000000000E+00  0.90307853000E+03  0.90307853002E+03  0.50400001928E-02 0. -1.
        1   -1    0    0  501    0  0.00000000000E+00  0.00000000000E+00 -0.24925914306E+04  0.24925914306E+04  0.50400001928E-02 0.  1.
    10030    2    1    2    0    0  0.00000000000E+00  0.00000000000E+00 -0.15895129006E+04  0.33956699606E+04  0.30006704618E+04 0.  0.
        3    1    3    3  502    0 -0.14984858023E+04  0.44612252891E+02 -0.86223696584E+03  0.17294226055E+04  0.10100000352E+00 0. -1.
       -3    1    3    3    0  502  0.14984858023E+04 -0.44612252891E+02 -0.72727593475E+03  0.16662473551E+04  0.10100000352E+00 0.  1.
</event>
<event>
 5   0  0.1625212E-06  0.3015485E+04  0.7818609E-02  0.8239323E-01
       -2   -1    0    0    0  501  0.00000000000E+00  0.00000000000E+00  0.12471892278E+04  0.12471892278E+04  0.25500000920E-02 0.  1.
        2   -1    0    0  501    0  0.00000000000E+00  0.00000000000E+00 -0.18227288306E+04  0.18227288306E+04  0.25500000920E-02 0. -1.
    10030    2    1    2    0    0  0.00000000000E+00  0.00000000000E+00 -0.57553960275E+03  0.30699180584E+04  0.30154852098E+04 0.  0.
        4    1    3    3  502    0  0.73370862012E+03  0.72750613500E+03 -0.14056310071E+04  0.17445325038E+04  0.12699999809E+01 0. -1.
       -4    1    3    3    0  502 -0.73370862012E+03 -0.72750613500E+03  0.83009140439E+03  0.13253855546E+04  0.12699999809E+01 0.  1.
</event>
<event>
 5   0  0.1560174E-06  0.3007876E+04  0.7818609E-02  0.8241485E-01
        2   -1    0    0  501    0  0.00000000000E+00  0.00000000000E+00  0.80529866822E+03  0.80529866822E+03  0.25500000920E-02 0. -1.
       -2   -1    0    0    0  501  0.00000000000E+00  0.00000000000E+00 -0.28086840930E+04  0.28086840930E+04  0.25500000920E-02 0.  1.
    10030    2    1    2    0    0  0.00000000000E+00  0.00000000000E+00 -0.20033854248E+04  0.36139827613E+04  0.30078760344E+04 0.  0.
        5    1    3    3  502    0 -0.91799942583E+03 -0.10382630937E+04 -0.29997351746E+03  0.14179983775E+04  0.46999998093E+01 0. -1.
       -5    1    3    3    0  502  0.91799942583E+03  0.10382630937E+04 -0.17034119073E+04  0.21959843837E+04  0.46999998093E+01 0.  1.
</event>
<event>
 5   0  0.6291798E-07  0.2995712E+04  0.7818609E-02  0.8244956E-01
        1   -1    0    0  501    0  0.00000000000E+00  0.00000000000E+00  0.89480207911E+03  0.89480207913E+03  0.50400001928E-02 0.  1.
       -1   -1    0    0    0  501  0.00000000000E+00  0.00000000000E+00 -0.25073398865E+04  0.25073398865E+04  0.50400001928E-02 0. -1.
    10030    2    1    2    0    0  0.00000000000E+00  0.00000000000E+00 -0.16125378074E+04  0.34021419656E+04  0.29957122315E+04 0.  0.
        1    1    3    3  502    0  0.95096322924E+03 -0.12723403105E+03 -0.21125631770E+04  0.23202247173E+04  0.50400001928E-02 0. -1.
       -1    1    3    3    0  502 -0.95096322924E+03  0.12723403105E+03  0.50002536958E+03  0.10819172483E+04  0.50400001928E-02 0.  1.
</event>
<event>
 5   0  0.6291798E-07  0.3005219E+04  0.7818609E-02  0.8242242E-01
        1   -1    0    0  501    0  0.00000000000E+00  0.00000000000E+00  0.11526211170E+04  0.11526211170E+04  0.50400001928E-02 0.  1.
       -1   -1    0    0    0  501  0.00000000000E+00  0.00000000000E+00 -0.19588698095E+04  0.19588698095E+04  0.50400001928E-02 0. -1.
    10030    2    1    2    0    0  0.00000000000E+00  0.00000000000E+00 -0.80624869250E+03  0.31114909265E+04  0.30052185996E+04 0.  0.
        1    1    3    3  502    0  0.47834050625E+03 -0.12950870830E+04  0.21095523577E+03  0.13966253270E+04  0.50400001928E-02 0.  1.
       -1    1    3    3    0  502 -0.47834050625E+03  0.12950870830E+04 -0.10172039283E+04  0.17148655995E+04  0.50400001928E-02 0. -1.
</event>
<event>
 5   0  0.5887179E-07  0.2991417E+04  0.7818609E-02  0.8246186E-01
        1   -1    0    0  501    0  0.00000000000E+00  0.00000000000E+00  0.16146429907E+04  0.16146429907E+04  0.50400001928E-02 0.  1.
       -1   -1    0    0    0  501  0.00000000000E+00  0.00000000000E+00 -0.13855351664E+04  0.13855351664E+04  0.50400001928E-02 0. -1.
    10030    2    1    2    0    0  0.00000000000E+00  0.00000000000E+00  0.22910782429E+03  0.30001781571E+04  0.29914174867E+04 0.  0.
        3    1    3    3  502    0  0.29766587838E+02 -0.14595308378E+04 -0.21201959737E+03  0.14751503775E+04  0.10100000352E+00 0.  1.
       -3    1    3    3    0  502 -0.29766587838E+02  0.14595308378E+04  0.44112742166E+03  0.15250277797E+04  0.10100000352E+00 0. -1.
</event>
<event>
 5   0  0.1625212E-06  0.2980440E+04  0.7818609E-02  0.8249339E-01
       -2   -1    0    0    0  501  0.00000000000E+00  0.00000000000E+00  0.17173037944E+04  0.17173037944E+04  0.25500000920E-02 0. -1.
        2   -1    0    0  501    0  0.00000000000E+00  0.00000000000E+00 -0.12931638184E+04  0.12931638184E+04  0.25500000920E-02 0.  1.
    10030    2    1    2    0    0  0.00000000000E+00  0.00000000000E+00  0.42413997603E+03  0.30104676128E+04  0.29804396535E+04 0.  0.
        4    1    3    3  502    0 -0.84869483382E+03  0.75966133503E+03 -0.75854075505E+03  0.13684860083E+04  0.12699999809E+01 0.  1.
       -4    1    3    3    0  502  0.84869483382E+03 -0.75966133503E+03  0.11826807311E+04  0.16419816045E+04  0.12699999809E+01 0. -1.
</event>
<event>
 5   0  0.1723916E-06  0.3025524E+04  0.7818609E-02  0.8236480E-01
        2   -1    0    0  501    0  0.00000000000E+00  0.00000000000E+00  0.16329667067E+04  0.16329667067E+04  0.25500000920E-02 0. -1.
       -2   -1    0    0    0  501  0.00000000000E+00  0.00000000000E+00 -0.14014052834E+04  0.14014052834E+04  0.25500000920E-02 0.  1.
    10030    2    1    2    0    0  0.00000000000E+00  0.00000000000E+00  0.23156142329E+03  0.30343719902E+04  0.30255235385E+04 0.  0.
        1    1    3    3  502    0  0.12026830825E+04 -0.86175936755E+03 -0.20037504922E+03  0.14930592637E+04  0.50400001928E-02 0. -1.
       -1    1    3    3    0  502 -0.12026830825E+04  0.86175936755E+03  0.43193647251E+03  0.15413127265E+04  0.50400001928E-02 0.  1.
</event>
<event>
 5   0  0.5431625E-07  0.3001056E+04  0.7818609E-02  0.8243429E-01
        4   -1    0    0  501    0  0.00000000000E+00  0.00000000000E+00  0.26281251029E+04  0.26281254098E+04  0.12699999809E+01 0. -1.
       -4   -1    0    0    0  501  0.00000000000E+00  0.00000000000E+00 -0.85672552220E+03  0.85672646352E+03  0.12699999809E+01 0.  1.
    10030    2    1    2    0    0  0.00000000000E+00  0.00000000000E+00  0.17713995807E+04  0.34848518733E+04  0.30010558316E+04 0.  0.
        2    1    3    3  502    0 -0.13757317576E+04 -0.43309542147E+03  0.40498956010E+03  0.14980741159E+04  0.25500000920E-02 0.  1.
       -2    1    3    3    0  502  0.13757317576E+04  0.43309542147E+03  0.13664100206E+04  0.19867777574E+04  0.25500000920E-02 0. -1.
</event>
<event>
 5   0  0.5931588E-07  0.3038389E+04  0.7818609E-02  0.8232853E-01
        1   -1    0    0  501    0  0.00000000000E+00  0.00000000000E+00  0.17325459908E+04  0.17325459908E+04  0.50400001928E-02 0.  1.
       -1   -1    0    0    0  501  0.00000000000E+00  0.00000000000E+00 -0.13321154253E+04  0.13321154253E+04  0.50400001928E-02 0. -1.
    10030    2    1    2    0    0  0.00000000000E+00  0.00000000000E+00  0.40043056549E+03  0.30646614161E+04  0.30383885462E+04 0.  0.
        2    1    3    3  502    0  0.10626976969E+04  0.18778564349E+03 -0.87831154619E+03  0.13914097222E+04  0.25500000920E-02 0. -1.
       -2    1    3    3    0  502 -0.10626976969E+04 -0.18778564349E+03  0.12787421117E+04  0.16732516939E+04  0.25500000920E-02 0.  1.
</event>
<event>
 5   0  0.5916703E-07  0.2999958E+04  0.7818609E-02  0.8243743E-01
       -1   -1    0    0    0  501  0.00000000000E+00  0.00000000000E+00  0.14598377066E+04  0.14598377066E+04  0.50400001928E-02 0.  1.
        1   -1    0    0  501    0  0.00000000000E+00  0.00000000000E+00 -0.15412240430E+04  0.15412240430E+04  0.50400001928E-02 0. -1.
    10030    2    1    2    0    0  0.00000000000E+00  0.00000000000E+00 -0.81386336452E+02  0.30010617496E+04  0.29999579812E+04 0.  0.
        5    1    3    3  502    0 -0.56386565914E+03  0.96658545548E+03  0.95851514034E+03  0.14734331639E+04  0.46999998093E+01 0.  1.
       -5    1    3    3    0  502  0.56386565914E+03 -0.96658545548E+03 -0.10399014768E+04  0.15276285857E+04  0.46999998093E+01 0. -1.
</event>
<event>
 5   0  0.1625212E-06  0.2996892E+04  0.7818609E-02  0.8244619E-01
       -2   -1    0    0    0  501  0.00000000000E+00  0.00000000000E+00  0.23671064906E+04  0.23671064906E+04  0.25500000920E-02 0.  1.
        2   -1    0    0  501    0  0.00000000000E+00  0.00000000000E+00 -0.94855930093E+03  0.94855930094E+03  0.25500000920E-02 0. -1.
    10030    2    1    2    0    0  0.00000000000E+00  0.00000000000E+00  0.14185471897E+04  0.33156657916E+04  0.29968923090E+04 0.  0.
        4    1    3    3  502    0  0.20964105387E+03 -0.33478217450E+03 -0.88992034331E+03  0.97364691042E+03  0.12699999809E+01 0. -1.
       -4    1    3    3    0  502 -0.20964105387E+03  0.33478217450E+03  0.23084675330E+04  0.23420188811E+04  0.12699999809E+01 0.  1.
</event>
<event>
 5   0  0.5887179E-07  0.2886441E+04  0.7818609E-02  0.8276923E-01
       -1   -1    0    0    0  501  0.00000000000E+00  0.00000000000E+00  0.18701958975E+04  0.18701958975E+04  0.50400001928E-02 0.  1.
        1   -1    0    0  501    0  0.00000000000E+00  0.00000000000E+00 -0.11137256996E+04  0.11137256996E+04  0.50400001928E-02 0. -1.
    10030    2    1    2    0    0  0.00000000000E+00  0.00000000000E+00  0.75647019782E+03  0.29839215971E+04  0.28864408772E+04 0.  0.
        3    1    3    3  502    0 -0.84466716617E+02 -0.77422166234E+03  0.16343132815E+04  0.18103960122E+04  0.10100000352E+00 0.  1.
       -3    1    3    3    0  502  0.84466716617E+02  0.77422166234E+03 -0.87784308369E+03  0.11735255849E+04  0.10100000352E+00 0. -1.
</event>
<event>
 5   0  0.1625212E-06  0.3016049E+04  0.7818609E-02  0.8239163E-01
       -2   -1    0    0    0  501  0.00000000000E+00  0.00000000000E+00  0.17954160996E+04  0.17954160996E+04  0.25500000920E-02 0.  1.
        2   -1    0    0  501    0  0.00000000000E+00  0.00000000000E+00 -0.12666351892E+04  0.12666351892E+04  0.25500000920E-02 0. -1.
    10030    2    1    2    0    0  0.00000000000E+00  0.00000000000E+00  0.52878091036E+03  0.30620512888E+04  0.30160485480E+04 0.  0.
        4    1    3    3  502    0 -0.29878930451E+02 -0.75250885208E+03  0.15908301003E+04  0.17600864592E+04  0.12699999809E+01 0.  1.
       -4    1    3    3    0  502  0.29878930451E+02  0.75250885208E+03 -0.10620491899E+04  0.13019648296E+04  0.12699999809E+01 0. -1.
</event>
<event>
 5   0  0.5887179E-07  0.3023735E+04  0.7818609E-02  0.8236986E-01
       -1   -1    0    0    0  501  0.00000000000E+00  0.00000000000E+00  0.13102651079E+04  0.13102651079E+04  0.50400001928E-02 0.  1.
        1   -1    0    0  501    0  0.00000000000E+00  0.00000000000E+00 -0.17444889850E+04  0.17444889850E+04  0.50400001928E-02 0. -1.
    10030    2    1    2    0    0  0.00000000000E+00  0.00000000000E+00 -0.43422387712E+03  0.30547540929E+04  0.30237348086E+04 0.  0.
        3    1    3    3  502    0  0.15939457548E+03  0.42096274861E+03  0.12409984564E+04  0.13201111489E+04  0.10100000352E+00 0.  1.
       -3    1    3    3    0  502 -0.15939457548E+03 -0.42096274861E+03 -0.16752223335E+04  0.17346429440E+04  0.10100000352E+00 0. -1.
</event>
<event>
 5   0  0.5887179E-07  0.3004112E+04  0.7818609E-02  0.8242558E-01
       -1   -1    0    0    0  501  0.00000000000E+00  0.00000000000E+00  0.16846020240E+04  0.16846020240E+04  0.50400001928E-02 0.  1.
        1   -1    0    0  501    0  0.00000000000E+00  0.00000000000E+00 -0.13392905118E+04  0.13392905118E+04  0.50400001928E-02 0. -1.
    10030    2    1    2    0    0  0.00000000000E+00  0.00000000000E+00  0.34531151227E+03  0.30238925358E+04  0.30041115205E+04 0.  0.
        3    1    3    3  502    0  0.54411439694E+03  0.95867779958E+03  0.11996917343E+04  0.16292279975E+04  0.10100000352E+00 0. -1.
       -3    1    3    3    0  502 -0.54411439694E+03 -0.95867779958E+03 -0.85438022203E+03  0.13946645383E+04  0.10100000352E+00 0.  1.
</event>
<event>
 5   0  0.1625212E-06  0.2998451E+04  0.7818609E-02  0.8244173E-01
       -2   -1    0    0    0  501  0.00000000000E+00  0.00000000000E+00  0.13960239056E+04  0.13960239056E+04  0.25500000920E-02 0. -1.
        2   -1    0    0  501    0  0.00000000000E+00  0.00000000000E+00 -0.16100566939E+04  0.16100566939E+04  0.25500000920E-02 0.  1.
    10030    2    1    2    0    0  0.00000000000E+00  0.00000000000E+00 -0.21403278838E+03  0.30060805995E+04  0.29984513563E+04 0.  0.
        4    1    3    3  502    0 -0.10068032574E+02  0.12996413367E+03 -0.16043640163E+04  0.16096513756E+04  0.12699999809E+01 0.  1.
       -4    1    3    3    0  502  0.10068032574E+02 -0.12996413367E+03  0.13903312279E+04  0.13964292239E+04  0.12699999809E+01 0. -1.
</event>
<event>
 5   0  0.1723916E-06  0.2998892E+04  0.7818609E-02  0.8244047E-01
        2   -1    0    0  501    0  0.00000000000E+00  0.00000000000E+00  0.19869701377E+04  0.19869701377E+04  0.25500000920E-02 0.  1.
       -2   -1    0    0    0  501  0.00000000000E+00  0.00000000000E+00 -0.11315412820E+04  0.11315412820E+04  0.25500000920E-02 0. -1.
    10030    2    1    2    0    0  0.00000000000E+00  0.00000000000E+00  0.85542885574E+03  0.31185114196E+04  0.29988922867E+04 0.  0.
        1    1    3    3  502    0  0.21139603570E+02 -0.14460144088E+04  0.15763725565E+02  0.14462548352E+04  0.50400001928E-02 0.  1.
       -1    1    3    3    0  502 -0.21139603570E+02  0.14460144088E+04  0.83966513017E+03  0.16722565844E+04  0.50400001928E-02 0. -1.
</event>
<event>
 5   0  0.1625212E-06  0.3002913E+04  0.7818609E-02  0.8242900E-01
       -2   -1    0    0    0  501  0.00000000000E+00  0.00000000000E+00  0.97471272842E+03  0.97471272843E+03  0.25500000920E-02 0. -1.
        2   -1    0    0  501    0  0.00000000000E+00  0.00000000000E+00 -0.23128576501E+04  0.23128576501E+04  0.25500000920E-02 0.  1.
    10030    2    1    2    0    0  0.00000000000E+00  0.00000000000E+00 -0.13381449217E+04  0.32875703785E+04  0.30029131127E+04 0.  0.
        4    1    3    3  502    0 -0.13535489453E+04 -0.12204606024E+03 -0.13678392333E+04  0.19282053234E+04  0.12699999809E+01 0.  1.
       -4    1    3    3    0  502  0.13535489453E+04  0.12204606024E+03  0.29694311636E+02  0.13593650551E+04  0.12699999809E+01 0. -1.
</event>
<event>
 5   0  0.1625212E-06  0.2876672E+04  0.7818609E-02  0.8279852E-01
       -2   -1    0    0    0  501  0.00000000000E+00  0.00000000000E+00  0.13570555523E+04  0.13570555523E+04  0.25500000920E-02 0.  1.
        2   -1    0    0  501    0  0.00000000000E+00  0.00000000000E+00 -0.15244843180E+04  0.15244843180E+04  0.25500000920E-02 0. -1.
    10030    2    1    2    0    0  0.00000000000E+00  0.00000000000E+00 -0.16742876578E+03  0.28815398703E+04  0.28766716240E+04 0.  0.
        4    1    3    3  502    0 -0.81904570077E+02 -0.33445505988E+03  0.13151588032E+04  0.13594899177E+04  0.12699999809E+01 0.  1.
       -4    1    3    3    0  502  0.81904570077E+02  0.33445505988E+03 -0.14825875690E+04  0.15220499526E+04  0.12699999809E+01 0. -1.
</event>
<event>
 5   0  0.6291798E-07  0.2993697E+04  0.7818609E-02  0.8245533E-01
       -1   -1    0    0    0  501  0.00000000000E+00  0.00000000000E+00  0.12541830596E+04  0.12541830596E+04  0.50400001928E-02 0.  1.
        1   -1    0    0  501    0  0.00000000000E+00  0.00000000000E+00 -0.17864661981E+04  0.17864661981E+04  0.50400001928E-02 0. -1.
    10030    2    1    2    0    0  0.00000000000E+00  0.00000000000E+00 -0.53228313852E+03  0.30406492577E+04  0.29936971404E+04 0.  0.
        1    1    3    3  502    0 -0.41247640183E+03  0.10061844047E+04 -0.13108707388E+04  0.17032104779E+04  0.50400001928E-02 0. -1.
       -1    1    3    3    0  502  0.41247640183E+03 -0.10061844047E+04  0.77858760025E+03  0.13374387798E+04  0.50400001928E-02 0.  1.
</event>
<event>
 5   0  0.5887179E-07  0.3071035E+04  0.7818609E-02  0.8223732E-01
        1   -1    0    0  501    0  0.00000000000E+00  0.00000000000E+00  0.14105951118E+04  0.14105951118E+04  0.50400001928E-02 0.  1.
       -1   -1    0    0    0  501  0.00000000000E+00  0.00000000000E+00 -0.16715029693E+04  0.16715029693E+04  0.50400001928E-02 0. -1.
    10030    2    1    2    0    0  0.00000000000E+00  0.00000000000E+00 -0.26090785751E+03  0.30820980811E+04  0.30710349512E+04 0.  0.
        3    1    3    3  502    0 -0.84342885686E+03  0.12509911993E+04 -0.41689881282E+03  0.15652973672E+04  0.10100000352E+00 0. -1.
       -3    1    3    3    0  502  0.84342885686E+03 -0.12509911993E+04  0.15599095531E+03  0.15168007139E+04  0.10100000352E+00 0.  1.
</event>
<event>
 5   0  0.1674806E-06  0.2860163E+04  0.7818609E-02  0.8284830E-01
       -2   -1    0    0    0  501  0.00000000000E+00  0.00000000000E+00  0.11813757026E+04  0.11813757026E+04  0.25500000920E-02 0. -1.
        2   -1    0    0  501    0  0.00000000000E+00  0.00000000000E+00 -0.17311448388E+04  0.17311448388E+04  0.25500000920E-02 0.  1.
    10030    2    1    2    0    0  0.00000000000E+00  0.00000000000E+00 -0.54976913615E+03  0.29125205414E+04  0.28601625480E+04 0.  0.
        2    1    3    3  502    0 -0.84220763013E+03  0.11411957202E+03  0.89629808934E+03  0.12351871251E+04  0.25500000920E-02 0. -1.
       -2    1    3    3    0  502  0.84220763013E+03 -0.11411957202E+03 -0.14460672255E+04  0.16773334164E+04  0.25500000920E-02 0.  1.
</event>
<event>
 5   0  0.5931588E-07  0.2991258E+04  0.7818609E-02  0.8246232E-01
        1   -1    0    0  501    0  0.00000000000E+00  0.00000000000E+00  0.14825879280E+04  0.14825879281E+04  0.50400001928E-02 0. -1.
       -1   -1    0    0    0  501  0.00000000000E+00  0.00000000000E+00 -0.15087845187E+04  0.15087845187E+04  0.50400001928E-02 0.  1.
    10030    2    1    2    0    0  0.00000000000E+00  0.00000000000E+00 -0.26196590646E+02  0.29913724468E+04  0.29912577378E+04 0.  0.
        2    1    3    3  502    0 -0.11393846756E+04  0.36971379697E+03 -0.90868832190E+03  0.15035292472E+04  0.25500000920E-02 0.  1.
       -2    1    3    3    0  502  0.11393846756E+04 -0.36971379697E+03  0.88249173126E+03  0.14878431996E+04  0.25500000920E-02 0. -1.
</event>
<event>
 5   0  0.5874741E-07  0.3055427E+04  0.7818609E-02  0.8228078E-01
       -1   -1    0    0    0  501  0.00000000000E+00  0.00000000000E+00  0.18910204031E+04  0.18910204031E+04  0.50400001928E-02 0.  1.
        1   -1    0    0  501    0  0.00000000000E+00  0.00000000000E+00 -0.12342060247E+04  0.12342060247E+04  0.50400001928E-02 0. -1.
    10030    2    1    2    0    0  0.00000000000E+00  0.00000000000E+00  0.65681437846E+03  0.31252264278E+04  0.30554271546E+04 0.  0.
        4    1    3    3  502    0 -0.48289891636E+03 -0.94236062187E+03 -0.79796333001E+03  0.13258891334E+04  0.12699999809E+01 0. -1.
       -4    1    3    3    0  502  0.48289891636E+03  0.94236062187E+03  0.14547777085E+04  0.17993372944E+04  0.12699999809E+01 0.  1.
</event>
<event>
 5   0  0.5874741E-07  0.2996664E+04  0.7818609E-02  0.8244684E-01
        1   -1    0    0  501    0  0.00000000000E+00  0.00000000000E+00  0.24394411725E+04  0.24394411725E+04  0.50400001928E-02 0. -1.
       -1   -1    0    0    0  501  0.00000000000E+00  0.00000000000E+00 -0.92029216902E+03  0.92029216903E+03  0.50400001928E-02 0.  1.
    10030    2    1    2    0    0  0.00000000000E+00  0.00000000000E+00  0.15191490035E+04  0.33597333415E+04  0.29966638836E+04 0.  0.
        4    1    3    3  502    0 -0.93228835700E+03 -0.11510301463E+04  0.50646825647E+03  0.15654212487E+04  0.12699999809E+01 0.  1.
       -4    1    3    3    0  502  0.93228835700E+03  0.11510301463E+04  0.10126807470E+04  0.17943120928E+04  0.12699999809E+01 0. -1.
</event>
<event>
 5   0  0.1674806E-06  0.2991926E+04  0.7818609E-02  0.8246040E-01
        2   -1    0    0  501    0  0.00000000000E+00  0.00000000000E+00  0.24237840407E+04  0.24237840407E+04  0.25500000920E-02 0.  1.
       -2   -1    0    0    0  501  0.00000000000E+00  0.00000000000E+00 -0.92331028013E+03  0.92331028013E+03  0.25500000920E-02 0. -1.
    10030    2    1    2    0    0  0.00000000000E+00  0.00000000000E+00  0.15004737606E+04  0.33470943208E+04  0.29919256151E+04 0.  0.
        2    1    3    3  502    0 -0.31505959508E+03  0.51825993399E+03 -0.77959473062E+03  0.98773673196E+03  0.25500000920E-02 0. -1.
       -2    1    3    3    0  502  0.31505959508E+03 -0.51825993399E+03  0.22800684912E+04  0.23593575889E+04  0.25500000920E-02 0.  1.
</event>
<event>
 5   0  0.6291798E-07  0.2955551E+04  0.7818609E-02  0.8256539E-01
        1   -1    0    0  501    0  0.00000000000E+00  0.00000000000E+00  0.14018864992E+04  0.14018864992E+04  0.50400001928E-02 0. -1.
       -1   -1    0    0    0  501  0.00000000000E+00  0.00000000000E+00 -0.15577726692E+04  0.15577726692E+04  0.50400001928E-02 0.  1.
    10030    2    1    2    0    0  0.00000000000E+00  0.00000000000E+00 -0.15588617003E+03  0.29596591684E+04  0.29555510307E+04 0.  0.
        1    1    3    3  502    0  0.79112813296E+03 -0.54017368309E+03 -0.12047400574E+04  0.15391783316E+04  0.50400001928E-02 0.  1.
       -1    1    3    3    0  502 -0.79112813296E+03  0.54017368309E+03  0.10488538873E+04  0.14204808368E+04  0.50400001928E-02 0. -1.
</event>
<event>
 5   0  0.1674806E-06  0.2999676E+04  0.7818609E-02  0.8243823E-01
       -2   -1    0    0    0  501  0.00000000000E+00  0.00000000000E+00  0.83339752612E+03  0.83339752613E+03  0.25500000920E-02 0.  1.
        2   -1    0    0  501    0  0.00000000000E+00  0.00000000000E+00 -0.26992086536E+04  0.26992086536E+04  0.25500000920E-02 0. -1.
    10030    2    1    2    0    0  0.00000000000E+00  0.00000000000E+00 -0.18658111275E+04  0.35326061798E+04  0.29996758588E+04 0.  0.
        2    1    3    3  502    0  0.15304287190E+03 -0.12948126580E+04 -0.18059276746E+04  0.22274058243E+04  0.25500000920E-02 0. -1.
       -2    1    3    3    0  502 -0.15304287190E+03  0.12948126580E+04 -0.59883452918E+02  0.13052003555E+04  0.25500000920E-02 0.  1.
</event>
<event>
 5   0  0.1674806E-06  0.3041485E+04  0.7818609E-02  0.8231983E-01
        2   -1    0    0  501    0  0.00000000000E+00  0.00000000000E+00  0.22254868942E+04  0.22254868942E+04  0.25500000920E-02 0.  1.
       -2   -1    0    0    0  501  0.00000000000E+00  0.00000000000E+00 -0.10391694390E+04  0.10391694390E+04  0.25500000920E-02 0. -1.
    10030    2    1    2    0    0  0.00000000000E+00  0.00000000000E+00  0.11863174552E+04  0.32646563332E+04  0.30414851420E+04 0.  0.
        2    1    3    3  502    0  0.93033914033E+03  0.97050144618E+03  0.13561272993E+04  0.19095772372E+04  0.25500000920E-02 0.  1.
       -2    1    3    3    0  502 -0.93033914033E+03 -0.97050144618E+03 -0.16980984411E+03  0.13550790959E+04  0.25500000920E-02 0. -1.
</event>
<event>
 5   0  0.1674806E-06  0.2927342E+04  0.7818609E-02  0.8264789E-01
       -2   -1    0    0    0  501  0.00000000000E+00  0.00000000000E+00  0.13218610532E+04  0.13218610532E+04  0.25500000920E-02 0. -1.
        2   -1    0    0  501    0  0.00000000000E+00  0.00000000000E+00 -0.16206943564E+04  0.16206943564E+04  0.25500000920E-02 0.  1.
    10030    2    1    2    0    0  0.00000000000E+00  0.00000000000E+00 -0.29883330326E+03  0.29425554096E+04  0.29273419676E+04 0.  0.
        2    1    3    3  502    0 -0.76672884406E+03  0.84626458395E+03 -0.10697599558E+04  0.15647438223E+04  0.25500000920E-02 0.  1.
       -2    1    3    3    0  502  0.76672884406E+03 -0.84626458395E+03  0.77092665257E+03  0.13778115873E+04  0.25500000920E-02 0. -1.
</event>
<event>
 5   0  0.1723916E-06  0.3002752E+04  0.7818609E-02  0.8242946E-01
        2   -1    0    0  501    0  0.00000000000E+00  0.00000000000E+00  0.23568692791E+04  0.23568692791E+04  0.25500000920E-02 0.  1.
       -2   -1    0    0    0  501  0.00000000000E+00  0.00000000000E+00 -0.95640831551E+03  0.95640831551E+03  0.25500000920E-02 0. -1.
    10030    2    1    2    0    0  0.00000000000E+00  0.00000000000E+00  0.14004609636E+04  0.33132775946E+04  0.30027516561E+04 0.  0.
        1    1    3    3  502    0 -0.12932480681E+03 -0.13805097957E+04  0.64835442560E+02  0.13880691036E+04  0.50400001928E-02 0. -1.
       -1    1    3    3    0  502  0.12932480681E+03  0.13805097957E+04  0.13356255210E+04  0.19252084911E+04  0.50400001928E-02 0.  1.
</event>
<event>
 5   0  0.5931588E-07  0.2997837E+04  0.7818609E-02  0.8244349E-01
        1   -1    0    0  501    0  0.00000000000E+00  0.00000000000E+00  0.14680747239E+04  0.14680747239E+04  0.50400001928E-02 0. -1.
       -1   -1    0    0    0  501  0.00000000000E+00  0.00000000000E+00 -0.15304099413E+04  0.15304099413E+04  0.50400001928E-02 0.  1.
    10030    2    1    2    0    0  0.00000000000E+00  0.00000000000E+00 -0.62335217394E+02  0.29984846652E+04  0.29978366547E+04 0.  0.
        2    1    3    3  502    0 -0.38411287699E+03  0.13817685961E+04 -0.46707025303E+03  0.15083042719E+04  0.25500000920E-02 0.  1.
       -2    1    3    3    0  502  0.38411287699E+03 -0.13817685961E+04  0.40473503563E+03  0.14901803933E+04  0.25500000920E-02 0. -1.
</event>
<event>
 5   0  0.1625212E-06  0.3000170E+04  0.7818609E-02  0.8243682E-01
       -2   -1    0    0    0  501  0.00000000000E+00  0.00000000000E+00  0.94199185432E+03  0.94199185432E+03  0.25500000920E-02 0.  1.
        2   -1    0    0  501    0  0.00000000000E+00  0.00000000000E+00 -0.23888256480E+04  0.23888256480E+04  0.25500000920E-02 0. -1.
    10030    2    1    2    0    0  0.00000000000E+00  0.00000000000E+00 -0.14468337937E+04  0.33308175023E+04  0.30001695298E+04 0.  0.
        4    1    3    3  502    0 -0.71730779129E+02 -0.12055325908E+04  0.26448176013E+03  0.12362873236E+04  0.12699999809E+01 0.  1.
       -4    1    3    3    0  502  0.71730779129E+02  0.12055325908E+04 -0.17113155538E+04  0.20945301788E+04  0.12699999809E+01 0. -1.
</event>
<event>
 5   0  0.1560174E-06  0.2948471E+04  0.7818609E-02  0.8258600E-01
        2   -1    0    0  501    0  0.00000000000E+00  0.00000000000E+00  0.19987077542E+04  0.19987077542E+04  0.25500000920E-02 0.  1.
       -2   -1    0    0    0  501  0.00000000000E+00  0.00000000000E+00 -0.10873874941E+04  0.10873874941E+04  0.25500000920E-02 0. -1.
    10030    2    1    2    0    0  0.00000000000E+00  0.00000000000E+00  0.91132026012E+03  0.30860952482E+04  0.29484706654E+04 0.  0.
        5    1    3    3  502    0  0.79547505935E+03  0.15877955516E+03 -0.83279672647E+03  0.11625678452E+04  0.46999998093E+01 0. -1.
       -5    1    3    3    0  502 -0.79547505935E+03 -0.15877955516E+03  0.17441169866E+04  0.19235274030E+04  0.46999998093E+01 0.  1.
</event>
<event>
 5   0  0.5887179E-07  0.3035125E+04  0.7818609E-02  0.8233771E-01
        1   -1    0    0  501    0  0.00000000000E+00  0.00000000000E+00  0.14555772119E+04  0.14555772119E+04  0.50400001928E-02 0. -1.
       -1   -1    0    0    0  501  0.00000000000E+00  0.00000000000E+00 -0.15821877859E+04  0.15821877859E+04  0.50400001928E-02 0.  1.
    10030    2    1    2    0    0  0.00000000000E+00  0.00000000000E+00 -0.12661057401E+03  0.30377649978E+04  0.30351253589E+04 0.  0.
        3    1    3    3  502    0 -0.75915977975E+03  0.10179728237E+04 -0.89493359448E+03  0.15535438165E+04  0.10100000352E+00 0.  1.
       -3    1    3    3    0  502  0.75915977975E+03 -0.10179728237E+04  0.76832302047E+03  0.14842211813E+04  0.10100000352E+00 0. -1.
</event>
<event>
 5   0  0.1560174E-06  0.3012133E+04  0.7818609E-02  0.8240275E-01
        2   -1    0    0  501    0  0.00000000000E+00  0.00000000000E+00  0.21871288556E+04  0.21871288556E+04  0.25500000920E-02 0. -1.
       -2   -1    0    0    0  501  0.00000000000E+00  0.00000000000E+00 -0.10370841681E+04  0.10370841681E+04  0.25500000920E-02 0.  1.
    10030    2    1    2    0    0  0.00000000000E+00  0.00000000000E+00  0.11500446875E+04  0.32242130237E+04  0.30121332704E+04 0.  0.
        5    1    3    3  502    0  0.13747831052E+04  0.34877363979E+03  0.11171850167E+04  0.18054905399E+04  0.46999998093E+01 0. -1.
       -5    1    3    3    0  502 -0.13747831052E+04 -0.34877363979E+03  0.32859670726E+02  0.14187224838E+04  0.46999998093E+01 0.  1.
</event>
<event>
 5   0  0.5916703E-07  0.3002775E+04  0.7818609E-02  0.8242939E-01
       -1   -1    0    0    0  501  0.00000000000E+00  0.00000000000E+00  0.12893026827E+04  0.12893026827E+04  0.50400001928E-02 0. -1.
        1   -1    0    0  501    0  0.00000000000E+00  0.00000000000E+00 -0.17483598191E+04  0.17483598191E+04  0.50400001928E-02 0.  1.
    10030    2    1    2    0    0  0.00000000000E+00  0.00000000000E+00 -0.45905713642E+03  0.30376625018E+04  0.30027753863E+04 0.  0.
        5    1    3    3  502    0  0.70380142376E+03 -0.10128067695E+03  0.11081616107E+04  0.13166770542E+04  0.46999998093E+01 0. -1.
       -5    1    3    3    0  502 -0.70380142376E+03  0.10128067695E+03 -0.15672187471E+04  0.17209854476E+04  0.46999998093E+01 0.  1.
</event>
<event>
 5   0  0.1560174E-06  0.3068335E+04  0.7818609E-02  0.8224482E-01
       -2   -1    0    0    0  501  0.00000000000E+00  0.00000000000E+00  0.11557077720E+04  0.11557077720E+04  0.25500000920E-02 0.  1.
        2   -1    0    0  501    0  0.00000000000E+00  0.00000000000E+00 -0.20365620260E+04  0.20365620260E+04  0.25500000920E-02 0. -1.
    10030    2    1    2    0    0  0.00000000000E+00  0.00000000000E+00 -0.88085425395E+03  0.31922697980E+04  0.30683354195E+04 0.  0.
        5    1    3    3  502    0  0.13685772073E+04  0.26776316307E+03 -0.11057472933E+04  0.17797190369E+04  0.46999998093E+01 0. -1.
       -5    1    3    3    0  502 -0.13685772073E+04 -0.26776316307E+03  0.22489303931E+03  0.14125507612E+04  0.46999998093E+01 0.  1.
</event>
<event>
 5   0  0.1674806E-06  0.3001998E+04  0.7818609E-02  0.8243161E-01
        2   -1    0    0  501    0  0.00000000000E+00  0.00000000000E+00  0.24810225930E+04  0.24810225930E+04  0.25500000920E-02 0. -1.
       -2   -1    0    0    0  501  0.00000000000E+00  0.00000000000E+00 -0.90809225834E+03  0.90809225834E+03  0.25500000920E-02 0.  1.
    10030    2    1    2    0    0  0.00000000000E+00  0.00000000000E+00  0.15729303347E+04  0.33891148514E+04  0.30019976079E+04 0.  0.
        2    1    3    3  502    0 -0.30155420695E+03 -0.50673086375E+03 -0.77185276107E+03  0.97132270270E+03  0.25500000920E-02 0.  1.
       -2    1    3    3    0  502  0.30155420695E+03  0.50673086375E+03  0.23447830958E+04  0.24177921487E+04  0.25500000920E-02 0. -1.
</event>
<event>
 5   0  0.6291798E-07  0.3003173E+04  0.7818609E-02  0.8242825E-01
        1   -1    0    0  501    0  0.00000000000E+00  0.00000000000E+00  0.25383796853E+04  0.25383796853E+04  0.50400001928E-02 0.  1.
       -1   -1    0    0    0  501  0.00000000000E+00  0.00000000000E+00 -0.88826832283E+03  0.88826832284E+03  0.50400001928E-02 0. -1.
    10030    2    1    2    0    0  0.00000000000E+00  0.00000000000E+00  0.16501113624E+04  0.34266480081E+04  0.30031731657E+04 0.  0.
        1    1    3    3  502    0  0.13567516435E+04 -0.58908919487E+03  0.11203129634E+04  0.18555059250E+04  0.50400001928E-02 0. -1.
       -1    1    3    3    0  502 -0.13567516435E+04  0.58908919487E+03  0.52979839902E+03  0.15711420831E+04  0.50400001928E-02 0.  1.
</event>
<event>
 5   0  0.5887179E-07  0.3012876E+04  0.7818609E-02  0.8240064E-01
        1   -1    0    0  501    0  0.00000000000E+00  0.00000000000E+00  0.21318278501E+04  0.21318278501E+04  0.50400001928E-02 0. -1.
       -1   -1    0    0    0  501  0.00000000000E+00  0.00000000000E+00 -0.10645112900E+04  0.10645112900E+04  0.50400001928E-02 0.  1.
    10030    2    1    2    0    0  0.00000000000E+00  0.00000000000E+00  0.10673165601E+04  0.31963391401E+04  0.30128755797E+04 0.  0.
        3    1    3    3  502    0  0.10331670325E+04 -0.92358028691E+03  0.11603221773E+04  0.18074241972E+04  0.10100000352E+00 0. -1.
       -3    1    3    3    0  502 -0.10331670325E+04  0.92358028691E+03 -0.93005617173E+02  0.13889149429E+04  0.10100000352E+00 0.  1.
</event>
<event>
 5   0  0.1625212E-06  0.3006390E+04  0.7818609E-02  0.8241909E-01
       -2   -1    0    0    0  501  0.00000000000E+00  0.00000000000E+00  0.97083590171E+03  0.97083590171E+03  0.25500000920E-02 0. -1.
        2   -1    0    0  501    0  0.00000000000E+00  0.00000000000E+00 -0.23274735204E+04  0.23274735204E+04  0.25500000920E-02 0.  1.
    10030    2    1    2    0    0  0.00000000000E+00  0.00000000000E+00 -0.13566376186E+04  0.32983094221E+04  0.30063897644E+04 0.  0.
        4    1    3    3  502    0  0.10387241046E+04  0.81974278502E+03  0.10414272382E+03  0.13273180926E+04  0.12699999809E+01 0. -1.
       -4    1    3    3    0  502 -0.10387241046E+04 -0.81974278502E+03 -0.14607803425E+04  0.19709913295E+04  0.12699999809E+01 0.  1.
</event>
<event>
 5   0  0.1625212E-06  0.2980140E+04  0.7818609E-02  0.8249425E-01
        2   -1    0    0  501    0  0.00000000000E+00  0.00000000000E+00  0.12890810915E+04  0.12890810915E+04  0.25500000920E-02 0.  1.
       -2   -1    0    0    0  501  0.00000000000E+00  0.00000000000E+00 -0.17223959104E+04  0.17223959104E+04  0.25500000920E-02 0. -1.
    10030    2    1    2    0    0  0.00000000000E+00  0.00000000000E+00 -0.43331481893E+03  0.30114770018E+04  0.29801395941E+04 0.  0.
        4    1    3    3  502    0  0.84691861900E+03 -0.12056613802E+04 -0.44129177314E+03  0.15380606467E+04  0.12699999809E+01 0.  1.
       -4    1    3    3    0  502 -0.84691861900E+03  0.12056613802E+04  0.79769542133E+01  0.14734163552E+04  0.12699999809E+01 0. -1.
</event>
<event>
 5   0  0.1723916E-06  0.3009056E+04  0.7818609E-02  0.8241150E-01
       -2   -1    0    0    0  501  0.00000000000E+00  0.00000000000E+00  0.75795495502E+03  0.75795495502E+03  0.25500000920E-02 0.  1.
        2   -1    0    0  501    0  0.00000000000E+00  0.00000000000E+00 -0.29864629030E+04  0.29864629030E+04  0.25500000920E-02 0. -1.
    10030    2    1    2    0    0  0.00000000000E+00  0.00000000000E+00 -0.22285079480E+04  0.37444178580E+04  0.30090559020E+04 0.  0.
        1    1    3    3  502    0  0.33629931003E+03 -0.62232983749E+03  0.53811261424E+03  0.88879516098E+03  0.50400001928E-02 0.  1.
       -1    1    3    3    0  502 -0.33629931003E+03  0.62232983749E+03 -0.27666205622E+04  0.28556226970E+04  0.50400001928E-02 0. -1.
</event>
<event>
 5   0  0.1560174E-06  0.2973086E+04  0.7818609E-02  0.8251458E-01
       -2   -1    0    0    0  501  0.00000000000E+00  0.00000000000E+00  0.99317567562E+03  0.99317567562E+03  0.25500000920E-02 0. -1.
        2   -1    0    0  501    0  0.00000000000E+00  0.00000000000E+00 -0.22249934812E+04  0.22249934812E+04  0.25500000920E-02 0.  1.
    10030    2    1    2    0    0  0.00000000000E+00  0.00000000000E+00 -0.12318178055E+04  0.32181691568E+04  0.29730855379E+04 0.  0.
        5    1    3    3  502    0 -0.72581561146E+03  0.95718121007E+03 -0.15637548168E+04  0.19718913225E+04  0.46999998093E+01 0.  1.
       -5    1    3    3    0  502  0.72581561146E+03 -0.95718121007E+03  0.33193701126E+03  0.12462778343E+04  0.46999998093E+01 0. -1.
</event>
<event>
 5   0  0.5887179E-07  0.2992511E+04  0.7818609E-02  0.8245873E-01
        1   -1    0    0  501    0  0.00000000000E+00  0.00000000000E+00  0.12197152635E+04  0.12197152635E+04  0.50400001928E-02 0. -1.
       -1   -1    0    0    0  501  0.00000000000E+00  0.00000000000E+00 -0.18354946988E+04  0.18354946988E+04  0.50400001928E-02 0.  1.
    10030    2    1    2    0    0  0.00000000000E+00  0.00000000000E+00 -0.61577943530E+03  0.30552099623E+04  0.29925112532E+04 0.  0.
        3    1    3    3  502    0 -0.10064348599E+04 -0.60169833172E+03 -0.12567868389E+04  0.17188557759E+04  0.10100000352E+00 0. -1.
       -3    1    3    3    0  502  0.10064348599E+04  0.60169833172E+03  0.64100740364E+03  0.13363541864E+04  0.10100000352E+00 0.  1.
</event>
<event>
 5   0  0.6291798E-07  0.2996782E+04  0.7818609E-02  0.8244650E-01
        1   -1    0    0  501    0  0.00000000000E+00  0.00000000000E+00  0.14349106191E+04  0.14349106191E+04  0.50400001928E-02 0.  1.
       -1   -1    0    0    0  501  0.00000000000E+00  0.00000000000E+00 -0.15646799945E+04  0.15646799945E+04  0.50400001928E-02 0. -1.
    10030    2    1    2    0    0  0.00000000000E+00  0.00000000000E+00 -0.12976937545E+03  0.29995906136E+04  0.29967822341E+04 0.  0.
        1    1    3    3  502    0 -0.42776007471E+03  0.11029586925E+03  0.13682504000E+04  0.14377944976E+04  0.50400001928E-02 0.  1.
       -1    1    3    3    0  502  0.42776007471E+03 -0.11029586925E+03 -0.14980197754E+04  0.15617961160E+04  0.50400001928E-02 0. -1.
</event>
<event>
 5   0  0.1674806E-06  0.2996404E+04  0.7818609E-02  0.8244758E-01
        2   -1    0    0  501    0  0.00000000000E+00  0.00000000000E+00  0.16730972624E+04  0.16730972624E+04  0.25500000920E-02 0. -1.
       -2   -1    0    0    0  501  0.00000000000E+00  0.00000000000E+00 -0.13415896134E+04  0.13415896134E+04  0.25500000920E-02 0.  1.
    10030    2    1    2    0    0  0.00000000000E+00  0.00000000000E+00  0.33150764904E+03  0.30146868758E+04  0.29964044516E+04 0.  0.
        2    1    3    3  502    0 -0.16964359032E+03 -0.82955094301E+03 -0.10777795119E+04  0.13705992817E+04  0.25500000920E-02 0.  1.
       -2    1    3    3    0  502  0.16964359032E+03  0.82955094301E+03  0.14092871610E+04  0.16440875940E+04  0.25500000920E-02 0. -1.
</event>
<event>
 5   0  0.5916703E-07  0.3019559E+04  0.7818609E-02  0.8238168E-01
       -1   -1    0    0    0  501  0.00000000000E+00  0.00000000000E+00  0.87559489347E+03  0.87559489349E+03  0.50400001928E-02 0. -1.
        1   -1    0    0  501    0  0.00000000000E+00  0.00000000000E+00 -0.26032971997E+04  0.26032971997E+04  0.50400001928E-02 0.  1.
    10030    2    1    2    0    0  0.00000000000E+00  0.00000000000E+00 -0.17277023062E+04  0.34788920932E+04  0.30195587322E+04 0.  0.
        5    1    3    3  502    0  0.47037781506E+03  0.95399740368E+03 -0.20983110649E+04  0.23525088204E+04  0.46999998093E+01 0.  1.
       -5    1    3    3    0  502 -0.47037781506E+03 -0.95399740368E+03  0.37060875867E+03  0.11263832728E+04  0.46999998093E+01 0. -1.
</event>
<event>
 5   0  0.5887179E-07  0.3000151E+04  0.7818609E-02  0.8243688E-01
       -1   -1    0    0    0  501  0.00000000000E+00  0.00000000000E+00  0.10026114243E+04  0.10026114243E+04  0.50400001928E-02 0. -1.
        1   -1    0    0  501    0  0.00000000000E+00  0.00000000000E+00 -0.22443659394E+04  0.22443659394E+04  0.50400001928E-02 0.  1.
    10030    2    1    2    0    0  0.00000000000E+00  0.00000000000E+00 -0.12417545151E+04  0.32469773637E+04  0.30001512836E+04 0.  0.
        3    1    3    3  502    0 -0.74059152323E+03 -0.12695145439E+04 -0.29604452053E+03  0.14992616015E+04  0.10100000352E+00 0.  1.
       -3    1    3    3    0  502  0.74059152323E+03  0.12695145439E+04 -0.94570999453E+03  0.17477157622E+04  0.10100000352E+00 0. -1.
</event>
<event>
 5   0  0.5931588E-07  0.3016934E+04  0.7818609E-02  0.8238912E-01
       -1   -1    0    0    0  501  0.00000000000E+00  0.00000000000E+00  0.96450898658E+03  0.96450898659E+03  0.50400001928E-02 0.  1.
        1   -1    0    0  501    0  0.00000000000E+00  0.00000000000E+00 -0.23592024535E+04  0.23592024535E+04  0.50400001928E-02 0. -1.
    10030    2    1    2    0    0  0.00000000000E+00  0.00000000000E+00 -0.13946934669E+04  0.33237114401E+04  0.30169335210E+04 0.  0.
        2    1    3    3  502    0 -0.10598330249E+04 -0.67037476094E+03  0.22624649818E+03  0.12742981750E+04  0.25500000920E-02 0.  1.
       -2    1    3    3    0  502  0.10598330249E+04  0.67037476094E+03 -0.16209399651E+04  0.20494132651E+04  0.25500000920E-02 0. -1.
</event>
<event>
 5   0  0.1674806E-06  0.3008196E+04  0.7818609E-02  0.8241394E-01
        2   -1    0    0  501    0  0.00000000000E+00  0.00000000000E+00  0.15660828757E+04  0.15660828757E+04  0.25500000920E-02 0. -1.
       -2   -1    0    0    0  501  0.00000000000E+00  0.00000000000E+00 -0.14445667135E+04  0.14445667135E+04  0.25500000920E-02 0.  1.
    10030    2    1    2    0    0  0.00000000000E+00  0.00000000000E+00  0.12151616215E+03  0.30106495892E+04  0.30081962654E+04 0.  0.
        2    1    3    3  502    0 -0.37340448394E+03 -0.13031559404E+04 -0.59143654442E+03  0.14790008451E+04  0.25500000920E-02 0.  1.
       -2    1    3    3    0  502  0.37340448394E+03  0.13031559404E+04  0.71295270656E+03  0.15316487441E+04  0.25500000920E-02 0. -1.
</event>
<event>
 5   0  0.1635086E-06  0.2867351E+04  0.7818609E-02  0.8282658E-01
       -2   -1    0    0    0  501  0.00000000000E+00  0.00000000000E+00  0.16317896486E+04  0.16317896486E+04  0.25500000920E-02 0. -1.
        2   -1    0    0  501    0  0.00000000000E+00  0.00000000000E+00 -0.12596137899E+04  0.12596137899E+04  0.25500000920E-02 0.  1.
    10030    2    1    2    0    0  0.00000000000E+00  0.00000000000E+00  0.37217585876E+03  0.28914034385E+04  0.28673505147E+04 0.  0.
        3    1    3    3  502    0  0.11788490960E+04  0.66301044846E+03 -0.29346066728E+03  0.13839751513E+04  0.10100000352E+00 0.  1.
       -3    1    3    3    0  502 -0.11788490960E+04 -0.66301044846E+03  0.66563652604E+03  0.15074282872E+04  0.10100000352E+00 0. -1.
</event>
<event>
 5   0  0.5916703E-07  0.3039276E+04  0.7818609E-02  0.8232603E-01
       -1   -1    0    0    0  501  0.00000000000E+00  0.00000000000E+00  0.10754704987E+04  0.10754704987E+04  0.50400001928E-02 0.  1.
        1   -1    0    0  501    0  0.00000000000E+00  0.00000000000E+00 -0.21472465010E+04  0.21472465010E+04  0.50400001928E-02 0. -1.
    10030    2    1    2    0    0  0.00000000000E+00  0.00000000000E+00 -0.10717760023E+04  0.32227169997E+04  0.30392764041E+04 0.  0.
        5    1    3    3  502    0  0.78703095374E+03 -0.12986392453E+04 -0.59768563606E+03  0.16319104819E+04  0.46999998093E+01 0. -1.
       -5    1    3    3    0  502 -0.78703095374E+03  0.12986392453E+04 -0.47409036628E+03  0.15908065177E+04  0.46999998093E+01 0.  1.
</event>
<event>
 5   0  0.6291798E-07  0.2996106E+04  0.7818609E-02  0.8244844E-01
       -1   -1    0    0    0  501  0.00000000000E+00  0.00000000000E+00  0.13522391797E+04  0.13522391797E+04  0.50400001928E-02 0. -1.
        1   -1    0    0  501    0  0.00000000000E+00  0.00000000000E+00 -0.16595904291E+04  0.16595904291E+04  0.50400001928E-02 0.  1.
    10030    2    1    2    0    0  0.00000000000E+00  0.00000000000E+00 -0.30735124941E+03  0.30118296088E+04  0.29961062735E+04 0.  0.
        1    1    3    3  502    0 -0.64002040506E+03 -0.84119084532E+03 -0.12208186408E+04  0.16148146367E+04  0.50400001928E-02 0.  1.
       -1    1    3    3    0  502  0.64002040506E+03  0.84119084532E+03  0.91346739138E+03  0.13970149721E+04  0.50400001928E-02 0. -1.
</event>
<event>
 5   0  0.5887179E-07  0.3047032E+04  0.7818609E-02  0.8230427E-01
        1   -1    0    0  501    0  0.00000000000E+00  0.00000000000E+00  0.10778857298E+04  0.10778857298E+04  0.50400001928E-02 0.  1.
       -1   -1    0    0    0  501  0.00000000000E+00  0.00000000000E+00 -0.21533837979E+04  0.21533837979E+04  0.50400001928E-02 0. -1.
    10030    2    1    2    0    0  0.00000000000E+00  0.00000000000E+00 -0.10754980681E+04  0.32312695277E+04  0.30470324360E+04 0.  0.
        3    1    3    3  502    0 -0.10862590557E+04 -0.73869300878E+02 -0.16678709339E+04  0.19917853479E+04  0.10100000352E+00 0. -1.
       -3    1    3    3    0  502  0.10862590557E+04  0.73869300878E+02  0.59237286580E+03  0.12394841798E+04  0.10100000352E+00 0.  1.
</event>
<event>
 5   0  0.1560174E-06  0.3028523E+04  0.7818609E-02  0.8235633E-01
        2   -1    0    0  501    0  0.00000000000E+00  0.00000000000E+00  0.16916886727E+04  0.16916886727E+04  0.25500000920E-02 0. -1.
       -2   -1    0    0    0  501  0.00000000000E+00  0.00000000000E+00 -0.13554428444E+04  0.13554428444E+04  0.25500000920E-02 0.  1.
    10030    2    1    2    0    0  0.00000000000E+00  0.00000000000E+00  0.33624582827E+03  0.30471315171E+04  0.30285226144E+04 0.  0.
        5    1    3    3  502    0  0.55090725255E+02 -0.21056828624E+03 -0.13396145614E+04  0.13571894688E+04  0.46999998093E+01 0.  1.
       -5    1    3    3    0  502 -0.55090725255E+02  0.21056828624E+03  0.16758603896E+04  0.16899420483E+04  0.46999998093E+01 0. -1.
</event>
<event>
 5   0  0.5431625E-07  0.2967810E+04  0.7818609E-02  0.8252983E-01
        3   -1    0    0  501    0  0.00000000000E+00  0.00000000000E+00  0.91579642484E+03  0.91579643041E+03  0.10100000352E+00 0.  1.
       -3   -1    0    0    0  501  0.00000000000E+00  0.00000000000E+00 -0.24044363139E+04  0.24044363160E+04  0.10100000352E+00 0. -1.
    10030    2    1    2    0    0  0.00000000000E+00  0.00000000000E+00 -0.14886398890E+04  0.33202327464E+04  0.29678100969E+04 0.  0.
        3    1    3    3  502    0  0.68634862188E+02  0.30096587468E+03  0.87947809935E+03  0.93207989972E+03  0.10100000352E+00 0.  1.
       -3    1    3    3    0  502 -0.68634862188E+02 -0.30096587468E+03 -0.23681179884E+04  0.23881528467E+04  0.10100000352E+00 0. -1.
</event>
<event>
 5   0  0.1674806E-06  0.3004872E+04  0.7818609E-02  0.8242341E-01
       -2   -1    0    0    0  501  0.00000000000E+00  0.00000000000E+00  0.10269916123E+04  0.10269916123E+04  0.25500000920E-02 0. -1.
        2   -1    0    0  501    0  0.00000000000E+00  0.00000000000E+00 -0.21979865623E+04  0.21979865623E+04  0.25500000920E-02 0.  1.
    10030    2    1    2    0    0  0.00000000000E+00  0.00000000000E+00 -0.11709949500E+04  0.32249781746E+04  0.30048718864E+04 0.  0.
        2    1    3    3  502    0  0.13559423619E+04 -0.62793800453E+03 -0.75324040177E+03  0.16733968236E+04  0.25500000920E-02 0. -1.
       -2    1    3    3    0  502 -0.13559423619E+04  0.62793800453E+03 -0.41775454825E+03  0.15515813510E+04  0.25500000920E-02 0.  1.
</event>
<event>
 5   0  0.1674806E-06  0.3000570E+04  0.7818609E-02  0.8243568E-01
        2   -1    0    0  501    0  0.00000000000E+00  0.00000000000E+00  0.11216114295E+04  0.11216114295E+04  0.25500000920E-02 0.  1.
       -2   -1    0    0    0  501  0.00000000000E+00  0.00000000000E+00 -0.20068048778E+04  0.20068048778E+04  0.25500000920E-02 0. -1.
    10030    2    1    2    0    0  0.00000000000E+00  0.00000000000E+00 -0.88519344830E+03  0.31284163073E+04  0.30005701377E+04 0.  0.
        2    1    3    3  502    0 -0.55309377574E+03 -0.72829062599E+03  0.79742032782E+03  0.12133421364E+04  0.25500000920E-02 0.  1.
       -2    1    3    3    0  502  0.55309377574E+03  0.72829062599E+03 -0.16826137761E+04  0.19150741710E+04  0.25500000920E-02 0. -1.
</event>
<event>
 5   0  0.1560174E-06  0.3008944E+04  0.7818609E-02  0.8241181E-01
        2   -1    0    0  501    0  0.00000000000E+00  0.00000000000E+00  0.10471387615E+04  0.10471387615E+04  0.25500000920E-02 0. -1.
       -2   -1    0    0    0  501  0.00000000000E+00  0.00000000000E+00 -0.21615441781E+04  0.21615441781E+04  0.25500000920E-02 0.  1.
    10030    2    1    2    0    0  0.00000000000E+00  0.00000000000E+00 -0.11144054166E+04  0.32086829396E+04  0.30089444618E+04 0.  0.
        5    1    3    3  502    0 -0.66623129052E+03  0.18890511537E+03 -0.19814770997E+04  0.20990052076E+04  0.46999998093E+01 0.  1.
       -5    1    3    3    0  502  0.66623129052E+03 -0.18890511537E+03  0.86707168315E+03  0.11096777320E+04  0.46999998093E+01 0. -1.
</event>
<event>
 5   0  0.1723916E-06  0.2995473E+04  0.7818609E-02  0.8245025E-01
        2   -1    0    0  501    0  0.00000000000E+00  0.00000000000E+00  0.25249463362E+04  0.25249463362E+04  0.25500000920E-02 0. -1.
       -2   -1    0    0    0  501  0.00000000000E+00  0.00000000000E+00 -0.88842087743E+03  0.88842087744E+03  0.25500000920E-02 0.  1.
    10030    2    1    2    0    0  0.00000000000E+00  0.00000000000E+00  0.16365254588E+04  0.34133672136E+04  0.29954732778E+04 0.  0.
        1    1    3    3  502    0  0.12054572351E+02 -0.54751507620E+02  0.25237502726E+04  0.25243728882E+04  0.50400001928E-02 0. -1.
       -1    1    3    3    0  502 -0.12054572351E+02  0.54751507620E+02 -0.88722481384E+03  0.88899432541E+03  0.50400001928E-02 0.  1.
</event>
<event>
 5   0  0.1674806E-06  0.3001721E+04  0.7818609E-02  0.8243240E-01
       -2   -1    0    0    0  501  0.00000000000E+00  0.00000000000E+00  0.70535299195E+03  0.70535299196E+03  0.25500000920E-02 0. -1.
        2   -1    0    0  501    0  0.00000000000E+00  0.00000000000E+00 -0.31935528654E+04  0.31935528654E+04  0.25500000920E-02 0.  1.
    10030    2    1    2    0    0  0.00000000000E+00  0.00000000000E+00 -0.24881998734E+04  0.38989058573E+04  0.30017208855E+04 0.  0.
        2    1    3    3  502    0  0.11584058749E+04 -0.49139691205E+03 -0.18154187538E+03  0.12713506788E+04  0.25500000920E-02 0. -1.
       -2    1    3    3    0  502 -0.11584058749E+04  0.49139691205E+03 -0.23066579981E+04  0.26275551785E+04  0.25500000920E-02 0.  1.
</event>
<event>
 5   0  0.1723916E-06  0.3004373E+04  0.7818609E-02  0.8242483E-01
        2   -1    0    0  501    0  0.00000000000E+00  0.00000000000E+00  0.23573870938E+04  0.23573870938E+04  0.25500000920E-02 0.  1.
       -2   -1    0    0    0  501  0.00000000000E+00  0.00000000000E+00 -0.95723131750E+03  0.95723131750E+03  0.25500000920E-02 0. -1.
    10030    2    1    2    0    0  0.00000000000E+00  0.00000000000E+00  0.14001557763E+04  0.33146184113E+04  0.30043733148E+04 0.  0.
        1    1    3    3  502    0 -0.11466006095E+04 -0.66929657431E+03  0.14754412278E+04  0.19848369401E+04  0.50400001928E-02 0.  1.
       -1    1    3    3    0  502  0.11466006095E+04  0.66929657431E+03 -0.75285451485E+02  0.13297814712E+04  0.50400001928E-02 0. -1.
</event>
<event>
 5   0  0.5874741E-07  0.3000638E+04  0.7818609E-02  0.8243549E-01
        1   -1    0    0  501    0  0.00000000000E+00  0.00000000000E+00  0.24880311364E+04  0.24880311364E+04  0.50400001928E-02 0. -1.
       -1   -1    0    0    0  501  0.00000000000E+00  0.00000000000E+00 -0.90471443593E+03  0.90471443594E+03  0.50400001928E-02 0.  1.
    10030    2    1    2    0    0  0.00000000000E+00  0.00000000000E+00  0.15833167005E+04  0.33927455724E+04  0.30006383895E+04 0.  0.
        4    1    3    3  502    0 -0.86158109046E+03 -0.69523017005E+03 -0.35322384945E+03  0.11620824693E+04  0.12699999809E+01 0.  1.
       -4    1    3    3    0  502  0.86158109046E+03  0.69523017005E+03  0.19365405499E+04  0.22306631030E+04  0.12699999809E+01 0. -1.
</event>
<event>
 5   0  0.5874741E-07  0.3001740E+04  0.7818609E-02  0.8243234E-01
       -1   -1    0    0    0  501  0.00000000000E+00  0.00000000000E+00  0.11382112124E+04  0.11382112124E+04  0.50400001928E-02 0.  1.
        1   -1    0    0  501    0  0.00000000000E+00  0.00000000000E+00 -0.19790796324E+04  0.19790796324E+04  0.50400001928E-02 0. -1.
    10030    2    1    2    0    0  0.00000000000E+00  0.00000000000E+00 -0.84086842005E+03  0.31172908448E+04  0.30017399140E+04 0.  0.
        4    1    3    3  502    0 -0.13788786831E+03 -0.29638853384E+03  0.11007920127E+04  0.11483047920E+04  0.12699999809E+01 0.  1.
       -4    1    3    3    0  502  0.13788786831E+03  0.29638853384E+03 -0.19416604328E+04  0.19689860528E+04  0.12699999809E+01 0. -1.
</event>
<event>
 5   0  0.5874741E-07  0.3002076E+04  0.7818609E-02  0.8243138E-01
       -1   -1    0    0    0  501  0.00000000000E+00  0.00000000000E+00  0.18726337318E+04  0.18726337318E+04  0.50400001928E-02 0.  1.
        1   -1    0    0  501    0  0.00000000000E+00  0.00000000000E+00 -0.12031801146E+04  0.12031801146E+04  0.50400001928E-02 0. -1.
    10030    2    1    2    0    0  0.00000000000E+00  0.00000000000E+00  0.66945361725E+03  0.30758138465E+04  0.30020763935E+04 0.  0.
        4    1    3    3  502    0 -0.95219248444E+03  0.17562041552E+02  0.15234551928E+04  0.17966347125E+04  0.12699999809E+01 0.  1.
       -4    1    3    3    0  502  0.95219248444E+03 -0.17562041552E+02 -0.85400157558E+03  0.12791791339E+04  0.12699999809E+01 0. -1.
</event>
<event>
 5   0  0.1625212E-06  0.3000027E+04  0.7818609E-02  0.8243723E-01
       -2   -1    0    0    0  501  0.00000000000E+00  0.00000000000E+00  0.13493569457E+04  0.13493569457E+04  0.25500000920E-02 0.  1.
        2   -1    0    0  501    0  0.00000000000E+00  0.00000000000E+00 -0.16674905338E+04  0.16674905338E+04  0.25500000920E-02 0. -1.
    10030    2    1    2    0    0  0.00000000000E+00  0.00000000000E+00 -0.31813358805E+03  0.30168474795E+04  0.30000266223E+04 0.  0.
        4    1    3    3  502    0 -0.14353125504E+04 -0.26599697448E+03 -0.50620050962E+03  0.15450297980E+04  0.12699999809E+01 0.  1.
       -4    1    3    3    0  502  0.14353125504E+04  0.26599697448E+03  0.18806692157E+03  0.14718176815E+04  0.12699999809E+01 0. -1.
</event>
<event>
 5   0  0.5916703E-07  0.3003552E+04  0.7818609E-02  0.8242717E-01
        1   -1    0    0  501    0  0.00000000000E+00  0.00000000000E+00  0.19371415569E+04  0.19371415569E+04  0.50400001928E-02 0.  1.
       -1   -1    0    0    0  501  0.00000000000E+00  0.00000000000E+00 -0.11642569405E+04  0.11642569406E+04  0.50400001928E-02 0. -1.
    10030    2    1    2    0    0  0.00000000000E+00  0.00000000000E+00  0.77288461631E+03  0.31013984974E+04  0.30035515660E+04 0.  0.
        5    1    3    3  502    0  0.37913473880E+03  0.24119888280E+03  0.18660890008E+04  0.19194348908E+04  0.46999998093E+01 0.  1.
       -5    1    3    3    0  502 -0.37913473880E+03 -0.24119888280E+03 -0.10932043844E+04  0.11819636066E+04  0.46999998093E+01 0. -1.
</event>
<event>
 5   0  0.5931588E-07  0.3005967E+04  0.7818609E-02  0.8242029E-01
        1   -1    0    0  501    0  0.00000000000E+00  0.00000000000E+00  0.30618020726E+04  0.30618020726E+04  0.50400001928E-02 0. -1.
       -1   -1    0    0    0  501  0.00000000000E+00  0.00000000000E+00 -0.73778769402E+03  0.73778769403E+03  0.50400001928E-02 0.  1.
    10030    2    1    2    0    0  0.00000000000E+00  0.00000000000E+00  0.23240143786E+04  0.37995897666E+04  0.30059673256E+04 0.  0.
        2    1    3    3  502    0  0.13332526661E+04  0.60356922118E+03  0.15945544078E+04  0.21643618542E+04  0.25500000920E-02 0. -1.
       -2    1    3    3    0  502 -0.13332526661E+04 -0.60356922118E+03  0.72945997073E+03  0.16352279124E+04  0.25500000920E-02 0.  1.
</event>
<event>
 5   0  0.5874741E-07  0.3020602E+04  0.7818609E-02  0.8237872E-01
       -1   -1    0    0    0  501  0.00000000000E+00  0.00000000000E+00  0.95109384409E+03  0.95109384410E+03  0.50400001928E-02 0. -1.
        1   -1    0    0  501    0  0.00000000000E+00  0.00000000000E+00 -0.23983015107E+04  0.23983015107E+04  0.50400001928E-02 0.  1.
    10030    2    1    2    0    0  0.00000000000E+00  0.00000000000E+00 -0.14472076667E+04  0.33493953548E+04  0.30206024586E+04 0.  0.
        4    1    3    3  502    0  0.70844613218E+03  0.48559525935E+03 -0.21011284185E+04  0.22698988793E+04  0.12699999809E+01 0.  1.
       -4    1    3    3    0  502 -0.70844613218E+03 -0.48559525935E+03  0.65392075188E+03  0.10794964756E+04  0.12699999809E+01 0. -1.
</event>
<event>
 5   0  0.5874741E-07  0.3000762E+04  0.7818609E-02  0.8243513E-01
       -1   -1    0    0    0  501  0.00000000000E+00  0.00000000000E+00  0.12459450473E+04  0.12459450473E+04  0.50400001928E-02 0.  1.
        1   -1    0    0  501    0  0.00000000000E+00  0.00000000000E+00 -0.18067750393E+04  0.18067750393E+04  0.50400001928E-02 0. -1.
    10030    2    1    2    0    0  0.00000000000E+00  0.00000000000E+00 -0.56082999202E+03  0.30527200866E+04  0.30007615112E+04 0.  0.
        4    1    3    3  502    0 -0.75557970397E+02  0.12278744440E+04 -0.11542147545E+04  0.16868900289E+04  0.12699999809E+01 0. -1.
       -4    1    3    3    0  502  0.75557970397E+02 -0.12278744440E+04  0.59338476247E+03  0.13658300577E+04  0.12699999809E+01 0.  1.
</event>
<event>
 5   0  0.1635086E-06  0.3001651E+04  0.7818609E-02  0.8243259E-01
       -2   -1    0    0    0  501  0.00000000000E+00  0.00000000000E+00  0.31873472807E+04  0.31873472807E+04  0.25500000920E-02 0.  1.
        2   -1    0    0  501    0  0.00000000000E+00  0.00000000000E+00 -0.70669358905E+03  0.70669358906E+03  0.25500000920E-02 0. -1.
    10030    2    1    2    0    0  0.00000000000E+00  0.00000000000E+00  0.24806536916E+04  0.38940408698E+04  0.30016514717E+04 0.  0.
        3    1    3    3  502    0 -0.55280672715E+03  0.93326098661E+03 -0.10530889457E+03  0.10897987521E+04  0.10100000352E+00 0. -1.
       -3    1    3    3    0  502  0.55280672715E+03 -0.93326098661E+03  0.25859625862E+04  0.28042421176E+04  0.10100000352E+00 0.  1.
</event>
<event>
 5   0  0.5931588E-07  0.3021522E+04  0.7818609E-02  0.8237612E-01
        1   -1    0    0  501    0  0.00000000000E+00  0.00000000000E+00  0.21878645694E+04  0.21878645694E+04  0.50400001928E-02 0. -1.
       -1   -1    0    0    0  501  0.00000000000E+00  0.00000000000E+00 -0.10432082914E+04  0.10432082914E+04  0.50400001928E-02 0.  1.
    10030    2    1    2    0    0  0.00000000000E+00  0.00000000000E+00  0.11446562780E+04  0.32310728608E+04  0.30215217751E+04 0.  0.
        2    1    3    3  502    0 -0.40301762909E+02  0.14954380997E+04  0.79775399821E+03  0.16953969399E+04  0.25500000920E-02 0.  1.
       -2    1    3    3    0  502  0.40301762909E+02 -0.14954380997E+04  0.34690227981E+03  0.15356759209E+04  0.25500000920E-02 0. -1.
</event>
<event>
 5   0  0.1635086E-06  0.2995195E+04  0.7818609E-02  0.8245104E-01
       -2   -1    0    0    0  501  0.00000000000E+00  0.00000000000E+00  0.13950254592E+04  0.13950254592E+04  0.25500000920E-02 0. -1.
        2   -1    0    0  501    0  0.00000000000E+00  0.00000000000E+00 -0.16077113627E+04  0.16077113627E+04  0.25500000920E-02 0.  1.
    10030    2    1    2    0    0  0.00000000000E+00  0.00000000000E+00 -0.21268590353E+03  0.30027368219E+04  0.29951950067E+04 0.  0.
        3    1    3    3  502    0  0.13936148191E+04  0.90394856959E+01 -0.65595169939E+03  0.15402975746E+04  0.10100000352E+00 0.  1.
       -3    1    3    3    0  502 -0.13936148191E+04 -0.90394856959E+01  0.44326579586E+03  0.14624392473E+04  0.10100000352E+00 0. -1.
</event>
<event>
 5   0  0.5916703E-07  0.2989396E+04  0.7818609E-02  0.8246765E-01
        1   -1    0    0  501    0  0.00000000000E+00  0.00000000000E+00  0.15268152649E+04  0.15268152649E+04  0.50400001928E-02 0.  1.
       -1   -1    0    0    0  501  0.00000000000E+00  0.00000000000E+00 -0.14632561404E+04  0.14632561404E+04  0.50400001928E-02 0. -1.
    10030    2    1    2    0    0  0.00000000000E+00  0.00000000000E+00  0.63559124520E+02  0.29900714053E+04  0.29893957996E+04 0.  0.
        5    1    3    3  502    0  0.56549278830E+03  0.10419489177E+04  0.94229297729E+03  0.15143902356E+04  0.46999998093E+01 0. -1.
       -5    1    3    3    0  502 -0.56549278830E+03 -0.10419489177E+04 -0.87873385277E+03  0.14756811697E+04  0.46999998093E+01 0.  1.
</event>
<event>
 5   0  0.1635086E-06  0.3021469E+04  0.7818609E-02  0.8237627E-01
        2   -1    0    0  501    0  0.00000000000E+00  0.00000000000E+00  0.17347773315E+04  0.17347773315E+04  0.25500000920E-02 0. -1.
       -2   -1    0    0    0  501  0.00000000000E+00  0.00000000000E+00 -0.13156259041E+04  0.13156259041E+04  0.25500000920E-02 0.  1.
    10030    2    1    2    0    0  0.00000000000E+00  0.00000000000E+00  0.41915142745E+03  0.30504032356E+04  0.30214685139E+04 0.  0.
        3    1    3    3  502    0 -0.10905320292E+04  0.98331405629E+03 -0.14900350982E+03  0.14759297734E+04  0.10100000352E+00 0.  1.
       -3    1    3    3    0  502  0.10905320292E+04 -0.98331405629E+03  0.56815493727E+03  0.15744734621E+04  0.10100000352E+00 0. -1.
</event>
<event>
 5   0  0.5887179E-07  0.2999087E+04  0.7818609E-02  0.8243992E-01
       -1   -1    0    0    0  501  0.00000000000E+00  0.00000000000E+00  0.19110725549E+04  0.19110725549E+04  0.50400001928E-02 0.  1.
        1   -1    0    0  501    0  0.00000000000E+00  0.00000000000E+00 -0.11766324398E+04  0.11766324398E+04  0.50400001928E-02 0. -1.
    10030    2    1    2    0    0  0.00000000000E+00  0.00000000000E+00  0.73444011516E+03  0.30877049947E+04  0.29990865029E+04 0.  0.
        3    1    3    3  502    0  0.61354154264E+03 -0.79680276061E+03  0.15124288694E+04  0.18162513480E+04  0.10100000352E+00 0.  1.
       -3    1    3    3    0  502 -0.61354154264E+03  0.79680276061E+03 -0.77798875423E+03  0.12714536467E+04  0.10100000352E+00 0. -1.
</event>
<event>
 5   0  0.5916703E-07  0.2983852E+04  0.7818609E-02  0.8248357E-01
        1   -1    0    0  501    0  0.00000000000E+00  0.00000000000E+00  0.14398330968E+04  0.14398330968E+04  0.50400001928E-02 0. -1.
       -1   -1    0    0    0  501  0.00000000000E+00  0.00000000000E+00 -0.15459040346E+04  0.15459040346E+04  0.50400001928E-02 0.  1.
    10030    2    1    2    0    0  0.00000000000E+00  0.00000000000E+00 -0.10607093787E+03  0.29857371314E+04  0.29838524049E+04 0.  0.
        5    1    3    3  502    0  0.10020803365E+04  0.86086851225E+03  0.64062827196E+03  0.14682255512E+04  0.46999998093E+01 0. -1.
       -5    1    3    3    0  502 -0.10020803365E+04 -0.86086851225E+03 -0.74669920983E+03  0.15175115803E+04  0.46999998093E+01 0.  1.
</event>
<event>
 5   0  0.1560174E-06  0.3000332E+04  0.7818609E-02  0.8243636E-01
       -2   -1    0    0    0  501  0.00000000000E+00  0.00000000000E+00  0.16325942210E+04  0.16325942210E+04  0.25500000920E-02 0. -1.
        2   -1    0    0  501    0  0.00000000000E+00  0.00000000000E+00 -0.13784798371E+04  0.13784798371E+04  0.25500000920E-02 0.  1.
    10030    2    1    2    0    0  0.00000000000E+00  0.00000000000E+00  0.25411438390E+03  0.30110740582E+04  0.30003321256E+04 0.  0.
        5    1    3    3  502    0  0.12059192376E+04 -0.26949958818E+03 -0.72663803193E+03  0.14334908981E+04  0.46999998093E+01 0.  1.
       -5    1    3    3    0  502 -0.12059192376E+04  0.26949958818E+03  0.98075241582E+03  0.15775831600E+04  0.46999998093E+01 0. -1.
</event>
<event>
 5   0  0.5887179E-07  0.2991035E+04  0.7818609E-02  0.8246295E-01
       -1   -1    0    0    0  501  0.00000000000E+00  0.00000000000E+00  0.25561723449E+04  0.25561723449E+04  0.50400001928E-02 0. -1.
        1   -1    0    0  501    0  0.00000000000E+00  0.00000000000E+00 -0.87496959294E+03  0.87496959296E+03  0.50400001928E-02 0.  1.
    10030    2    1    2    0    0  0.00000000000E+00  0.00000000000E+00  0.16812027519E+04  0.34311419379E+04  0.29910353232E+04 0.  0.
        3    1    3    3  502    0 -0.10577679377E+04  0.65454248326E+03  0.17929877024E+04  0.21822245035E+04  0.10100000352E+00 0. -1.
       -3    1    3    3    0  502  0.10577679377E+04 -0.65454248326E+03 -0.11178495047E+03  0.12489174343E+04  0.10100000352E+00 0.  1.
</event>
<event>
 5   0  0.5931588E-07  0.3002883E+04  0.7818609E-02  0.8242908E-01
       -1   -1    0    0    0  501  0.00000000000E+00  0.00000000000E+00  0.14961319088E+04  0.14961319088E+04  0.50400001928E-02 0. -1.
        1   -1    0    0  501    0  0.00000000000E+00  0.00000000000E+00 -0.15067697630E+04  0.15067697630E+04  0.50400001928E-02 0.  1.
    10030    2    1    2    0    0  0.00000000000E+00  0.00000000000E+00 -0.10637854276E+02  0.30029016718E+04  0.30028828293E+04 0.  0.
        2    1    3    3  502    0  0.14522575659E+04  0.18540748901E+03 -0.33833505084E+03  0.15026305539E+04  0.25500000920E-02 0. -1.
       -2    1    3    3    0  502 -0.14522575659E+04 -0.18540748901E+03  0.32769719656E+03  0.15002711180E+04  0.25500000920E-02 0.  1.
</event>
<event>
 5   0  0.1674806E-06  0.3025071E+04  0.7818609E-02  0.8236608E-01
        2   -1    0    0  501    0  0.00000000000E+00  0.00000000000E+00  0.19543215776E+04  0.19543215776E+04  0.25500000920E-02 0.  1.
       -2   -1    0    0    0  501  0.00000000000E+00  0.00000000000E+00 -0.11706178815E+04  0.11706178815E+04  0.25500000920E-02 0. -1.
    10030    2    1    2    0    0  0.00000000000E+00  0.00000000000E+00  0.78370369611E+03  0.31249394592E+04  0.30250710967E+04 0.  0.
        2    1    3    3  502    0 -0.52677090486E+02 -0.43575960175E+03 -0.11033804075E+04  0.11874803704E+04  0.25500000920E-02 0. -1.
       -2    1    3    3    0  502  0.52677090486E+02  0.43575960175E+03  0.18870841036E+04  0.19374590887E+04  0.25500000920E-02 0.  1.
</event>
<event>
 5   0  0.1674806E-06  0.2984657E+04  0.7818609E-02  0.8248126E-01
       -2   -1    0    0    0  501  0.00000000000E+00  0.00000000000E+00  0.11417442968E+04  0.11417442968E+04  0.25500000920E-02 0.  1.
        2   -1    0    0  501    0  0.00000000000E+00  0.00000000000E+00 -0.19505629602E+04  0.19505629602E+04  0.25500000920E-02 0. -1.
    10030    2    1    2    0    0  0.00000000000E+00  0.00000000000E+00 -0.80881866338E+03  0.30923072569E+04  0.29846568548E+04 0.  0.
        2    1    3    3  502    0 -0.31535727850E+03  0.27620017866E+03 -0.18883058083E+04  0.19342790847E+04  0.25500000920E-02 0. -1.
       -2    1    3    3    0  502  0.31535727850E+03 -0.27620017866E+03  0.10794871449E+04  0.11580281723E+04  0.25500000920E-02 0.  1.
</event>
<event>
 5   0  0.1625212E-06  0.2967985E+04  0.7818609E-02  0.8252932E-01
       -2   -1    0    0    0  501  0.00000000000E+00  0.00000000000E+00  0.98184761706E+03  0.98184761706E+03  0.25500000920E-02 0.  1.
        2   -1    0    0  501    0  0.00000000000E+00  0.00000000000E+00 -0.22429486377E+04  0.22429486377E+04  0.25500000920E-02 0. -1.
    10030    2    1    2    0    0  0.00000000000E+00  0.00000000000E+00 -0.12611010207E+04  0.32247962548E+04  0.29679850236E+04 0.  0.
        4    1    3    3  502    0  0.14788924581E+04 -0.11900487240E+03 -0.66398837167E+03  0.16254744639E+04  0.12699999809E+01 0.  1.
       -4    1    3    3    0  502 -0.14788924581E+04  0.11900487240E+03 -0.59711264900E+03  0.15993217909E+04  0.12699999809E+01 0. -1.
</event>
<event>
 5   0  0.1723916E-06  0.3006597E+04  0.7818609E-02  0.8241850E-01
       -2   -1    0    0    0  501  0.00000000000E+00  0.00000000000E+00  0.17683828708E+04  0.17683828708E+04  0.25500000920E-02 0. -1.
        2   -1    0    0  501    0  0.00000000000E+00  0.00000000000E+00 -0.12779508309E+04  0.12779508309E+04  0.25500000920E-02 0.  1.
    10030    2    1    2    0    0  0.00000000000E+00  0.00000000000E+00  0.49043203986E+03  0.30463337017E+04  0.30065969860E+04 0.  0.
        1    1    3    3  502    0 -0.75785987826E+03 -0.12970826195E+04  0.18851714354E+03  0.15140388471E+04  0.50400001928E-02 0. -1.
       -1    1    3    3    0  502  0.75785987826E+03  0.12970826195E+04  0.30191489631E+03  0.15322948547E+04  0.50400001928E-02 0.  1.
</event>
<event>
 5   0  0.5431625E-07  0.2986890E+04  0.7818609E-02  0.8247484E-01
       -4   -1    0    0    0  501  0.00000000000E+00  0.00000000000E+00  0.12696782869E+04  0.12696789220E+04  0.12699999809E+01 0. -1.
        4   -1    0    0  501    0  0.00000000000E+00  0.00000000000E+00 -0.17566466318E+04  0.17566470909E+04  0.12699999809E+01 0.  1.
    10030    2    1    2    0    0  0.00000000000E+00  0.00000000000E+00 -0.48696834491E+03  0.30263260129E+04  0.29868898486E+04 0.  0.
        2    1    3    3  502    0 -0.12658342027E+03 -0.97582577196E+03 -0.13817575026E+04  0.16963234053E+04  0.25500000920E-02 0.  1.
       -2    1    3    3    0  502  0.12658342027E+03  0.97582577196E+03  0.89478915766E+03  0.13300026076E+04  0.25500000920E-02 0. -1.
</event>
<event>
 5   0  0.1625212E-06  0.3029267E+04  0.7818609E-02  0.8235423E-01
       -2   -1    0    0    0  501  0.00000000000E+00  0.00000000000E+00  0.12438125542E+04  0.12438125542E+04  0.25500000920E-02 0. -1.
        2   -1    0    0  501    0  0.00000000000E+00  0.00000000000E+00 -0.18444216801E+04  0.18444216801E+04  0.25500000920E-02 0.  1.
    10030    2    1    2    0    0  0.00000000000E+00  0.00000000000E+00 -0.60060912584E+03  0.30882342343E+04  0.30292671331E+04 0.  0.
        4    1    3    3  502    0  0.85595569970E+03 -0.12380101239E+04 -0.12734354093E+03  0.15104791349E+04  0.12699999809E+01 0. -1.
       -4    1    3    3    0  502 -0.85595569970E+03  0.12380101239E+04 -0.47326558491E+03  0.15777550994E+04  0.12699999809E+01 0.  1.
</event>
<event>
 5   0  0.1635086E-06  0.3002151E+04  0.7818609E-02  0.8243117E-01
        2   -1    0    0  501    0  0.00000000000E+00  0.00000000000E+00  0.26790934194E+04  0.26790934194E+04  0.25500000920E-02 0. -1.
       -2   -1    0    0    0  501  0.00000000000E+00  0.00000000000E+00 -0.84104099106E+03  0.84104099106E+03  0.25500000920E-02 0.  1.
    10030    2    1    2    0    0  0.00000000000E+00  0.00000000000E+00  0.18380524284E+04  0.35201344105E+04  0.30021508187E+04 0.  0.
        3    1    3    3  502    0  0.25541290369E+03 -0.12528107117E+04  0.18411335467E+04  0.22415492807E+04  0.10100000352E+00 0. -1.
       -3    1    3    3    0  502 -0.25541290369E+03  0.12528107117E+04 -0.30811183057E+01  0.12785851298E+04  0.10100000352E+00 0.  1.
</event>
<event>
 5   0  0.5431625E-07  0.3007331E+04  0.7818609E-02  0.8241641E-01
        3   -1    0    0  501    0  0.00000000000E+00  0.00000000000E+00  0.18423255230E+04  0.18423255258E+04  0.10100000352E+00 0.  1.
       -3   -1    0    0    0  501  0.00000000000E+00  0.00000000000E+00 -0.12272584874E+04  0.12272584916E+04  0.10100000352E+00 0. -1.
    10030    2    1    2    0    0  0.00000000000E+00  0.00000000000E+00  0.61506703557E+03  0.30695840173E+04  0.30073308067E+04 0.  0.
        5    1    3    3  502    0 -0.80425174765E+03 -0.40975323078E+03  0.15350373487E+04  0.17807527441E+04  0.46999998093E+01 0.  1.
       -5    1    3    3    0  502  0.80425174765E+03  0.40975323078E+03 -0.91997031315E+03  0.12888312732E+04  0.46999998093E+01 0. -1.
</event>
<event>
 5   0  0.5431625E-07  0.2991393E+04  0.7818609E-02  0.8246193E-01
        3   -1    0    0  501    0  0.00000000000E+00  0.00000000000E+00  0.11203066226E+04  0.11203066272E+04  0.10100000352E+00 0.  1.
       -3   -1    0    0    0  501  0.00000000000E+00  0.00000000000E+00 -0.19968717360E+04  0.19968717386E+04  0.10100000352E+00 0. -1.
    10030    2    1    2    0    0  0.00000000000E+00  0.00000000000E+00 -0.87656511343E+03  0.31171783657E+04  0.29913934154E+04 0.  0.
        5    1    3    3  502    0  0.18661461191E+03  0.14742145773E+04 -0.61559298994E+03  0.16084497047E+04  0.46999998093E+01 0.  1.
       -5    1    3    3    0  502 -0.18661461191E+03 -0.14742145773E+04 -0.26097212349E+03  0.15087286610E+04  0.46999998093E+01 0. -1.
</event>
<event>
 5   0  0.5887179E-07  0.2999647E+04  0.7818609E-02  0.8243832E-01
        1   -1    0    0  501    0  0.00000000000E+00  0.00000000000E+00  0.18448534788E+04  0.18448534788E+04  0.50400001928E-02 0. -1.
       -1   -1    0    0    0  501  0.00000000000E+00  0.00000000000E+00 -0.12193217571E+04  0.12193217571E+04  0.50400001928E-02 0.  1.
    10030    2    1    2    0    0  0.00000000000E+00  0.00000000000E+00  0.62553172176E+03  0.30641752359E+04  0.29996466361E+04 0.  0.
        3    1    3    3  502    0 -0.14686648876E+04 -0.89783506608E+02  0.15942603110E+02  0.14714930536E+04  0.10100000352E+00 0.  1.
       -3    1    3    3    0  502  0.14686648876E+04  0.89783506608E+02  0.60958911865E+03  0.15926821823E+04  0.10100000352E+00 0. -1.
</event>
<event>
 5   0  0.1560174E-06  0.2998745E+04  0.7818609E-02  0.8244089E-01
       -2   -1    0    0    0  501  0.00000000000E+00  0.00000000000E+00  0.14410969093E+04  0.14410969093E+04  0.25500000920E-02 0.  1.
        2   -1    0    0  501    0  0.00000000000E+00  0.00000000000E+00 -0.15600041458E+04  0.15600041458E+04  0.25500000920E-02 0. -1.
    10030    2    1    2    0    0  0.00000000000E+00  0.00000000000E+00 -0.11890723646E+03  0.30011010551E+04  0.29987445060E+04 0.  0.
        5    1    3    3  502    0  0.13589328243E+04 -0.40998303532E+03 -0.54285551005E+03  0.15197034924E+04  0.46999998093E+01 0. -1.
       -5    1    3    3    0  502 -0.13589328243E+04  0.40998303532E+03  0.42394827359E+03  0.14813975627E+04  0.46999998093E+01 0.  1.
</event>
<event>
 5   0  0.5874741E-07  0.3006311E+04  0.7818609E-02  0.8241931E-01
        1   -1    0    0  501    0  0.00000000000E+00  0.00000000000E+00  0.21666964098E+04  0.21666964098E+04  0.50400001928E-02 0.  1.
       -1   -1    0    0    0  501  0.00000000000E+00  0.00000000000E+00 -0.10428209801E+04  0.10428209802E+04  0.50400001928E-02 0. -1.
    10030    2    1    2    0    0  0.00000000000E+00  0.00000000000E+00  0.11238754297E+04  0.32095173900E+04  0.30063110110E+04 0.  0.
        4    1    3    3  502    0 -0.47187138009E+03  0.14102063589E+04  0.32772252890E+03  0.15227436564E+04  0.12699999809E+01 0. -1.
       -4    1    3    3    0  502  0.47187138009E+03 -0.14102063589E+04  0.79615290076E+03  0.16867737336E+04  0.12699999809E+01 0.  1.
</event>
<event>
 5   0  0.1723916E-06  0.2993182E+04  0.7818609E-02  0.8245680E-01
       -2   -1    0    0    0  501  0.00000000000E+00  0.00000000000E+00  0.13946955212E+04  0.13946955212E+04  0.25500000920E-02 0. -1.
        2   -1    0    0  501    0  0.00000000000E+00  0.00000000000E+00 -0.16059309810E+04  0.16059309810E+04  0.25500000920E-02 0.  1.
    10030    2    1    2    0    0  0.00000000000E+00  0.00000000000E+00 -0.21123545979E+03  0.30006265022E+04  0.29931820837E+04 0.  0.
        1    1    3    3  502    0 -0.88154966995E+03 -0.10689054683E+04 -0.67279516571E+03  0.15402409083E+04  0.50400001928E-02 0.  1.
       -1    1    3    3    0  502  0.88154966995E+03  0.10689054683E+04  0.46155970593E+03  0.14603855939E+04  0.50400001928E-02 0. -1.
</event>
<event>
 5   0  0.1674806E-06  0.2997672E+04  0.7818609E-02  0.8244396E-01
        2   -1    0    0  501    0  0.00000000000E+00  0.00000000000E+00  0.30235782535E+04  0.30235782535E+04  0.25500000920E-02 0.  1.
       -2   -1    0    0    0  501  0.00000000000E+00  0.00000000000E+00 -0.74299670255E+03  0.74299670255E+03  0.25500000920E-02 0. -1.
    10030    2    1    2    0    0  0.00000000000E+00  0.00000000000E+00  0.22805815509E+04  0.37665749560E+04  0.29976715445E+04 0.  0.
        2    1    3    3  502    0 -0.78016295834E+03 -0.26135180035E+03 -0.43387367568E+03  0.93016416378E+03  0.25500000920E-02 0. -1.
       -2    1    3    3    0  502  0.78016295834E+03  0.26135180035E+03  0.27144552266E+04  0.28364107923E+04  0.25500000920E-02 0.  1.
</event>
<event>
 5   0  0.5916703E-07  0.3059101E+04  0.7818609E-02  0.8227053E-01
       -1   -1    0    0    0  501  0.00000000000E+00  0.00000000000E+00  0.12797349693E+04  0.12797349694E+04  0.50400001928E-02 0. -1.
        1   -1    0    0  501    0  0.00000000000E+00  0.00000000000E+00 -0.18281325718E+04  0.18281325718E+04  0.50400001928E-02 0.  1.
    10030    2    1    2    0    0  0.00000000000E+00  0.00000000000E+00 -0.54839760241E+03  0.31078675411E+04  0.30591012933E+04 0.  0.
        5    1    3    3  502    0 -0.71170779364E+03  0.10372230589E+04  0.60981230865E+03  0.13979459214E+04  0.46999998093E+01 0. -1.
       -5    1    3    3    0  502  0.71170779364E+03 -0.10372230589E+04 -0.11582099111E+04  0.17099216197E+04  0.46999998093E+01 0.  1.
</event>
<event>
 5   0  0.1625212E-06  0.2999662E+04  0.7818609E-02  0.8243827E-01
       -2   -1    0    0    0  501  0.00000000000E+00  0.00000000000E+00  0.11243206353E+04  0.11243206353E+04  0.25500000920E-02 0.  1.
        2   -1    0    0  501    0  0.00000000000E+00  0.00000000000E+00 -0.20007573508E+04  0.20007573508E+04  0.25500000920E-02 0. -1.
    10030    2    1    2    0    0  0.00000000000E+00  0.00000000000E+00 -0.87643671551E+03  0.31250779861E+04  0.29996618314E+04 0.  0.
        4    1    3    3  502    0 -0.60501925248E+03 -0.13676318788E+04 -0.55712130450E+03  0.15958856515E+04  0.12699999809E+01 0. -1.
       -4    1    3    3    0  502  0.60501925248E+03  0.13676318788E+04 -0.31931541101E+03  0.15291923346E+04  0.12699999809E+01 0.  1.
</event>
<event>
 5   0  0.1560174E-06  0.2961640E+04  0.7818609E-02  0.8254771E-01
        2   -1    0    0  501    0  0.00000000000E+00  0.00000000000E+00  0.90807293610E+03  0.90807293610E+03  0.25500000920E-02 0.  1.
       -2   -1    0    0    0  501  0.00000000000E+00  0.00000000000E+00 -0.24148140259E+04  0.24148140259E+04  0.25500000920E-02 0. -1.
    10030    2    1    2    0    0  0.00000000000E+00  0.00000000000E+00 -0.15067410898E+04  0.33228869620E+04  0.29616395882E+04 0.  0.
        5    1    3    3  502    0  0.13617700436E+04 -0.29904869375E+03 -0.19355380499E+03  0.14075982872E+04  0.46999998093E+01 0.  1.
       -5    1    3    3    0  502 -0.13617700436E+04  0.29904869375E+03 -0.13131872848E+04  0.19152886748E+04  0.46999998093E+01 0. -1.
</event>
<event>
 5   0  0.5874741E-07  0.2997615E+04  0.7818609E-02  0.8244412E-01
       -1   -1    0    0    0  501  0.00000000000E+00  0.00000000000E+00  0.12964283686E+04  0.12964283686E+04  0.50400001928E-02 0. -1.
        1   -1    0    0  501    0  0.00000000000E+00  0.00000000000E+00 -0.17327796058E+04  0.17327796058E+04  0.50400001928E-02 0.  1.
    10030    2    1    2    0    0  0.00000000000E+00  0.00000000000E+00 -0.43635123728E+03  0.30292079744E+04  0.29976154773E+04 0.  0.
        4    1    3    3  502    0  0.10125610685E+04  0.83826167709E+03  0.50945504507E+03  0.14097902725E+04  0.12699999809E+01 0. -1.
       -4    1    3    3    0  502 -0.10125610685E+04 -0.83826167709E+03 -0.94580628234E+03  0.16194177019E+04  0.12699999809E+01 0.  1.
</event>
<event>
 5   0  0.1635086E-06  0.2996140E+04  0.7818609E-02  0.8244834E-01
        2   -1    0    0  501    0  0.00000000000E+00  0.00000000000E+00  0.22764748325E+04  0.22764748325E+04  0.25500000920E-02 0.  1.
       -2   -1    0    0    0  501  0.00000000000E+00  0.00000000000E+00 -0.98582867281E+03  0.98582867281E+03  0.25500000920E-02 0. -1.
    10030    2    1    2    0    0  0.00000000000E+00  0.00000000000E+00  0.12906461597E+04  0.32623035053E+04  0.29961402923E+04 0.  0.
        3    1    3    3  502    0  0.14572943672E+04  0.51580411462E+02  0.27153882228E+03  0.14832736611E+04  0.10100000352E+00 0. -1.
       -3    1    3    3    0  502 -0.14572943672E+04 -0.51580411462E+02  0.10191073374E+04  0.17790298443E+04  0.10100000352E+00 0.  1.
</event>
<event>
 5   0  0.5916703E-07  0.2997377E+04  0.7818609E-02  0.8244480E-01
        1   -1    0    0  501    0  0.00000000000E+00  0.00000000000E+00  0.23838872622E+04  0.23838872622E+04  0.50400001928E-02 0. -1.
       -1   -1    0    0    0  501  0.00000000000E+00  0.00000000000E+00 -0.94218654705E+03  0.94218654706E+03  0.50400001928E-02 0.  1.
    10030    2    1    2    0    0  0.00000000000E+00  0.00000000000E+00  0.14417007151E+04  0.33260738092E+04  0.29973765250E+04 0.  0.
        5    1    3    3  502    0 -0.52713761052E+03 -0.81874844177E+03  0.19849986938E+04  0.22109873305E+04  0.46999998093E+01 0. -1.
       -5    1    3    3    0  502  0.52713761052E+03  0.81874844177E+03 -0.54329797870E+03  0.11150864787E+04  0.46999998093E+01 0.  1.
</event>
<event>
 5   0  0.5887179E-07  0.2997788E+04  0.7818609E-02  0.8244363E-01
       -1   -1    0    0    0  501  0.00000000000E+00  0.00000000000E+00  0.90910091630E+03  0.90910091631E+03  0.50400001928E-02 0.  1.
        1   -1    0    0  501    0  0.00000000000E+00  0.00000000000E+00 -0.24713245957E+04  0.24713245957E+04  0.50400001928E-02 0. -1.
    10030    2    1    2    0    0  0.00000000000E+00  0.00000000000E+00 -0.15622236794E+04  0.33804255120E+04  0.29977881543E+04 0.  0.
        3    1    3    3  502    0 -0.13567751269E+04 -0.60982356463E+03 -0.57330790978E+03  0.15941786269E+04  0.10100000352E+00 0. -1.
       -3    1    3    3    0  502  0.13567751269E+04  0.60982356463E+03 -0.98891576965E+03  0.17862468851E+04  0.10100000352E+00 0.  1.
</event>
<event>
 5   0  0.5887179E-07  0.2993176E+04  0.7818609E-02  0.8245682E-01
        1   -1    0    0  501    0  0.00000000000E+00  0.00000000000E+00  0.17918871368E+04  0.17918871368E+04  0.50400001928E-02 0.  1.
       -1   -1    0    0    0  501  0.00000000000E+00  0.00000000000E+00 -0.12499532980E+04  0.12499532980E+04  0.50400001928E-02 0. -1.
    10030    2    1    2    0    0  0.00000000000E+00  0.00000000000E+00  0.54193383883E+03  0.30418404349E+04  0.29931757291E+04 0.  0.
        3    1    3    3  502    0  0.24628425012E+03  0.25530980733E+03  0.17485440180E+04  0.17841651333E+04  0.10100000352E+00 0.  1.
       -3    1    3    3    0  502 -0.24628425012E+03 -0.25530980733E+03 -0.12066101792E+04  0.12576753016E+04  0.10100000352E+00 0. -1.
</event>
<event>
 5   0  0.6291798E-07  0.3007980E+04  0.7818609E-02  0.8241456E-01
        1   -1    0    0  501    0  0.00000000000E+00  0.00000000000E+00  0.12511763387E+04  0.12511763387E+04  0.50400001928E-02 0.  1.
       -1   -1    0    0    0  501  0.00000000000E+00  0.00000000000E+00 -0.18078871634E+04  0.18078871634E+04  0.50400001928E-02 0. -1.
    10030    2    1    2    0    0  0.00000000000E+00  0.00000000000E+00 -0.55671082465E+03  0.30590635021E+04  0.30079798150E+04 0.  0.
        1    1    3    3  502    0 -0.83055008504E+03  0.84227013285E+03  0.66626400731E+03  0.13576229771E+04  0.50400001928E-02 0.  1.
       -1    1    3    3    0  502  0.83055008504E+03 -0.84227013285E+03 -0.12229748320E+04  0.17014405250E+04  0.50400001928E-02 0. -1.
</event>
<event>
 5   0  0.1635086E-06  0.2993087E+04  0.7818609E-02  0.8245708E-01
        2   -1    0    0  501    0  0.00000000000E+00  0.00000000000E+00  0.14199934074E+04  0.14199934074E+04  0.25500000920E-02 0. -1.
       -2   -1    0    0    0  501  0.00000000000E+00  0.00000000000E+00 -0.15772200491E+04  0.15772200491E+04  0.25500000920E-02 0.  1.
    10030    2    1    2    0    0  0.00000000000E+00  0.00000000000E+00 -0.15722664169E+03  0.29972134565E+04  0.29930867490E+04 0.  0.
        3    1    3    3  502    0  0.14611935649E+04 -0.72928134520E+02 -0.39406656377E+03  0.15151546501E+04  0.10100000352E+00 0.  1.
       -3    1    3    3    0  502 -0.14611935649E+04  0.72928134520E+02  0.23683992209E+03  0.14820588064E+04  0.10100000352E+00 0. -1.
</event>
<event>
 5   0  0.5431625E-07  0.3002685E+04  0.7818609E-02  0.8242965E-01
       -3   -1    0    0    0  501  0.00000000000E+00  0.00000000000E+00  0.14907957384E+04  0.14907957418E+04  0.10100000352E+00 0.  1.
        3   -1    0    0  501    0  0.00000000000E+00  0.00000000000E+00 -0.15119636682E+04  0.15119636715E+04  0.10100000352E+00 0. -1.
    10030    2    1    2    0    0  0.00000000000E+00  0.00000000000E+00 -0.21167929767E+02  0.30027594134E+04  0.30026848009E+04 0.  0.
        4    1    3    3  502    0 -0.99726333108E+03 -0.96955541629E+03  0.55463405491E+03  0.14973952065E+04  0.12699999809E+01 0.  1.
       -4    1    3    3    0  502  0.99726333108E+03  0.96955541629E+03 -0.57580198468E+03  0.15053642068E+04  0.12699999809E+01 0. -1.
</event>
<event>
 5   0  0.1635086E-06  0.3005193E+04  0.7818609E-02  0.8242249E-01
       -2   -1    0    0    0  501  0.00000000000E+00  0.00000000000E+00  0.26731527884E+04  0.26731527884E+04  0.25500000920E-02 0.  1.
        2   -1    0    0  501    0  0.00000000000E+00  0.00000000000E+00 -0.84461941768E+03  0.84461941768E+03  0.25500000920E-02 0. -1.
    10030    2    1    2    0    0  0.00000000000E+00  0.00000000000E+00  0.18285333707E+04  0.35177722060E+04  0.30051933392E+04 0.  0.
        3    1    3    3  502    0  0.21102596390E+03  0.11916446146E+04 -0.12829019843E+03  0.12169664047E+04  0.10100000352E+00 0. -1.
       -3    1    3    3    0  502 -0.21102596390E+03 -0.11916446146E+04  0.19568235691E+04  0.23008058014E+04  0.10100000352E+00 0.  1.
</event>
<event>
 5   0  0.1560174E-06  0.2949899E+04  0.7818609E-02  0.8258184E-01
        2   -1    0    0  501    0  0.00000000000E+00  0.00000000000E+00  0.11038308087E+04  0.11038308088E+04  0.25500000920E-02 0.  1.
       -2   -1    0    0    0  501  0.00000000000E+00  0.00000000000E+00 -0.19708420634E+04  0.19708420634E+04  0.25500000920E-02 0. -1.
    10030    2    1    2    0    0  0.00000000000E+00  0.00000000000E+00 -0.86701125464E+03  0.30746728721E+04  0.29498991093E+04 0.  0.
        5    1    3    3  502    0  0.35102949488E+03 -0.96951589131E+03  0.66574601872E+03  0.12273640948E+04  0.46999998093E+01 0.  1.
       -5    1    3    3    0  502 -0.35102949488E+03  0.96951589131E+03 -0.15327572734E+04  0.18473087773E+04  0.46999998093E+01 0. -1.
</event>
<event>
 5   0  0.5931588E-07  0.2997102E+04  0.7818609E-02  0.8244559E-01
        1   -1    0    0  501    0  0.00000000000E+00  0.00000000000E+00  0.21248028981E+04  0.21248028981E+04  0.50400001928E-02 0. -1.
       -1   -1    0    0    0  501  0.00000000000E+00  0.00000000000E+00 -0.10568769828E+04  0.10568769828E+04  0.50400001928E-02 0.  1.
    10030    2    1    2    0    0  0.00000000000E+00  0.00000000000E+00  0.10679259153E+04  0.31816798810E+04  0.29971021178E+04 0.  0.
        2    1    3    3  502    0  0.59539387092E+03 -0.92583222304E+03 -0.54551652815E+03  0.12285143260E+04  0.25500000920E-02 0. -1.
       -2    1    3    3    0  502 -0.59539387092E+03  0.92583222304E+03  0.16134424434E+04  0.19531655550E+04  0.25500000920E-02 0.  1.
</event>
<event>
 5   0  0.5874741E-07  0.2963510E+04  0.7818609E-02  0.8254228E-01
       -1   -1    0    0    0  501  0.00000000000E+00  0.00000000000E+00  0.13854484554E+04  0.13854484554E+04  0.50400001928E-02 0.  1.
        1   -1    0    0  501    0  0.00000000000E+00  0.00000000000E+00 -0.15847559463E+04  0.15847559463E+04  0.50400001928E-02 0. -1.
    10030    2    1    2    0    0  0.00000000000E+00  0.00000000000E+00 -0.19930749091E+03  0.29702044018E+04  0.29635098637E+04 0.  0.
        4    1    3    3  502    0 -0.69699573528E+03  0.19492106640E+03  0.11962476673E+04  0.13981442599E+04  0.12699999809E+01 0.  1.
       -4    1    3    3    0  502  0.69699573528E+03 -0.19492106640E+03 -0.13955551582E+04  0.15720601419E+04  0.12699999809E+01 0. -1.
</event>
<event>
 5   0  0.1674806E-06  0.2980019E+04  0.7818609E-02  0.8249460E-01
       -2   -1    0    0    0  501  0.00000000000E+00  0.00000000000E+00  0.14928520291E+04  0.14928520291E+04  0.25500000920E-02 0.  1.
        2   -1    0    0  501    0  0.00000000000E+00  0.00000000000E+00 -0.14871728426E+04  0.14871728426E+04  0.25500000920E-02 0. -1.
    10030    2    1    2    0    0  0.00000000000E+00  0.00000000000E+00  0.56791865109E+01  0.29800248718E+04  0.29800194602E+04 0.  0.
        2    1    3    3  502    0  0.33839188542E+02  0.23858520208E+03  0.14732371105E+04  0.14928146480E+04  0.25500000920E-02 0.  1.
       -2    1    3    3    0  502 -0.33839188542E+02 -0.23858520208E+03 -0.14675579240E+04  0.14872102238E+04  0.25500000920E-02 0. -1.
</event>
<event>
 5   0  0.1635086E-06  0.3024528E+04  0.7818609E-02  0.8236761E-01
       -2   -1    0    0    0  501  0.00000000000E+00  0.00000000000E+00  0.11874039144E+04  0.11874039144E+04  0.25500000920E-02 0.  1.
        2   -1    0    0  501    0  0.00000000000E+00  0.00000000000E+00 -0.19260021978E+04  0.19260021978E+04  0.25500000920E-02 0. -1.
    10030    2    1    2    0    0  0.00000000000E+00  0.00000000000E+00 -0.73859828341E+03  0.31134061122E+04  0.30245280947E+04 0.  0.
        3    1    3    3  502    0  0.24956516029E+02 -0.17322820197E+03 -0.19155419706E+04  0.19235207015E+04  0.10100000352E+00 0. -1.
       -3    1    3    3    0  502 -0.24956516029E+02  0.17322820197E+03  0.11769436872E+04  0.11898854107E+04  0.10100000352E+00 0.  1.
</event>
<event>
 5   0  0.6291798E-07  0.2985475E+04  0.7818609E-02  0.8247891E-01
        1   -1    0    0  501    0  0.00000000000E+00  0.00000000000E+00  0.15740600955E+04  0.15740600955E+04  0.50400001928E-02 0.  1.
       -1   -1    0    0    0  501  0.00000000000E+00  0.00000000000E+00 -0.14156167832E+04  0.14156167832E+04  0.50400001928E-02 0. -1.
    10030    2    1    2    0    0  0.00000000000E+00  0.00000000000E+00  0.15844331230E+03  0.29896768787E+04  0.29854754321E+04 0.  0.
        1    1    3    3  502    0  0.30353937816E+02  0.12713463079E+04  0.86200137173E+03  0.15363232606E+04  0.50400001928E-02 0. -1.
       -1    1    3    3    0  502 -0.30353937816E+02 -0.12713463079E+04 -0.70355805943E+03  0.14533536181E+04  0.50400001928E-02 0.  1.
</event>
<event>
 5   0  0.1560174E-06  0.2997943E+04  0.7818609E-02  0.8244318E-01
       -2   -1    0    0    0  501  0.00000000000E+00  0.00000000000E+00  0.12581106016E+04  0.12581106016E+04  0.25500000920E-02 0. -1.
        2   -1    0    0  501    0  0.00000000000E+00  0.00000000000E+00 -0.17859446805E+04  0.17859446805E+04  0.25500000920E-02 0.  1.
    10030    2    1    2    0    0  0.00000000000E+00  0.00000000000E+00 -0.52783407891E+03  0.30440552822E+04  0.29979432526E+04 0.  0.
        5    1    3    3  502    0  0.45367070637E+03  0.83961129401E+03  0.90977300784E+03  0.13185117560E+04  0.46999998093E+01 0. -1.
       -5    1    3    3    0  502 -0.45367070637E+03 -0.83961129401E+03 -0.14376070868E+04  0.17255435262E+04  0.46999998093E+01 0.  1.
</event>
<event>
 5   0  0.5874741E-07  0.3004496E+04  0.7818609E-02  0.8242448E-01
       -1   -1    0    0    0  501  0.00000000000E+00  0.00000000000E+00  0.11002003743E+04  0.11002003743E+04  0.50400001928E-02 0.  1.
        1   -1    0    0  501    0  0.00000000000E+00  0.00000000000E+00 -0.20512161922E+04  0.20512161922E+04  0.50400001928E-02 0. -1.
    10030    2    1    2    0    0  0.00000000000E+00  0.00000000000E+00 -0.95101581796E+03  0.31514165665E+04  0.30044958462E+04 0.  0.
        4    1    3    3  502    0  0.71478239696E+03 -0.14453276130E+03  0.90208740730E+03  0.11599857315E+04  0.12699999809E+01 0.  1.
       -4    1    3    3    0  502 -0.71478239696E+03  0.14453276130E+03 -0.18531032253E+04  0.19914308350E+04  0.12699999809E+01 0. -1.
</event>
<event>
 5   0  0.5916703E-07  0.3000534E+04  0.7818609E-02  0.8243579E-01
        1   -1    0    0  501    0  0.00000000000E+00  0.00000000000E+00  0.19618374276E+04  0.19618374276E+04  0.50400001928E-02 0. -1.
       -1   -1    0    0    0  501  0.00000000000E+00  0.00000000000E+00 -0.11472920046E+04  0.11472920046E+04  0.50400001928E-02 0.  1.
    10030    2    1    2    0    0  0.00000000000E+00  0.00000000000E+00  0.81454542298E+03  0.31091294322E+04  0.30005335492E+04 0.  0.
        5    1    3    3  502    0  0.66112913310E+03 -0.49095987565E+02 -0.98727266536E+03  0.11892146789E+04  0.46999998093E+01 0.  1.
       -5    1    3    3    0  502 -0.66112913310E+03  0.49095987565E+02  0.18018180883E+04  0.19199147533E+04  0.46999998093E+01 0. -1.
</event>
<event>
 5   0  0.1674806E-06  0.3010649E+04  0.7818609E-02  0.8240696E-01
        2   -1    0    0  501    0  0.00000000000E+00  0.00000000000E+00  0.12936608611E+04  0.12936608611E+04  0.25500000920E-02 0. -1.
       -2   -1    0    0    0  501  0.00000000000E+00  0.00000000000E+00 -0.17516200200E+04  0.17516200200E+04  0.25500000920E-02 0.  1.
    10030    2    1    2    0    0  0.00000000000E+00  0.00000000000E+00 -0.45795915886E+03  0.30452808811E+04  0.30106492745E+04 0.  0.
        2    1    3    3  502    0  0.65312394491E+02  0.50244269218E+03  0.12048194253E+04  0.13070211227E+04  0.25500000920E-02 0. -1.
       -2    1    3    3    0  502 -0.65312394491E+02 -0.50244269218E+03 -0.16627785841E+04  0.17382597584E+04  0.25500000920E-02 0.  1.
</event>
<event>
 5   0  0.6291798E-07  0.2997169E+04  0.7818609E-02  0.8244540E-01
        1   -1    0    0  501    0  0.00000000000E+00  0.00000000000E+00  0.25354070006E+04  0.25354070006E+04  0.50400001928E-02 0.  1.
       -1   -1    0    0    0  501  0.00000000000E+00  0.00000000000E+00 -0.88575747737E+03  0.88575747738E+03  0.50400001928E-02 0. -1.
    10030    2    1    2    0    0  0.00000000000E+00  0.00000000000E+00  0.16496495232E+04  0.34211644780E+04  0.29971691370E+04 0.  0.
        1    1    3    3  502    0  0.63244244386E+03  0.68746680448E+03 -0.51276684913E+03  0.10656096347E+04  0.50400001928E-02 0. -1.
       -1    1    3    3    0  502 -0.63244244386E+03 -0.68746680448E+03  0.21624163723E+04  0.23555548432E+04  0.50400001928E-02 0.  1.
</event>
<event>
 5   0  0.5931588E-07  0.2997080E+04  0.7818609E-02  0.8244565E-01
       -1   -1    0    0    0  501  0.00000000000E+00  0.00000000000E+00  0.10253993119E+04  0.10253993119E+04  0.50400001928E-02 0.  1.
        1   -1    0    0  501    0  0.00000000000E+00  0.00000000000E+00 -0.21899974278E+04  0.21899974278E+04  0.50400001928E-02 0. -1.
    10030    2    1    2    0    0  0.00000000000E+00  0.00000000000E+00 -0.11645981159E+04  0.32153967397E+04  0.29970798158E+04 0.  0.
        2    1    3    3  502    0  0.87707668109E+03  0.14467217832E+03  0.71199115625E+03  0.11389139345E+04  0.25500000920E-02 0.  1.
       -2    1    3    3    0  502 -0.87707668109E+03 -0.14467217832E+03 -0.18765892722E+04  0.20764828051E+04  0.25500000920E-02 0. -1.
</event>
<event>
 5   0  0.1560174E-06  0.2989821E+04  0.7818609E-02  0.8246644E-01
       -2   -1    0    0    0  501  0.00000000000E+00  0.00000000000E+00  0.10344775291E+04  0.10344775291E+04  0.25500000920E-02 0. -1.
        2   -1    0    0  501    0  0.00000000000E+00  0.00000000000E+00 -0.21602759403E+04  0.21602759403E+04  0.25500000920E-02 0.  1.
    10030    2    1    2    0    0  0.00000000000E+00  0.00000000000E+00 -0.11257984112E+04  0.31947534695E+04  0.29898206749E+04 0.  0.
        5    1    3    3  502    0  0.66497600880E+03 -0.69983814206E+02 -0.19915718448E+04  0.21008263445E+04  0.46999998093E+01 0.  1.
       -5    1    3    3    0  502 -0.66497600880E+03  0.69983814206E+02  0.86577343359E+03  0.10939271250E+04  0.46999998093E+01 0. -1.
</event>
<event>
 5   0  0.1625212E-06  0.3034531E+04  0.7818609E-02  0.8233939E-01
       -2   -1    0    0    0  501  0.00000000000E+00  0.00000000000E+00  0.25658008473E+04  0.25658008473E+04  0.25500000920E-02 0. -1.
        2   -1    0    0  501    0  0.00000000000E+00  0.00000000000E+00 -0.89722238070E+03  0.89722238071E+03  0.25500000920E-02 0.  1.
    10030    2    1    2    0    0  0.00000000000E+00  0.00000000000E+00  0.16685784666E+04  0.34630232280E+04  0.30345305697E+04 0.  0.
        4    1    3    3  502    0  0.58285408324E+03 -0.13964705064E+04  0.70801405348E+03  0.16706688093E+04  0.12699999809E+01 0.  1.
       -4    1    3    3    0  502 -0.58285408324E+03  0.13964705064E+04  0.96056441315E+03  0.17923544187E+04  0.12699999809E+01 0. -1.
</event>
<event>
 5   0  0.5931588E-07  0.3002507E+04  0.7818609E-02  0.8243015E-01
        1   -1    0    0  501    0  0.00000000000E+00  0.00000000000E+00  0.17978180673E+04  0.17978180673E+04  0.50400001928E-02 0. -1.
       -1   -1    0    0    0  501  0.00000000000E+00  0.00000000000E+00 -0.12536093931E+04  0.12536093931E+04  0.50400001928E-02 0.  1.
    10030    2    1    2    0    0  0.00000000000E+00  0.00000000000E+00  0.54420867413E+03  0.30514274604E+04  0.30025066969E+04 0.  0.
        2    1    3    3  502    0  0.64511346701E+03  0.12704229335E+04  0.75268944565E+03  0.16114239718E+04  0.25500000920E-02 0. -1.
       -2    1    3    3    0  502 -0.64511346701E+03 -0.12704229335E+04 -0.20848077152E+03  0.14400034886E+04  0.25500000920E-02 0.  1.
</event>
<event>
 5   0  0.5887179E-07  0.2959092E+04  0.7818609E-02  0.8255510E-01
        1   -1    0    0  501    0  0.00000000000E+00  0.00000000000E+00  0.13903633515E+04  0.13903633515E+04  0.50400001928E-02 0.  1.
       -1   -1    0    0    0  501  0.00000000000E+00  0.00000000000E+00 -0.15744495818E+04  0.15744495818E+04  0.50400001928E-02 0. -1.
    10030    2    1    2    0    0  0.00000000000E+00  0.00000000000E+00 -0.18408623027E+03  0.29648129333E+04  0.29590924267E+04 0.  0.
        3    1    3    3  502    0  0.10656931475E+04 -0.10261018807E+04 -0.11376526956E+03  0.14837552025E+04  0.10100000352E+00 0. -1.
       -3    1    3    3    0  502 -0.10656931475E+04  0.10261018807E+04 -0.70320960709E+02  0.14810577308E+04  0.10100000352E+00 0.  1.
</event>
<event>
 5   0  0.5931588E-07  0.3173733E+04  0.7818609E-02  0.8195789E-01
       -1   -1    0    0    0  501  0.00000000000E+00  0.00000000000E+00  0.10995051311E+04  0.10995051311E+04  0.50400001928E-02 0.  1.
        1   -1    0    0  501    0  0.00000000000E+00  0.00000000000E+00 -0.22902534533E+04  0.22902534533E+04  0.50400001928E-02 0. -1.
    10030    2    1    2    0    0  0.00000000000E+00  0.00000000000E+00 -0.11907483221E+04  0.33897585844E+04  0.31737330849E+04 0.  0.
        2    1    3    3  502    0 -0.11393137760E+04  0.50995878018E+03  0.45114131388E+03  0.13272612112E+04  0.25500000920E-02 0.  1.
       -2    1    3    3    0  502  0.11393137760E+04 -0.50995878018E+03 -0.16418896360E+04  0.20624973732E+04  0.25500000920E-02 0. -1.
</event>
<event>
 5   0  0.1635086E-06  0.3007155E+04  0.7818609E-02  0.8241691E-01
       -2   -1    0    0    0  501  0.00000000000E+00  0.00000000000E+00  0.14047741789E+04  0.14047741789E+04  0.25500000920E-02 0.  1.
        2   -1    0    0  501    0  0.00000000000E+00  0.00000000000E+00 -0.16093304856E+04  0.16093304856E+04  0.25500000920E-02 0. -1.
    10030    2    1    2    0    0  0.00000000000E+00  0.00000000000E+00 -0.20455630666E+03  0.30141046645E+04  0.30071554077E+04 0.  0.
        3    1    3    3  502    0  0.99460095772E+03  0.41934656434E+03 -0.11514364343E+04  0.15782548839E+04  0.10100000352E+00 0. -1.
       -3    1    3    3    0  502 -0.99460095772E+03 -0.41934656434E+03  0.94688012763E+03  0.14358497806E+04  0.10100000352E+00 0.  1.
</event>
<event>
 5   0  0.5916703E-07  0.3007197E+04  0.7818609E-02  0.8241679E-01
        1   -1    0    0  501    0  0.00000000000E+00  0.00000000000E+00  0.12246953209E+04  0.12246953209E+04  0.50400001928E-02 0. -1.
       -1   -1    0    0    0  501  0.00000000000E+00  0.00000000000E+00 -0.18460176539E+04  0.18460176539E+04  0.50400001928E-02 0.  1.
    10030    2    1    2    0    0  0.00000000000E+00  0.00000000000E+00 -0.62132233304E+03  0.30707129748E+04  0.30071974881E+04 0.  0.
        5    1    3    3  502    0 -0.85801174008E+03  0.12129226030E+04 -0.54667428913E+03  0.15831109422E+04  0.46999998093E+01 0. -1.
       -5    1    3    3    0  502  0.85801174008E+03 -0.12129226030E+04 -0.74648043911E+02  0.14876020326E+04  0.46999998093E+01 0.  1.
</event>
<event>
 5   0  0.5874741E-07  0.2999791E+04  0.7818609E-02  0.8243791E-01
       -1   -1    0    0    0  501  0.00000000000E+00  0.00000000000E+00  0.15759181347E+04  0.15759181347E+04  0.50400001928E-02 0.  1.
        1   -1    0    0  501    0  0.00000000000E+00  0.00000000000E+00 -0.14275401123E+04  0.14275401123E+04  0.50400001928E-02 0. -1.
    10030    2    1    2    0    0  0.00000000000E+00  0.00000000000E+00  0.14837802247E+03  0.30034582470E+04  0.29997908934E+04 0.  0.
        4    1    3    3  502    0  0.73856549102E+03 -0.87047268185E+03  0.10482519960E+04  0.15498501652E+04  0.12699999809E+01 0.  1.
       -4    1    3    3    0  502 -0.73856549102E+03  0.87047268185E+03 -0.89987397358E+03  0.14536080818E+04  0.12699999809E+01 0. -1.
</event>
<event>
 5   0  0.5887179E-07  0.2998544E+04  0.7818609E-02  0.8244147E-01
       -1   -1    0    0    0  501  0.00000000000E+00  0.00000000000E+00  0.12444870031E+04  0.12444870031E+04  0.50400001928E-02 0.  1.
        1   -1    0    0  501    0  0.00000000000E+00  0.00000000000E+00 -0.18062191323E+04  0.18062191323E+04  0.50400001928E-02 0. -1.
    10030    2    1    2    0    0  0.00000000000E+00  0.00000000000E+00 -0.56173212917E+03  0.30507061355E+04  0.29985438032E+04 0.  0.
        3    1    3    3  502    0 -0.13233304203E+04  0.16830859648E+03 -0.97708386020E+03  0.16535489304E+04  0.10100000352E+00 0. -1.
       -3    1    3    3    0  502  0.13233304203E+04 -0.16830859648E+03  0.41535173103E+03  0.13971572051E+04  0.10100000352E+00 0.  1.
</event>
<event>
 5   0  0.1723916E-06  0.3003749E+04  0.7818609E-02  0.8242661E-01
        2   -1    0    0  501    0  0.00000000000E+00  0.00000000000E+00  0.21478233291E+04  0.21478233291E+04  0.25500000920E-02 0. -1.
       -2   -1    0    0    0  501  0.00000000000E+00  0.00000000000E+00 -0.10501919123E+04  0.10501919123E+04  0.25500000920E-02 0.  1.
    10030    2    1    2    0    0  0.00000000000E+00  0.00000000000E+00  0.10976314169E+04  0.31980152414E+04  0.30037487839E+04 0.  0.
        1    1    3    3  502    0 -0.19779862936E+03  0.92267252268E+03 -0.69515894375E+03  0.11720472853E+04  0.50400001928E-02 0.  1.
       -1    1    3    3    0  502  0.19779862936E+03 -0.92267252268E+03  0.17927903606E+04  0.20259679561E+04  0.50400001928E-02 0. -1.
</event>
<event>
 5   0  0.6291798E-07  0.3012464E+04  0.7818609E-02  0.8240181E-01
        1   -1    0    0  501    0  0.00000000000E+00  0.00000000000E+00  0.17883755893E+04  0.17883755893E+04  0.50400001928E-02 0.  1.
       -1   -1    0    0    0  501  0.00000000000E+00  0.00000000000E+00 -0.12686008561E+04  0.12686008561E+04  0.50400001928E-02 0. -1.
    10030    2    1    2    0    0  0.00000000000E+00  0.00000000000E+00  0.51977473323E+03  0.30569764454E+04  0.30124639772E+04 0.  0.
        1    1    3    3  502    0  0.28524506805E+03 -0.13153158054E+04 -0.42635521407E+03  0.14118070638E+04  0.50400001928E-02 0. -1.
       -1    1    3    3    0  502 -0.28524506805E+03  0.13153158054E+04  0.94612994730E+03  0.16451693816E+04  0.50400001928E-02 0.  1.
</event>
<event>
 5   0  0.1635086E-06  0.3006381E+04  0.7818609E-02  0.8241911E-01
        2   -1    0    0  501    0  0.00000000000E+00  0.00000000000E+00  0.27301095484E+04  0.27301095484E+04  0.25500000920E-02 0.  1.
       -2   -1    0    0    0  501  0.00000000000E+00  0.00000000000E+00 -0.82765263550E+03  0.82765263551E+03  0.25500000920E-02 0. -1.
    10030    2    1    2    0    0  0.00000000000E+00  0.00000000000E+00  0.19024569129E+04  0.35577621839E+04  0.30063814548E+04 0.  0.
        3    1    3    3  502    0  0.10821029685E+04 -0.65572023826E+03 -0.92013164401E+01  0.12653065003E+04  0.10100000352E+00 0. -1.
       -3    1    3    3    0  502 -0.10821029685E+04  0.65572023826E+03  0.19116582293E+04  0.22924556836E+04  0.10100000352E+00 0.  1.
</event>
<event>
 5   0  0.1635086E-06  0.3042083E+04  0.7818609E-02  0.8231815E-01
        2   -1    0    0  501    0  0.00000000000E+00  0.00000000000E+00  0.19763526709E+04  0.19763526709E+04  0.25500000920E-02 0. -1.
       -2   -1    0    0    0  501  0.00000000000E+00  0.00000000000E+00 -0.11706243329E+04  0.11706243329E+04  0.25500000920E-02 0.  1.
    10030    2    1    2    0    0  0.00000000000E+00  0.00000000000E+00  0.80572833803E+03  0.31469770038E+04  0.30420825281E+04 0.  0.
        3    1    3    3  502    0 -0.74158993746E+03 -0.51166228882E+03  0.16706049092E+04  0.18980713121E+04  0.10100000352E+00 0. -1.
       -3    1    3    3    0  502  0.74158993746E+03  0.51166228882E+03 -0.86487657113E+03  0.12489056917E+04  0.10100000352E+00 0.  1.
</event>
<event>
 5   0  0.1625212E-06  0.3002163E+04  0.7818609E-02  0.8243113E-01
       -2   -1    0    0    0  501  0.00000000000E+00  0.00000000000E+00  0.13145597226E+04  0.13145597226E+04  0.25500000920E-02 0. -1.
        2   -1    0    0  501    0  0.00000000000E+00  0.00000000000E+00 -0.17140687245E+04  0.17140687245E+04  0.25500000920E-02 0.  1.
    10030    2    1    2    0    0  0.00000000000E+00  0.00000000000E+00 -0.39950900186E+03  0.30286284471E+04  0.30021630248E+04 0.  0.
        4    1    3    3  502    0 -0.15981624130E+03 -0.13375236584E+04  0.46845406361E+03  0.14261702530E+04  0.12699999809E+01 0.  1.
       -4    1    3    3    0  502  0.15981624130E+03  0.13375236584E+04 -0.86796306547E+03  0.16024581941E+04  0.12699999809E+01 0. -1.
</event>
<event>
 5   0  0.5887179E-07  0.2993811E+04  0.7818609E-02  0.8245501E-01
       -1   -1    0    0    0  501  0.00000000000E+00  0.00000000000E+00  0.19740640796E+04  0.19740640796E+04  0.50400001928E-02 0.  1.
        1   -1    0    0  501    0  0.00000000000E+00  0.00000000000E+00 -0.11350824216E+04  0.11350824216E+04  0.50400001928E-02 0. -1.
    10030    2    1    2    0    0  0.00000000000E+00  0.00000000000E+00  0.83898165801E+03  0.31091465012E+04  0.29938105724E+04 0.  0.
        3    1    3    3  502    0  0.39326401236E+02 -0.39388909864E+03 -0.10797412854E+04  0.11500158440E+04  0.10100000352E+00 0. -1.
       -3    1    3    3    0  502 -0.39326401236E+02  0.39388909864E+03  0.19187229435E+04  0.19591306572E+04  0.10100000352E+00 0.  1.
</event>
<event>
 5   0  0.1625212E-06  0.3019362E+04  0.7818609E-02  0.8238223E-01
        2   -1    0    0  501    0  0.00000000000E+00  0.00000000000E+00  0.19827861659E+04  0.19827861659E+04  0.25500000920E-02 0. -1.
       -2   -1    0    0    0  501  0.00000000000E+00  0.00000000000E+00 -0.11494619435E+04  0.11494619435E+04  0.25500000920E-02 0.  1.
    10030    2    1    2    0    0  0.00000000000E+00  0.00000000000E+00  0.83332422236E+03  0.31322481094E+04  0.30193623432E+04 0.  0.
        4    1    3    3  502    0 -0.46812635251E+03  0.40883511260E+03 -0.10105834449E+04  0.11864101075E+04  0.12699999809E+01 0.  1.
       -4    1    3    3    0  502  0.46812635251E+03 -0.40883511260E+03  0.18439076673E+04  0.19458380019E+04  0.12699999809E+01 0. -1.
</event>
<event>
 5   0  0.5916703E-07  0.2998879E+04  0.7818609E-02  0.8244051E-01
        1   -1    0    0  501    0  0.00000000000E+00  0.00000000000E+00  0.30345311918E+04  0.30345311918E+04  0.50400001928E-02 0.  1.
       -1   -1    0    0    0  501  0.00000000000E+00  0.00000000000E+00 -0.74091141389E+03  0.74091141390E+03  0.50400001928E-02 0. -1.
    10030    2    1    2    0    0  0.00000000000E+00  0.00000000000E+00  0.22936197779E+04  0.37754426057E+04  0.29988789878E+04 0.  0.
        5    1    3    3  502    0  0.65960249166E+02 -0.60105524233E+03 -0.58060643049E+03  0.83829832156E+03  0.46999998093E+01 0. -1.
       -5    1    3    3    0  502 -0.65960249166E+02  0.60105524233E+03  0.28742262084E+04  0.29371442841E+04  0.46999998093E+01 0.  1.
</event>
<event>
 5   0  0.1723916E-06  0.2996988E+04  0.7818609E-02  0.8244591E-01
       -2   -1    0    0    0  501  0.00000000000E+00  0.00000000000E+00  0.15146139578E+04  0.15146139578E+04  0.25500000920E-02 0.  1.
        2   -1    0    0  501    0  0.00000000000E+00  0.00000000000E+00 -0.14825459930E+04  0.14825459930E+04  0.25500000920E-02 0. -1.
    10030    2    1    2    0    0  0.00000000000E+00  0.00000000000E+00  0.32067964804E+02  0.29971599508E+04  0.29969883911E+04 0.  0.
        1    1    3    3  502    0 -0.11257014590E+04  0.94382542131E+03 -0.27974409040E+03  0.14954153125E+04  0.50400001928E-02 0.  1.
       -1    1    3    3    0  502  0.11257014590E+04 -0.94382542131E+03  0.31181205521E+03  0.15017446383E+04  0.50400001928E-02 0. -1.
</event>
<event>
 5   0  0.5931588E-07  0.3007388E+04  0.7818609E-02  0.8241624E-01
        1   -1    0    0  501    0  0.00000000000E+00  0.00000000000E+00  0.16269474834E+04  0.16269474834E+04  0.50400001928E-02 0. -1.
       -1   -1    0    0    0  501  0.00000000000E+00  0.00000000000E+00 -0.13897779800E+04  0.13897779800E+04  0.50400001928E-02 0.  1.
    10030    2    1    2    0    0  0.00000000000E+00  0.00000000000E+00  0.23716950337E+03  0.30167254634E+04  0.30073880940E+04 0.  0.
        2    1    3    3  502    0 -0.33895511200E+03 -0.12583133175E+04  0.87114926198E+03  0.15675279933E+04  0.25500000920E-02 0. -1.
       -2    1    3    3    0  502  0.33895511200E+03  0.12583133175E+04 -0.63397975861E+03  0.14491974701E+04  0.25500000920E-02 0.  1.
</event>
<event>
 5   0  0.1560174E-06  0.2977899E+04  0.7818609E-02  0.8250070E-01
       -2   -1    0    0    0  501  0.00000000000E+00  0.00000000000E+00  0.12636415548E+04  0.12636415548E+04  0.25500000920E-02 0.  1.
        2   -1    0    0  501    0  0.00000000000E+00  0.00000000000E+00 -0.17544303203E+04  0.17544303203E+04  0.25500000920E-02 0. -1.
    10030    2    1    2    0    0  0.00000000000E+00  0.00000000000E+00 -0.49078876550E+03  0.30180718751E+04  0.29778992983E+04 0.  0.
        5    1    3    3  502    0 -0.79721336506E+03 -0.12561438219E+04 -0.30537483007E+03  0.15187897575E+04  0.46999998093E+01 0.  1.
       -5    1    3    3    0  502  0.79721336506E+03  0.12561438219E+04 -0.18541393543E+03  0.14992821176E+04  0.46999998093E+01 0. -1.
</event>
<event>
 5   0  0.5887179E-07  0.3018186E+04  0.7818609E-02  0.8238557E-01
        1   -1    0    0  501    0  0.00000000000E+00  0.00000000000E+00  0.15181205372E+04  0.15181205373E+04  0.50400001928E-02 0.  1.
       -1   -1    0    0    0  501  0.00000000000E+00  0.00000000000E+00 -0.15001189160E+04  0.15001189160E+04  0.50400001928E-02 0. -1.
    10030    2    1    2    0    0  0.00000000000E+00  0.00000000000E+00  0.18001621251E+02  0.30182394533E+04  0.30181857694E+04 0.  0.
        3    1    3    3  502    0  0.63015994358E+03  0.12557601716E+04 -0.54175952926E+03  0.15058348385E+04  0.10100000352E+00 0. -1.
       -3    1    3    3    0  502 -0.63015994358E+03 -0.12557601716E+04  0.55976115051E+03  0.15124046148E+04  0.10100000352E+00 0.  1.
</event>
<event>
 5   0  0.5887179E-07  0.3008741E+04  0.7818609E-02  0.8241239E-01
       -1   -1    0    0    0  501  0.00000000000E+00  0.00000000000E+00  0.10775533863E+04  0.10775533863E+04  0.50400001928E-02 0. -1.
        1   -1    0    0  501    0  0.00000000000E+00  0.00000000000E+00 -0.21002498003E+04  0.21002498004E+04  0.50400001928E-02 0.  1.
    10030    2    1    2    0    0  0.00000000000E+00  0.00000000000E+00 -0.10226964141E+04  0.31778031867E+04  0.30087414541E+04 0.  0.
        3    1    3    3  502    0  0.14557431074E+04 -0.11943614925E+03 -0.13100491886E+03  0.14664976262E+04  0.10100000352E+00 0. -1.
       -3    1    3    3    0  502 -0.14557431074E+04  0.11943614925E+03 -0.89169149520E+03  0.17113055605E+04  0.10100000352E+00 0.  1.
</event>
<event>
 5   0  0.5431625E-07  0.3006542E+04  0.7818609E-02  0.8241865E-01
       -3   -1    0    0    0  501  0.00000000000E+00  0.00000000000E+00  0.11495192365E+04  0.11495192409E+04  0.10100000352E+00 0. -1.
        3   -1    0    0  501    0  0.00000000000E+00  0.00000000000E+00 -0.19658864846E+04  0.19658864872E+04  0.10100000352E+00 0.  1.
    10030    2    1    2    0    0  0.00000000000E+00  0.00000000000E+00 -0.81636724808E+03  0.31154057281E+04  0.30065424273E+04 0.  0.
        3    1    3    3  502    0 -0.52452461804E+03 -0.12206796014E+04  0.32058841912E+03  0.13667339569E+04  0.10100000352E+00 0. -1.
       -3    1    3    3    0  502  0.52452461804E+03  0.12206796014E+04 -0.11369556672E+04  0.17486717712E+04  0.10100000352E+00 0.  1.
</event>
<event>
 5   0  0.5887179E-07  0.2972519E+04  0.7818609E-02  0.8251622E-01
       -1   -1    0    0    0  501  0.00000000000E+00  0.00000000000E+00  0.11025909328E+04  0.11025909328E+04  0.50400001928E-02 0.  1.
        1   -1    0    0  501    0  0.00000000000E+00  0.00000000000E+00 -0.20034337238E+04  0.20034337238E+04  0.50400001928E-02 0. -1.
    10030    2    1    2    0    0  0.00000000000E+00  0.00000000000E+00 -0.90084279099E+03  0.31060246566E+04  0.29725193747E+04 0.  0.
        3    1    3    3  502    0  0.12424127939E+04  0.80664884643E+02  0.39774401549E+03  0.13070182424E+04  0.10100000352E+00 0.  1.
       -3    1    3    3    0  502 -0.12424127939E+04 -0.80664884643E+02 -0.12985868065E+04  0.17990064141E+04  0.10100000352E+00 0. -1.
</event>
<event>
 5   0  0.5931588E-07  0.3033686E+04  0.7818609E-02  0.8234176E-01
       -1   -1    0    0    0  501  0.00000000000E+00  0.00000000000E+00  0.11293582654E+04  0.11293582654E+04  0.50400001928E-02 0. -1.
        1   -1    0    0  501    0  0.00000000000E+00  0.00000000000E+00 -0.20372746489E+04  0.20372746489E+04  0.50400001928E-02 0.  1.
    10030    2    1    2    0    0  0.00000000000E+00  0.00000000000E+00 -0.90791638351E+03  0.31666329143E+04  0.30336861826E+04 0.  0.
        2    1    3    3  502    0  0.49296147751E+03  0.17754037332E+03 -0.19398149462E+04  0.20093316371E+04  0.25500000920E-02 0.  1.
       -2    1    3    3    0  502 -0.49296147751E+03 -0.17754037332E+03  0.10318985627E+04  0.11573012772E+04  0.25500000920E-02 0. -1.
</event>
<event>
 5   0  0.5916703E-07  0.3002580E+04  0.7818609E-02  0.8242995E-01
       -1   -1    0    0    0  501  0.00000000000E+00  0.00000000000E+00  0.13224469462E+04  0.13224469462E+04  0.50400001928E-02 0. -1.
        1   -1    0    0  501    0  0.00000000000E+00  0.00000000000E+00 -0.17043192771E+04  0.17043192771E+04  0.50400001928E-02 0.  1.
    10030    2    1    2    0    0  0.00000000000E+00  0.00000000000E+00 -0.38187233096E+03  0.30267662233E+04  0.30025801061E+04 0.  0.
        5    1    3    3  502    0 -0.26572505027E+03  0.35344719264E+03  0.12553032614E+04  0.13309181374E+04  0.46999998093E+01 0. -1.
       -5    1    3    3    0  502  0.26572505027E+03 -0.35344719264E+03 -0.16371755924E+04  0.16958480859E+04  0.46999998093E+01 0.  1.
</event>
<event>
 5   0  0.1560174E-06  0.2994191E+04  0.7818609E-02  0.8245392E-01
       -2   -1    0    0    0  501  0.00000000000E+00  0.00000000000E+00  0.13630210308E+04  0.13630210308E+04  0.25500000920E-02 0. -1.
        2   -1    0    0  501    0  0.00000000000E+00  0.00000000000E+00 -0.16443579139E+04  0.16443579139E+04  0.25500000920E-02 0.  1.
    10030    2    1    2    0    0  0.00000000000E+00  0.00000000000E+00 -0.28133688304E+03  0.30073789447E+04  0.29941906545E+04 0.  0.
        5    1    3    3  502    0 -0.81538034650E+03  0.33645128690E+03  0.10742990810E+04  0.13900306412E+04  0.46999998093E+01 0. -1.
       -5    1    3    3    0  502  0.81538034650E+03 -0.33645128690E+03 -0.13556359641E+04  0.16173483035E+04  0.46999998093E+01 0.  1.
</event>
<event>
 5   0  0.5916703E-07  0.3001413E+04  0.7818609E-02  0.8243327E-01
        1   -1    0    0  501    0  0.00000000000E+00  0.00000000000E+00  0.13327277072E+04  0.13327277072E+04  0.50400001928E-02 0. -1.
       -1   -1    0    0    0  501  0.00000000000E+00  0.00000000000E+00 -0.16898581131E+04  0.16898581131E+04  0.50400001928E-02 0.  1.
    10030    2    1    2    0    0  0.00000000000E+00  0.00000000000E+00 -0.35713040585E+03  0.30225858203E+04  0.30014134861E+04 0.  0.
        5    1    3    3  502    0 -0.52700888098E+03  0.13026093804E+04 -0.70912990583E+03  0.15739812171E+04  0.46999998093E+01 0.  1.
       -5    1    3    3    0  502  0.52700888098E+03 -0.13026093804E+04  0.35199949998E+03  0.14486046032E+04  0.46999998093E+01 0. -1.
</event>
<event>
 5   0  0.1723916E-06  0.2984920E+04  0.7818609E-02  0.8248050E-01
       -2   -1    0    0    0  501  0.00000000000E+00  0.00000000000E+00  0.12117373967E+04  0.12117373967E+04  0.25500000920E-02 0. -1.
        2   -1    0    0  501    0  0.00000000000E+00  0.00000000000E+00 -0.18382175582E+04  0.18382175582E+04  0.25500000920E-02 0.  1.
    10030    2    1    2    0    0  0.00000000000E+00  0.00000000000E+00 -0.62648016147E+03  0.30499549549E+04  0.29849200717E+04 0.  0.
        1    1    3    3  502    0 -0.63733453991E+02 -0.14461852406E+04  0.57885934367E+02  0.14487458316E+04  0.50400001928E-02 0. -1.
       -1    1    3    3    0  502  0.63733453991E+02  0.14461852406E+04 -0.68436609584E+03  0.16012091233E+04  0.50400001928E-02 0.  1.
</event>
<event>
 5   0  0.6291798E-07  0.3011618E+04  0.7818609E-02  0.8240421E-01
        1   -1    0    0  501    0  0.00000000000E+00  0.00000000000E+00  0.20453183963E+04  0.20453183963E+04  0.50400001928E-02 0.  1.
       -1   -1    0    0    0  501  0.00000000000E+00  0.00000000000E+00 -0.11086101760E+04  0.11086101760E+04  0.50400001928E-02 0. -1.
    10030    2    1    2    0    0  0.00000000000E+00  0.00000000000E+00  0.93670822027E+03  0.31539285723E+04  0.30116180285E+04 0.  0.
        1    1    3    3  502    0  0.34554916316E+03  0.69011207078E+03  0.18224342599E+04  0.19791224131E+04  0.50400001928E-02 0.  1.
       -1    1    3    3    0  502 -0.34554916316E+03 -0.69011207078E+03 -0.88572603963E+03  0.11748061592E+04  0.50400001928E-02 0. -1.
</event>
<event>
 5   0  0.1625212E-06  0.2996785E+04  0.7818609E-02  0.8244650E-01
       -2   -1    0    0    0  501  0.00000000000E+00  0.00000000000E+00  0.13786524045E+04  0.13786524045E+04  0.25500000920E-02 0. -1.
        2   -1    0    0  501    0  0.00000000000E+00  0.00000000000E+00 -0.16285324244E+04  0.16285324244E+04  0.25500000920E-02 0.  1.
    10030    2    1    2    0    0  0.00000000000E+00  0.00000000000E+00 -0.24988001984E+03  0.30071848289E+04  0.29967850392E+04 0.  0.
        4    1    3    3  502    0 -0.19958841031E+03 -0.10965154736E+04 -0.11299128068E+04  0.15870999595E+04  0.12699999809E+01 0.  1.
       -4    1    3    3    0  502  0.19958841031E+03  0.10965154736E+04  0.88003278698E+03  0.14200848695E+04  0.12699999809E+01 0. -1.
</event>
<event>
 5   0  0.1635086E-06  0.2993002E+04  0.7818609E-02  0.8245732E-01
       -2   -1    0    0    0  501  0.00000000000E+00  0.00000000000E+00  0.10728888294E+04  0.10728888294E+04  0.25500000920E-02 0. -1.
        2   -1    0    0  501    0  0.00000000000E+00  0.00000000000E+00 -0.20873693102E+04  0.20873693102E+04  0.25500000920E-02 0.  1.
    10030    2    1    2    0    0  0.00000000000E+00  0.00000000000E+00 -0.10144804808E+04  0.31602581396E+04  0.29930019818E+04 0.  0.
        3    1    3    3  502    0  0.79408016586E+02 -0.99891796794E+03  0.66634465937E+03  0.12033943473E+04  0.10100000352E+00 0. -1.
       -3    1    3    3    0  502 -0.79408016586E+02  0.99891796794E+03 -0.16808251401E+04  0.19568637923E+04  0.10100000352E+00 0.  1.
</event>
<event>
 5   0  0.5887179E-07  0.2995875E+04  0.7818609E-02  0.8244910E-01
        1   -1    0    0  501    0  0.00000000000E+00  0.00000000000E+00  0.18056507962E+04  0.18056507962E+04  0.50400001928E-02 0.  1.
       -1   -1    0    0    0  501  0.00000000000E+00  0.00000000000E+00 -0.12426637673E+04  0.12426637673E+04  0.50400001928E-02 0. -1.
    10030    2    1    2    0    0  0.00000000000E+00  0.00000000000E+00  0.56298702897E+03  0.30483145635E+04  0.29958750447E+04 0.  0.
        3    1    3    3  502    0 -0.53048723514E+03 -0.24084489205E+03  0.16856466362E+04  0.17834874715E+04  0.10100000352E+00 0.  1.
       -3    1    3    3    0  502  0.53048723514E+03  0.24084489205E+03 -0.11226596073E+04  0.12648270920E+04  0.10100000352E+00 0. -1.
</event>
<event>
 5   0  0.5916703E-07  0.3002674E+04  0.7818609E-02  0.8242968E-01
        1   -1    0    0  501    0  0.00000000000E+00  0.00000000000E+00  0.75444358333E+03  0.75444358334E+03  0.50400001928E-02 0.  1.
       -1   -1    0    0    0  501  0.00000000000E+00  0.00000000000E+00 -0.29876482516E+04  0.29876482516E+04  0.50400001928E-02 0. -1.
    10030    2    1    2    0    0  0.00000000000E+00  0.00000000000E+00 -0.22332046683E+04  0.37420918350E+04  0.30026735105E+04 0.  0.
        5    1    3    3  502    0 -0.96538758431E+03  0.10884861528E+04 -0.65495896575E+03  0.15955464988E+04  0.46999998093E+01 0. -1.
       -5    1    3    3    0  502  0.96538758431E+03 -0.10884861528E+04 -0.15782457026E+04  0.21465453362E+04  0.46999998093E+01 0.  1.
</event>
<event>
 5   0  0.5874741E-07  0.3017405E+04  0.7818609E-02  0.8238778E-01
        1   -1    0    0  501    0  0.00000000000E+00  0.00000000000E+00  0.93725299088E+03  0.93725299089E+03  0.50400001928E-02 0. -1.
       -1   -1    0    0    0  501  0.00000000000E+00  0.00000000000E+00 -0.24285681243E+04  0.24285681243E+04  0.50400001928E-02 0.  1.
    10030    2    1    2    0    0  0.00000000000E+00  0.00000000000E+00 -0.14913151334E+04  0.33658211152E+04  0.30174046716E+04 0.  0.
        4    1    3    3  502    0  0.77061986942E+03 -0.67217506892E+03  0.49171215462E+03  0.11346615188E+04  0.12699999809E+01 0. -1.
       -4    1    3    3    0  502 -0.77061986942E+03  0.67217506892E+03 -0.19830272880E+04  0.22311595963E+04  0.12699999809E+01 0.  1.
</event>
<event>
 5   0  0.1560174E-06  0.3007592E+04  0.7818609E-02  0.8241566E-01
        2   -1    0    0  501    0  0.00000000000E+00  0.00000000000E+00  0.20632464257E+04  0.20632464257E+04  0.25500000920E-02 0. -1.
       -2   -1    0    0    0  501  0.00000000000E+00  0.00000000000E+00 -0.10960405345E+04  0.10960405345E+04  0.25500000920E-02 0.  1.
    10030    2    1    2    0    0  0.00000000000E+00  0.00000000000E+00  0.96720589120E+03  0.31592869603E+04  0.30075915383E+04 0.  0.
        5    1    3    3  502    0 -0.51027285024E+03 -0.55548901426E+03 -0.88294850844E+03  0.11612779965E+04  0.46999998093E+01 0.  1.
       -5    1    3    3    0  502  0.51027285024E+03  0.55548901426E+03  0.18501543996E+04  0.19980089637E+04  0.46999998093E+01 0. -1.
</event>
<event>
 5   0  0.1674806E-06  0.3000008E+04  0.7818609E-02  0.8243729E-01
       -2   -1    0    0    0  501  0.00000000000E+00  0.00000000000E+00  0.79456037930E+03  0.79456037931E+03  0.25500000920E-02 0.  1.
        2   -1    0    0  501    0  0.00000000000E+00  0.00000000000E+00 -0.28317699423E+04  0.28317699423E+04  0.25500000920E-02 0. -1.
    10030    2    1    2    0    0  0.00000000000E+00  0.00000000000E+00 -0.20372095630E+04  0.36263303216E+04  0.30000081330E+04 0.  0.
        2    1    3    3  502    0  0.10305791385E+04  0.10866117109E+04 -0.11211286460E+04  0.18707612920E+04  0.25500000920E-02 0. -1.
       -2    1    3    3    0  502 -0.10305791385E+04 -0.10866117109E+04 -0.91608091703E+03  0.17555690296E+04  0.25500000920E-02 0.  1.
</event>
<event>
 5   0  0.1635086E-06  0.2996487E+04  0.7818609E-02  0.8244735E-01
       -2   -1    0    0    0  501  0.00000000000E+00  0.00000000000E+00  0.13426270323E+04  0.13426270323E+04  0.25500000920E-02 0. -1.
        2   -1    0    0  501    0  0.00000000000E+00  0.00000000000E+00 -0.16718961107E+04  0.16718961107E+04  0.25500000920E-02 0.  1.
    10030    2    1    2    0    0  0.00000000000E+00  0.00000000000E+00 -0.32926907842E+03  0.30145231430E+04  0.29964865516E+04 0.  0.
        3    1    3    3  502    0 -0.98066625685E+02 -0.61982790600E+02 -0.16673707078E+04  0.16714018119E+04  0.10100000352E+00 0.  1.
       -3    1    3    3    0  502  0.98066625685E+02  0.61982790600E+02  0.13381016294E+04  0.13431213311E+04  0.10100000352E+00 0. -1.
</event>
<event>
 5   0  0.1674806E-06  0.3000598E+04  0.7818609E-02  0.8243560E-01
       -2   -1    0    0    0  501  0.00000000000E+00  0.00000000000E+00  0.12932331175E+04  0.12932331175E+04  0.25500000920E-02 0. -1.
        2   -1    0    0  501    0  0.00000000000E+00  0.00000000000E+00 -0.17405188697E+04  0.17405188697E+04  0.25500000920E-02 0.  1.
    10030    2    1    2    0    0  0.00000000000E+00  0.00000000000E+00 -0.44728575222E+03  0.30337519872E+04  0.30005977030E+04 0.  0.
        2    1    3    3  502    0 -0.33477895088E+03 -0.10252038972E+04  0.83084640812E+03  0.13614057921E+04  0.25500000920E-02 0. -1.
       -2    1    3    3    0  502  0.33477895088E+03  0.10252038972E+04 -0.12781321603E+04  0.16723461951E+04  0.25500000920E-02 0.  1.
</event>
<event>
 5   0  0.1635086E-06  0.2883033E+04  0.7818609E-02  0.8277944E-01
        2   -1    0    0  501    0  0.00000000000E+00  0.00000000000E+00  0.14331563696E+04  0.14331563696E+04  0.25500000920E-02 0. -1.
       -2   -1    0    0    0  501  0.00000000000E+00  0.00000000000E+00 -0.14499251486E+04  0.14499251486E+04  0.25500000920E-02 0.  1.
    10030    2    1    2    0    0  0.00000000000E+00  0.00000000000E+00 -0.16768779015E+02  0.28830815181E+04  0.28830327518E+04 0.  0.
        3    1    3    3  502    0  0.55289607668E+03 -0.42153568641E+03 -0.12711737584E+04  0.14488854823E+04  0.10100000352E+00 0.  1.
       -3    1    3    3    0  502 -0.55289607668E+03  0.42153568641E+03  0.12544049794E+04  0.14341960358E+04  0.10100000352E+00 0. -1.
</event>
<event>
 5   0  0.1560174E-06  0.3002484E+04  0.7818609E-02  0.8243022E-01
        2   -1    0    0  501    0  0.00000000000E+00  0.00000000000E+00  0.19760153479E+04  0.19760153479E+04  0.25500000920E-02 0. -1.
       -2   -1    0    0    0  501  0.00000000000E+00  0.00000000000E+00 -0.11405413463E+04  0.11405413463E+04  0.25500000920E-02 0.  1.
    10030    2    1    2    0    0  0.00000000000E+00  0.00000000000E+00  0.83547400159E+03  0.31165566942E+04  0.30024837753E+04 0.  0.
        5    1    3    3  502    0  0.44600454884E+03 -0.14244478629E+04  0.58424782538E+03  0.16029159002E+04  0.46999998093E+01 0. -1.
       -5    1    3    3    0  502 -0.44600454884E+03  0.14244478629E+04  0.25122617620E+03  0.15136407940E+04  0.46999998093E+01 0.  1.
</event>
<event>
 5   0  0.1625212E-06  0.2996048E+04  0.7818609E-02  0.8244860E-01
        2   -1    0    0  501    0  0.00000000000E+00  0.00000000000E+00  0.21819566762E+04  0.21819566762E+04  0.25500000920E-02 0.  1.
       -2   -1    0    0    0  501  0.00000000000E+00  0.00000000000E+00 -0.10284692221E+04  0.10284692221E+04  0.25500000920E-02 0. -1.
    10030    2    1    2    0    0  0.00000000000E+00  0.00000000000E+00  0.11534874541E+04  0.32104258984E+04  0.29960475867E+04 0.  0.
        4    1    3    3  502    0  0.10561779662E+04  0.30139696529E+03  0.16683207387E+04  0.19974102551E+04  0.12699999809E+01 0.  1.
       -4    1    3    3    0  502 -0.10561779662E+04 -0.30139696529E+03 -0.51483328460E+03  0.12130156433E+04  0.12699999809E+01 0. -1.
</event>
<event>
 5   0  0.1625212E-06  0.3003612E+04  0.7818609E-02  0.8242700E-01
        2   -1    0    0  501    0  0.00000000000E+00  0.00000000000E+00  0.19065859668E+04  0.19065859668E+04  0.25500000920E-02 0.  1.
       -2   -1    0    0    0  501  0.00000000000E+00  0.00000000000E+00 -0.11829634020E+04  0.11829634020E+04  0.25500000920E-02 0. -1.
    10030    2    1    2    0    0  0.00000000000E+00  0.00000000000E+00  0.72362256483E+03  0.30895493688E+04  0.30036121065E+04 0.  0.
        4    1    3    3  502    0 -0.88253152290E+03  0.12060174635E+04  0.20896712751E+03  0.15089761047E+04  0.12699999809E+01 0. -1.
       -4    1    3    3    0  502  0.88253152290E+03 -0.12060174635E+04  0.51465543732E+03  0.15805732641E+04  0.12699999809E+01 0.  1.
</event>
<event>
 5   0  0.6291798E-07  0.2984638E+04  0.7818609E-02  0.8248131E-01
       -1   -1    0    0    0  501  0.00000000000E+00  0.00000000000E+00  0.11291365388E+04  0.11291365388E+04  0.50400001928E-02 0. -1.
        1   -1    0    0  501    0  0.00000000000E+00  0.00000000000E+00 -0.19723173044E+04  0.19723173044E+04  0.50400001928E-02 0.  1.
    10030    2    1    2    0    0  0.00000000000E+00  0.00000000000E+00 -0.84318076563E+03  0.31014538432E+04  0.29846376896E+04 0.  0.
        1    1    3    3  502    0  0.12315553139E+04  0.73157497885E+03 -0.85639914751E+03  0.16689367695E+04  0.50400001928E-02 0.  1.
       -1    1    3    3    0  502 -0.12315553139E+04 -0.73157497885E+03  0.13218381878E+02  0.14325170737E+04  0.50400001928E-02 0. -1.
</event>
<event>
 5   0  0.1674806E-06  0.3011153E+04  0.7818609E-02  0.8240553E-01
       -2   -1    0    0    0  501  0.00000000000E+00  0.00000000000E+00  0.16578728393E+04  0.16578728393E+04  0.25500000920E-02 0.  1.
        2   -1    0    0  501    0  0.00000000000E+00  0.00000000000E+00 -0.13672703704E+04  0.13672703704E+04  0.25500000920E-02 0. -1.
    10030    2    1    2    0    0  0.00000000000E+00  0.00000000000E+00  0.29060246898E+03  0.30251432097E+04  0.30111528762E+04 0.  0.
        2    1    3    3  502    0 -0.37139821473E+03 -0.13895049774E+04  0.59245308962E+03  0.15555260781E+04  0.25500000920E-02 0.  1.
       -2    1    3    3    0  502  0.37139821473E+03  0.13895049774E+04 -0.30185062065E+03  0.14696171316E+04  0.25500000920E-02 0. -1.
</event>
<event>
 5   0  0.5916703E-07  0.2999418E+04  0.7818609E-02  0.8243897E-01
       -1   -1    0    0    0  501  0.00000000000E+00  0.00000000000E+00  0.17523481933E+04  0.17523481933E+04  0.50400001928E-02 0. -1.
        1   -1    0    0  501    0  0.00000000000E+00  0.00000000000E+00 -0.12834934430E+04  0.12834934430E+04  0.50400001928E-02 0.  1.
    10030    2    1    2    0    0  0.00000000000E+00  0.00000000000E+00  0.46885475035E+03  0.30358416363E+04  0.29994182209E+04 0.  0.
        5    1    3    3  502    0 -0.11739359838E+04  0.85841519076E+03 -0.13622033540E+03  0.14606780629E+04  0.46999998093E+01 0.  1.
       -5    1    3    3    0  502  0.11739359838E+04 -0.85841519076E+03  0.60507508576E+03  0.15751635734E+04  0.46999998093E+01 0. -1.
</event>
<event>
 5   0  0.5874741E-07  0.3002196E+04  0.7818609E-02  0.8243104E-01
       -1   -1    0    0    0  501  0.00000000000E+00  0.00000000000E+00  0.14707763995E+04  0.14707763995E+04  0.50400001928E-02 0. -1.
        1   -1    0    0  501    0  0.00000000000E+00  0.00000000000E+00 -0.15320442606E+04  0.15320442606E+04  0.50400001928E-02 0.  1.
    10030    2    1    2    0    0  0.00000000000E+00  0.00000000000E+00 -0.61267861089E+02  0.30028206602E+04  0.30021955576E+04 0.  0.
        4    1    3    3  502    0 -0.38263377996E+03  0.14013402222E+02 -0.14823795431E+04  0.15310309297E+04  0.12699999809E+01 0.  1.
       -4    1    3    3    0  502  0.38263377996E+03 -0.14013402222E+02  0.14211116820E+04  0.14717897305E+04  0.12699999809E+01 0. -1.
</event>
<event>
 5   0  0.5916703E-07  0.3000999E+04  0.7818609E-02  0.8243446E-01
        1   -1    0    0  501    0  0.00000000000E+00  0.00000000000E+00  0.18269513603E+04  0.18269513603E+04  0.50400001928E-02 0.  1.
       -1   -1    0    0    0  501  0.00000000000E+00  0.00000000000E+00 -0.12323803298E+04  0.12323803298E+04  0.50400001928E-02 0. -1.
    10030    2    1    2    0    0  0.00000000000E+00  0.00000000000E+00  0.59457103051E+03  0.30593316901E+04  0.30009991136E+04 0.  0.
        5    1    3    3  502    0  0.76861326692E+03  0.40183391506E+03 -0.95094925464E+03  0.12870755317E+04  0.46999998093E+01 0. -1.
       -5    1    3    3    0  502 -0.76861326692E+03 -0.40183391506E+03  0.15455202852E+04  0.17722561585E+04  0.46999998093E+01 0.  1.
</event>
<event>
 5   0  0.1723916E-06  0.3048297E+04  0.7818609E-02  0.8230072E-01
        2   -1    0    0  501    0  0.00000000000E+00  0.00000000000E+00  0.23703400961E+04  0.23703400961E+04  0.25500000920E-02 0. -1.
       -2   -1    0    0    0  501  0.00000000000E+00  0.00000000000E+00 -0.98003997050E+03  0.98003997050E+03  0.25500000920E-02 0.  1.
    10030    2    1    2    0    0  0.00000000000E+00  0.00000000000E+00  0.13903001256E+04  0.33503800666E+04  0.30482965983E+04 0.  0.
        1    1    3    3  502    0 -0.22387261267E+03 -0.39574469076E+03 -0.90376348111E+03  0.10116922639E+04  0.50400001928E-02 0.  1.
       -1    1    3    3    0  502  0.22387261267E+03  0.39574469076E+03  0.22940636067E+04  0.23386878027E+04  0.50400001928E-02 0. -1.
</event>
<event>
 5   0  0.1635086E-06  0.3001509E+04  0.7818609E-02  0.8243300E-01
       -2   -1    0    0    0  501  0.00000000000E+00  0.00000000000E+00  0.76780171939E+03  0.76780171939E+03  0.25500000920E-02 0. -1.
        2   -1    0    0  501    0  0.00000000000E+00  0.00000000000E+00 -0.29333934852E+04  0.29333934852E+04  0.25500000920E-02 0.  1.
    10030    2    1    2    0    0  0.00000000000E+00  0.00000000000E+00 -0.21655917658E+04  0.37011952046E+04  0.30015093280E+04 0.  0.
        3    1    3    3  502    0  0.42373172210E+03 -0.63185660881E+03 -0.26779831518E+04  0.27839513498E+04  0.10100000352E+00 0.  1.
       -3    1    3    3    0  502 -0.42373172210E+03  0.63185660881E+03  0.51239138604E+03  0.91724385476E+03  0.10100000352E+00 0. -1.
</event>
<event>
 5   0  0.1560174E-06  0.2998305E+04  0.7818609E-02  0.8244215E-01
        2   -1    0    0  501    0  0.00000000000E+00  0.00000000000E+00  0.16068761833E+04  0.16068761833E+04  0.25500000920E-02 0.  1.
       -2   -1    0    0    0  501  0.00000000000E+00  0.00000000000E+00 -0.13986509275E+04  0.13986509275E+04  0.25500000920E-02 0. -1.
    10030    2    1    2    0    0  0.00000000000E+00  0.00000000000E+00  0.20822525578E+03  0.30055271107E+04  0.29983054308E+04 0.  0.
        5    1    3    3  502    0  0.64884737309E+03  0.79437720520E+03 -0.99186369265E+03  0.14268334635E+04  0.46999998093E+01 0. -1.
       -5    1    3    3    0  502 -0.64884737309E+03 -0.79437720520E+03  0.12000889484E+04  0.15786936472E+04  0.46999998093E+01 0.  1.
</event>
<event>
 5   0  0.5916703E-07  0.2989012E+04  0.7818609E-02  0.8246875E-01
        1   -1    0    0  501    0  0.00000000000E+00  0.00000000000E+00  0.17201134443E+04  0.17201134443E+04  0.50400001928E-02 0. -1.
       -1   -1    0    0    0  501  0.00000000000E+00  0.00000000000E+00 -0.12984892911E+04  0.12984892911E+04  0.50400001928E-02 0.  1.
    10030    2    1    2    0    0  0.00000000000E+00  0.00000000000E+00  0.42162415314E+03  0.30186027354E+04  0.29890124703E+04 0.  0.
        5    1    3    3  502    0 -0.20279631515E+03 -0.42597168873E+03  0.16429297898E+04  0.17093327965E+04  0.46999998093E+01 0. -1.
       -5    1    3    3    0  502  0.20279631515E+03  0.42597168873E+03 -0.12213056366E+04  0.13092699390E+04  0.46999998093E+01 0.  1.
</event>
<event>
 5   0  0.1635086E-06  0.2924125E+04  0.7818609E-02  0.8265736E-01
        2   -1    0    0  501    0  0.00000000000E+00  0.00000000000E+00  0.27234690630E+04  0.27234690630E+04  0.25500000920E-02 0. -1.
       -2   -1    0    0    0  501  0.00000000000E+00  0.00000000000E+00 -0.78489094028E+03  0.78489094028E+03  0.25500000920E-02 0.  1.
    10030    2    1    2    0    0  0.00000000000E+00  0.00000000000E+00  0.19385781227E+04  0.35083600032E+04  0.29241246168E+04 0.  0.
        3    1    3    3  502    0  0.61593046042E+02  0.83326996603E+03  0.24087939698E+04  0.25495923084E+04  0.10100000352E+00 0. -1.
       -3    1    3    3    0  502 -0.61593046042E+02 -0.83326996603E+03 -0.47021584715E+03  0.95876769487E+03  0.10100000352E+00 0.  1.
</event>
<event>
 5   0  0.1625212E-06  0.2987284E+04  0.7818609E-02  0.8247371E-01
       -2   -1    0    0    0  501  0.00000000000E+00  0.00000000000E+00  0.16601848220E+04  0.16601848220E+04  0.25500000920E-02 0.  1.
        2   -1    0    0  501    0  0.00000000000E+00  0.00000000000E+00 -0.13438056448E+04  0.13438056448E+04  0.25500000920E-02 0. -1.
    10030    2    1    2    0    0  0.00000000000E+00  0.00000000000E+00  0.31637917722E+03  0.30039904668E+04  0.29872835387E+04 0.  0.
        4    1    3    3  502    0  0.14046308867E+04 -0.48350516569E+03  0.31461970160E+03  0.15184703957E+04  0.12699999809E+01 0.  1.
       -4    1    3    3    0  502 -0.14046308867E+04  0.48350516569E+03  0.17594756216E+01  0.14855200711E+04  0.12699999809E+01 0. -1.
</event>
<event>
 5   0  0.1560174E-06  0.2996574E+04  0.7818609E-02  0.8244710E-01
        2   -1    0    0  501    0  0.00000000000E+00  0.00000000000E+00  0.13688838966E+04  0.13688838966E+04  0.25500000920E-02 0.  1.
       -2   -1    0    0    0  501  0.00000000000E+00  0.00000000000E+00 -0.16399227522E+04  0.16399227522E+04  0.25500000920E-02 0. -1.
    10030    2    1    2    0    0  0.00000000000E+00  0.00000000000E+00 -0.27103885565E+03  0.30088066488E+04  0.29965739418E+04 0.  0.
        5    1    3    3  502    0  0.33778765685E+03  0.11831224402E+04  0.72293420795E+03  0.14270722366E+04  0.46999998093E+01 0. -1.
       -5    1    3    3    0  502 -0.33778765685E+03 -0.11831224402E+04 -0.99397306360E+03  0.15817344122E+04  0.46999998093E+01 0.  1.
</event>
<event>
 5   0  0.5916703E-07  0.2995098E+04  0.7818609E-02  0.8245132E-01
       -1   -1    0    0    0  501  0.00000000000E+00  0.00000000000E+00  0.16738150997E+04  0.16738150997E+04  0.50400001928E-02 0.  1.
        1   -1    0    0  501    0  0.00000000000E+00  0.00000000000E+00 -0.13398455194E+04  0.13398455194E+04  0.50400001928E-02 0. -1.
    10030    2    1    2    0    0  0.00000000000E+00  0.00000000000E+00  0.33396958027E+03  0.30136606191E+04  0.29950984369E+04 0.  0.
        5    1    3    3  502    0  0.84966946048E+03  0.82153980691E+03  0.10923395925E+04  0.16093768116E+04  0.46999998093E+01 0.  1.
       -5    1    3    3    0  502 -0.84966946048E+03 -0.82153980691E+03 -0.75837001227E+03  0.14042838075E+04  0.46999998093E+01 0. -1.
</event>
<event>
 5   0  0.1635086E-06  0.2999356E+04  0.7818609E-02  0.8243915E-01
        2   -1    0    0  501    0  0.00000000000E+00  0.00000000000E+00  0.16044847249E+04  0.16044847249E+04  0.25500000920E-02 0.  1.
       -2   -1    0    0    0  501  0.00000000000E+00  0.00000000000E+00 -0.14017174075E+04  0.14017174075E+04  0.25500000920E-02 0. -1.
    10030    2    1    2    0    0  0.00000000000E+00  0.00000000000E+00  0.20276731741E+03  0.30062021324E+04  0.29993560436E+04 0.  0.
        3    1    3    3  502    0 -0.12813189893E+04 -0.46638196902E+03  0.72710315735E+03  0.15453056348E+04  0.10100000352E+00 0.  1.
       -3    1    3    3    0  502  0.12813189893E+04  0.46638196902E+03 -0.52433583994E+03  0.14608964976E+04  0.10100000352E+00 0. -1.
</event>
<event>
 5   0  0.1723916E-06  0.2963012E+04  0.7818609E-02  0.8254373E-01
       -2   -1    0    0    0  501  0.00000000000E+00  0.00000000000E+00  0.10552278815E+04  0.10552278815E+04  0.25500000920E-02 0.  1.
        2   -1    0    0  501    0  0.00000000000E+00  0.00000000000E+00 -0.20799870049E+04  0.20799870049E+04  0.25500000920E-02 0. -1.
    10030    2    1    2    0    0  0.00000000000E+00  0.00000000000E+00 -0.10247591234E+04  0.31352148863E+04  0.29630121705E+04 0.  0.
        1    1    3    3  502    0 -0.10789420764E+04  0.20896139888E+03  0.53887991469E+03  0.12239985428E+04  0.50400001928E-02 0.  1.
       -1    1    3    3    0  502  0.10789420764E+04 -0.20896139888E+03 -0.15636390381E+04  0.19112163435E+04  0.50400001928E-02 0. -1.
</event>
<event>
 5   0  0.1625212E-06  0.3000032E+04  0.7818609E-02  0.8243722E-01
       -2   -1    0    0    0  501  0.00000000000E+00  0.00000000000E+00  0.91580694520E+03  0.91580694521E+03  0.25500000920E-02 0. -1.
        2   -1    0    0  501    0  0.00000000000E+00  0.00000000000E+00 -0.24569023883E+04  0.24569023883E+04  0.25500000920E-02 0.  1.
    10030    2    1    2    0    0  0.00000000000E+00  0.00000000000E+00 -0.15410954431E+04  0.33727093335E+04  0.30000321804E+04 0.  0.
        4    1    3    3  502    0 -0.95164794766E+03 -0.54950297625E+03 -0.19183909053E+04  0.22108397987E+04  0.12699999809E+01 0.  1.
       -4    1    3    3    0  502  0.95164794766E+03  0.54950297625E+03  0.37729546218E+03  0.11618695348E+04  0.12699999809E+01 0. -1.
</event>
<event>
 5   0  0.1723916E-06  0.2997853E+04  0.7818609E-02  0.8244344E-01
        2   -1    0    0  501    0  0.00000000000E+00  0.00000000000E+00  0.13064829137E+04  0.13064829137E+04  0.25500000920E-02 0. -1.
       -2   -1    0    0    0  501  0.00000000000E+00  0.00000000000E+00 -0.17197169980E+04  0.17197169980E+04  0.25500000920E-02 0.  1.
    10030    2    1    2    0    0  0.00000000000E+00  0.00000000000E+00 -0.41323408431E+03  0.30261999117E+04  0.29978531480E+04 0.  0.
        1    1    3    3  502    0  0.95811721002E+03  0.50963429148E+03  0.83711580367E+03  0.13705759986E+04  0.50400001928E-02 0. -1.
       -1    1    3    3    0  502 -0.95811721002E+03 -0.50963429148E+03 -0.12503498880E+04  0.16556239131E+04  0.50400001928E-02 0.  1.
</event>
<event>
 5   0  0.1635086E-06  0.2991946E+04  0.7818609E-02  0.8246034E-01
        2   -1    0    0  501    0  0.00000000000E+00  0.00000000000E+00  0.21480982207E+04  0.21480982207E+04  0.25500000920E-02 0. -1.
       -2   -1    0    0    0  501  0.00000000000E+00  0.00000000000E+00 -0.10418216222E+04  0.10418216222E+04  0.25500000920E-02 0.  1.
    10030    2    1    2    0    0  0.00000000000E+00  0.00000000000E+00  0.11062765985E+04  0.31899198429E+04  0.29919459707E+04 0.  0.
        3    1    3    3  502    0 -0.27502620843E+03 -0.98980047726E+03  0.17125649119E+04  0.19970535766E+04  0.10100000352E+00 0. -1.
       -3    1    3    3    0  502  0.27502620843E+03  0.98980047726E+03 -0.60628831339E+03  0.11928662663E+04  0.10100000352E+00 0.  1.
</event>
<event>
 5   0  0.1674806E-06  0.2991068E+04  0.7818609E-02  0.8246286E-01
       -2   -1    0    0    0  501  0.00000000000E+00  0.00000000000E+00  0.92791284573E+03  0.92791284574E+03  0.25500000920E-02 0. -1.
        2   -1    0    0  501    0  0.00000000000E+00  0.00000000000E+00 -0.24103791122E+04  0.24103791122E+04  0.25500000920E-02 0.  1.
    10030    2    1    2    0    0  0.00000000000E+00  0.00000000000E+00 -0.14824662665E+04  0.33382919580E+04  0.29910678637E+04 0.  0.
        2    1    3    3  502    0  0.23504219750E+03  0.11724146331E+04  0.26127199237E+03  0.12239542314E+04  0.25500000920E-02 0. -1.
       -2    1    3    3    0  502 -0.23504219750E+03 -0.11724146331E+04 -0.17437382589E+04  0.21143377266E+04  0.25500000920E-02 0.  1.
</event>
<event>
 5   0  0.1723916E-06  0.3006047E+04  0.7818609E-02  0.8242006E-01
       -2   -1    0    0    0  501  0.00000000000E+00  0.00000000000E+00  0.10661283766E+04  0.10661283766E+04  0.25500000920E-02 0. -1.
        2   -1    0    0  501    0  0.00000000000E+00  0.00000000000E+00 -0.21189558550E+04  0.21189558550E+04  0.25500000920E-02 0.  1.
    10030    2    1    2    0    0  0.00000000000E+00  0.00000000000E+00 -0.10528274785E+04  0.31850842316E+04  0.30060465504E+04 0.  0.
        1    1    3    3  502    0  0.13563330597E+04  0.64460470107E+03 -0.46003782166E+03  0.15706016003E+04  0.50400001928E-02 0. -1.
       -1    1    3    3    0  502 -0.13563330597E+04 -0.64460470107E+03 -0.59278965684E+03  0.16144826313E+04  0.50400001928E-02 0.  1.
</event>
<event>
 5   0  0.1674806E-06  0.3011678E+04  0.7818609E-02  0.8240404E-01
        2   -1    0    0  501    0  0.00000000000E+00  0.00000000000E+00  0.20815978192E+04  0.20815978192E+04  0.25500000920E-02 0.  1.
       -2   -1    0    0    0  501  0.00000000000E+00  0.00000000000E+00 -0.10893323105E+04  0.10893323105E+04  0.25500000920E-02 0. -1.
    10030    2    1    2    0    0  0.00000000000E+00  0.00000000000E+00  0.99226550871E+03  0.31709301297E+04  0.30116784436E+04 0.  0.
        2    1    3    3  502    0  0.11375581801E+04 -0.90877670203E+03  0.90068743398E+03  0.17120606184E+04  0.25500000920E-02 0.  1.
       -2    1    3    3    0  502 -0.11375581801E+04  0.90877670203E+03  0.91578074728E+02  0.14588695113E+04  0.25500000920E-02 0. -1.
</event>
<event>
 5   0  0.6291798E-07  0.3001592E+04  0.7818609E-02  0.8243276E-01
       -1   -1    0    0    0  501  0.00000000000E+00  0.00000000000E+00  0.24656577115E+04  0.24656577115E+04  0.50400001928E-02 0.  1.
        1   -1    0    0  501    0  0.00000000000E+00  0.00000000000E+00 -0.91350434837E+03  0.91350434839E+03  0.50400001928E-02 0. -1.
    10030    2    1    2    0    0  0.00000000000E+00  0.00000000000E+00  0.15521533631E+04  0.33791620598E+04  0.30015922715E+04 0.  0.
        1    1    3    3  502    0 -0.86699486583E+03  0.10644035464E+04  0.93367026746E+02  0.13759914275E+04  0.50400001928E-02 0. -1.
       -1    1    3    3    0  502  0.86699486583E+03 -0.10644035464E+04  0.14587863363E+04  0.20031706323E+04  0.50400001928E-02 0.  1.
</event>
<event>
 5   0  0.5931588E-07  0.2968695E+04  0.7818609E-02  0.8252727E-01
       -1   -1    0    0    0  501  0.00000000000E+00  0.00000000000E+00  0.86682633279E+03  0.86682633281E+03  0.50400001928E-02 0. -1.
        1   -1    0    0  501    0  0.00000000000E+00  0.00000000000E+00 -0.25417864491E+04  0.25417864491E+04  0.50400001928E-02 0.  1.
    10030    2    1    2    0    0  0.00000000000E+00  0.00000000000E+00 -0.16749601163E+04  0.34086127819E+04  0.29686949499E+04 0.  0.
        2    1    3    3  502    0  0.56222476324E+03  0.67607348247E+03  0.53560561086E+03  0.10295850662E+04  0.25500000920E-02 0. -1.
       -2    1    3    3    0  502 -0.56222476324E+03 -0.67607348247E+03 -0.22105657271E+04  0.23790277157E+04  0.25500000920E-02 0.  1.
</event>
<event>
 5   0  0.5874741E-07  0.2999850E+04  0.7818609E-02  0.8243774E-01
       -1   -1    0    0    0  501  0.00000000000E+00  0.00000000000E+00  0.11056446257E+04  0.11056446257E+04  0.50400001928E-02 0.  1.
        1   -1    0    0  501    0  0.00000000000E+00  0.00000000000E+00 -0.20348078912E+04  0.20348078912E+04  0.50400001928E-02 0. -1.
    10030    2    1    2    0    0  0.00000000000E+00  0.00000000000E+00 -0.92916326543E+03  0.31404525169E+04  0.29998496024E+04 0.  0.
        4    1    3    3  502    0 -0.66503329228E+03 -0.10350711451E+04 -0.13627760971E+04  0.18359743623E+04  0.12699999809E+01 0. -1.
       -4    1    3    3    0  502  0.66503329228E+03  0.10350711451E+04  0.43361283167E+03  0.13044781546E+04  0.12699999809E+01 0.  1.
</event>
<event>
 5   0  0.5916703E-07  0.3018631E+04  0.7818609E-02  0.8238431E-01
       -1   -1    0    0    0  501  0.00000000000E+00  0.00000000000E+00  0.10330515336E+04  0.10330515336E+04  0.50400001928E-02 0.  1.
        1   -1    0    0  501    0  0.00000000000E+00  0.00000000000E+00 -0.22051495316E+04  0.22051495316E+04  0.50400001928E-02 0. -1.
    10030    2    1    2    0    0  0.00000000000E+00  0.00000000000E+00 -0.11720979981E+04  0.32382010652E+04  0.30186308853E+04 0.  0.
        5    1    3    3  502    0  0.21629355462E+03 -0.90496349903E+03  0.68878178103E+03  0.11576632793E+04  0.46999998093E+01 0.  1.
       -5    1    3    3    0  502 -0.21629355462E+03  0.90496349903E+03 -0.18608797791E+04  0.20805377859E+04  0.46999998093E+01 0. -1.
</event>
<event>
 5   0  0.1635086E-06  0.3002594E+04  0.7818609E-02  0.8242991E-01
       -2   -1    0    0    0  501  0.00000000000E+00  0.00000000000E+00  0.11209780927E+04  0.11209780928E+04  0.25500000920E-02 0.  1.
        2   -1    0    0  501    0  0.00000000000E+00  0.00000000000E+00 -0.20106482960E+04  0.20106482960E+04  0.25500000920E-02 0. -1.
    10030    2    1    2    0    0  0.00000000000E+00  0.00000000000E+00 -0.88967020329E+03  0.31316263888E+04  0.30025940066E+04 0.  0.
        3    1    3    3  502    0 -0.20270203951E+03  0.12768219925E+04  0.35120058914E+03  0.13396657723E+04  0.10100000352E+00 0.  1.
       -3    1    3    3    0  502  0.20270203951E+03 -0.12768219925E+04 -0.12408707924E+04  0.17919606165E+04  0.10100000352E+00 0. -1.
</event>
<event>
 5   0  0.1635086E-06  0.3007299E+04  0.7818609E-02  0.8241650E-01
       -2   -1    0    0    0  501  0.00000000000E+00  0.00000000000E+00  0.20002676082E+04  0.20002676082E+04  0.25500000920E-02 0. -1.
        2   -1    0    0  501    0  0.00000000000E+00  0.00000000000E+00 -0.11303296135E+04  0.11303296135E+04  0.25500000920E-02 0.  1.
    10030    2    1    2    0    0  0.00000000000E+00  0.00000000000E+00  0.86993799473E+03  0.31305972218E+04  0.30072989293E+04 0.  0.
        3    1    3    3  502    0 -0.10347563677E+04 -0.55303482787E+03  0.14139479443E+04  0.18373396694E+04  0.10100000352E+00 0. -1.
       -3    1    3    3    0  502  0.10347563677E+04  0.55303482787E+03 -0.54400994961E+03  0.12932575524E+04  0.10100000352E+00 0.  1.
</event>
<event>
 5   0  0.5887179E-07  0.3038068E+04  0.7818609E-02  0.8232943E-01
       -1   -1    0    0    0  501  0.00000000000E+00  0.00000000000E+00  0.13571020792E+04  0.13571020792E+04  0.50400001928E-02 0. -1.
        1   -1    0    0  501    0  0.00000000000E+00  0.00000000000E+00 -0.17002874055E+04  0.17002874055E+04  0.50400001928E-02 0.  1.
    10030    2    1    2    0    0  0.00000000000E+00  0.00000000000E+00 -0.34318532622E+03  0.30573894847E+04  0.30380675261E+04 0.  0.
        3    1    3    3  502    0 -0.12840149979E+04  0.37097414553E+02  0.64436162018E+03  0.14371056470E+04  0.10100000352E+00 0. -1.
       -3    1    3    3    0  502  0.12840149979E+04 -0.37097414553E+02 -0.98754694641E+03  0.16202838377E+04  0.10100000352E+00 0.  1.
</event>
<event>
 5   0  0.5874741E-07  0.3003427E+04  0.7818609E-02  0.8242753E-01
       -1   -1    0    0    0  501  0.00000000000E+00  0.00000000000E+00  0.12542962098E+04  0.12542962098E+04  0.50400001928E-02 0. -1.
        1   -1    0    0  501    0  0.00000000000E+00  0.00000000000E+00 -0.17979347938E+04  0.17979347938E+04  0.50400001928E-02 0.  1.
    10030    2    1    2    0    0  0.00000000000E+00  0.00000000000E+00 -0.54363858400E+03  0.30522310035E+04  0.30034265746E+04 0.  0.
        4    1    3    3  502    0 -0.71587934634E+02  0.14662372640E+04 -0.59345006328E+03  0.15834017612E+04  0.12699999809E+01 0.  1.
       -4    1    3    3    0  502  0.71587934634E+02 -0.14662372640E+04  0.49811479273E+02  0.14688292424E+04  0.12699999809E+01 0. -1.
</event>
<event>
 5   0  0.5916703E-07  0.2994596E+04  0.7818609E-02  0.8245276E-01
        1   -1    0    0  501    0  0.00000000000E+00  0.00000000000E+00  0.15243870642E+04  0.15243870642E+04  0.50400001928E-02 0.  1.
       -1   -1    0    0    0  501  0.00000000000E+00  0.00000000000E+00 -0.14706903690E+04  0.14706903690E+04  0.50400001928E-02 0. -1.
    10030    2    1    2    0    0  0.00000000000E+00  0.00000000000E+00  0.53696695191E+02  0.29950774332E+04  0.29945960489E+04 0.  0.
        5    1    3    3  502    0 -0.51757540728E+03  0.24954679363E+03 -0.13560240439E+04  0.14727461432E+04  0.46999998093E+01 0. -1.
       -5    1    3    3    0  502  0.51757540728E+03 -0.24954679363E+03  0.14097207391E+04  0.15223312901E+04  0.46999998093E+01 0.  1.
</event>
<event>
 5   0  0.1625212E-06  0.3012852E+04  0.7818609E-02  0.8240070E-01
       -2   -1    0    0    0  501  0.00000000000E+00  0.00000000000E+00  0.15577295775E+04  0.15577295775E+04  0.25500000920E-02 0. -1.
        2   -1    0    0  501    0  0.00000000000E+00  0.00000000000E+00 -0.14568125430E+04  0.14568125430E+04  0.25500000920E-02 0.  1.
    10030    2    1    2    0    0  0.00000000000E+00  0.00000000000E+00  0.10091703452E+03  0.30145421205E+04  0.30128524604E+04 0.  0.
        4    1    3    3  502    0 -0.89907732504E+03 -0.11784220654E+04  0.31949548541E+03  0.15162775401E+04  0.12699999809E+01 0. -1.
       -4    1    3    3    0  502  0.89907732504E+03  0.11784220654E+04 -0.21857845089E+03  0.14982645803E+04  0.12699999809E+01 0.  1.
</event>
<event>
 5   0  0.1625212E-06  0.2978238E+04  0.7818609E-02  0.8249973E-01
       -2   -1    0    0    0  501  0.00000000000E+00  0.00000000000E+00  0.13515273067E+04  0.13515273067E+04  0.25500000920E-02 0. -1.
        2   -1    0    0  501    0  0.00000000000E+00  0.00000000000E+00 -0.16407180140E+04  0.16407180140E+04  0.25500000920E-02 0.  1.
    10030    2    1    2    0    0  0.00000000000E+00  0.00000000000E+00 -0.28919070724E+03  0.29922453207E+04  0.29782378673E+04 0.  0.
        4    1    3    3  502    0 -0.54439590782E+03  0.99857341065E+03  0.82115280581E+03  0.14027862647E+04  0.12699999809E+01 0. -1.
       -4    1    3    3    0  502  0.54439590782E+03 -0.99857341065E+03 -0.11103435130E+04  0.15894590560E+04  0.12699999809E+01 0.  1.
</event>
<event>
 5   0  0.1635086E-06  0.3000620E+04  0.7818609E-02  0.8243554E-01
        2   -1    0    0  501    0  0.00000000000E+00  0.00000000000E+00  0.10658381724E+04  0.10658381724E+04  0.25500000920E-02 0.  1.
       -2   -1    0    0    0  501  0.00000000000E+00  0.00000000000E+00 -0.21118869057E+04  0.21118869057E+04  0.25500000920E-02 0. -1.
    10030    2    1    2    0    0  0.00000000000E+00  0.00000000000E+00 -0.10460487333E+04  0.31777250781E+04  0.30006197226E+04 0.  0.
        3    1    3    3  502    0  0.79299583007E+02 -0.10641714582E+04 -0.16398695393E+04  0.19565074578E+04  0.10100000352E+00 0. -1.
       -3    1    3    3    0  502 -0.79299583007E+02  0.10641714582E+04  0.59382080599E+03  0.12212176203E+04  0.10100000352E+00 0.  1.
</event>
<event>
 5   0  0.6291798E-07  0.2920523E+04  0.7818609E-02  0.8266797E-01
        1   -1    0    0  501    0  0.00000000000E+00  0.00000000000E+00  0.87711128827E+03  0.87711128828E+03  0.50400001928E-02 0.  1.
       -1   -1    0    0    0  501  0.00000000000E+00  0.00000000000E+00 -0.24311202469E+04  0.24311202469E+04  0.50400001928E-02 0. -1.
    10030    2    1    2    0    0  0.00000000000E+00  0.00000000000E+00 -0.15540089587E+04  0.33082315352E+04  0.29205225640E+04 0.  0.
        1    1    3    3  502    0 -0.10283878339E+04  0.39303026184E+03 -0.18636855256E+04  0.21645734134E+04  0.50400001928E-02 0. -1.
       -1    1    3    3    0  502  0.10283878339E+04 -0.39303026184E+03  0.30967656692E+03  0.11436581218E+04  0.50400001928E-02 0.  1.
</event>
<event>
 5   0  0.1625212E-06  0.2983876E+04  0.7818609E-02  0.8248350E-01
        2   -1    0    0  501    0  0.00000000000E+00  0.00000000000E+00  0.26312043983E+04  0.26312043983E+04  0.25500000920E-02 0.  1.
       -2   -1    0    0    0  501  0.00000000000E+00  0.00000000000E+00 -0.84595454160E+03  0.84595454160E+03  0.25500000920E-02 0. -1.
    10030    2    1    2    0    0  0.00000000000E+00  0.00000000000E+00  0.17852498567E+04  0.34771589399E+04  0.29838762110E+04 0.  0.
        4    1    3    3  502    0 -0.11099016393E+04  0.68708391878E+03  0.50760280878E+02  0.13063476487E+04  0.12699999809E+01 0. -1.
       -4    1    3    3    0  502  0.11099016393E+04 -0.68708391878E+03  0.17344895758E+04  0.21708112912E+04  0.12699999809E+01 0.  1.
</event>
<event>
 5   0  0.5874741E-07  0.2998270E+04  0.7818609E-02  0.8244225E-01
        1   -1    0    0  501    0  0.00000000000E+00  0.00000000000E+00  0.14278892487E+04  0.14278892487E+04  0.50400001928E-02 0. -1.
       -1   -1    0    0    0  501  0.00000000000E+00  0.00000000000E+00 -0.15739352673E+04  0.15739352673E+04  0.50400001928E-02 0.  1.
    10030    2    1    2    0    0  0.00000000000E+00  0.00000000000E+00 -0.14604601861E+03  0.30018245159E+04  0.29982696651E+04 0.  0.
        4    1    3    3  502    0  0.10343444134E+04  0.67212731371E+03 -0.92596039365E+03  0.15424097234E+04  0.12699999809E+01 0.  1.
       -4    1    3    3    0  502 -0.10343444134E+04 -0.67212731371E+03  0.77991437504E+03  0.14594147925E+04  0.12699999809E+01 0. -1.
</event>
<event>
 5   0  0.1723916E-06  0.3018534E+04  0.7818609E-02  0.8238458E-01
       -2   -1    0    0    0  501  0.00000000000E+00  0.00000000000E+00  0.15141935698E+04  0.15141935698E+04  0.25500000920E-02 0. -1.
        2   -1    0    0  501    0  0.00000000000E+00  0.00000000000E+00 -0.15043562298E+04  0.15043562298E+04  0.25500000920E-02 0.  1.
    10030    2    1    2    0    0  0.00000000000E+00  0.00000000000E+00  0.98373400388E+01  0.30185497996E+04  0.30185337698E+04 0.  0.
        1    1    3    3  502    0 -0.92614044779E+03  0.35547554161E+03  0.11423725290E+04  0.15129818191E+04  0.50400001928E-02 0. -1.
       -1    1    3    3    0  502  0.92614044779E+03 -0.35547554161E+03 -0.11325351890E+04  0.15055679805E+04  0.50400001928E-02 0.  1.
</event>
<event>
 5   0  0.1560174E-06  0.2996643E+04  0.7818609E-02  0.8244690E-01
        2   -1    0    0  501    0  0.00000000000E+00  0.00000000000E+00  0.17852231948E+04  0.17852231948E+04  0.25500000920E-02 0.  1.
       -2   -1    0    0    0  501  0.00000000000E+00  0.00000000000E+00 -0.12575271980E+04  0.12575271980E+04  0.25500000920E-02 0. -1.
    10030    2    1    2    0    0  0.00000000000E+00  0.00000000000E+00  0.52769599680E+03  0.30427503929E+04  0.29966426027E+04 0.  0.
        5    1    3    3  502    0 -0.41082543366E+03  0.12148798035E+04 -0.52282044840E+03  0.13849454087E+04  0.46999998093E+01 0. -1.
       -5    1    3    3    0  502  0.41082543366E+03 -0.12148798035E+04  0.10505164452E+04  0.16578049841E+04  0.46999998093E+01 0.  1.
</event>
<event>
 5   0  0.6291798E-07  0.2997764E+04  0.7818609E-02  0.8244370E-01
       -1   -1    0    0    0  501  0.00000000000E+00  0.00000000000E+00  0.11365597811E+04  0.11365597812E+04  0.50400001928E-02 0.  1.
        1   -1    0    0  501    0  0.00000000000E+00  0.00000000000E+00 -0.19767082465E+04  0.19767082465E+04  0.50400001928E-02 0. -1.
    10030    2    1    2    0    0  0.00000000000E+00  0.00000000000E+00 -0.84014846537E+03  0.31132680277E+04  0.29977638947E+04 0.  0.
        1    1    3    3  502    0  0.17044298897E+03 -0.88688197542E+03 -0.16624256618E+04  0.18918957508E+04  0.50400001928E-02 0. -1.
       -1    1    3    3    0  502 -0.17044298897E+03  0.88688197542E+03  0.82227719646E+03  0.12213722768E+04  0.50400001928E-02 0.  1.
</event>
<event>
 5   0  0.6291798E-07  0.3022044E+04  0.7818609E-02  0.8237464E-01
        1   -1    0    0  501    0  0.00000000000E+00  0.00000000000E+00  0.19104273604E+04  0.19104273604E+04  0.50400001928E-02 0.  1.
       -1   -1    0    0    0  501  0.00000000000E+00  0.00000000000E+00 -0.11951184815E+04  0.11951184815E+04  0.50400001928E-02 0. -1.
    10030    2    1    2    0    0  0.00000000000E+00  0.00000000000E+00  0.71530887892E+03  0.31055458419E+04  0.30220437098E+04 0.  0.
        1    1    3    3  502    0 -0.13212933300E+03 -0.10943232217E+04  0.14197425731E+04  0.17974065895E+04  0.50400001928E-02 0.  1.
       -1    1    3    3    0  502  0.13212933300E+03  0.10943232217E+04 -0.70443369414E+03  0.13081392524E+04  0.50400001928E-02 0. -1.
</event>
<event>
 5   0  0.5874741E-07  0.2992768E+04  0.7818609E-02  0.8245799E-01
       -1   -1    0    0    0  501  0.00000000000E+00  0.00000000000E+00  0.12425394441E+04  0.12425394441E+04  0.50400001928E-02 0.  1.
        1   -1    0    0  501    0  0.00000000000E+00  0.00000000000E+00 -0.18020882369E+04  0.18020882369E+04  0.50400001928E-02 0. -1.
    10030    2    1    2    0    0  0.00000000000E+00  0.00000000000E+00 -0.55954879283E+03  0.30446276810E+04  0.29927684281E+04 0.  0.
        4    1    3    3  502    0 -0.95759366345E+03  0.11412521422E+04 -0.42264301688E+03  0.15485705696E+04  0.12699999809E+01 0. -1.
       -4    1    3    3    0  502  0.95759366345E+03 -0.11412521422E+04 -0.13690577594E+03  0.14960571114E+04  0.12699999809E+01 0.  1.
</event>
<event>
 5   0  0.1625212E-06  0.2991140E+04  0.7818609E-02  0.8246265E-01
        2   -1    0    0  501    0  0.00000000000E+00  0.00000000000E+00  0.21056960764E+04  0.21056960764E+04  0.25500000920E-02 0.  1.
       -2   -1    0    0    0  501  0.00000000000E+00  0.00000000000E+00 -0.10622282706E+04  0.10622282706E+04  0.25500000920E-02 0. -1.
    10030    2    1    2    0    0  0.00000000000E+00  0.00000000000E+00  0.10434678058E+04  0.31679243470E+04  0.29911401850E+04 0.  0.
        4    1    3    3  502    0  0.46434838492E+03  0.87325170948E+03  0.17098848012E+04  0.19753216490E+04  0.12699999809E+01 0.  1.
       -4    1    3    3    0  502 -0.46434838492E+03 -0.87325170948E+03 -0.66641699536E+03  0.11926026980E+04  0.12699999809E+01 0. -1.
</event>
<event>
 5   0  0.6291798E-07  0.2967070E+04  0.7818609E-02  0.8253197E-01
        1   -1    0    0  501    0  0.00000000000E+00  0.00000000000E+00  0.20026302982E+04  0.20026302982E+04  0.50400001928E-02 0. -1.
       -1   -1    0    0    0  501  0.00000000000E+00  0.00000000000E+00 -0.10989924612E+04  0.10989924612E+04  0.50400001928E-02 0.  1.
    10030    2    1    2    0    0  0.00000000000E+00  0.00000000000E+00  0.90363783696E+03  0.31016227594E+04  0.29670696657E+04 0.  0.
        1    1    3    3  502    0  0.39266166590E+03 -0.17553192204E+03 -0.10323853384E+04  0.11183980179E+04  0.50400001928E-02 0.  1.
       -1    1    3    3    0  502 -0.39266166590E+03  0.17553192204E+03  0.19360231754E+04  0.19832247415E+04  0.50400001928E-02 0. -1.
</event>
<event>
 5   0  0.1723916E-06  0.3003233E+04  0.7818609E-02  0.8242808E-01
       -2   -1    0    0    0  501  0.00000000000E+00  0.00000000000E+00  0.11302058217E+04  0.11302058217E+04  0.25500000920E-02 0. -1.
        2   -1    0    0  501    0  0.00000000000E+00  0.00000000000E+00 -0.19950804066E+04  0.19950804066E+04  0.25500000920E-02 0.  1.
    10030    2    1    2    0    0  0.00000000000E+00  0.00000000000E+00 -0.86487458491E+03  0.31252862283E+04  0.30032325852E+04 0.  0.
        1    1    3    3  502    0 -0.60632596391E+03  0.12535524655E+04  0.15238663975E+03  0.14008021439E+04  0.50400001928E-02 0. -1.
       -1    1    3    3    0  502  0.60632596391E+03 -0.12535524655E+04 -0.10172612247E+04  0.17244840844E+04  0.50400001928E-02 0.  1.
</event>
<event>
 5   0  0.5431625E-07  0.3018861E+04  0.7818609E-02  0.8238366E-01
        3   -1    0    0  501    0  0.00000000000E+00  0.00000000000E+00  0.20675319949E+04  0.20675319974E+04  0.10100000352E+00 0.  1.
       -3   -1    0    0    0  501  0.00000000000E+00  0.00000000000E+00 -0.11019805559E+04  0.11019805605E+04  0.10100000352E+00 0. -1.
    10030    2    1    2    0    0  0.00000000000E+00  0.00000000000E+00  0.96555143901E+03  0.31695125579E+04  0.30188607575E+04 0.  0.
        5    1    3    3  502    0 -0.13942982034E+04 -0.25105426807E+03 -0.64043885697E+02  0.14181746841E+04  0.46999998093E+01 0. -1.
       -5    1    3    3    0  502  0.13942982034E+04  0.25105426807E+03  0.10295953247E+04  0.17513378738E+04  0.46999998093E+01 0.  1.
</event>
<event>
 5   0  0.5916703E-07  0.2992631E+04  0.7818609E-02  0.8245838E-01
        1   -1    0    0  501    0  0.00000000000E+00  0.00000000000E+00  0.14985677435E+04  0.14985677435E+04  0.50400001928E-02 0.  1.
       -1   -1    0    0    0  501  0.00000000000E+00  0.00000000000E+00 -0.14940661861E+04  0.14940661861E+04  0.50400001928E-02 0. -1.
    10030    2    1    2    0    0  0.00000000000E+00  0.00000000000E+00  0.45015573694E+01  0.29926339297E+04  0.29926305440E+04 0.  0.
        5    1    3    3  502    0 -0.93901701007E+02  0.85589490995E+03  0.12260020056E+04  0.14981577467E+04  0.46999998093E+01 0.  1.
       -5    1    3    3    0  502  0.93901701007E+02 -0.85589490995E+03 -0.12215004482E+04  0.14944761829E+04  0.46999998093E+01 0. -1.
</event>
<event>
 5   0  0.1635086E-06  0.2999754E+04  0.7818609E-02  0.8243801E-01
        2   -1    0    0  501    0  0.00000000000E+00  0.00000000000E+00  0.26425384446E+04  0.26425384446E+04  0.25500000920E-02 0.  1.
       -2   -1    0    0    0  501  0.00000000000E+00  0.00000000000E+00 -0.85131436534E+03  0.85131436534E+03  0.25500000920E-02 0. -1.
    10030    2    1    2    0    0  0.00000000000E+00  0.00000000000E+00  0.17912240792E+04  0.34938528099E+04  0.29997539491E+04 0.  0.
        3    1    3    3  502    0 -0.94729060417E+03 -0.75793443381E+03 -0.13158757669E+03  0.12203029932E+04  0.10100000352E+00 0. -1.
       -3    1    3    3    0  502  0.94729060417E+03  0.75793443381E+03  0.19228116559E+04  0.22735498167E+04  0.10100000352E+00 0.  1.
</event>
<event>
 5   0  0.6291798E-07  0.2993053E+04  0.7818609E-02  0.8245717E-01
        1   -1    0    0  501    0  0.00000000000E+00  0.00000000000E+00  0.16307846371E+04  0.16307846371E+04  0.50400001928E-02 0. -1.
       -1   -1    0    0    0  501  0.00000000000E+00  0.00000000000E+00 -0.13733214742E+04  0.13733214742E+04  0.50400001928E-02 0.  1.
    10030    2    1    2    0    0  0.00000000000E+00  0.00000000000E+00  0.25746316297E+03  0.30041061113E+04  0.29930529978E+04 0.  0.
        1    1    3    3  502    0 -0.11628108527E+04 -0.73600101296E+03 -0.46145777290E+03  0.14514716140E+04  0.50400001928E-02 0.  1.
       -1    1    3    3    0  502  0.11628108527E+04  0.73600101296E+03  0.71892093587E+03  0.15526344973E+04  0.50400001928E-02 0. -1.
</event>
<event>
 5   0  0.5916703E-07  0.2992676E+04  0.7818609E-02  0.8245825E-01
        1   -1    0    0  501    0  0.00000000000E+00  0.00000000000E+00  0.21615127174E+04  0.21615127174E+04  0.50400001928E-02 0.  1.
       -1   -1    0    0    0  501  0.00000000000E+00  0.00000000000E+00 -0.10358614806E+04  0.10358614806E+04  0.50400001928E-02 0. -1.
    10030    2    1    2    0    0  0.00000000000E+00  0.00000000000E+00  0.11256512369E+04  0.31973741980E+04  0.29926762363E+04 0.  0.
        5    1    3    3  502    0  0.92265071773E+03 -0.88838378402E+03  0.13893662435E+04  0.18896747718E+04  0.46999998093E+01 0.  1.
       -5    1    3    3    0  502 -0.92265071773E+03  0.88838378402E+03 -0.26371500665E+03  0.13076994262E+04  0.46999998093E+01 0. -1.
</event>
<event>
 5   0  0.1560174E-06  0.2990762E+04  0.7818609E-02  0.8246374E-01
        2   -1    0    0  501    0  0.00000000000E+00  0.00000000000E+00  0.15832939474E+04  0.15832939474E+04  0.25500000920E-02 0.  1.
       -2   -1    0    0    0  501  0.00000000000E+00  0.00000000000E+00 -0.14123494402E+04  0.14123494402E+04  0.25500000920E-02 0. -1.
    10030    2    1    2    0    0  0.00000000000E+00  0.00000000000E+00  0.17094450718E+03  0.29956433876E+04  0.29907619901E+04 0.  0.
        5    1    3    3  502    0  0.66222325246E+03 -0.19114765662E+03  0.14146895172E+04  0.15736726416E+04  0.46999998093E+01 0.  1.
       -5    1    3    3    0  502 -0.66222325246E+03  0.19114765662E+03 -0.12437450100E+04  0.14219707461E+04  0.46999998093E+01 0. -1.
</event>
<event>
 5   0  0.6291798E-07  0.3003851E+04  0.7818609E-02  0.8242632E-01
        1   -1    0    0  501    0  0.00000000000E+00  0.00000000000E+00  0.24828964345E+04  0.24828964345E+04  0.50400001928E-02 0.  1.
       -1   -1    0    0    0  501  0.00000000000E+00  0.00000000000E+00 -0.90852793631E+03  0.90852793633E+03  0.50400001928E-02 0. -1.
    10030    2    1    2    0    0  0.00000000000E+00  0.00000000000E+00  0.15743684982E+04  0.33914243709E+04  0.30038513770E+04 0.  0.
        1    1    3    3  502    0 -0.10296564611E+04  0.24635496088E+03  0.19899527071E+04  0.22540618827E+04  0.50400001928E-02 0.  1.
       -1    1    3    3    0  502  0.10296564611E+04 -0.24635496088E+03 -0.41558420889E+03  0.11373624881E+04  0.50400001928E-02 0. -1.
</event>
<event>
 5   0  0.5916703E-07  0.2990687E+04  0.7818609E-02  0.8246395E-01
        1   -1    0    0  501    0  0.00000000000E+00  0.00000000000E+00  0.16693837538E+04  0.16693837538E+04  0.50400001928E-02 0.  1.
       -1   -1    0    0    0  501  0.00000000000E+00  0.00000000000E+00 -0.13394472954E+04  0.13394472954E+04  0.50400001928E-02 0. -1.
    10030    2    1    2    0    0  0.00000000000E+00  0.00000000000E+00  0.32993645844E+03  0.30088310492E+04  0.29906865793E+04 0.  0.
        5    1    3    3  502    0  0.78355879186E+03  0.71670701126E+03 -0.89422306689E+03  0.13882688153E+04  0.46999998093E+01 0. -1.
       -5    1    3    3    0  502 -0.78355879186E+03 -0.71670701126E+03  0.12241595253E+04  0.16205622338E+04  0.46999998093E+01 0.  1.
</event>
<event>
 5   0  0.5887179E-07  0.3007394E+04  0.7818609E-02  0.8241623E-01
       -1   -1    0    0    0  501  0.00000000000E+00  0.00000000000E+00  0.18548867240E+04  0.18548867240E+04  0.50400001928E-02 0.  1.
        1   -1    0    0  501    0  0.00000000000E+00  0.00000000000E+00 -0.12189985126E+04  0.12189985126E+04  0.50400001928E-02 0. -1.
    10030    2    1    2    0    0  0.00000000000E+00  0.00000000000E+00  0.63588821141E+03  0.30738852367E+04  0.30073936608E+04 0.  0.
        3    1    3    3  502    0 -0.12712957976E+04 -0.29458597253E+03  0.10815427502E+04  0.16949066732E+04  0.10100000352E+00 0.  1.
       -3    1    3    3    0  502  0.12712957976E+04  0.29458597253E+03 -0.44565453882E+03  0.13789785634E+04  0.10100000352E+00 0. -1.
</event>
<event>
 5   0  0.1625212E-06  0.3003973E+04  0.7818609E-02  0.8242597E-01
        2   -1    0    0  501    0  0.00000000000E+00  0.00000000000E+00  0.14214061963E+04  0.14214061963E+04  0.25500000920E-02 0.  1.
       -2   -1    0    0    0  501  0.00000000000E+00  0.00000000000E+00 -0.15871344725E+04  0.15871344725E+04  0.25500000920E-02 0. -1.
    10030    2    1    2    0    0  0.00000000000E+00  0.00000000000E+00 -0.16572827616E+03  0.30085406688E+04  0.30039725521E+04 0.  0.
        4    1    3    3  502    0  0.67427453903E+03  0.45708304475E+03  0.11809542225E+04  0.14346517181E+04  0.12699999809E+01 0.  1.
       -4    1    3    3    0  502 -0.67427453903E+03 -0.45708304475E+03 -0.13466824987E+04  0.15738889506E+04  0.12699999809E+01 0. -1.
</event>
<event>
 5   0  0.5931588E-07  0.2991259E+04  0.7818609E-02  0.8246231E-01
       -1   -1    0    0    0  501  0.00000000000E+00  0.00000000000E+00  0.11938170187E+04  0.11938170187E+04  0.50400001928E-02 0. -1.
        1   -1    0    0  501    0  0.00000000000E+00  0.00000000000E+00 -0.18737439139E+04  0.18737439139E+04  0.50400001928E-02 0.  1.
    10030    2    1    2    0    0  0.00000000000E+00  0.00000000000E+00 -0.67992689519E+03  0.30675609326E+04  0.29912588474E+04 0.  0.
        2    1    3    3  502    0 -0.12945137036E+04 -0.12644296214E+03  0.41721585211E+03  0.13659511773E+04  0.25500000920E-02 0. -1.
       -2    1    3    3    0  502  0.12945137036E+04  0.12644296214E+03 -0.10971427473E+04  0.17016097553E+04  0.25500000920E-02 0.  1.
</event>
<event>
 5   0  0.5431625E-07  0.3021270E+04  0.7818609E-02  0.8237683E-01
       -3   -1    0    0    0  501  0.00000000000E+00  0.00000000000E+00  0.13103430975E+04  0.13103431013E+04  0.10100000352E+00 0.  1.
        3   -1    0    0  501    0  0.00000000000E+00  0.00000000000E+00 -0.17415420155E+04  0.17415420184E+04  0.10100000352E+00 0. -1.
    10030    2    1    2    0    0  0.00000000000E+00  0.00000000000E+00 -0.43119891800E+03  0.30518851197E+04  0.30212696466E+04 0.  0.
        3    1    3    3  502    0  0.12497341026E+04  0.23041648911E+03 -0.10406319717E+04  0.16425108817E+04  0.10100000352E+00 0. -1.
       -3    1    3    3    0  502 -0.12497341026E+04 -0.23041648911E+03  0.60943305371E+03  0.14093742380E+04  0.10100000352E+00 0.  1.
</event>
<event>
 5   0  0.1723916E-06  0.3015279E+04  0.7818609E-02  0.8239381E-01
        2   -1    0    0  501    0  0.00000000000E+00  0.00000000000E+00  0.25729021600E+04  0.25729021600E+04  0.25500000920E-02 0.  1.
       -2   -1    0    0    0  501  0.00000000000E+00  0.00000000000E+00 -0.88342922896E+03  0.88342922897E+03  0.25500000920E-02 0. -1.
    10030    2    1    2    0    0  0.00000000000E+00  0.00000000000E+00  0.16894729311E+04  0.34563313890E+04  0.30152790726E+04 0.  0.
        1    1    3    3  502    0  0.76718221333E+03  0.90062608319E+03 -0.22644953398E+03  0.12045643535E+04  0.50400001928E-02 0. -1.
       -1    1    3    3    0  502 -0.76718221333E+03 -0.90062608319E+03  0.19159224651E+04  0.22517670355E+04  0.50400001928E-02 0.  1.
</event>
<event>
 5   0  0.1625212E-06  0.2979715E+04  0.7818609E-02  0.8249547E-01
        2   -1    0    0  501    0  0.00000000000E+00  0.00000000000E+00  0.17700143878E+04  0.17700143878E+04  0.25500000920E-02 0. -1.
       -2   -1    0    0    0  501  0.00000000000E+00  0.00000000000E+00 -0.12540437051E+04  0.12540437051E+04  0.25500000920E-02 0.  1.
    10030    2    1    2    0    0  0.00000000000E+00  0.00000000000E+00  0.51597068269E+03  0.30240580929E+04  0.29797150206E+04 0.  0.
        4    1    3    3  502    0  0.13607746282E+04  0.60306709276E+03  0.19161890211E+03  0.15007054753E+04  0.12699999809E+01 0.  1.
       -4    1    3    3    0  502 -0.13607746282E+04 -0.60306709276E+03  0.32435178058E+03  0.15233526176E+04  0.12699999809E+01 0. -1.
</event>
<event>
 5   0  0.1625212E-06  0.2977800E+04  0.7818609E-02  0.8250099E-01
        2   -1    0    0  501    0  0.00000000000E+00  0.00000000000E+00  0.24163311806E+04  0.24163311806E+04  0.25500000920E-02 0. -1.
       -2   -1    0    0    0  501  0.00000000000E+00  0.00000000000E+00 -0.91743322588E+03  0.91743322588E+03  0.25500000920E-02 0.  1.
    10030    2    1    2    0    0  0.00000000000E+00  0.00000000000E+00  0.14988979547E+04  0.33337644065E+04  0.29777995297E+04 0.  0.
        4    1    3    3  502    0  0.10297848149E+04 -0.40226446990E+03  0.18659321910E+04  0.21688656074E+04  0.12699999809E+01 0.  1.
       -4    1    3    3    0  502 -0.10297848149E+04  0.40226446990E+03 -0.36703423623E+03  0.11648987991E+04  0.12699999809E+01 0. -1.
</event>
<event>
 5   0  0.1674806E-06  0.2989749E+04  0.7818609E-02  0.8246664E-01
       -2   -1    0    0    0  501  0.00000000000E+00  0.00000000000E+00  0.12681965827E+04  0.12681965827E+04  0.25500000920E-02 0. -1.
        2   -1    0    0  501    0  0.00000000000E+00  0.00000000000E+00 -0.17620693955E+04  0.17620693955E+04  0.25500000920E-02 0.  1.
    10030    2    1    2    0    0  0.00000000000E+00  0.00000000000E+00 -0.49387281273E+03  0.30302659782E+04  0.29897494115E+04 0.  0.
        2    1    3    3  502    0 -0.68827833349E+03  0.11054306171E+04 -0.99101494364E+03  0.16364029247E+04  0.25500000920E-02 0.  1.
       -2    1    3    3    0  502  0.68827833349E+03 -0.11054306171E+04  0.49714213091E+03  0.13938630535E+04  0.25500000920E-02 0. -1.
</event>
<event>
 5   0  0.1635086E-06  0.3003900E+04  0.7818609E-02  0.8242618E-01
       -2   -1    0    0    0  501  0.00000000000E+00  0.00000000000E+00  0.80648840297E+03  0.80648840297E+03  0.25500000920E-02 0. -1.
        2   -1    0    0  501    0  0.00000000000E+00  0.00000000000E+00 -0.27971315361E+04  0.27971315361E+04  0.25500000920E-02 0.  1.
    10030    2    1    2    0    0  0.00000000000E+00  0.00000000000E+00 -0.19906431331E+04  0.36036199390E+04  0.30039002283E+04 0.  0.
        3    1    3    3  502    0  0.56714716949E+02 -0.49767673262E+03 -0.26939791426E+04  0.27401500543E+04  0.10100000352E+00 0.  1.
       -3    1    3    3    0  502 -0.56714716949E+02  0.49767673262E+03  0.70333600950E+03  0.86346988470E+03  0.10100000352E+00 0. -1.
</event>
<event>
 5   0  0.5887179E-07  0.2985284E+04  0.7818609E-02  0.8247946E-01
        1   -1    0    0  501    0  0.00000000000E+00  0.00000000000E+00  0.25141333606E+04  0.25141333606E+04  0.50400001928E-02 0.  1.
       -1   -1    0    0    0  501  0.00000000000E+00  0.00000000000E+00 -0.88618219790E+03  0.88618219792E+03  0.50400001928E-02 0. -1.
    10030    2    1    2    0    0  0.00000000000E+00  0.00000000000E+00  0.16279511627E+04  0.34003155585E+04  0.29852840584E+04 0.  0.
        3    1    3    3  502    0 -0.77881238171E+03  0.12445293458E+04  0.11208330185E+04  0.18470702975E+04  0.10100000352E+00 0. -1.
       -3    1    3    3    0  502  0.77881238171E+03 -0.12445293458E+04  0.50711814416E+03  0.15532452610E+04  0.10100000352E+00 0.  1.
</event>
<event>
 5   0  0.5874741E-07  0.2926894E+04  0.7818609E-02  0.8264920E-01
        1   -1    0    0  501    0  0.00000000000E+00  0.00000000000E+00  0.30593903428E+04  0.30593903428E+04  0.50400001928E-02 0.  1.
       -1   -1    0    0    0  501  0.00000000000E+00  0.00000000000E+00 -0.70003400287E+03  0.70003400289E+03  0.50400001928E-02 0. -1.
    10030    2    1    2    0    0  0.00000000000E+00  0.00000000000E+00  0.23593563399E+04  0.37594243457E+04  0.29268940999E+04 0.  0.
        4    1    3    3  502    0  0.62339534530E+03  0.16764547491E+03  0.28666291252E+04  0.29384163960E+04  0.12699999809E+01 0.  1.
       -4    1    3    3    0  502 -0.62339534530E+03 -0.16764547491E+03 -0.50727278532E+03  0.82100794967E+03  0.12699999809E+01 0. -1.
</event>
<event>
 5   0  0.1635086E-06  0.2942571E+04  0.7818609E-02  0.8260323E-01
       -2   -1    0    0    0  501  0.00000000000E+00  0.00000000000E+00  0.75579742497E+03  0.75579742497E+03  0.25500000920E-02 0. -1.
        2   -1    0    0  501    0  0.00000000000E+00  0.00000000000E+00 -0.28641024964E+04  0.28641024964E+04  0.25500000920E-02 0.  1.
    10030    2    1    2    0    0  0.00000000000E+00  0.00000000000E+00 -0.21083050715E+04  0.36198999214E+04  0.29425711829E+04 0.  0.
        3    1    3    3  502    0  0.81765633248E+03 -0.11471942798E+04 -0.53213647809E+03  0.15059169417E+04  0.10100000352E+00 0. -1.
       -3    1    3    3    0  502 -0.81765633248E+03  0.11471942798E+04 -0.15761685934E+04  0.21139829797E+04  0.10100000352E+00 0.  1.
</event>
<event>
 5   0  0.1674806E-06  0.2987373E+04  0.7818609E-02  0.8247346E-01
       -2   -1    0    0    0  501  0.00000000000E+00  0.00000000000E+00  0.10119471150E+04  0.10119471150E+04  0.25500000920E-02 0.  1.
        2   -1    0    0  501    0  0.00000000000E+00  0.00000000000E+00 -0.22047589558E+04  0.22047589558E+04  0.25500000920E-02 0. -1.
    10030    2    1    2    0    0  0.00000000000E+00  0.00000000000E+00 -0.11928118408E+04  0.32167060709E+04  0.29873730699E+04 0.  0.
        2    1    3    3  502    0 -0.14297523983E+04 -0.89107777012E+01 -0.10618238018E+04  0.17809382663E+04  0.25500000920E-02 0. -1.
       -2    1    3    3    0  502  0.14297523983E+04  0.89107777012E+01 -0.13098803903E+03  0.14357678046E+04  0.25500000920E-02 0.  1.
</event>
<event>
 5   0  0.6291798E-07  0.2975770E+04  0.7818609E-02  0.8250684E-01
       -1   -1    0    0    0  501  0.00000000000E+00  0.00000000000E+00  0.27645093767E+04  0.27645093767E+04  0.50400001928E-02 0.  1.
        1   -1    0    0  501    0  0.00000000000E+00  0.00000000000E+00 -0.80079356001E+03  0.80079356003E+03  0.50400001928E-02 0. -1.
    10030    2    1    2    0    0  0.00000000000E+00  0.00000000000E+00  0.19637158167E+04  0.35653029367E+04  0.29757696856E+04 0.  0.
        1    1    3    3  502    0  0.31693696518E+03 -0.13671318457E+04  0.38966755587E+03  0.14564818322E+04  0.50400001928E-02 0. -1.
       -1    1    3    3    0  502 -0.31693696518E+03  0.13671318457E+04  0.15740482608E+04  0.21088211045E+04  0.50400001928E-02 0.  1.
</event>
<event>
 5   0  0.1723916E-06  0.2991019E+04  0.7818609E-02  0.8246300E-01
        2   -1    0    0  501    0  0.00000000000E+00  0.00000000000E+00  0.19782692201E+04  0.19782692201E+04  0.25500000920E-02 0.  1.
       -2   -1    0    0    0  501  0.00000000000E+00  0.00000000000E+00 -0.11305586185E+04  0.11305586185E+04  0.25500000920E-02 0. -1.
    10030    2    1    2    0    0  0.00000000000E+00  0.00000000000E+00  0.84771060164E+03  0.31088278386E+04  0.29910194359E+04 0.  0.
        1    1    3    3  502    0  0.10789823822E+04 -0.13880269323E+03  0.14904714379E+04  0.18452572385E+04  0.50400001928E-02 0.  1.
       -1    1    3    3    0  502 -0.10789823822E+04  0.13880269323E+03 -0.64276083630E+03  0.12635706001E+04  0.50400001928E-02 0. -1.
</event>
<event>
 5   0  0.5931588E-07  0.3074952E+04  0.7818609E-02  0.8222646E-01
       -1   -1    0    0    0  501  0.00000000000E+00  0.00000000000E+00  0.17710410936E+04  0.17710410936E+04  0.50400001928E-02 0.  1.
        1   -1    0    0  501    0  0.00000000000E+00  0.00000000000E+00 -0.13347137907E+04  0.13347137907E+04  0.50400001928E-02 0. -1.
    10030    2    1    2    0    0  0.00000000000E+00  0.00000000000E+00  0.43632730292E+03  0.31057548843E+04  0.30749523388E+04 0.  0.
        2    1    3    3  502    0  0.14084735104E+04 -0.18367134729E+02  0.84053263001E+03  0.16403140197E+04  0.25500000920E-02 0.  1.
       -2    1    3    3    0  502 -0.14084735104E+04  0.18367134729E+02 -0.40420532709E+03  0.14654408646E+04  0.25500000920E-02 0. -1.
</event>
<event>
 5   0  0.1560174E-06  0.3003438E+04  0.7818609E-02  0.8242750E-01
        2   -1    0    0  501    0  0.00000000000E+00  0.00000000000E+00  0.26863887024E+04  0.26863887024E+04  0.25500000920E-02 0.  1.
       -2   -1    0    0    0  501  0.00000000000E+00  0.00000000000E+00 -0.83947619624E+03  0.83947619625E+03  0.25500000920E-02 0. -1.
    10030    2    1    2    0    0  0.00000000000E+00  0.00000000000E+00  0.18469125061E+04  0.35258648986E+04  0.30034376101E+04 0.  0.
        5    1    3    3  502    0 -0.70846199818E+03 -0.36628457151E+03 -0.57029328867E+03  0.98047912538E+03  0.46999998093E+01 0. -1.
       -5    1    3    3    0  502  0.70846199818E+03  0.36628457151E+03  0.24172057948E+04  0.25453857732E+04  0.46999998093E+01 0.  1.
</event>
<event>
 5   0  0.5931588E-07  0.2986236E+04  0.7818609E-02  0.8247672E-01
        1   -1    0    0  501    0  0.00000000000E+00  0.00000000000E+00  0.22715100618E+04  0.22715100618E+04  0.50400001928E-02 0. -1.
       -1   -1    0    0    0  501  0.00000000000E+00  0.00000000000E+00 -0.98146252499E+03  0.98146252501E+03  0.50400001928E-02 0.  1.
    10030    2    1    2    0    0  0.00000000000E+00  0.00000000000E+00  0.12900475368E+04  0.32529725868E+04  0.29862364279E+04 0.  0.
        2    1    3    3  502    0 -0.39335286657E+02 -0.14843801429E+04  0.47462121205E+03  0.15589089031E+04  0.25500000920E-02 0.  1.
       -2    1    3    3    0  502  0.39335286657E+02  0.14843801429E+04  0.81542632476E+03  0.16940636837E+04  0.25500000920E-02 0. -1.
</event>
<event>
 5   0  0.5887179E-07  0.3004815E+04  0.7818609E-02  0.8242357E-01
       -1   -1    0    0    0  501  0.00000000000E+00  0.00000000000E+00  0.17285827009E+04  0.17285827009E+04  0.50400001928E-02 0.  1.
        1   -1    0    0  501    0  0.00000000000E+00  0.00000000000E+00 -0.13058259592E+04  0.13058259592E+04  0.50400001928E-02 0. -1.
    10030    2    1    2    0    0  0.00000000000E+00  0.00000000000E+00  0.42275674174E+03  0.30344086601E+04  0.30048149117E+04 0.  0.
        3    1    3    3  502    0  0.12243293815E+04  0.61654883222E+03 -0.40958687612E+03  0.14306908528E+04  0.10100000352E+00 0. -1.
       -3    1    3    3    0  502 -0.12243293815E+04 -0.61654883222E+03  0.83234361785E+03  0.16037178073E+04  0.10100000352E+00 0.  1.
</event>
<event>
 5   0  0.5916703E-07  0.3010726E+04  0.7818609E-02  0.8240675E-01
       -1   -1    0    0    0  501  0.00000000000E+00  0.00000000000E+00  0.11939670320E+04  0.11939670320E+04  0.50400001928E-02 0.  1.
        1   -1    0    0  501    0  0.00000000000E+00  0.00000000000E+00 -0.18979730797E+04  0.18979730797E+04  0.50400001928E-02 0. -1.
    10030    2    1    2    0    0  0.00000000000E+00  0.00000000000E+00 -0.70400604776E+03  0.30919401117E+04  0.30107256831E+04 0.  0.
        5    1    3    3  502    0  0.34904051474E+03 -0.19468076493E+03 -0.18424850160E+04  0.18853389629E+04  0.46999998093E+01 0. -1.
       -5    1    3    3    0  502 -0.34904051474E+03  0.19468076493E+03  0.11384789682E+04  0.12066011488E+04  0.46999998093E+01 0.  1.
</event>
<event>
 5   0  0.1723916E-06  0.2852496E+04  0.7818609E-02  0.8287153E-01
        2   -1    0    0  501    0  0.00000000000E+00  0.00000000000E+00  0.15203507956E+04  0.15203507956E+04  0.25500000920E-02 0. -1.
       -2   -1    0    0    0  501  0.00000000000E+00  0.00000000000E+00 -0.13379694465E+04  0.13379694465E+04  0.25500000920E-02 0.  1.
    10030    2    1    2    0    0  0.00000000000E+00  0.00000000000E+00  0.18238134911E+03  0.28583202420E+04  0.28524956879E+04 0.  0.
        1    1    3    3  502    0  0.11086487078E+04  0.47440629142E+03 -0.67195462342E+03  0.13804659730E+04  0.50400001928E-02 0.  1.
       -1    1    3    3    0  502 -0.11086487078E+04 -0.47440629142E+03  0.85433597253E+03  0.14778542691E+04  0.50400001928E-02 0. -1.
</event>
<event>
 5   0  0.5887179E-07  0.2990026E+04  0.7818609E-02  0.8246585E-01
       -1   -1    0    0    0  501  0.00000000000E+00  0.00000000000E+00  0.12392849583E+04  0.12392849583E+04  0.50400001928E-02 0.  1.
        1   -1    0    0  501    0  0.00000000000E+00  0.00000000000E+00 -0.18035109379E+04  0.18035109379E+04  0.50400001928E-02 0. -1.
    10030    2    1    2    0    0  0.00000000000E+00  0.00000000000E+00 -0.56422597965E+03  0.30427958962E+04  0.29900260718E+04 0.  0.
        3    1    3    3  502    0  0.10507758731E+04  0.91102405852E+03 -0.84040173295E+03  0.16249214915E+04  0.10100000352E+00 0. -1.
       -3    1    3    3    0  502 -0.10507758731E+04 -0.91102405852E+03  0.27617575330E+03  0.14178744047E+04  0.10100000352E+00 0.  1.
</event>
<event>
 5   0  0.1674806E-06  0.3010707E+04  0.7818609E-02  0.8240680E-01
       -2   -1    0    0    0  501  0.00000000000E+00  0.00000000000E+00  0.29818165411E+04  0.29818165411E+04  0.25500000920E-02 0.  1.
        2   -1    0    0  501    0  0.00000000000E+00  0.00000000000E+00 -0.75996955223E+03  0.75996955224E+03  0.25500000920E-02 0. -1.
    10030    2    1    2    0    0  0.00000000000E+00  0.00000000000E+00  0.22218469889E+04  0.37417860933E+04  0.30107074129E+04 0.  0.
        2    1    3    3  502    0 -0.10615899559E+04  0.83338425436E+02  0.24333345356E+04  0.26561316778E+04  0.25500000920E-02 0.  1.
       -2    1    3    3    0  502  0.10615899559E+04 -0.83338425436E+02 -0.21148754675E+03  0.10856544155E+04  0.25500000920E-02 0. -1.
</event>
<event>
 5   0  0.5874741E-07  0.2966873E+04  0.7818609E-02  0.8253254E-01
        1   -1    0    0  501    0  0.00000000000E+00  0.00000000000E+00  0.19420774857E+04  0.19420774857E+04  0.50400001928E-02 0.  1.
       -1   -1    0    0    0  501  0.00000000000E+00  0.00000000000E+00 -0.11331085119E+04  0.11331085119E+04  0.50400001928E-02 0. -1.
    10030    2    1    2    0    0  0.00000000000E+00  0.00000000000E+00  0.80896897383E+03  0.30751859976E+04  0.29668734586E+04 0.  0.
        4    1    3    3  502    0  0.55569056444E+03  0.95029866904E+02  0.18267146138E+04  0.19117297330E+04  0.12699999809E+01 0.  1.
       -4    1    3    3    0  502 -0.55569056444E+03 -0.95029866904E+02 -0.10177456399E+04  0.11634562646E+04  0.12699999809E+01 0. -1.
</event>
<event>
 5   0  0.5916703E-07  0.2992073E+04  0.7818609E-02  0.8245998E-01
       -1   -1    0    0    0  501  0.00000000000E+00  0.00000000000E+00  0.86384476115E+03  0.86384476117E+03  0.50400001928E-02 0.  1.
        1   -1    0    0  501    0  0.00000000000E+00  0.00000000000E+00 -0.25908884143E+04  0.25908884143E+04  0.50400001928E-02 0. -1.
    10030    2    1    2    0    0  0.00000000000E+00  0.00000000000E+00 -0.17270436532E+04  0.34547331755E+04  0.29920731164E+04 0.  0.
        5    1    3    3  502    0  0.48800790734E+03 -0.47884681984E+03  0.67289680642E+03  0.95930088949E+03  0.46999998093E+01 0.  1.
       -5    1    3    3    0  502 -0.48800790734E+03  0.47884681984E+03 -0.23999404596E+04  0.24954322860E+04  0.46999998093E+01 0. -1.
</event>
<event>
 5   0  0.1560174E-06  0.3002659E+04  0.7818609E-02  0.8242972E-01
       -2   -1    0    0    0  501  0.00000000000E+00  0.00000000000E+00  0.11540196156E+04  0.11540196156E+04  0.25500000920E-02 0.  1.
        2   -1    0    0  501    0  0.00000000000E+00  0.00000000000E+00 -0.19531642590E+04  0.19531642590E+04  0.25500000920E-02 0. -1.
    10030    2    1    2    0    0  0.00000000000E+00  0.00000000000E+00 -0.79914464344E+03  0.31071838746E+04  0.30026587334E+04 0.  0.
        5    1    3    3  502    0 -0.34742031957E+03 -0.10842270210E+04  0.61312568450E+03  0.12931335223E+04  0.46999998093E+01 0.  1.
       -5    1    3    3    0  502  0.34742031957E+03  0.10842270210E+04 -0.14122703279E+04  0.18140503523E+04  0.46999998093E+01 0. -1.
</event>
<event>
 5   0  0.5916703E-07  0.3014252E+04  0.7818609E-02  0.8239673E-01
        1   -1    0    0  501    0  0.00000000000E+00  0.00000000000E+00  0.19647123329E+04  0.19647123329E+04  0.50400001928E-02 0.  1.
       -1   -1    0    0    0  501  0.00000000000E+00  0.00000000000E+00 -0.11561125275E+04  0.11561125275E+04  0.50400001928E-02 0. -1.
    10030    2    1    2    0    0  0.00000000000E+00  0.00000000000E+00  0.80859980540E+03  0.31208248604E+04  0.30142518415E+04 0.  0.
        5    1    3    3  502    0 -0.31548818892E+03  0.14513714788E+04  0.13953499578E+03  0.14918123447E+04  0.46999998093E+01 0.  1.
       -5    1    3    3    0  502  0.31548818892E+03 -0.14513714788E+04  0.66906480962E+03  0.16290125157E+04  0.46999998093E+01 0. -1.
</event>
<event>
 5   0  0.5931588E-07  0.2998788E+04  0.7818609E-02  0.8244077E-01
        1   -1    0    0  501    0  0.00000000000E+00  0.00000000000E+00  0.19084337565E+04  0.19084337565E+04  0.50400001928E-02 0. -1.
       -1   -1    0    0    0  501  0.00000000000E+00  0.00000000000E+00 -0.11780250543E+04  0.11780250543E+04  0.50400001928E-02 0.  1.
    10030    2    1    2    0    0  0.00000000000E+00  0.00000000000E+00  0.73040870221E+03  0.30864588108E+04  0.29987882750E+04 0.  0.
        2    1    3    3  502    0  0.28598666324E+03 -0.12685433188E+04 -0.40307156225E+03  0.13614173524E+04  0.25500000920E-02 0.  1.
       -2    1    3    3    0  502 -0.28598666324E+03  0.12685433188E+04  0.11334802645E+04  0.17250414584E+04  0.25500000920E-02 0. -1.
</event>
<event>
 5   0  0.1723916E-06  0.2991789E+04  0.7818609E-02  0.8246079E-01
        2   -1    0    0  501    0  0.00000000000E+00  0.00000000000E+00  0.19439118343E+04  0.19439118343E+04  0.25500000920E-02 0.  1.
       -2   -1    0    0    0  501  0.00000000000E+00  0.00000000000E+00 -0.11511327778E+04  0.11511327778E+04  0.25500000920E-02 0. -1.
    10030    2    1    2    0    0  0.00000000000E+00  0.00000000000E+00  0.79277905659E+03  0.30950446121E+04  0.29917891835E+04 0.  0.
        1    1    3    3  502    0 -0.14199699608E+04 -0.35837192044E+03  0.80980960277E+02  0.14667320951E+04  0.50400001928E-02 0. -1.
       -1    1    3    3    0  502  0.14199699608E+04  0.35837192044E+03  0.71179809631E+03  0.16283125170E+04  0.50400001928E-02 0.  1.
</event>
<event>
 5   0  0.5874741E-07  0.3104900E+04  0.7818609E-02  0.8214394E-01
       -1   -1    0    0    0  501  0.00000000000E+00  0.00000000000E+00  0.11604189413E+04  0.11604189413E+04  0.50400001928E-02 0. -1.
        1   -1    0    0  501    0  0.00000000000E+00  0.00000000000E+00 -0.20769232652E+04  0.20769232652E+04  0.50400001928E-02 0.  1.
    10030    2    1    2    0    0  0.00000000000E+00  0.00000000000E+00 -0.91650432394E+03  0.32373422065E+04  0.31049000606E+04 0.  0.
        4    1    3    3  502    0 -0.40986467921E+03 -0.94085337798E+03 -0.16728031759E+04  0.19625152769E+04  0.12699999809E+01 0.  1.
       -4    1    3    3    0  502  0.40986467921E+03  0.94085337798E+03  0.75629885192E+03  0.12748269296E+04  0.12699999809E+01 0. -1.
</event>
<event>
 5   0  0.1723916E-06  0.3002671E+04  0.7818609E-02  0.8242968E-01
        2   -1    0    0  501    0  0.00000000000E+00  0.00000000000E+00  0.21460575762E+04  0.21460575762E+04  0.25500000920E-02 0.  1.
       -2   -1    0    0    0  501  0.00000000000E+00  0.00000000000E+00 -0.10503021384E+04  0.10503021384E+04  0.25500000920E-02 0. -1.
    10030    2    1    2    0    0  0.00000000000E+00  0.00000000000E+00  0.10957554378E+04  0.31963597146E+04  0.30026713849E+04 0.  0.
        1    1    3    3  502    0 -0.79610441230E+03  0.90378168632E+03  0.15020244935E+04  0.19252743054E+04  0.50400001928E-02 0.  1.
       -1    1    3    3    0  502  0.79610441230E+03 -0.90378168632E+03 -0.40626905572E+03  0.12710854092E+04  0.50400001928E-02 0. -1.
</event>
<event>
 5   0  0.1723916E-06  0.3076476E+04  0.7818609E-02  0.8222224E-01
       -2   -1    0    0    0  501  0.00000000000E+00  0.00000000000E+00  0.16219099339E+04  0.16219099339E+04  0.25500000920E-02 0.  1.
        2   -1    0    0  501    0  0.00000000000E+00  0.00000000000E+00 -0.14588823023E+04  0.14588823023E+04  0.25500000920E-02 0. -1.
    10030    2    1    2    0    0  0.00000000000E+00  0.00000000000E+00  0.16302763155E+03  0.30807922362E+04  0.30764757100E+04 0.  0.
        1    1    3    3  502    0 -0.81209498437E+03  0.30415576445E+03 -0.11907673943E+04  0.14730702563E+04  0.50400001928E-02 0. -1.
       -1    1    3    3    0  502  0.81209498437E+03 -0.30415576445E+03  0.13537950258E+04  0.16077219799E+04  0.50400001928E-02 0.  1.
</event>
<event>
 5   0  0.5874741E-07  0.2954616E+04  0.7818609E-02  0.8256810E-01
        1   -1    0    0  501    0  0.00000000000E+00  0.00000000000E+00  0.24794450997E+04  0.24794450997E+04  0.50400001928E-02 0.  1.
       -1   -1    0    0    0  501  0.00000000000E+00  0.00000000000E+00 -0.88021292364E+03  0.88021292365E+03  0.50400001928E-02 0. -1.
    10030    2    1    2    0    0  0.00000000000E+00  0.00000000000E+00  0.15992321761E+04  0.33596580234E+04  0.29546164693E+04 0.  0.
        4    1    3    3  502    0 -0.31895912832E+03 -0.66755020651E+03 -0.65438066263E+03  0.98771142966E+03  0.12699999809E+01 0. -1.
       -4    1    3    3    0  502  0.31895912832E+03  0.66755020651E+03  0.22536128387E+04  0.23719465937E+04  0.12699999809E+01 0.  1.
</event>
<event>
 5   0  0.5887179E-07  0.2963482E+04  0.7818609E-02  0.8254236E-01
       -1   -1    0    0    0  501  0.00000000000E+00  0.00000000000E+00  0.13540948146E+04  0.13540948146E+04  0.50400001928E-02 0.  1.
        1   -1    0    0  501    0  0.00000000000E+00  0.00000000000E+00 -0.16214202995E+04  0.16214202995E+04  0.50400001928E-02 0. -1.
    10030    2    1    2    0    0  0.00000000000E+00  0.00000000000E+00 -0.26732548488E+03  0.29755151142E+04  0.29634822894E+04 0.  0.
        3    1    3    3  502    0 -0.11186070412E+04  0.92170969402E+03  0.17536338276E+03  0.14599941092E+04  0.10100000352E+00 0. -1.
       -3    1    3    3    0  502  0.11186070412E+04 -0.92170969402E+03 -0.44268886764E+03  0.15155210049E+04  0.10100000352E+00 0.  1.
</event>
<event>
 5   0  0.1625212E-06  0.2998896E+04  0.7818609E-02  0.8244046E-01
       -2   -1    0    0    0  501  0.00000000000E+00  0.00000000000E+00  0.25355927134E+04  0.25355927134E+04  0.25500000920E-02 0. -1.
        2   -1    0    0  501    0  0.00000000000E+00  0.00000000000E+00 -0.88671375997E+03  0.88671375998E+03  0.25500000920E-02 0.  1.
    10030    2    1    2    0    0  0.00000000000E+00  0.00000000000E+00  0.16488789534E+04  0.34223064734E+04  0.29988964295E+04 0.  0.
        4    1    3    3  502    0 -0.20610748548E+03 -0.34376902198E+02 -0.87001668637E+03  0.89475846710E+03  0.12699999809E+01 0.  1.
       -4    1    3    3    0  502  0.20610748548E+03  0.34376902198E+02  0.25188956398E+04  0.25275480063E+04  0.12699999809E+01 0. -1.
</event>
<event>
 5   0  0.5874741E-07  0.2998638E+04  0.7818609E-02  0.8244120E-01
        1   -1    0    0  501    0  0.00000000000E+00  0.00000000000E+00  0.14163682862E+04  0.14163682862E+04  0.50400001928E-02 0. -1.
       -1   -1    0    0    0  501  0.00000000000E+00  0.00000000000E+00 -0.15871274074E+04  0.15871274074E+04  0.50400001928E-02 0.  1.
    10030    2    1    2    0    0  0.00000000000E+00  0.00000000000E+00 -0.17075912126E+03  0.30034956936E+04  0.29986376414E+04 0.  0.
        4    1    3    3  502    0  0.11363347889E+04 -0.37627629082E+02  0.89358954551E+03  0.14460900662E+04  0.12699999809E+01 0. -1.
       -4    1    3    3    0  502 -0.11363347889E+04  0.37627629082E+02 -0.10643486668E+04  0.15574056274E+04  0.12699999809E+01 0.  1.
</event>
<event>
 5   0  0.6291798E-07  0.3015235E+04  0.7818609E-02  0.8239394E-01
        1   -1    0    0  501    0  0.00000000000E+00  0.00000000000E+00  0.97763086026E+03  0.97763086027E+03  0.50400001928E-02 0.  1.
       -1   -1    0    0    0  501  0.00000000000E+00  0.00000000000E+00 -0.23249167925E+04  0.23249167925E+04  0.50400001928E-02 0. -1.
    10030    2    1    2    0    0  0.00000000000E+00  0.00000000000E+00 -0.13472859323E+04  0.33025476528E+04  0.30152349188E+04 0.  0.
        1    1    3    3  502    0 -0.14127890418E+04 -0.20642367560E+03 -0.12038419777E+04  0.18675703783E+04  0.50400001928E-02 0. -1.
       -1    1    3    3    0  502  0.14127890418E+04  0.20642367560E+03 -0.14344395453E+03  0.14349772745E+04  0.50400001928E-02 0.  1.
</event>
<event>
 5   0  0.5916703E-07  0.2983119E+04  0.7818609E-02  0.8248568E-01
       -1   -1    0    0    0  501  0.00000000000E+00  0.00000000000E+00  0.15075757019E+04  0.15075757019E+04  0.50400001928E-02 0. -1.
        1   -1    0    0  501    0  0.00000000000E+00  0.00000000000E+00 -0.14757135218E+04  0.14757135218E+04  0.50400001928E-02 0.  1.
    10030    2    1    2    0    0  0.00000000000E+00  0.00000000000E+00  0.31862180126E+02  0.29832892237E+04  0.29831190713E+04 0.  0.
        5    1    3    3  502    0 -0.43801236897E+02  0.73788073684E+03  0.13115130804E+04  0.15054817103E+04  0.46999998093E+01 0. -1.
       -5    1    3    3    0  502  0.43801236897E+02 -0.73788073684E+03 -0.12796509002E+04  0.14778075134E+04  0.46999998093E+01 0.  1.
</event>
<event>
 5   0  0.1625212E-06  0.3007596E+04  0.7818609E-02  0.8241565E-01
       -2   -1    0    0    0  501  0.00000000000E+00  0.00000000000E+00  0.89787646857E+03  0.89787646857E+03  0.25500000920E-02 0. -1.
        2   -1    0    0  501    0  0.00000000000E+00  0.00000000000E+00 -0.25186184282E+04  0.25186184282E+04  0.25500000920E-02 0.  1.
    10030    2    1    2    0    0  0.00000000000E+00  0.00000000000E+00 -0.16207419596E+04  0.34164948967E+04  0.30075958638E+04 0.  0.
        4    1    3    3  502    0  0.14492396020E+04  0.37461013408E+03 -0.97411583651E+03  0.17859259370E+04  0.12699999809E+01 0. -1.
       -4    1    3    3    0  502 -0.14492396020E+04 -0.37461013408E+03 -0.64662612307E+03  0.16305689597E+04  0.12699999809E+01 0.  1.
</event>
<event>
 5   0  0.1674806E-06  0.3019075E+04  0.7818609E-02  0.8238305E-01
        2   -1    0    0  501    0  0.00000000000E+00  0.00000000000E+00  0.20813309033E+04  0.20813309033E+04  0.25500000920E-02 0. -1.
       -2   -1    0    0    0  501  0.00000000000E+00  0.00000000000E+00 -0.10948301981E+04  0.10948301981E+04  0.25500000920E-02 0.  1.
    10030    2    1    2    0    0  0.00000000000E+00  0.00000000000E+00  0.98650070527E+03  0.31761611014E+04  0.30190753055E+04 0.  0.
        2    1    3    3  502    0 -0.12871698709E+04  0.47624434191E+03  0.11545161075E+04  0.17934665852E+04  0.25500000920E-02 0. -1.
       -2    1    3    3    0  502  0.12871698709E+04 -0.47624434191E+03 -0.16801540220E+03  0.13826945162E+04  0.25500000920E-02 0.  1.
</event>
<event>
 5   0  0.5916703E-07  0.2984490E+04  0.7818609E-02  0.8248174E-01
        1   -1    0    0  501    0  0.00000000000E+00  0.00000000000E+00  0.15339365143E+04  0.15339365143E+04  0.50400001928E-02 0. -1.
       -1   -1    0    0    0  501  0.00000000000E+00  0.00000000000E+00 -0.14516862067E+04  0.14516862067E+04  0.50400001928E-02 0.  1.
    10030    2    1    2    0    0  0.00000000000E+00  0.00000000000E+00  0.82250307672E+02  0.29856227210E+04  0.29844895575E+04 0.  0.
        5    1    3    3  502    0  0.39049536210E+02  0.12781974740E+04  0.81048070322E+03  0.15140061787E+04  0.46999998093E+01 0. -1.
       -5    1    3    3    0  502 -0.39049536210E+02 -0.12781974740E+04 -0.72823039554E+03  0.14716165423E+04  0.46999998093E+01 0.  1.
</event>
<event>
 5   0  0.6291798E-07  0.3026451E+04  0.7818609E-02  0.8236218E-01
       -1   -1    0    0    0  501  0.00000000000E+00  0.00000000000E+00  0.14482616473E+04  0.14482616473E+04  0.50400001928E-02 0. -1.
        1   -1    0    0  501    0  0.00000000000E+00  0.00000000000E+00 -0.15811033569E+04  0.15811033569E+04  0.50400001928E-02 0.  1.
    10030    2    1    2    0    0  0.00000000000E+00  0.00000000000E+00 -0.13284170962E+03  0.30293650042E+04  0.30264509593E+04 0.  0.
        1    1    3    3  502    0  0.48344894399E+03 -0.13459593880E+04  0.42854672332E+03  0.14929775114E+04  0.50400001928E-02 0. -1.
       -1    1    3    3    0  502 -0.48344894399E+03  0.13459593880E+04 -0.56138843295E+03  0.15363874928E+04  0.50400001928E-02 0.  1.
</event>
<event>
 5   0  0.1635086E-06  0.3047226E+04  0.7818609E-02  0.8230372E-01
       -2   -1    0    0    0  501  0.00000000000E+00  0.00000000000E+00  0.20608198197E+04  0.20608198197E+04  0.25500000920E-02 0. -1.
        2   -1    0    0  501    0  0.00000000000E+00  0.00000000000E+00 -0.11264434620E+04  0.11264434620E+04  0.25500000920E-02 0.  1.
    10030    2    1    2    0    0  0.00000000000E+00  0.00000000000E+00  0.93437635772E+03  0.31872632817E+04  0.30472262878E+04 0.  0.
        3    1    3    3  502    0 -0.14647845197E+03 -0.10010488432E+04 -0.72439452903E+03  0.12443079069E+04  0.10100000352E+00 0.  1.
       -3    1    3    3    0  502  0.14647845197E+03  0.10010488432E+04  0.16587708867E+04  0.19429553748E+04  0.10100000352E+00 0. -1.
</event>
<event>
 5   0  0.1625212E-06  0.2970758E+04  0.7818609E-02  0.8252131E-01
        2   -1    0    0  501    0  0.00000000000E+00  0.00000000000E+00  0.14090348414E+04  0.14090348414E+04  0.25500000920E-02 0. -1.
       -2   -1    0    0    0  501  0.00000000000E+00  0.00000000000E+00 -0.15658595171E+04  0.15658595171E+04  0.25500000920E-02 0.  1.
    10030    2    1    2    0    0  0.00000000000E+00  0.00000000000E+00 -0.15682467568E+03  0.29748943584E+04  0.29707578940E+04 0.  0.
        4    1    3    3  502    0 -0.30188275671E+01 -0.10504557607E+04 -0.11300567723E+04  0.15428857184E+04  0.12699999809E+01 0.  1.
       -4    1    3    3    0  502  0.30188275671E+01  0.10504557607E+04  0.97323209664E+03  0.14320086401E+04  0.12699999809E+01 0. -1.
</event>
<event>
 5   0  0.1625212E-06  0.2962924E+04  0.7818609E-02  0.8254398E-01
        2   -1    0    0  501    0  0.00000000000E+00  0.00000000000E+00  0.17446044679E+04  0.17446044679E+04  0.25500000920E-02 0.  1.
       -2   -1    0    0    0  501  0.00000000000E+00  0.00000000000E+00 -0.12580095775E+04  0.12580095775E+04  0.25500000920E-02 0. -1.
    10030    2    1    2    0    0  0.00000000000E+00  0.00000000000E+00  0.48659489032E+03  0.30026140454E+04  0.29629236437E+04 0.  0.
        4    1    3    3  502    0  0.13655825461E+04 -0.49665656358E+03  0.53568288550E+03  0.15486901559E+04  0.12699999809E+01 0.  1.
       -4    1    3    3    0  502 -0.13655825461E+04  0.49665656358E+03 -0.49087995184E+02  0.14539238895E+04  0.12699999809E+01 0. -1.
</event>
<event>
 5   0  0.5887179E-07  0.2997620E+04  0.7818609E-02  0.8244411E-01
       -1   -1    0    0    0  501  0.00000000000E+00  0.00000000000E+00  0.14332254423E+04  0.14332254423E+04  0.50400001928E-02 0.  1.
        1   -1    0    0  501    0  0.00000000000E+00  0.00000000000E+00 -0.15673958630E+04  0.15673958630E+04  0.50400001928E-02 0. -1.
    10030    2    1    2    0    0  0.00000000000E+00  0.00000000000E+00 -0.13417042073E+03  0.30006213053E+04  0.29976201420E+04 0.  0.
        3    1    3    3  502    0 -0.91967003191E+03 -0.95166933482E+03 -0.77132644945E+03  0.15318002455E+04  0.10100000352E+00 0.  1.
       -3    1    3    3    0  502  0.91967003191E+03  0.95166933482E+03  0.63715602872E+03  0.14688210598E+04  0.10100000352E+00 0. -1.
</event>
<event>
 5   0  0.5887179E-07  0.2998050E+04  0.7818609E-02  0.8244288E-01
       -1   -1    0    0    0  501  0.00000000000E+00  0.00000000000E+00  0.98834590562E+03  0.98834590563E+03  0.50400001928E-02 0. -1.
        1   -1    0    0  501    0  0.00000000000E+00  0.00000000000E+00 -0.22735726358E+04  0.22735726358E+04  0.50400001928E-02 0.  1.
    10030    2    1    2    0    0  0.00000000000E+00  0.00000000000E+00 -0.12852267302E+04  0.32619185414E+04  0.29980501702E+04 0.  0.
        3    1    3    3  502    0  0.70575207589E+02 -0.14681109088E+04 -0.32216491094E+03  0.15046995516E+04  0.10100000352E+00 0. -1.
       -3    1    3    3    0  502 -0.70575207589E+02  0.14681109088E+04 -0.96306181923E+03  0.17572189899E+04  0.10100000352E+00 0.  1.
</event>
<event>
 5   0  0.6291798E-07  0.3005998E+04  0.7818609E-02  0.8242020E-01
        1   -1    0    0  501    0  0.00000000000E+00  0.00000000000E+00  0.19347995636E+04  0.19347995636E+04  0.50400001928E-02 0. -1.
       -1   -1    0    0    0  501  0.00000000000E+00  0.00000000000E+00 -0.11675662776E+04  0.11675662776E+04  0.50400001928E-02 0.  1.
    10030    2    1    2    0    0  0.00000000000E+00  0.00000000000E+00  0.76723328602E+03  0.31023658412E+04  0.30059984859E+04 0.  0.
        1    1    3    3  502    0 -0.47467471700E+03 -0.83222296796E+03 -0.81156555618E+03  0.12556073460E+04  0.50400001928E-02 0.  1.
       -1    1    3    3    0  502  0.47467471700E+03  0.83222296796E+03  0.15787988422E+04  0.18467584952E+04  0.50400001928E-02 0. -1.
</event>
<event>
 5   0  0.5931588E-07  0.3005291E+04  0.7818609E-02  0.8242222E-01
       -1   -1    0    0    0  501  0.00000000000E+00  0.00000000000E+00  0.10784103663E+04  0.10784103663E+04  0.50400001928E-02 0.  1.
        1   -1    0    0  501    0  0.00000000000E+00  0.00000000000E+00 -0.20937704259E+04  0.20937704259E+04  0.50400001928E-02 0. -1.
    10030    2    1    2    0    0  0.00000000000E+00  0.00000000000E+00 -0.10153600597E+04  0.31721807922E+04  0.30052911553E+04 0.  0.
        2    1    3    3  502    0  0.11841730199E+04 -0.64657813373E+03 -0.12059403012E+04  0.18095913998E+04  0.25500000920E-02 0. -1.
       -2    1    3    3    0  502 -0.11841730199E+04  0.64657813373E+03  0.19058024153E+03  0.13625893925E+04  0.25500000920E-02 0.  1.
</event>
<event>
 5   0  0.1635086E-06  0.3006819E+04  0.7818609E-02  0.8241786E-01
        2   -1    0    0  501    0  0.00000000000E+00  0.00000000000E+00  0.20697335293E+04  0.20697335293E+04  0.25500000920E-02 0.  1.
       -2   -1    0    0    0  501  0.00000000000E+00  0.00000000000E+00 -0.10920438472E+04  0.10920438472E+04  0.25500000920E-02 0. -1.
    10030    2    1    2    0    0  0.00000000000E+00  0.00000000000E+00  0.97768968206E+03  0.31617773765E+04  0.30068187614E+04 0.  0.
        3    1    3    3  502    0 -0.14463803712E+04  0.22918577599E+03  0.13117201662E+03  0.14702885452E+04  0.10100000352E+00 0. -1.
       -3    1    3    3    0  502  0.14463803712E+04 -0.22918577599E+03  0.84651766543E+03  0.16914888312E+04  0.10100000352E+00 0.  1.
</event>
<event>
 5   0  0.1635086E-06  0.2986373E+04  0.7818609E-02  0.8247633E-01
        2   -1    0    0  501    0  0.00000000000E+00  0.00000000000E+00  0.19804943613E+04  0.19804943613E+04  0.25500000920E-02 0.  1.
       -2   -1    0    0    0  501  0.00000000000E+00  0.00000000000E+00 -0.11257827575E+04  0.11257827575E+04  0.25500000920E-02 0. -1.
    10030    2    1    2    0    0  0.00000000000E+00  0.00000000000E+00  0.85471160376E+03  0.31062771188E+04  0.29863733211E+04 0.  0.
        3    1    3    3  502    0 -0.14288100947E+04  0.38827262697E+03  0.22632815718E+03  0.14978245439E+04  0.10100000352E+00 0. -1.
       -3    1    3    3    0  502  0.14288100947E+04 -0.38827262697E+03  0.62838344657E+03  0.16084525749E+04  0.10100000352E+00 0.  1.
</event>
<event>
 5   0  0.5887179E-07  0.2999965E+04  0.7818609E-02  0.8243741E-01
        1   -1    0    0  501    0  0.00000000000E+00  0.00000000000E+00  0.16350538842E+04  0.16350538842E+04  0.50400001928E-02 0.  1.
       -1   -1    0    0    0  501  0.00000000000E+00  0.00000000000E+00 -0.13760692116E+04  0.13760692116E+04  0.50400001928E-02 0. -1.
    10030    2    1    2    0    0  0.00000000000E+00  0.00000000000E+00  0.25898467254E+03  0.30111230958E+04  0.29999648727E+04 0.  0.
        3    1    3    3  502    0  0.10868496379E+04 -0.65697604937E+03 -0.67165414266E+03  0.14366554780E+04  0.10100000352E+00 0.  1.
       -3    1    3    3    0  502 -0.10868496379E+04  0.65697604937E+03  0.93063881520E+03  0.15744676178E+04  0.10100000352E+00 0. -1.
</event>
<event>
 5   0  0.1674806E-06  0.2999457E+04  0.7818609E-02  0.8243886E-01
       -2   -1    0    0    0  501  0.00000000000E+00  0.00000000000E+00  0.13284100285E+04  0.13284100285E+04  0.25500000920E-02 0.  1.
        2   -1    0    0  501    0  0.00000000000E+00  0.00000000000E+00 -0.16931407354E+04  0.16931407354E+04  0.25500000920E-02 0. -1.
    10030    2    1    2    0    0  0.00000000000E+00  0.00000000000E+00 -0.36473070682E+03  0.30215507639E+04  0.29994567059E+04 0.  0.
        2    1    3    3  502    0 -0.22550953138E+03  0.85558491731E+03 -0.14021957747E+04  0.16580208352E+04  0.25500000920E-02 0. -1.
       -2    1    3    3    0  502  0.22550953138E+03 -0.85558491731E+03  0.10374650678E+04  0.13635299287E+04  0.25500000920E-02 0.  1.
</event>
<event>
 5   0  0.1723916E-06  0.3004543E+04  0.7818609E-02  0.8242435E-01
        2   -1    0    0  501    0  0.00000000000E+00  0.00000000000E+00  0.26314289677E+04  0.26314289677E+04  0.25500000920E-02 0.  1.
       -2   -1    0    0    0  501  0.00000000000E+00  0.00000000000E+00 -0.85764059291E+03  0.85764059291E+03  0.25500000920E-02 0. -1.
    10030    2    1    2    0    0  0.00000000000E+00  0.00000000000E+00  0.17737883748E+04  0.34890695606E+04  0.30045434262E+04 0.  0.
        1    1    3    3  502    0 -0.20573800846E+03  0.56105433740E+03  0.24874647310E+04  0.25582398022E+04  0.50400001928E-02 0.  1.
       -1    1    3    3    0  502  0.20573800846E+03 -0.56105433740E+03 -0.71367635622E+03  0.93082975838E+03  0.50400001928E-02 0. -1.
</event>
<event>
 5   0  0.1625212E-06  0.2997058E+04  0.7818609E-02  0.8244571E-01
        2   -1    0    0  501    0  0.00000000000E+00  0.00000000000E+00  0.24026276542E+04  0.24026276542E+04  0.25500000920E-02 0.  1.
       -2   -1    0    0    0  501  0.00000000000E+00  0.00000000000E+00 -0.93463896774E+03  0.93463896775E+03  0.25500000920E-02 0. -1.
    10030    2    1    2    0    0  0.00000000000E+00  0.00000000000E+00  0.14679886864E+04  0.33372666219E+04  0.29970581780E+04 0.  0.
        4    1    3    3  502    0  0.16153345271E+03  0.14437874856E+04  0.11430838215E+04  0.18485825910E+04  0.12699999809E+01 0.  1.
       -4    1    3    3    0  502 -0.16153345271E+03 -0.14437874856E+04  0.32490486492E+03  0.14886840309E+04  0.12699999809E+01 0. -1.
</event>
<event>
 5   0  0.5916703E-07  0.2995376E+04  0.7818609E-02  0.8245053E-01
        1   -1    0    0  501    0  0.00000000000E+00  0.00000000000E+00  0.25772821633E+04  0.25772821633E+04  0.50400001928E-02 0. -1.
       -1   -1    0    0    0  501  0.00000000000E+00  0.00000000000E+00 -0.87032335803E+03  0.87032335804E+03  0.50400001928E-02 0.  1.
    10030    2    1    2    0    0  0.00000000000E+00  0.00000000000E+00  0.17069588053E+04  0.34476055214E+04  0.29953756806E+04 0.  0.
        5    1    3    3  502    0  0.83010873345E+03  0.11488705449E+04  0.29663685809E+03  0.14481020523E+04  0.46999998093E+01 0.  1.
       -5    1    3    3    0  502 -0.83010873345E+03 -0.11488705449E+04  0.14103219472E+04  0.19995034691E+04  0.46999998093E+01 0. -1.
</event>
<event>
 5   0  0.1723916E-06  0.2888512E+04  0.7818609E-02  0.8276304E-01
        2   -1    0    0  501    0  0.00000000000E+00  0.00000000000E+00  0.20156652837E+04  0.20156652837E+04  0.25500000920E-02 0. -1.
       -2   -1    0    0    0  501  0.00000000000E+00  0.00000000000E+00 -0.10348319680E+04  0.10348319680E+04  0.25500000920E-02 0.  1.
    10030    2    1    2    0    0  0.00000000000E+00  0.00000000000E+00  0.98083331564E+03  0.30504972517E+04  0.28885116392E+04 0.  0.
        1    1    3    3  502    0 -0.78205737390E+03 -0.12055796044E+04  0.33796418526E+03  0.14762302358E+04  0.50400001928E-02 0.  1.
       -1    1    3    3    0  502  0.78205737390E+03  0.12055796044E+04  0.64286913038E+03  0.15742670159E+04  0.50400001928E-02 0. -1.
</event>
<event>
 5   0  0.1635086E-06  0.3005424E+04  0.7818609E-02  0.8242184E-01
       -2   -1    0    0    0  501  0.00000000000E+00  0.00000000000E+00  0.12870978813E+04  0.12870978813E+04  0.25500000920E-02 0. -1.
        2   -1    0    0  501    0  0.00000000000E+00  0.00000000000E+00 -0.17544455704E+04  0.17544455704E+04  0.25500000920E-02 0.  1.
    10030    2    1    2    0    0  0.00000000000E+00  0.00000000000E+00 -0.46734768904E+03  0.30415434517E+04  0.30054238813E+04 0.  0.
        3    1    3    3  502    0 -0.13389224739E+04 -0.67879971405E+03 -0.16458388090E+03  0.15101557227E+04  0.10100000352E+00 0.  1.
       -3    1    3    3    0  502  0.13389224739E+04  0.67879971405E+03 -0.30276380814E+03  0.15313877290E+04  0.10100000352E+00 0. -1.
</event>
<event>
 5   0  0.5874741E-07  0.3020512E+04  0.7818609E-02  0.8237898E-01
       -1   -1    0    0    0  501  0.00000000000E+00  0.00000000000E+00  0.13533389430E+04  0.13533389430E+04  0.50400001928E-02 0.  1.
        1   -1    0    0  501    0  0.00000000000E+00  0.00000000000E+00 -0.16853670980E+04  0.16853670980E+04  0.50400001928E-02 0. -1.
    10030    2    1    2    0    0  0.00000000000E+00  0.00000000000E+00 -0.33202815501E+03  0.30387060410E+04  0.30205118288E+04 0.  0.
        4    1    3    3  502    0  0.14042232300E+04 -0.49986991159E+03  0.78676218837E+02  0.14926166181E+04  0.12699999809E+01 0.  1.
       -4    1    3    3    0  502 -0.14042232300E+04  0.49986991159E+03 -0.41070437385E+03  0.15460894230E+04  0.12699999809E+01 0. -1.
</event>
<event>
 5   0  0.1560174E-06  0.2928816E+04  0.7818609E-02  0.8264355E-01
       -2   -1    0    0    0  501  0.00000000000E+00  0.00000000000E+00  0.10964013495E+04  0.10964013495E+04  0.25500000920E-02 0. -1.
        2   -1    0    0  501    0  0.00000000000E+00  0.00000000000E+00 -0.19559362599E+04  0.19559362599E+04  0.25500000920E-02 0.  1.
    10030    2    1    2    0    0  0.00000000000E+00  0.00000000000E+00 -0.85953491041E+03  0.30523376094E+04  0.29288162488E+04 0.  0.
        5    1    3    3  502    0  0.38151213482E+03 -0.76963633559E+03  0.80624335876E+03  0.11781095202E+04  0.46999998093E+01 0. -1.
       -5    1    3    3    0  502 -0.38151213482E+03  0.76963633559E+03 -0.16657782692E+04  0.18742280891E+04  0.46999998093E+01 0.  1.
</event>
<event>
 5   0  0.1674806E-06  0.2990049E+04  0.7818609E-02  0.8246578E-01
        2   -1    0    0  501    0  0.00000000000E+00  0.00000000000E+00  0.12126193794E+04  0.12126193794E+04  0.25500000920E-02 0. -1.
       -2   -1    0    0    0  501  0.00000000000E+00  0.00000000000E+00 -0.18431983001E+04  0.18431983001E+04  0.25500000920E-02 0.  1.
    10030    2    1    2    0    0  0.00000000000E+00  0.00000000000E+00 -0.63057892073E+03  0.30558176795E+04  0.29900488148E+04 0.  0.
        2    1    3    3  502    0 -0.52344842778E+03  0.22548853074E+03 -0.17278100687E+04  0.18193875254E+04  0.25500000920E-02 0.  1.
       -2    1    3    3    0  502  0.52344842778E+03 -0.22548853074E+03  0.10972311479E+04  0.12364301541E+04  0.25500000920E-02 0. -1.
</event>
<event>
 5   0  0.1674806E-06  0.2999724E+04  0.7818609E-02  0.8243810E-01
       -2   -1    0    0    0  501  0.00000000000E+00  0.00000000000E+00  0.13047766071E+04  0.13047766071E+04  0.25500000920E-02 0. -1.
        2   -1    0    0  501    0  0.00000000000E+00  0.00000000000E+00 -0.17241156022E+04  0.17241156022E+04  0.25500000920E-02 0.  1.
    10030    2    1    2    0    0  0.00000000000E+00  0.00000000000E+00 -0.41933899510E+03  0.30288922094E+04  0.29997237912E+04 0.  0.
        2    1    3    3  502    0  0.22853614660E+03  0.14491950223E+04 -0.52445516969E+03  0.15580270241E+04  0.25500000920E-02 0.  1.
       -2    1    3    3    0  502 -0.22853614660E+03 -0.14491950223E+04  0.10511617460E+03  0.14708651852E+04  0.25500000920E-02 0. -1.
</event>
<event>
 5   0  0.5887179E-07  0.2975679E+04  0.7818609E-02  0.8250710E-01
        1   -1    0    0  501    0  0.00000000000E+00  0.00000000000E+00  0.19363617213E+04  0.19363617213E+04  0.50400001928E-02 0. -1.
       -1   -1    0    0    0  501  0.00000000000E+00  0.00000000000E+00 -0.11432092679E+04  0.11432092679E+04  0.50400001928E-02 0.  1.
    10030    2    1    2    0    0  0.00000000000E+00  0.00000000000E+00  0.79315245343E+03  0.30795709893E+04  0.29756791936E+04 0.  0.
        3    1    3    3  502    0 -0.87552998462E+03  0.88953074758E+03 -0.44154342814E+03  0.13239253431E+04  0.10100000352E+00 0.  1.
       -3    1    3    3    0  502  0.87552998462E+03 -0.88953074758E+03  0.12346958816E+04  0.17556456462E+04  0.10100000352E+00 0. -1.
</event>
<event>
 5   0  0.5931588E-07  0.2988293E+04  0.7818609E-02  0.8247082E-01
        1   -1    0    0  501    0  0.00000000000E+00  0.00000000000E+00  0.11520353867E+04  0.11520353868E+04  0.50400001928E-02 0. -1.
       -1   -1    0    0    0  501  0.00000000000E+00  0.00000000000E+00 -0.19378514468E+04  0.19378514468E+04  0.50400001928E-02 0.  1.
    10030    2    1    2    0    0  0.00000000000E+00  0.00000000000E+00 -0.78581606006E+03  0.30898868336E+04  0.29882927842E+04 0.  0.
        2    1    3    3  502    0  0.10248655273E+04  0.24671237583E+03  0.70198585399E+03  0.12664914072E+04  0.25500000920E-02 0. -1.
       -2    1    3    3    0  502 -0.10248655273E+04 -0.24671237583E+03 -0.14878019140E+04  0.18233954263E+04  0.25500000920E-02 0.  1.
</event>
<event>
 5   0  0.1723916E-06  0.2998756E+04  0.7818609E-02  0.8244086E-01
        2   -1    0    0  501    0  0.00000000000E+00  0.00000000000E+00  0.21671574789E+04  0.21671574789E+04  0.25500000920E-02 0.  1.
       -2   -1    0    0    0  501  0.00000000000E+00  0.00000000000E+00 -0.10373657668E+04  0.10373657668E+04  0.25500000920E-02 0. -1.
    10030    2    1    2    0    0  0.00000000000E+00  0.00000000000E+00  0.11297917121E+04  0.32045232457E+04  0.29987563955E+04 0.  0.
        1    1    3    3  502    0  0.91674167886E+03  0.72095127417E+03  0.15718651656E+04  0.19572802927E+04  0.50400001928E-02 0.  1.
       -1    1    3    3    0  502 -0.91674167886E+03 -0.72095127417E+03 -0.44207345350E+03  0.12472429530E+04  0.50400001928E-02 0. -1.
</event>
<event>
 5   0  0.5931588E-07  0.2990882E+04  0.7818609E-02  0.8246339E-01
       -1   -1    0    0    0  501  0.00000000000E+00  0.00000000000E+00  0.17874538580E+04  0.17874538580E+04  0.50400001928E-02 0.  1.
        1   -1    0    0  501    0  0.00000000000E+00  0.00000000000E+00 -0.12511340815E+04  0.12511340815E+04  0.50400001928E-02 0. -1.
    10030    2    1    2    0    0  0.00000000000E+00  0.00000000000E+00  0.53631977643E+03  0.30385879395E+04  0.29908824389E+04 0.  0.
        2    1    3    3  502    0  0.38965488965E+02 -0.95312343343E+03  0.14382161699E+04  0.17258123710E+04  0.25500000920E-02 0.  1.
       -2    1    3    3    0  502 -0.38965488965E+02  0.95312343343E+03 -0.90189639344E+03  0.13127755685E+04  0.25500000920E-02 0. -1.
</event>
<event>
 5   0  0.5916703E-07  0.3003843E+04  0.7818609E-02  0.8242634E-01
        1   -1    0    0  501    0  0.00000000000E+00  0.00000000000E+00  0.26612460321E+04  0.26612460321E+04  0.50400001928E-02 0.  1.
       -1   -1    0    0    0  501  0.00000000000E+00  0.00000000000E+00 -0.84763600645E+03  0.84763600646E+03  0.50400001928E-02 0. -1.
    10030    2    1    2    0    0  0.00000000000E+00  0.00000000000E+00  0.18136100257E+04  0.35088820386E+04  0.30038428447E+04 0.  0.
        5    1    3    3  502    0  0.44243049880E+03 -0.49706452566E+03  0.24796352030E+04  0.25673781800E+04  0.46999998093E+01 0.  1.
       -5    1    3    3    0  502 -0.44243049880E+03  0.49706452566E+03 -0.66602517734E+03  0.94150385862E+03  0.46999998093E+01 0. -1.
</event>
<event>
 5   0  0.1560174E-06  0.2997540E+04  0.7818609E-02  0.8244434E-01
        2   -1    0    0  501    0  0.00000000000E+00  0.00000000000E+00  0.11808444717E+04  0.11808444717E+04  0.25500000920E-02 0. -1.
       -2   -1    0    0    0  501  0.00000000000E+00  0.00000000000E+00 -0.19022925266E+04  0.19022925266E+04  0.25500000920E-02 0.  1.
    10030    2    1    2    0    0  0.00000000000E+00  0.00000000000E+00 -0.72144805493E+03  0.30831369983E+04  0.29975400672E+04 0.  0.
        5    1    3    3  502    0  0.19936579331E+03  0.94416065439E+03  0.81880270119E+03  0.12655615411E+04  0.46999998093E+01 0. -1.
       -5    1    3    3    0  502 -0.19936579331E+03 -0.94416065439E+03 -0.15402507561E+04  0.18175754572E+04  0.46999998093E+01 0.  1.
</event>
<event>
 5   0  0.5931588E-07  0.2996534E+04  0.7818609E-02  0.8244721E-01
       -1   -1    0    0    0  501  0.00000000000E+00  0.00000000000E+00  0.81439758521E+03  0.81439758523E+03  0.50400001928E-02 0.  1.
        1   -1    0    0  501    0  0.00000000000E+00  0.00000000000E+00 -0.27563983647E+04  0.27563983647E+04  0.50400001928E-02 0. -1.
    10030    2    1    2    0    0  0.00000000000E+00  0.00000000000E+00 -0.19420007795E+04  0.35707959499E+04  0.29965341127E+04 0.  0.
        2    1    3    3  502    0 -0.74491499365E+02  0.60889228355E+03 -0.25998949886E+04  0.26712829779E+04  0.25500000920E-02 0. -1.
       -2    1    3    3    0  502  0.74491499365E+02 -0.60889228355E+03  0.65789420910E+03  0.89951297201E+03  0.25500000920E-02 0.  1.
</event>
<event>
 5   0  0.5887179E-07  0.3003049E+04  0.7818609E-02  0.8242861E-01
        1   -1    0    0  501    0  0.00000000000E+00  0.00000000000E+00  0.20061307447E+04  0.20061307447E+04  0.50400001928E-02 0.  1.
       -1   -1    0    0    0  501  0.00000000000E+00  0.00000000000E+00 -0.11238427490E+04  0.11238427490E+04  0.50400001928E-02 0. -1.
    10030    2    1    2    0    0  0.00000000000E+00  0.00000000000E+00  0.88228799574E+03  0.31299734937E+04  0.30030487781E+04 0.  0.
        3    1    3    3  502    0  0.38702320897E+03 -0.18520187427E+03  0.19408796446E+04  0.19877375339E+04  0.10100000352E+00 0.  1.
       -3    1    3    3    0  502 -0.38702320897E+03  0.18520187427E+03 -0.10585916489E+04  0.11422359598E+04  0.10100000352E+00 0. -1.
</event>
<event>
 5   0  0.5916703E-07  0.2912313E+04  0.7818609E-02  0.8269224E-01
        1   -1    0    0  501    0  0.00000000000E+00  0.00000000000E+00  0.12267934403E+04  0.12267934404E+04  0.50400001928E-02 0. -1.
       -1   -1    0    0    0  501  0.00000000000E+00  0.00000000000E+00 -0.17284010228E+04  0.17284010228E+04  0.50400001928E-02 0.  1.
    10030    2    1    2    0    0  0.00000000000E+00  0.00000000000E+00 -0.50160758243E+03  0.29551944631E+04  0.29123125087E+04 0.  0.
        5    1    3    3  502    0  0.35258166890E+03 -0.64847406464E+03  0.10228820570E+04  0.12614048669E+04  0.46999998093E+01 0. -1.
       -5    1    3    3    0  502 -0.35258166890E+03  0.64847406464E+03 -0.15244896394E+04  0.16937895962E+04  0.46999998093E+01 0.  1.
</event>
<event>
 5   0  0.1674806E-06  0.2991373E+04  0.7818609E-02  0.8246199E-01
       -2   -1    0    0    0  501  0.00000000000E+00  0.00000000000E+00  0.98705591000E+03  0.98705591000E+03  0.25500000920E-02 0.  1.
        2   -1    0    0  501    0  0.00000000000E+00  0.00000000000E+00 -0.22664148855E+04  0.22664148855E+04  0.25500000920E-02 0. -1.
    10030    2    1    2    0    0  0.00000000000E+00  0.00000000000E+00 -0.12793589755E+04  0.32534707955E+04  0.29913730675E+04 0.  0.
        2    1    3    3  502    0 -0.14110961375E+04  0.16553888206E+03 -0.13130360848E+03  0.14268272735E+04  0.25500000920E-02 0.  1.
       -2    1    3    3    0  502  0.14110961375E+04 -0.16553888206E+03 -0.11480553670E+04  0.18266435220E+04  0.25500000920E-02 0. -1.
</event>
<event>
 5   0  0.1635086E-06  0.2994866E+04  0.7818609E-02  0.8245198E-01
       -2   -1    0    0    0  501  0.00000000000E+00  0.00000000000E+00  0.27188199957E+04  0.27188199957E+04  0.25500000920E-02 0.  1.
        2   -1    0    0  501    0  0.00000000000E+00  0.00000000000E+00 -0.82473482464E+03  0.82473482464E+03  0.25500000920E-02 0. -1.
    10030    2    1    2    0    0  0.00000000000E+00  0.00000000000E+00  0.18940851711E+04  0.35435548204E+04  0.29948659619E+04 0.  0.
        3    1    3    3  502    0 -0.10157241823E+04  0.46437632897E+03  0.21272696404E+04  0.24026271293E+04  0.10100000352E+00 0.  1.
       -3    1    3    3    0  502  0.10157241823E+04 -0.46437632897E+03 -0.23318446927E+03  0.11409276911E+04  0.10100000352E+00 0. -1.
</event>
<event>
 5   0  0.5887179E-07  0.3001709E+04  0.7818609E-02  0.8243243E-01
       -1   -1    0    0    0  501  0.00000000000E+00  0.00000000000E+00  0.20374012056E+04  0.20374012056E+04  0.50400001928E-02 0. -1.
        1   -1    0    0  501    0  0.00000000000E+00  0.00000000000E+00 -0.11056068561E+04  0.11056068562E+04  0.50400001928E-02 0.  1.
    10030    2    1    2    0    0  0.00000000000E+00  0.00000000000E+00  0.93179434942E+03  0.31430080617E+04  0.30017093408E+04 0.  0.
        3    1    3    3  502    0  0.13209071704E+04 -0.65501210407E+03  0.75969041883E+03  0.16586036753E+04  0.10100000352E+00 0. -1.
       -3    1    3    3    0  502 -0.13209071704E+04  0.65501210407E+03  0.17210393059E+03  0.14844043864E+04  0.10100000352E+00 0.  1.
</event>
<event>
 5   0  0.1723916E-06  0.2991450E+04  0.7818609E-02  0.8246176E-01
       -2   -1    0    0    0  501  0.00000000000E+00  0.00000000000E+00  0.19108256821E+04  0.19108256821E+04  0.25500000920E-02 0.  1.
        2   -1    0    0  501    0  0.00000000000E+00  0.00000000000E+00 -0.11707996340E+04  0.11707996340E+04  0.25500000920E-02 0. -1.
    10030    2    1    2    0    0  0.00000000000E+00  0.00000000000E+00  0.74002604815E+03  0.30816253161E+04  0.29914504905E+04 0.  0.
        1    1    3    3  502    0 -0.11979131585E+04  0.89440472711E+03  0.32127666509E+03  0.15291090369E+04  0.50400001928E-02 0. -1.
       -1    1    3    3    0  502  0.11979131585E+04 -0.89440472711E+03  0.41874938306E+03  0.15525162792E+04  0.50400001928E-02 0.  1.
</event>
<event>
 5   0  0.1723916E-06  0.3000860E+04  0.7818609E-02  0.8243485E-01
       -2   -1    0    0    0  501  0.00000000000E+00  0.00000000000E+00  0.10767168705E+04  0.10767168705E+04  0.25500000920E-02 0. -1.
        2   -1    0    0  501    0  0.00000000000E+00  0.00000000000E+00 -0.20908840270E+04  0.20908840270E+04  0.25500000920E-02 0.  1.
    10030    2    1    2    0    0  0.00000000000E+00  0.00000000000E+00 -0.10141671565E+04  0.31676008975E+04  0.30008599475E+04 0.  0.
        1    1    3    3  502    0  0.12303321479E+04 -0.42252051931E+03  0.28215770345E+03  0.13311099703E+04  0.50400001928E-02 0. -1.
       -1    1    3    3    0  502 -0.12303321479E+04  0.42252051931E+03 -0.12963248599E+04  0.18364909272E+04  0.50400001928E-02 0.  1.
</event>
<event>
 5   0  0.1560174E-06  0.2999295E+04  0.7818609E-02  0.8243932E-01
       -2   -1    0    0    0  501  0.00000000000E+00  0.00000000000E+00  0.18229367317E+04  0.18229367317E+04  0.25500000920E-02 0.  1.
        2   -1    0    0  501    0  0.00000000000E+00  0.00000000000E+00 -0.12336920683E+04  0.12336920683E+04  0.25500000920E-02 0. -1.
    10030    2    1    2    0    0  0.00000000000E+00  0.00000000000E+00  0.58924466347E+03  0.30566288000E+04  0.29992949751E+04 0.  0.
        5    1    3    3  502    0  0.53096487090E+03  0.13400068043E+04 -0.12727013861E+03  0.14469836585E+04  0.46999998093E+01 0. -1.
       -5    1    3    3    0  502 -0.53096487090E+03 -0.13400068043E+04  0.71651480207E+03  0.16096451415E+04  0.46999998093E+01 0.  1.
</event>
<event>
 5   0  0.1635086E-06  0.2991233E+04  0.7818609E-02  0.8246239E-01
       -2   -1    0    0    0  501  0.00000000000E+00  0.00000000000E+00  0.19733537587E+04  0.19733537587E+04  0.25500000920E-02 0.  1.
        2   -1    0    0  501    0  0.00000000000E+00  0.00000000000E+00 -0.11335365840E+04  0.11335365840E+04  0.25500000920E-02 0. -1.
    10030    2    1    2    0    0  0.00000000000E+00  0.00000000000E+00  0.83981717464E+03  0.31068903427E+04  0.29912329757E+04 0.  0.
        3    1    3    3  502    0  0.90448461541E+03 -0.58370921734E+03 -0.65853420175E+03  0.12619335066E+04  0.10100000352E+00 0.  1.
       -3    1    3    3    0  502 -0.90448461541E+03  0.58370921734E+03  0.14983513764E+04  0.18449568361E+04  0.10100000352E+00 0. -1.
</event>
<event>
 5   0  0.6291798E-07  0.3001687E+04  0.7818609E-02  0.8243249E-01
       -1   -1    0    0    0  501  0.00000000000E+00  0.00000000000E+00  0.12966709459E+04  0.12966709459E+04  0.50400001928E-02 0.  1.
        1   -1    0    0  501    0  0.00000000000E+00  0.00000000000E+00 -0.17371653431E+04  0.17371653431E+04  0.50400001928E-02 0. -1.
    10030    2    1    2    0    0  0.00000000000E+00  0.00000000000E+00 -0.44049439719E+03  0.30338362891E+04  0.30016874113E+04 0.  0.
        1    1    3    3  502    0 -0.14161217634E+04  0.47711786206E+03 -0.36134729539E+03  0.15374050120E+04  0.50400001928E-02 0. -1.
       -1    1    3    3    0  502  0.14161217634E+04 -0.47711786206E+03 -0.79147101804E+02  0.14964312770E+04  0.50400001928E-02 0.  1.
</event>
<event>
 5   0  0.6291798E-07  0.2971466E+04  0.7818609E-02  0.8251926E-01
       -1   -1    0    0    0  501  0.00000000000E+00  0.00000000000E+00  0.14778418427E+04  0.14778418427E+04  0.50400001928E-02 0. -1.
        1   -1    0    0  501    0  0.00000000000E+00  0.00000000000E+00 -0.14936663123E+04  0.14936663123E+04  0.50400001928E-02 0.  1.
    10030    2    1    2    0    0  0.00000000000E+00  0.00000000000E+00 -0.15824469525E+02  0.29715081550E+04  0.29714660189E+04 0.  0.
        1    1    3    3  502    0  0.90277574191E+03 -0.11745713906E+04 -0.12096508024E+03  0.14863561291E+04  0.50400001928E-02 0. -1.
       -1    1    3    3    0  502 -0.90277574191E+03  0.11745713906E+04  0.10514061071E+03  0.14851520259E+04  0.50400001928E-02 0.  1.
</event>
<event>
 5   0  0.6291798E-07  0.3005677E+04  0.7818609E-02  0.8242112E-01
       -1   -1    0    0    0  501  0.00000000000E+00  0.00000000000E+00  0.11764531754E+04  0.11764531754E+04  0.50400001928E-02 0.  1.
        1   -1    0    0  501    0  0.00000000000E+00  0.00000000000E+00 -0.19197728642E+04  0.19197728642E+04  0.50400001928E-02 0. -1.
    10030    2    1    2    0    0  0.00000000000E+00  0.00000000000E+00 -0.74331968880E+03  0.30962260396E+04  0.30056765509E+04 0.  0.
        1    1    3    3  502    0 -0.11383565157E+04 -0.51661687160E+01 -0.13823604151E+04  0.17907547469E+04  0.50400001928E-02 0. -1.
       -1    1    3    3    0  502  0.11383565157E+04  0.51661687160E+01  0.63904072631E+03  0.13054712927E+04  0.50400001928E-02 0.  1.
</event>
<event>
 5   0  0.1560174E-06  0.2999927E+04  0.7818609E-02  0.8243752E-01
       -2   -1    0    0    0  501  0.00000000000E+00  0.00000000000E+00  0.14460411915E+04  0.14460411915E+04  0.25500000920E-02 0. -1.
        2   -1    0    0  501    0  0.00000000000E+00  0.00000000000E+00 -0.15558968790E+04  0.15558968790E+04  0.25500000920E-02 0.  1.
    10030    2    1    2    0    0  0.00000000000E+00  0.00000000000E+00 -0.10985568754E+03  0.30019380705E+04  0.29999273170E+04 0.  0.
        5    1    3    3  502    0 -0.43905814734E+03  0.11858929808E+04  0.75230652117E+03  0.14714283572E+04  0.46999998093E+01 0. -1.
       -5    1    3    3    0  502  0.43905814734E+03 -0.11858929808E+04 -0.86216220871E+03  0.15305097134E+04  0.46999998093E+01 0.  1.
</event>
<event>
 5   0  0.1723916E-06  0.3009210E+04  0.7818609E-02  0.8241106E-01
        2   -1    0    0  501    0  0.00000000000E+00  0.00000000000E+00  0.21439933595E+04  0.21439933595E+04  0.25500000920E-02 0. -1.
       -2   -1    0    0    0  501  0.00000000000E+00  0.00000000000E+00 -0.10558971253E+04  0.10558971253E+04  0.25500000920E-02 0.  1.
    10030    2    1    2    0    0  0.00000000000E+00  0.00000000000E+00  0.10880962342E+04  0.31998904848E+04  0.30092101455E+04 0.  0.
        1    1    3    3  502    0  0.10437304544E+04 -0.78856614777E+02 -0.60529453988E+03  0.12091207993E+04  0.50400001928E-02 0.  1.
       -1    1    3    3    0  502 -0.10437304544E+04  0.78856614777E+02  0.16933907741E+04  0.19907696856E+04  0.50400001928E-02 0. -1.
</event>
<event>
 5   0  0.5916703E-07  0.3038016E+04  0.7818609E-02  0.8232958E-01
       -1   -1    0    0    0  501  0.00000000000E+00  0.00000000000E+00  0.17886668634E+04  0.17886668634E+04  0.50400001928E-02 0.  1.
        1   -1    0    0  501    0  0.00000000000E+00  0.00000000000E+00 -0.12900032294E+04  0.12900032294E+04  0.50400001928E-02 0. -1.
    10030    2    1    2    0    0  0.00000000000E+00  0.00000000000E+00  0.49866363399E+03  0.30786700927E+04  0.30380164779E+04 0.  0.
        5    1    3    3  502    0  0.87780910543E+02 -0.14736421875E+04  0.61194286804E+03  0.15980685056E+04  0.46999998093E+01 0. -1.
       -5    1    3    3    0  502 -0.87780910543E+02  0.14736421875E+04 -0.11327923405E+03  0.14806015871E+04  0.46999998093E+01 0.  1.
</event>
<event>
 5   0  0.5887179E-07  0.3000129E+04  0.7818609E-02  0.8243694E-01
       -1   -1    0    0    0  501  0.00000000000E+00  0.00000000000E+00  0.80242661456E+03  0.80242661458E+03  0.50400001928E-02 0. -1.
        1   -1    0    0  501    0  0.00000000000E+00  0.00000000000E+00 -0.28042358710E+04  0.28042358711E+04  0.50400001928E-02 0.  1.
    10030    2    1    2    0    0  0.00000000000E+00  0.00000000000E+00 -0.20018092565E+04  0.36066624856E+04  0.30001289949E+04 0.  0.
        3    1    3    3  502    0  0.44313112670E+03 -0.10268324428E+04 -0.22027391705E+04  0.24703865942E+04  0.10100000352E+00 0.  1.
       -3    1    3    3    0  502 -0.44313112670E+03  0.10268324428E+04  0.20092991406E+03  0.11362758915E+04  0.10100000352E+00 0. -1.
</event>
<event>
 5   0  0.1723916E-06  0.2999753E+04  0.7818609E-02  0.8243801E-01
        2   -1    0    0  501    0  0.00000000000E+00  0.00000000000E+00  0.17245094792E+04  0.17245094792E+04  0.25500000920E-02 0. -1.
       -2   -1    0    0    0  501  0.00000000000E+00  0.00000000000E+00 -0.13045040705E+04  0.13045040705E+04  0.25500000920E-02 0.  1.
    10030    2    1    2    0    0  0.00000000000E+00  0.00000000000E+00  0.42000540869E+03  0.30290135497E+04  0.29997530800E+04 0.  0.
        1    1    3    3  502    0  0.90069533615E+03  0.84807952739E+03 -0.64628957239E+03  0.13957726121E+04  0.50400001928E-02 0.  1.
       -1    1    3    3    0  502 -0.90069533615E+03 -0.84807952739E+03  0.10662949811E+04  0.16332409375E+04  0.50400001928E-02 0. -1.
</event>
<event>
 5   0  0.5887179E-07  0.3003360E+04  0.7818609E-02  0.8242772E-01
       -1   -1    0    0    0  501  0.00000000000E+00  0.00000000000E+00  0.20057347698E+04  0.20057347698E+04  0.50400001928E-02 0.  1.
        1   -1    0    0  501    0  0.00000000000E+00  0.00000000000E+00 -0.11242976121E+04  0.11242976121E+04  0.50400001928E-02 0. -1.
    10030    2    1    2    0    0  0.00000000000E+00  0.00000000000E+00  0.88143715763E+03  0.31300323819E+04  0.30033599932E+04 0.  0.
        3    1    3    3  502    0 -0.37141772752E+03 -0.63033176048E+03 -0.92599362143E+03  0.11801412855E+04  0.10100000352E+00 0. -1.
       -3    1    3    3    0  502  0.37141772752E+03  0.63033176048E+03  0.18074307791E+04  0.19498910964E+04  0.10100000352E+00 0.  1.
</event>
<event>
 5   0  0.5931588E-07  0.2976224E+04  0.7818609E-02  0.8250553E-01
       -1   -1    0    0    0  501  0.00000000000E+00  0.00000000000E+00  0.34233280907E+04  0.34233280907E+04  0.50400001928E-02 0. -1.
        1   -1    0    0  501    0  0.00000000000E+00  0.00000000000E+00 -0.64687854726E+03  0.64687854728E+03  0.50400001928E-02 0.  1.
    10030    2    1    2    0    0  0.00000000000E+00  0.00000000000E+00  0.27764495434E+04  0.40702066380E+04  0.29762241194E+04 0.  0.
        2    1    3    3  502    0 -0.82198114269E+03 -0.11466987548E+04  0.20353437653E+04  0.24765288765E+04  0.25500000920E-02 0. -1.
       -2    1    3    3    0  502  0.82198114269E+03  0.11466987548E+04  0.74110577811E+03  0.15936777615E+04  0.25500000920E-02 0.  1.
</event>
<event>
 5   0  0.5874741E-07  0.2914079E+04  0.7818609E-02  0.8268701E-01
       -1   -1    0    0    0  501  0.00000000000E+00  0.00000000000E+00  0.13683877844E+04  0.13683877845E+04  0.50400001928E-02 0. -1.
        1   -1    0    0  501    0  0.00000000000E+00  0.00000000000E+00 -0.15514344598E+04  0.15514344598E+04  0.50400001928E-02 0.  1.
    10030    2    1    2    0    0  0.00000000000E+00  0.00000000000E+00 -0.18304667530E+03  0.29198222442E+04  0.29140789029E+04 0.  0.
        4    1    3    3  502    0  0.47202023917E+03  0.73453921713E+03 -0.12602747697E+04  0.15331813578E+04  0.12699999809E+01 0.  1.
       -4    1    3    3    0  502 -0.47202023917E+03 -0.73453921713E+03  0.10772280944E+04  0.13866408865E+04  0.12699999809E+01 0. -1.
</event>
<event>
 5   0  0.5874741E-07  0.2997016E+04  0.7818609E-02  0.8244583E-01
        1   -1    0    0  501    0  0.00000000000E+00  0.00000000000E+00  0.24504144221E+04  0.24504144221E+04  0.50400001928E-02 0.  1.
       -1   -1    0    0    0  501  0.00000000000E+00  0.00000000000E+00 -0.91638635793E+03  0.91638635795E+03  0.50400001928E-02 0. -1.
    10030    2    1    2    0    0  0.00000000000E+00  0.00000000000E+00  0.15340280641E+04  0.33668007800E+04  0.29970160812E+04 0.  0.
        4    1    3    3  502    0  0.13711230407E+03 -0.81712176688E+03 -0.63565934037E+03  0.10442950616E+04  0.12699999809E+01 0. -1.
       -4    1    3    3    0  502 -0.13711230407E+03  0.81712176688E+03  0.21696874045E+04  0.23225057184E+04  0.12699999809E+01 0.  1.
</event>
<event>
 5   0  0.6291798E-07  0.3000863E+04  0.7818609E-02  0.8243485E-01
       -1   -1    0    0    0  501  0.00000000000E+00  0.00000000000E+00  0.10617416375E+04  0.10617416375E+04  0.50400001928E-02 0. -1.
        1   -1    0    0  501    0  0.00000000000E+00  0.00000000000E+00 -0.21203789393E+04  0.21203789393E+04  0.50400001928E-02 0.  1.
    10030    2    1    2    0    0  0.00000000000E+00  0.00000000000E+00 -0.10586373017E+04  0.31821205768E+04  0.30008629474E+04 0.  0.
        1    1    3    3  502    0  0.33252377068E+03  0.12906595774E+04  0.20145164361E+03  0.13479454617E+04  0.50400001928E-02 0. -1.
       -1    1    3    3    0  502 -0.33252377068E+03 -0.12906595774E+04 -0.12600889453E+04  0.18341751152E+04  0.50400001928E-02 0.  1.
</event>
<event>
 5   0  0.5887179E-07  0.2977011E+04  0.7818609E-02  0.8250326E-01
       -1   -1    0    0    0  501  0.00000000000E+00  0.00000000000E+00  0.16452663756E+04  0.16452663756E+04  0.50400001928E-02 0.  1.
        1   -1    0    0  501    0  0.00000000000E+00  0.00000000000E+00 -0.13466808664E+04  0.13466808664E+04  0.50400001928E-02 0. -1.
    10030    2    1    2    0    0  0.00000000000E+00  0.00000000000E+00  0.29858550914E+03  0.29919472420E+04  0.29770110837E+04 0.  0.
        3    1    3    3  502    0  0.59602931626E+03 -0.97749192005E+02 -0.12179897504E+04  0.13595237742E+04  0.10100000352E+00 0. -1.
       -3    1    3    3    0  502 -0.59602931626E+03  0.97749192005E+02  0.15165752595E+04  0.16324234678E+04  0.10100000352E+00 0.  1.
</event>
<event>
 5   0  0.5874741E-07  0.3003730E+04  0.7818609E-02  0.8242667E-01
        1   -1    0    0  501    0  0.00000000000E+00  0.00000000000E+00  0.12769739666E+04  0.12769739666E+04  0.50400001928E-02 0. -1.
       -1   -1    0    0    0  501  0.00000000000E+00  0.00000000000E+00 -0.17663622186E+04  0.17663622186E+04  0.50400001928E-02 0.  1.
    10030    2    1    2    0    0  0.00000000000E+00  0.00000000000E+00 -0.48938825198E+03  0.30433361852E+04  0.30037300603E+04 0.  0.
        4    1    3    3  502    0  0.88346274405E+03 -0.81866055595E+03  0.66428950366E+03  0.13754976131E+04  0.12699999809E+01 0. -1.
       -4    1    3    3    0  502 -0.88346274405E+03  0.81866055595E+03 -0.11536777556E+04  0.16678385722E+04  0.12699999809E+01 0.  1.
</event>
<event>
 5   0  0.1635086E-06  0.2950219E+04  0.7818609E-02  0.8258091E-01
       -2   -1    0    0    0  501  0.00000000000E+00  0.00000000000E+00  0.15181146999E+04  0.15181146999E+04  0.25500000920E-02 0.  1.
        2   -1    0    0  501    0  0.00000000000E+00  0.00000000000E+00 -0.14333223957E+04  0.14333223957E+04  0.25500000920E-02 0. -1.
    10030    2    1    2    0    0  0.00000000000E+00  0.00000000000E+00  0.84792304163E+02  0.29514370956E+04  0.29502188384E+04 0.  0.
        3    1    3    3  502    0 -0.12985382526E+04  0.65122444263E+03 -0.21393791252E+03  0.14683542858E+04  0.10100000352E+00 0. -1.
       -3    1    3    3    0  502  0.12985382526E+04 -0.65122444263E+03  0.29873021669E+03  0.14830828098E+04  0.10100000352E+00 0.  1.
</event>
<event>
 5   0  0.5931588E-07  0.3009308E+04  0.7818609E-02  0.8241078E-01
       -1   -1    0    0    0  501  0.00000000000E+00  0.00000000000E+00  0.87244308773E+03  0.87244308774E+03  0.50400001928E-02 0.  1.
        1   -1    0    0  501    0  0.00000000000E+00  0.00000000000E+00 -0.25949934504E+04  0.25949934504E+04  0.50400001928E-02 0. -1.
    10030    2    1    2    0    0  0.00000000000E+00  0.00000000000E+00 -0.17225503627E+04  0.34674365382E+04  0.30093082917E+04 0.  0.
        2    1    3    3  502    0 -0.23632706169E+03 -0.13317334980E+04 -0.10165508147E+03  0.13563548007E+04  0.25500000920E-02 0.  1.
       -2    1    3    3    0  502  0.23632706169E+03  0.13317334980E+04 -0.16208952812E+04  0.21110817375E+04  0.25500000920E-02 0. -1.
</event>
<event>
 5   0  0.5887179E-07  0.3003896E+04  0.7818609E-02  0.8242619E-01
       -1   -1    0    0    0  501  0.00000000000E+00  0.00000000000E+00  0.13906298555E+04  0.13906298555E+04  0.50400001928E-02 0.  1.
        1   -1    0    0  501    0  0.00000000000E+00  0.00000000000E+00 -0.16221768743E+04  0.16221768743E+04  0.50400001928E-02 0. -1.
    10030    2    1    2    0    0  0.00000000000E+00  0.00000000000E+00 -0.23154701878E+03  0.30128067298E+04  0.30038958652E+04 0.  0.
        3    1    3    3  502    0  0.34049298668E+03  0.93125247066E+03  0.10157046372E+04  0.14194444541E+04  0.10100000352E+00 0.  1.
       -3    1    3    3    0  502 -0.34049298668E+03 -0.93125247066E+03 -0.12472516559E+04  0.15933622757E+04  0.10100000352E+00 0. -1.
</event>
<event>
 5   0  0.5931588E-07  0.3004369E+04  0.7818609E-02  0.8242484E-01
        1   -1    0    0  501    0  0.00000000000E+00  0.00000000000E+00  0.12378922862E+04  0.12378922863E+04  0.50400001928E-02 0.  1.
       -1   -1    0    0    0  501  0.00000000000E+00  0.00000000000E+00 -0.18229035730E+04  0.18229035730E+04  0.50400001928E-02 0. -1.
    10030    2    1    2    0    0  0.00000000000E+00  0.00000000000E+00 -0.58501128679E+03  0.30607958593E+04  0.30043689997E+04 0.  0.
        2    1    3    3  502    0  0.62904467963E+03  0.11944067781E+04 -0.96386146987E+03  0.16587144702E+04  0.25500000920E-02 0. -1.
       -2    1    3    3    0  502 -0.62904467963E+03 -0.11944067781E+04  0.37885018308E+03  0.14020813891E+04  0.25500000920E-02 0.  1.
</event>
<event>
 5   0  0.1723916E-06  0.2993240E+04  0.7818609E-02  0.8245664E-01
       -2   -1    0    0    0  501  0.00000000000E+00  0.00000000000E+00  0.13719306190E+04  0.13719306190E+04  0.25500000920E-02 0. -1.
        2   -1    0    0  501    0  0.00000000000E+00  0.00000000000E+00 -0.16326418669E+04  0.16326418669E+04  0.25500000920E-02 0.  1.
    10030    2    1    2    0    0  0.00000000000E+00  0.00000000000E+00 -0.26071124798E+03  0.30045724859E+04  0.29932399617E+04 0.  0.
        1    1    3    3  502    0  0.10210963957E+04 -0.94970690550E+03 -0.67581919333E+03  0.15496169326E+04  0.50400001928E-02 0. -1.
       -1    1    3    3    0  502 -0.10210963957E+04  0.94970690550E+03  0.41510794535E+03  0.14549555533E+04  0.50400001928E-02 0.  1.
</event>
<event>
 5   0  0.6291798E-07  0.3005388E+04  0.7818609E-02  0.8242194E-01
        1   -1    0    0  501    0  0.00000000000E+00  0.00000000000E+00  0.20595103764E+04  0.20595103764E+04  0.50400001928E-02 0. -1.
       -1   -1    0    0    0  501  0.00000000000E+00  0.00000000000E+00 -0.10964207388E+04  0.10964207389E+04  0.50400001928E-02 0.  1.
    10030    2    1    2    0    0  0.00000000000E+00  0.00000000000E+00  0.96308963758E+03  0.31559311153E+04  0.30053884199E+04 0.  0.
        1    1    3    3  502    0  0.59399404662E+03  0.11501045404E+04 -0.31991640662E+03  0.13333851239E+04  0.50400001928E-02 0.  1.
       -1    1    3    3    0  502 -0.59399404662E+03 -0.11501045404E+04  0.12830060442E+04  0.18225459914E+04  0.50400001928E-02 0. -1.
</event>
<event>
 5   0  0.1674806E-06  0.3004025E+04  0.7818609E-02  0.8242582E-01
        2   -1    0    0  501    0  0.00000000000E+00  0.00000000000E+00  0.79006634849E+03  0.79006634849E+03  0.25500000920E-02 0.  1.
       -2   -1    0    0    0  501  0.00000000000E+00  0.00000000000E+00 -0.28555092473E+04  0.28555092473E+04  0.25500000920E-02 0. -1.
    10030    2    1    2    0    0  0.00000000000E+00  0.00000000000E+00 -0.20654428988E+04  0.36455755958E+04  0.30040251424E+04 0.  0.
        2    1    3    3  502    0 -0.10896315154E+04 -0.90002412878E+03 -0.41547015098E+03  0.14730769559E+04  0.25500000920E-02 0.  1.
       -2    1    3    3    0  502  0.10896315154E+04  0.90002412878E+03 -0.16499727478E+04  0.21724986399E+04  0.25500000920E-02 0. -1.
</event>
<event>
 5   0  0.5431625E-07  0.3009517E+04  0.7818609E-02  0.8241018E-01
        3   -1    0    0  501    0  0.00000000000E+00  0.00000000000E+00  0.12584586513E+04  0.12584586553E+04  0.10100000352E+00 0. -1.
       -3   -1    0    0    0  501  0.00000000000E+00  0.00000000000E+00 -0.17992632827E+04  0.17992632855E+04  0.10100000352E+00 0.  1.
    10030    2    1    2    0    0  0.00000000000E+00  0.00000000000E+00 -0.54080463142E+03  0.30577219408E+04  0.30095172068E+04 0.  0.
        2    1    3    3  502    0 -0.28524093105E+03  0.52196756789E+03  0.11339403160E+04  0.12804816168E+04  0.25500000920E-02 0. -1.
       -2    1    3    3    0  502  0.28524093105E+03 -0.52196756789E+03 -0.16747449474E+04  0.17772403241E+04  0.25500000920E-02 0.  1.
</event>
<event>
 5   0  0.6291798E-07  0.2996421E+04  0.7818609E-02  0.8244754E-01
       -1   -1    0    0    0  501  0.00000000000E+00  0.00000000000E+00  0.17926990001E+04  0.17926990001E+04  0.50400001928E-02 0.  1.
        1   -1    0    0  501    0  0.00000000000E+00  0.00000000000E+00 -0.12520982609E+04  0.12520982609E+04  0.50400001928E-02 0. -1.
    10030    2    1    2    0    0  0.00000000000E+00  0.00000000000E+00  0.54060073917E+03  0.30447972610E+04  0.29964213991E+04 0.  0.
        1    1    3    3  502    0  0.17077221719E+03 -0.90479936611E+03  0.14712483553E+04  0.17356257563E+04  0.50400001928E-02 0.  1.
       -1    1    3    3    0  502 -0.17077221719E+03  0.90479936611E+03 -0.93064761614E+03  0.13091715046E+04  0.50400001928E-02 0. -1.
</event>
<event>
 5   0  0.5887179E-07  0.2969731E+04  0.7818609E-02  0.8252428E-01
        1   -1    0    0  501    0  0.00000000000E+00  0.00000000000E+00  0.19452688656E+04  0.19452688656E+04  0.50400001928E-02 0.  1.
       -1   -1    0    0    0  501  0.00000000000E+00  0.00000000000E+00 -0.11334298193E+04  0.11334298193E+04  0.50400001928E-02 0. -1.
    10030    2    1    2    0    0  0.00000000000E+00  0.00000000000E+00  0.81183904630E+03  0.30786986849E+04  0.29697311250E+04 0.  0.
        3    1    3    3  502    0  0.11460960570E+04 -0.59300147453E+02  0.13827091384E+04  0.17969243866E+04  0.10100000352E+00 0.  1.
       -3    1    3    3    0  502 -0.11460960570E+04  0.59300147453E+02 -0.57087009213E+03  0.12817742983E+04  0.10100000352E+00 0. -1.
</event>
<event>
 5   0  0.1635086E-06  0.2994404E+04  0.7818609E-02  0.8245331E-01
        2   -1    0    0  501    0  0.00000000000E+00  0.00000000000E+00  0.17278737496E+04  0.17278737496E+04  0.25500000920E-02 0.  1.
       -2   -1    0    0    0  501  0.00000000000E+00  0.00000000000E+00 -0.12973246555E+04  0.12973246556E+04  0.25500000920E-02 0. -1.
    10030    2    1    2    0    0  0.00000000000E+00  0.00000000000E+00  0.43054909401E+03  0.30251984051E+04  0.29944035914E+04 0.  0.
        3    1    3    3  502    0  0.29012994755E+03  0.13969130283E+04 -0.24334527606E+03  0.14473279962E+04  0.10100000352E+00 0.  1.
       -3    1    3    3    0  502 -0.29012994755E+03 -0.13969130283E+04  0.67389437006E+03  0.15778704089E+04  0.10100000352E+00 0. -1.
</event>
<event>
 5   0  0.1625212E-06  0.2996061E+04  0.7818609E-02  0.8244857E-01
       -2   -1    0    0    0  501  0.00000000000E+00  0.00000000000E+00  0.14417789841E+04  0.14417789841E+04  0.25500000920E-02 0.  1.
        2   -1    0    0  501    0  0.00000000000E+00  0.00000000000E+00 -0.15564764193E+04  0.15564764193E+04  0.25500000920E-02 0. -1.
    10030    2    1    2    0    0  0.00000000000E+00  0.00000000000E+00 -0.11469743526E+03  0.29982554034E+04  0.29960607408E+04 0.  0.
        4    1    3    3  502    0  0.33829536168E+03 -0.82454791376E+02 -0.15154166231E+04  0.15549056881E+04  0.12699999809E+01 0. -1.
       -4    1    3    3    0  502 -0.33829536168E+03  0.82454791376E+02  0.14007191879E+04  0.14433497153E+04  0.12699999809E+01 0.  1.
</event>
<event>
 5   0  0.6291798E-07  0.3000775E+04  0.7818609E-02  0.8243510E-01
       -1   -1    0    0    0  501  0.00000000000E+00  0.00000000000E+00  0.11528692706E+04  0.11528692706E+04  0.50400001928E-02 0. -1.
        1   -1    0    0  501    0  0.00000000000E+00  0.00000000000E+00 -0.19526611168E+04  0.19526611168E+04  0.50400001928E-02 0.  1.
    10030    2    1    2    0    0  0.00000000000E+00  0.00000000000E+00 -0.79979184615E+03  0.31055303874E+04  0.30007752315E+04 0.  0.
        1    1    3    3  502    0 -0.14237550336E+04  0.13461688586E+03  0.69778392795E+02  0.14318062459E+04  0.50400001928E-02 0.  1.
       -1    1    3    3    0  502  0.14237550336E+04 -0.13461688586E+03 -0.86957023894E+03  0.16737241416E+04  0.50400001928E-02 0. -1.
</event>
<event>
 5   0  0.5916703E-07  0.3015076E+04  0.7818609E-02  0.8239439E-01
       -1   -1    0    0    0  501  0.00000000000E+00  0.00000000000E+00  0.14902590572E+04  0.14902590572E+04  0.50400001928E-02 0.  1.
        1   -1    0    0  501    0  0.00000000000E+00  0.00000000000E+00 -0.15250173671E+04  0.15250173671E+04  0.50400001928E-02 0. -1.
    10030    2    1    2    0    0  0.00000000000E+00  0.00000000000E+00 -0.34758309945E+02  0.30152764243E+04  0.30150760811E+04 0.  0.
        5    1    3    3  502    0  0.14696378452E+04  0.22722640701E+03  0.22998646220E+03  0.15047867287E+04  0.46999998093E+01 0.  1.
       -5    1    3    3    0  502 -0.14696378452E+04 -0.22722640701E+03 -0.26474477214E+03  0.15104896956E+04  0.46999998093E+01 0. -1.
</event>
<event>
 5   0  0.1635086E-06  0.3019341E+04  0.7818609E-02  0.8238229E-01
        2   -1    0    0  501    0  0.00000000000E+00  0.00000000000E+00  0.23348830173E+04  0.23348830173E+04  0.25500000920E-02 0. -1.
       -2   -1    0    0    0  501  0.00000000000E+00  0.00000000000E+00 -0.97611116450E+03  0.97611116451E+03  0.25500000920E-02 0.  1.
    10030    2    1    2    0    0  0.00000000000E+00  0.00000000000E+00  0.13587718528E+04  0.33109941818E+04  0.30193412401E+04 0.  0.
        3    1    3    3  502    0 -0.39982904113E+03  0.60417653705E+03 -0.77301781522E+03  0.10594569849E+04  0.10100000352E+00 0.  1.
       -3    1    3    3    0  502  0.39982904113E+03 -0.60417653705E+03  0.21317896680E+04  0.22515371969E+04  0.10100000352E+00 0. -1.
</event>
<event>
 5   0  0.5874741E-07  0.2945595E+04  0.7818609E-02  0.8259440E-01
        1   -1    0    0  501    0  0.00000000000E+00  0.00000000000E+00  0.20190742124E+04  0.20190742124E+04  0.50400001928E-02 0. -1.
       -1   -1    0    0    0  501  0.00000000000E+00  0.00000000000E+00 -0.10743200147E+04  0.10743200147E+04  0.50400001928E-02 0.  1.
    10030    2    1    2    0    0  0.00000000000E+00  0.00000000000E+00  0.94475419773E+03  0.30933942271E+04  0.29455945665E+04 0.  0.
        4    1    3    3  502    0  0.33924854305E+03 -0.13915020512E+04  0.83276164838E+03  0.16567622365E+04  0.12699999809E+01 0. -1.
       -4    1    3    3    0  502 -0.33924854305E+03  0.13915020512E+04  0.11199254935E+03  0.14366319906E+04  0.12699999809E+01 0.  1.
</event>
<event>
 5   0  0.1635086E-06  0.2995227E+04  0.7818609E-02  0.8245095E-01
        2   -1    0    0  501    0  0.00000000000E+00  0.00000000000E+00  0.17897092741E+04  0.17897092741E+04  0.25500000920E-02 0. -1.
       -2   -1    0    0    0  501  0.00000000000E+00  0.00000000000E+00 -0.12531898787E+04  0.12531898787E+04  0.25500000920E-02 0.  1.
    10030    2    1    2    0    0  0.00000000000E+00  0.00000000000E+00  0.53651939542E+03  0.30428991528E+04  0.29952265678E+04 0.  0.
        3    1    3    3  502    0 -0.11741715687E+04 -0.58757505918E+03  0.10000876805E+04  0.16504843840E+04  0.10100000352E+00 0. -1.
       -3    1    3    3    0  502  0.11741715687E+04  0.58757505918E+03 -0.46356828512E+03  0.13924147687E+04  0.10100000352E+00 0.  1.
</event>
<event>
 5   0  0.5916703E-07  0.2990131E+04  0.7818609E-02  0.8246555E-01
        1   -1    0    0  501    0  0.00000000000E+00  0.00000000000E+00  0.29446205012E+04  0.29446205012E+04  0.50400001928E-02 0. -1.
       -1   -1    0    0    0  501  0.00000000000E+00  0.00000000000E+00 -0.75908604980E+03  0.75908604981E+03  0.50400001928E-02 0.  1.
    10030    2    1    2    0    0  0.00000000000E+00  0.00000000000E+00  0.21855344514E+04  0.37037065510E+04  0.29901306623E+04 0.  0.
        5    1    3    3  502    0 -0.11877122713E+04 -0.53127893527E+03  0.18063373844E+03  0.13136089159E+04  0.46999998093E+01 0.  1.
       -5    1    3    3    0  502  0.11877122713E+04  0.53127893527E+03  0.20049007130E+04  0.23900976351E+04  0.46999998093E+01 0. -1.
</event>
<event>
 5   0  0.5931588E-07  0.2996335E+04  0.7818609E-02  0.8244778E-01
       -1   -1    0    0    0  501  0.00000000000E+00  0.00000000000E+00  0.12777915907E+04  0.12777915907E+04  0.50400001928E-02 0. -1.
        1   -1    0    0  501    0  0.00000000000E+00  0.00000000000E+00 -0.17565511736E+04  0.17565511736E+04  0.50400001928E-02 0.  1.
    10030    2    1    2    0    0  0.00000000000E+00  0.00000000000E+00 -0.47875958291E+03  0.30343427643E+04  0.29963353072E+04 0.  0.
        2    1    3    3  502    0 -0.11448416640E+04  0.72575904213E+03 -0.88553108161E+03  0.16191213417E+04  0.25500000920E-02 0. -1.
       -2    1    3    3    0  502  0.11448416640E+04 -0.72575904213E+03  0.40677149870E+03  0.14152214226E+04  0.25500000920E-02 0.  1.
</event>
<event>
 5   0  0.1560174E-06  0.3000864E+04  0.7818609E-02  0.8243484E-01
       -2   -1    0    0    0  501  0.00000000000E+00  0.00000000000E+00  0.16225577828E+04  0.16225577828E+04  0.25500000920E-02 0.  1.
        2   -1    0    0  501    0  0.00000000000E+00  0.00000000000E+00 -0.13874978529E+04  0.13874978529E+04  0.25500000920E-02 0. -1.
    10030    2    1    2    0    0  0.00000000000E+00  0.00000000000E+00  0.23505992989E+03  0.30100556357E+04  0.30008635023E+04 0.  0.
        5    1    3    3  502    0 -0.64948603436E+03  0.10310763852E+04 -0.76055013498E+03  0.14364571761E+04  0.46999998093E+01 0. -1.
       -5    1    3    3    0  502  0.64948603436E+03 -0.10310763852E+04  0.99561006487E+03  0.15735984596E+04  0.46999998093E+01 0.  1.
</event>
<event>
 5   0  0.6291798E-07  0.3006068E+04  0.7818609E-02  0.8242000E-01
       -1   -1    0    0    0  501  0.00000000000E+00  0.00000000000E+00  0.12155054901E+04  0.12155054901E+04  0.50400001928E-02 0. -1.
        1   -1    0    0  501    0  0.00000000000E+00  0.00000000000E+00 -0.18585774944E+04  0.18585774944E+04  0.50400001928E-02 0.  1.
    10030    2    1    2    0    0  0.00000000000E+00  0.00000000000E+00 -0.64307200429E+03  0.30740829845E+04  0.30060679621E+04 0.  0.
        1    1    3    3  502    0 -0.10780187635E+04 -0.14056792219E+03  0.73984296767E+03  0.13150100426E+04  0.50400001928E-02 0. -1.
       -1    1    3    3    0  502  0.10780187635E+04  0.14056792219E+03 -0.13829149720E+04  0.17590729419E+04  0.50400001928E-02 0.  1.
</event>
<event>
 5   0  0.6291798E-07  0.3015660E+04  0.7818609E-02  0.8239273E-01
        1   -1    0    0  501    0  0.00000000000E+00  0.00000000000E+00  0.20549005692E+04  0.20549005692E+04  0.50400001928E-02 0. -1.
       -1   -1    0    0    0  501  0.00000000000E+00  0.00000000000E+00 -0.11064044274E+04  0.11064044274E+04  0.50400001928E-02 0.  1.
    10030    2    1    2    0    0  0.00000000000E+00  0.00000000000E+00  0.94849614176E+03  0.31613049966E+04  0.30156598532E+04 0.  0.
        1    1    3    3  502    0  0.50630359405E+03  0.94676410292E+03  0.15840792410E+04  0.19136385860E+04  0.50400001928E-02 0. -1.
       -1    1    3    3    0  502 -0.50630359405E+03 -0.94676410292E+03 -0.63558309929E+03  0.12476664106E+04  0.50400001928E-02 0.  1.
</event>
<event>
 5   0  0.1635086E-06  0.2992414E+04  0.7818609E-02  0.8245901E-01
       -2   -1    0    0    0  501  0.00000000000E+00  0.00000000000E+00  0.25163931013E+04  0.25163931013E+04  0.25500000920E-02 0.  1.
        2   -1    0    0  501    0  0.00000000000E+00  0.00000000000E+00 -0.88962052816E+03  0.88962052817E+03  0.25500000920E-02 0. -1.
    10030    2    1    2    0    0  0.00000000000E+00  0.00000000000E+00  0.16267725731E+04  0.34060136295E+04  0.29924137146E+04 0.  0.
        3    1    3    3  502    0  0.66262974547E+02 -0.14088477781E+04  0.13818020276E+04  0.19744922632E+04  0.10100000352E+00 0.  1.
       -3    1    3    3    0  502 -0.66262974547E+02  0.14088477781E+04  0.24497054551E+03  0.14315213663E+04  0.10100000352E+00 0. -1.
</event>
<event>
 5   0  0.5874741E-07  0.3031944E+04  0.7818609E-02  0.8234667E-01
        1   -1    0    0  501    0  0.00000000000E+00  0.00000000000E+00  0.22568182028E+04  0.22568182028E+04  0.50400001928E-02 0.  1.
       -1   -1    0    0    0  501  0.00000000000E+00  0.00000000000E+00 -0.10183235853E+04  0.10183235853E+04  0.50400001928E-02 0. -1.
    10030    2    1    2    0    0  0.00000000000E+00  0.00000000000E+00  0.12384946175E+04  0.32751417881E+04  0.30319440652E+04 0.  0.
        4    1    3    3  502    0 -0.63125762745E+03  0.38436491788E+03  0.20490279226E+04  0.21782423242E+04  0.12699999809E+01 0.  1.
       -4    1    3    3    0  502  0.63125762745E+03 -0.38436491788E+03 -0.81053330511E+03  0.10968994639E+04  0.12699999809E+01 0. -1.
</event>
<event>
 5   0  0.6291798E-07  0.3000904E+04  0.7818609E-02  0.8243473E-01
       -1   -1    0    0    0  501  0.00000000000E+00  0.00000000000E+00  0.11188097936E+04  0.11188097936E+04  0.50400001928E-02 0.  1.
        1   -1    0    0  501    0  0.00000000000E+00  0.00000000000E+00 -0.20122783002E+04  0.20122783002E+04  0.50400001928E-02 0. -1.
    10030    2    1    2    0    0  0.00000000000E+00  0.00000000000E+00 -0.89346850654E+03  0.31310880938E+04  0.30009043102E+04 0.  0.
        1    1    3    3  502    0 -0.80747099425E+03 -0.69461826866E+03  0.65592440850E+03  0.12508959890E+04  0.50400001928E-02 0.  1.
       -1    1    3    3    0  502  0.80747099425E+03  0.69461826866E+03 -0.15493929150E+04  0.18801921048E+04  0.50400001928E-02 0. -1.
</event>
<event>
 5   0  0.1560174E-06  0.2996932E+04  0.7818609E-02  0.8244607E-01
        2   -1    0    0  501    0  0.00000000000E+00  0.00000000000E+00  0.15762143109E+04  0.15762143109E+04  0.25500000920E-02 0. -1.
       -2   -1    0    0    0  501  0.00000000000E+00  0.00000000000E+00 -0.14245527454E+04  0.14245527454E+04  0.25500000920E-02 0.  1.
    10030    2    1    2    0    0  0.00000000000E+00  0.00000000000E+00  0.15166156544E+03  0.30007670563E+04  0.29969320473E+04 0.  0.
        5    1    3    3  502    0  0.13069879801E+03 -0.13683899084E+04  0.67308818798E+03  0.15305694744E+04  0.46999998093E+01 0. -1.
       -5    1    3    3    0  502 -0.13069879801E+03  0.13683899084E+04 -0.52142662254E+03  0.14701975819E+04  0.46999998093E+01 0.  1.
</event>
<event>
 5   0  0.5916703E-07  0.2985598E+04  0.7818609E-02  0.8247855E-01
        1   -1    0    0  501    0  0.00000000000E+00  0.00000000000E+00  0.10737440420E+04  0.10737440420E+04  0.50400001928E-02 0. -1.
       -1   -1    0    0    0  501  0.00000000000E+00  0.00000000000E+00 -0.20754007732E+04  0.20754007732E+04  0.50400001928E-02 0.  1.
    10030    2    1    2    0    0  0.00000000000E+00  0.00000000000E+00 -0.10016567312E+04  0.31491448152E+04  0.29855982416E+04 0.  0.
        5    1    3    3  502    0  0.34080024354E+03 -0.52038300068E+02 -0.20328280740E+04  0.20618595634E+04  0.46999998093E+01 0.  1.
       -5    1    3    3    0  502 -0.34080024354E+03  0.52038300068E+02  0.10311713428E+04  0.10872852518E+04  0.46999998093E+01 0. -1.
</event>
<event>
 5   0  0.1635086E-06  0.3026023E+04  0.7818609E-02  0.8236339E-01
        2   -1    0    0  501    0  0.00000000000E+00  0.00000000000E+00  0.20417976467E+04  0.20417976467E+04  0.25500000920E-02 0.  1.
       -2   -1    0    0    0  501  0.00000000000E+00  0.00000000000E+00 -0.11211708562E+04  0.11211708562E+04  0.25500000920E-02 0. -1.
    10030    2    1    2    0    0  0.00000000000E+00  0.00000000000E+00  0.92062679048E+03  0.31629685029E+04  0.30260231432E+04 0.  0.
        3    1    3    3  502    0  0.82232875351E+03  0.69832354860E+03 -0.64850735522E+03  0.12587462641E+04  0.10100000352E+00 0. -1.
       -3    1    3    3    0  502 -0.82232875351E+03 -0.69832354860E+03  0.15691341457E+04  0.19042222388E+04  0.10100000352E+00 0.  1.
</event>
<event>
 5   0  0.5931588E-07  0.2982266E+04  0.7818609E-02  0.8248813E-01
       -1   -1    0    0    0  501  0.00000000000E+00  0.00000000000E+00  0.94950535569E+03  0.94950535570E+03  0.50400001928E-02 0. -1.
        1   -1    0    0  501    0  0.00000000000E+00  0.00000000000E+00 -0.23417225351E+04  0.23417225351E+04  0.50400001928E-02 0.  1.
    10030    2    1    2    0    0  0.00000000000E+00  0.00000000000E+00 -0.13922171794E+04  0.32912278908E+04  0.29822663118E+04 0.  0.
        2    1    3    3  502    0 -0.39209284296E+03  0.10926138366E+04  0.33676647530E+03  0.12086990743E+04  0.25500000920E-02 0. -1.
       -2    1    3    3    0  502  0.39209284296E+03 -0.10926138366E+04 -0.17289836547E+04  0.20825288165E+04  0.25500000920E-02 0.  1.
</event>
<event>
 5   0  0.5874741E-07  0.2986388E+04  0.7818609E-02  0.8247629E-01
       -1   -1    0    0    0  501  0.00000000000E+00  0.00000000000E+00  0.13115813311E+04  0.13115813311E+04  0.50400001928E-02 0. -1.
        1   -1    0    0  501    0  0.00000000000E+00  0.00000000000E+00 -0.16999544001E+04  0.16999544001E+04  0.50400001928E-02 0.  1.
    10030    2    1    2    0    0  0.00000000000E+00  0.00000000000E+00 -0.38837306901E+03  0.30115357311E+04  0.29863880892E+04 0.  0.
        4    1    3    3  502    0  0.18742177490E+03 -0.86814767765E+03  0.10162626686E+04  0.13496661574E+04  0.12699999809E+01 0. -1.
       -4    1    3    3    0  502 -0.18742177490E+03  0.86814767765E+03 -0.14046357376E+04  0.16618695738E+04  0.12699999809E+01 0.  1.
</event>
<event>
 5   0  0.6291798E-07  0.2997034E+04  0.7818609E-02  0.8244578E-01
       -1   -1    0    0    0  501  0.00000000000E+00  0.00000000000E+00  0.14466750863E+04  0.14466750863E+04  0.50400001928E-02 0. -1.
        1   -1    0    0  501    0  0.00000000000E+00  0.00000000000E+00 -0.15522168759E+04  0.15522168759E+04  0.50400001928E-02 0.  1.
    10030    2    1    2    0    0  0.00000000000E+00  0.00000000000E+00 -0.10554178958E+03  0.29988919622E+04  0.29970341893E+04 0.  0.
        1    1    3    3  502    0  0.51452285697E+03 -0.11384757508E+04  0.77520361081E+03  0.14703065816E+04  0.50400001928E-02 0. -1.
       -1    1    3    3    0  502 -0.51452285697E+03  0.11384757508E+04 -0.88074540039E+03  0.15285853806E+04  0.50400001928E-02 0.  1.
</event>
<event>
 5   0  0.5874741E-07  0.3008861E+04  0.7818609E-02  0.8241205E-01
       -1   -1    0    0    0  501  0.00000000000E+00  0.00000000000E+00  0.87021649814E+03  0.87021649816E+03  0.50400001928E-02 0.  1.
        1   -1    0    0  501    0  0.00000000000E+00  0.00000000000E+00 -0.26008603957E+04  0.26008603957E+04  0.50400001928E-02 0. -1.
    10030    2    1    2    0    0  0.00000000000E+00  0.00000000000E+00 -0.17306438976E+04  0.34710768939E+04  0.30088613300E+04 0.  0.
        4    1    3    3  502    0  0.54410629047E+03  0.13866669285E+04 -0.11084404619E+04  0.18567548832E+04  0.12699999809E+01 0.  1.
       -4    1    3    3    0  502 -0.54410629047E+03 -0.13866669285E+04 -0.62220343565E+03  0.16143220106E+04  0.12699999809E+01 0. -1.
</event>
<event>
 5   0  0.1674806E-06  0.2992159E+04  0.7818609E-02  0.8245973E-01
        2   -1    0    0  501    0  0.00000000000E+00  0.00000000000E+00  0.72753251608E+03  0.72753251609E+03  0.25500000920E-02 0.  1.
       -2   -1    0    0    0  501  0.00000000000E+00  0.00000000000E+00 -0.30765010522E+04  0.30765010522E+04  0.25500000920E-02 0. -1.
    10030    2    1    2    0    0  0.00000000000E+00  0.00000000000E+00 -0.23489685361E+04  0.38040335683E+04  0.29921594551E+04 0.  0.
        2    1    3    3  502    0  0.26772133283E+03  0.14144276701E+04 -0.65654372726E+03  0.15821915218E+04  0.25500000920E-02 0.  1.
       -2    1    3    3    0  502 -0.26772133283E+03 -0.14144276701E+04 -0.16924248088E+04  0.22218420465E+04  0.25500000920E-02 0. -1.
</event>
<event>
 5   0  0.1723916E-06  0.2995256E+04  0.7818609E-02  0.8245087E-01
        2   -1    0    0  501    0  0.00000000000E+00  0.00000000000E+00  0.20777226108E+04  0.20777226108E+04  0.25500000920E-02 0. -1.
       -2   -1    0    0    0  501  0.00000000000E+00  0.00000000000E+00 -0.10794944411E+04  0.10794944411E+04  0.25500000920E-02 0.  1.
    10030    2    1    2    0    0  0.00000000000E+00  0.00000000000E+00  0.99822816974E+03  0.31572170519E+04  0.29952562551E+04 0.  0.
        1    1    3    3  502    0  0.17036256919E+03  0.12673859956E+04 -0.32252124089E+03  0.13188292602E+04  0.50400001928E-02 0.  1.
       -1    1    3    3    0  502 -0.17036256919E+03 -0.12673859956E+04  0.13207494106E+04  0.18383877917E+04  0.50400001928E-02 0. -1.
</event>
<event>
 5   0  0.1635086E-06  0.3021311E+04  0.7818609E-02  0.8237671E-01
        2   -1    0    0  501    0  0.00000000000E+00  0.00000000000E+00  0.14089861672E+04  0.14089861672E+04  0.25500000920E-02 0. -1.
       -2   -1    0    0    0  501  0.00000000000E+00  0.00000000000E+00 -0.16196613565E+04  0.16196613565E+04  0.25500000920E-02 0.  1.
    10030    2    1    2    0    0  0.00000000000E+00  0.00000000000E+00 -0.21067518934E+03  0.30286475237E+04  0.30213112695E+04 0.  0.
        3    1    3    3  502    0  0.83784148290E+03  0.57134472974E+03 -0.12277291972E+04  0.15923982362E+04  0.10100000352E+00 0.  1.
       -3    1    3    3    0  502 -0.83784148290E+03 -0.57134472974E+03  0.10170540079E+04  0.14362492875E+04  0.10100000352E+00 0. -1.
</event>
<event>
 5   0  0.1723916E-06  0.2996676E+04  0.7818609E-02  0.8244681E-01
        2   -1    0    0  501    0  0.00000000000E+00  0.00000000000E+00  0.20081548471E+04  0.20081548471E+04  0.25500000920E-02 0. -1.
       -2   -1    0    0    0  501  0.00000000000E+00  0.00000000000E+00 -0.11179503243E+04  0.11179503243E+04  0.25500000920E-02 0.  1.
    10030    2    1    2    0    0  0.00000000000E+00  0.00000000000E+00  0.89020452279E+03  0.31261051714E+04  0.29966764006E+04 0.  0.
        1    1    3    3  502    0  0.12626000808E+04 -0.76536090482E+03  0.17897392093E+03  0.14872686183E+04  0.50400001928E-02 0.  1.
       -1    1    3    3    0  502 -0.12626000808E+04  0.76536090482E+03  0.71123060186E+03  0.16388365531E+04  0.50400001928E-02 0. -1.
</event>
<event>
 5   0  0.1625212E-06  0.2999375E+04  0.7818609E-02  0.8243909E-01
        2   -1    0    0  501    0  0.00000000000E+00  0.00000000000E+00  0.19681747301E+04  0.19681747301E+04  0.25500000920E-02 0. -1.
       -2   -1    0    0    0  501  0.00000000000E+00  0.00000000000E+00 -0.11427147603E+04  0.11427147603E+04  0.25500000920E-02 0.  1.
    10030    2    1    2    0    0  0.00000000000E+00  0.00000000000E+00  0.82545996980E+03  0.31108894903E+04  0.29993748114E+04 0.  0.
        4    1    3    3  502    0  0.55402097467E+03 -0.78564579548E+03 -0.78109995829E+03  0.12386675559E+04  0.12699999809E+01 0.  1.
       -4    1    3    3    0  502 -0.55402097467E+03  0.78564579548E+03  0.16065599281E+04  0.18722219344E+04  0.12699999809E+01 0. -1.
</event>
<event>
 5   0  0.5887179E-07  0.2971405E+04  0.7818609E-02  0.8251944E-01
        1   -1    0    0  501    0  0.00000000000E+00  0.00000000000E+00  0.30256544670E+04  0.30256544670E+04  0.50400001928E-02 0.  1.
       -1   -1    0    0    0  501  0.00000000000E+00  0.00000000000E+00 -0.72953182174E+03  0.72953182176E+03  0.50400001928E-02 0. -1.
    10030    2    1    2    0    0  0.00000000000E+00  0.00000000000E+00  0.22961226452E+04  0.37551862887E+04  0.29714045267E+04 0.  0.
        3    1    3    3  502    0 -0.10581889495E+04 -0.47899851591E+03  0.23187478600E+04  0.25934137888E+04  0.10100000352E+00 0.  1.
       -3    1    3    3    0  502  0.10581889495E+04  0.47899851591E+03 -0.22625214802E+02  0.11617725000E+04  0.10100000352E+00 0. -1.
</event>
<event>
 5   0  0.6291798E-07  0.2984132E+04  0.7818609E-02  0.8248277E-01
        1   -1    0    0  501    0  0.00000000000E+00  0.00000000000E+00  0.12212578078E+04  0.12212578078E+04  0.50400001928E-02 0. -1.
       -1   -1    0    0    0  501  0.00000000000E+00  0.00000000000E+00 -0.18229245825E+04  0.18229245825E+04  0.50400001928E-02 0.  1.
    10030    2    1    2    0    0  0.00000000000E+00  0.00000000000E+00 -0.60166677468E+03  0.30441823904E+04  0.29841319539E+04 0.  0.
        1    1    3    3  502    0 -0.11730980853E+03 -0.67815755072E+03 -0.16513323386E+04  0.17890102703E+04  0.50400001928E-02 0.  1.
       -1    1    3    3    0  502  0.11730980853E+03  0.67815755072E+03  0.10496655639E+04  0.12551721200E+04  0.50400001928E-02 0. -1.
</event>
<event>
 5   0  0.5431625E-07  0.3004284E+04  0.7818609E-02  0.8242509E-01
        3   -1    0    0  501    0  0.00000000000E+00  0.00000000000E+00  0.23028419503E+04  0.23028419525E+04  0.10100000352E+00 0.  1.
       -3   -1    0    0    0  501  0.00000000000E+00  0.00000000000E+00 -0.97984589612E+03  0.97984590133E+03  0.10100000352E+00 0. -1.
    10030    2    1    2    0    0  0.00000000000E+00  0.00000000000E+00  0.13229960542E+04  0.32826878539E+04  0.30042837726E+04 0.  0.
        2    1    3    3  502    0 -0.70624432598E+03  0.12098644176E+04  0.69157224828E+02  0.14026174384E+04  0.25500000920E-02 0. -1.
       -2    1    3    3    0  502  0.70624432598E+03 -0.12098644176E+04  0.12538388294E+04  0.18800704154E+04  0.25500000920E-02 0.  1.
</event>
<event>
 5   0  0.6291798E-07  0.3001306E+04  0.7818609E-02  0.8243358E-01
        1   -1    0    0  501    0  0.00000000000E+00  0.00000000000E+00  0.13425411138E+04  0.13425411138E+04  0.50400001928E-02 0. -1.
       -1   -1    0    0    0  501  0.00000000000E+00  0.00000000000E+00 -0.16773855379E+04  0.16773855379E+04  0.50400001928E-02 0.  1.
    10030    2    1    2    0    0  0.00000000000E+00  0.00000000000E+00 -0.33484442406E+03  0.30199266517E+04  0.30013057480E+04 0.  0.
        1    1    3    3  502    0  0.80361373375E+03  0.12634542930E+04 -0.67573156041E+02  0.14988922292E+04  0.50400001928E-02 0.  1.
       -1    1    3    3    0  502 -0.80361373375E+03 -0.12634542930E+04 -0.26727126802E+03  0.15210344224E+04  0.50400001928E-02 0. -1.
</event>
<event>
 5   0  0.5874741E-07  0.3013376E+04  0.7818609E-02  0.8239921E-01
        1   -1    0    0  501    0  0.00000000000E+00  0.00000000000E+00  0.15040474991E+04  0.15040474991E+04  0.50400001928E-02 0. -1.
       -1   -1    0    0    0  501  0.00000000000E+00  0.00000000000E+00 -0.15093335121E+04  0.15093335121E+04  0.50400001928E-02 0.  1.
    10030    2    1    2    0    0  0.00000000000E+00  0.00000000000E+00 -0.52860130244E+01  0.30133810112E+04  0.30133763749E+04 0.  0.
        4    1    3    3  502    0 -0.34019619982E+02  0.94901439723E+03 -0.11723977804E+04  0.15087424661E+04  0.12699999809E+01 0.  1.
       -4    1    3    3    0  502  0.34019619982E+02 -0.94901439723E+03  0.11671117674E+04  0.15046385450E+04  0.12699999809E+01 0. -1.
</event>
<event>
 5   0  0.5887179E-07  0.3010148E+04  0.7818609E-02  0.8240839E-01
       -1   -1    0    0    0  501  0.00000000000E+00  0.00000000000E+00  0.87028374553E+03  0.87028374554E+03  0.50400001928E-02 0. -1.
        1   -1    0    0  501    0  0.00000000000E+00  0.00000000000E+00 -0.26028840519E+04  0.26028840519E+04  0.50400001928E-02 0.  1.
    10030    2    1    2    0    0  0.00000000000E+00  0.00000000000E+00 -0.17326003064E+04  0.34731677975E+04  0.30101479578E+04 0.  0.
        3    1    3    3  502    0  0.60724233484E+03 -0.42024387775E+03  0.64687589402E+03  0.98173143093E+03  0.10100000352E+00 0. -1.
       -3    1    3    3    0  502 -0.60724233484E+03  0.42024387775E+03 -0.23794762004E+04  0.24914363666E+04  0.10100000352E+00 0.  1.
</event>
<event>
 5   0  0.1625212E-06  0.3001467E+04  0.7818609E-02  0.8243312E-01
       -2   -1    0    0    0  501  0.00000000000E+00  0.00000000000E+00  0.10686729197E+04  0.10686729197E+04  0.25500000920E-02 0. -1.
        2   -1    0    0  501    0  0.00000000000E+00  0.00000000000E+00 -0.21074752214E+04  0.21074752214E+04  0.25500000920E-02 0.  1.
    10030    2    1    2    0    0  0.00000000000E+00  0.00000000000E+00 -0.10388023017E+04  0.31761481411E+04  0.30014674398E+04 0.  0.
        4    1    3    3  502    0 -0.85447977277E+03  0.55208647774E+03 -0.16869086209E+04  0.19699232140E+04  0.12699999809E+01 0.  1.
       -4    1    3    3    0  502  0.85447977277E+03 -0.55208647774E+03  0.64810631917E+03  0.12062249271E+04  0.12699999809E+01 0. -1.
</event>
<event>
 5   0  0.5931588E-07  0.3122309E+04  0.7818609E-02  0.8209642E-01
       -1   -1    0    0    0  501  0.00000000000E+00  0.00000000000E+00  0.15688462735E+04  0.15688462735E+04  0.50400001928E-02 0. -1.
        1   -1    0    0  501    0  0.00000000000E+00  0.00000000000E+00 -0.15535007275E+04  0.15535007275E+04  0.50400001928E-02 0.  1.
    10030    2    1    2    0    0  0.00000000000E+00  0.00000000000E+00  0.15345545955E+02  0.31223470010E+04  0.31223092911E+04 0.  0.
        2    1    3    3  502    0  0.22832332694E+03  0.13709013161E+04  0.71880854245E+03  0.15646685530E+04  0.25500000920E-02 0. -1.
       -2    1    3    3    0  502 -0.22832332694E+03 -0.13709013161E+04 -0.70346299649E+03  0.15576784480E+04  0.25500000920E-02 0.  1.
</event>
<event>
 5   0  0.5887179E-07  0.3005731E+04  0.7818609E-02  0.8242096E-01
       -1   -1    0    0    0  501  0.00000000000E+00  0.00000000000E+00  0.94084526946E+03  0.94084526948E+03  0.50400001928E-02 0. -1.
        1   -1    0    0  501    0  0.00000000000E+00  0.00000000000E+00 -0.24006117339E+04  0.24006117339E+04  0.50400001928E-02 0.  1.
    10030    2    1    2    0    0  0.00000000000E+00  0.00000000000E+00 -0.14597664644E+04  0.33414570034E+04  0.30057306557E+04 0.  0.
        3    1    3    3  502    0 -0.83089620330E+03 -0.88495466500E+03  0.25512591340E+03  0.12404122305E+04  0.10100000352E+00 0. -1.
       -3    1    3    3    0  502  0.83089620330E+03  0.88495466500E+03 -0.17148923778E+04  0.21010447729E+04  0.10100000352E+00 0.  1.
</event>
<event>
 5   0  0.1560174E-06  0.3012431E+04  0.7818609E-02  0.8240190E-01
        2   -1    0    0  501    0  0.00000000000E+00  0.00000000000E+00  0.17938292227E+04  0.17938292227E+04  0.25500000920E-02 0. -1.
       -2   -1    0    0    0  501  0.00000000000E+00  0.00000000000E+00 -0.12647160759E+04  0.12647160759E+04  0.25500000920E-02 0.  1.
    10030    2    1    2    0    0  0.00000000000E+00  0.00000000000E+00  0.52911314679E+03  0.30585452986E+04  0.30124306832E+04 0.  0.
        5    1    3    3  502    0  0.11723360280E+03  0.81975560592E+03  0.15419576624E+04  0.17502566936E+04  0.46999998093E+01 0. -1.
       -5    1    3    3    0  502 -0.11723360280E+03 -0.81975560592E+03 -0.10128445156E+04  0.13082886049E+04  0.46999998093E+01 0.  1.
</event>
<event>
 5   0  0.5931588E-07  0.3002767E+04  0.7818609E-02  0.8242941E-01
        1   -1    0    0  501    0  0.00000000000E+00  0.00000000000E+00  0.80278476855E+03  0.80278476857E+03  0.50400001928E-02 0. -1.
       -1   -1    0    0    0  501  0.00000000000E+00  0.00000000000E+00 -0.28079162948E+04  0.28079162948E+04  0.50400001928E-02 0.  1.
    10030    2    1    2    0    0  0.00000000000E+00  0.00000000000E+00 -0.20051315262E+04  0.36107010634E+04  0.30027670125E+04 0.  0.
        2    1    3    3  502    0 -0.15533980142E+03 -0.10790010122E+04 -0.22439420216E+04  0.24947243203E+04  0.25500000920E-02 0.  1.
       -2    1    3    3    0  502  0.15533980142E+03  0.10790010122E+04  0.23881049534E+03  0.11159767430E+04  0.25500000920E-02 0. -1.
</event>
<event>
 5   0  0.5916703E-07  0.3015604E+04  0.7818609E-02  0.8239289E-01
        1   -1    0    0  501    0  0.00000000000E+00  0.00000000000E+00  0.19490310627E+04  0.19490310627E+04  0.50400001928E-02 0.  1.
       -1   -1    0    0    0  501  0.00000000000E+00  0.00000000000E+00 -0.11664599062E+04  0.11664599062E+04  0.50400001928E-02 0. -1.
    10030    2    1    2    0    0  0.00000000000E+00  0.00000000000E+00  0.78257115647E+03  0.31154909689E+04  0.30156038139E+04 0.  0.
        5    1    3    3  502    0  0.10199917055E+04  0.45605396074E+03 -0.65471106116E+03  0.12950046170E+04  0.46999998093E+01 0. -1.
       -5    1    3    3    0  502 -0.10199917055E+04 -0.45605396074E+03  0.14372822176E+04  0.18204863519E+04  0.46999998093E+01 0.  1.
</event>
<event>
 5   0  0.5916703E-07  0.3031403E+04  0.7818609E-02  0.8234820E-01
       -1   -1    0    0    0  501  0.00000000000E+00  0.00000000000E+00  0.10556760669E+04  0.10556760669E+04  0.50400001928E-02 0.  1.
        1   -1    0    0  501    0  0.00000000000E+00  0.00000000000E+00 -0.21761900595E+04  0.21761900595E+04  0.50400001928E-02 0. -1.
    10030    2    1    2    0    0  0.00000000000E+00  0.00000000000E+00 -0.11205139926E+04  0.32318661264E+04  0.30314034788E+04 0.  0.
        5    1    3    3  502    0  0.10544031215E+04  0.79749271912E+03 -0.13506093818E+04  0.18899545952E+04  0.46999998093E+01 0. -1.
       -5    1    3    3    0  502 -0.10544031215E+04 -0.79749271912E+03  0.23009538920E+03  0.13419115313E+04  0.46999998093E+01 0.  1.
</event>
<event>
 5   0  0.1674806E-06  0.2983427E+04  0.7818609E-02  0.8248479E-01
        2   -1    0    0  501    0  0.00000000000E+00  0.00000000000E+00  0.14299622268E+04  0.14299622268E+04  0.25500000920E-02 0. -1.
       -2   -1    0    0    0  501  0.00000000000E+00  0.00000000000E+00 -0.15561313606E+04  0.15561313606E+04  0.25500000920E-02 0.  1.
    10030    2    1    2    0    0  0.00000000000E+00  0.00000000000E+00 -0.12616913381E+03  0.29860935873E+04  0.29834269326E+04 0.  0.
        2    1    3    3  502    0  0.41832820318E+03  0.25824490024E+03 -0.14727184083E+04  0.15526069767E+04  0.25500000920E-02 0.  1.
       -2    1    3    3    0  502 -0.41832820318E+03 -0.25824490024E+03  0.13465492745E+04  0.14334866106E+04  0.25500000920E-02 0. -1.
</event>
<event>
 5   0  0.1674806E-06  0.2802822E+04  0.7818609E-02  0.8302393E-01
        2   -1    0    0  501    0  0.00000000000E+00  0.00000000000E+00  0.99852181668E+03  0.99852181669E+03  0.25500000920E-02 0. -1.
       -2   -1    0    0    0  501  0.00000000000E+00  0.00000000000E+00 -0.19668602929E+04  0.19668602929E+04  0.25500000920E-02 0.  1.
    10030    2    1    2    0    0  0.00000000000E+00  0.00000000000E+00 -0.96833847625E+03  0.29653821096E+04  0.28028220870E+04 0.  0.
        2    1    3    3  502    0  0.10298589096E+04 -0.87100299404E+03 -0.88662243441E+03  0.16141111890E+04  0.25500000920E-02 0.  1.
       -2    1    3    3    0  502 -0.10298589096E+04  0.87100299404E+03 -0.81716041846E+02  0.13512709206E+04  0.25500000920E-02 0. -1.
</event>
<event>
 5   0  0.1560174E-06  0.3000581E+04  0.7818609E-02  0.8243565E-01
        2   -1    0    0  501    0  0.00000000000E+00  0.00000000000E+00  0.19235606181E+04  0.19235606181E+04  0.25500000920E-02 0.  1.
       -2   -1    0    0    0  501  0.00000000000E+00  0.00000000000E+00 -0.11701592007E+04  0.11701592007E+04  0.25500000920E-02 0. -1.
    10030    2    1    2    0    0  0.00000000000E+00  0.00000000000E+00  0.75340141746E+03  0.30937198188E+04  0.30005813806E+04 0.  0.
        5    1    3    3  502    0 -0.14900127789E+04 -0.17028517714E+03  0.41939800079E+03  0.15572578130E+04  0.46999998093E+01 0.  1.
       -5    1    3    3    0  502  0.14900127789E+04  0.17028517714E+03  0.33400341666E+03  0.15364620058E+04  0.46999998093E+01 0. -1.
</event>
<event>
 5   0  0.1625212E-06  0.3006326E+04  0.7818609E-02  0.8241927E-01
       -2   -1    0    0    0  501  0.00000000000E+00  0.00000000000E+00  0.90909111129E+03  0.90909111129E+03  0.25500000920E-02 0.  1.
        2   -1    0    0  501    0  0.00000000000E+00  0.00000000000E+00 -0.24854487218E+04  0.24854487218E+04  0.25500000920E-02 0. -1.
    10030    2    1    2    0    0  0.00000000000E+00  0.00000000000E+00 -0.15763576105E+04  0.33945398331E+04  0.30063262235E+04 0.  0.
        4    1    3    3  502    0  0.10986138354E+04  0.23955208362E+03  0.33821770525E+03  0.11741935059E+04  0.12699999809E+01 0.  1.
       -4    1    3    3    0  502 -0.10986138354E+04 -0.23955208362E+03 -0.19145753158E+04  0.22203463273E+04  0.12699999809E+01 0. -1.
</event>
<event>
 5   0  0.6291798E-07  0.3013887E+04  0.7818609E-02  0.8239776E-01
        1   -1    0    0  501    0  0.00000000000E+00  0.00000000000E+00  0.12788198866E+04  0.12788198866E+04  0.50400001928E-02 0.  1.
       -1   -1    0    0    0  501  0.00000000000E+00  0.00000000000E+00 -0.17757615470E+04  0.17757615470E+04  0.50400001928E-02 0. -1.
    10030    2    1    2    0    0  0.00000000000E+00  0.00000000000E+00 -0.49694166043E+03  0.30545814337E+04  0.30138873106E+04 0.  0.
        1    1    3    3  502    0 -0.39082226032E+03  0.70272892613E+03 -0.15401630670E+04  0.17374326623E+04  0.50400001928E-02 0. -1.
       -1    1    3    3    0  502  0.39082226032E+03 -0.70272892613E+03  0.10432214066E+04  0.13171487714E+04  0.50400001928E-02 0.  1.
</event>
<event>
 5   0  0.1625212E-06  0.2888136E+04  0.7818609E-02  0.8276416E-01
       -2   -1    0    0    0  501  0.00000000000E+00  0.00000000000E+00  0.20258247216E+04  0.20258247216E+04  0.25500000920E-02 0. -1.
        2   -1    0    0  501    0  0.00000000000E+00  0.00000000000E+00 -0.10293741838E+04  0.10293741838E+04  0.25500000920E-02 0.  1.
    10030    2    1    2    0    0  0.00000000000E+00  0.00000000000E+00  0.99645053775E+03  0.30551989054E+04  0.28881355019E+04 0.  0.
        4    1    3    3  502    0  0.11625789794E+04  0.74600475981E+03  0.94354783427E+03  0.16728410306E+04  0.12699999809E+01 0.  1.
       -4    1    3    3    0  502 -0.11625789794E+04 -0.74600475981E+03  0.52902703485E+02  0.13823578748E+04  0.12699999809E+01 0. -1.
</event>
<event>
 5   0  0.5874741E-07  0.2995975E+04  0.7818609E-02  0.8244881E-01
        1   -1    0    0  501    0  0.00000000000E+00  0.00000000000E+00  0.14956240534E+04  0.14956240534E+04  0.50400001928E-02 0.  1.
       -1   -1    0    0    0  501  0.00000000000E+00  0.00000000000E+00 -0.15003545371E+04  0.15003545371E+04  0.50400001928E-02 0. -1.
    10030    2    1    2    0    0  0.00000000000E+00  0.00000000000E+00 -0.47304837313E+01  0.29959785905E+04  0.29959748559E+04 0.  0.
        4    1    3    3  502    0  0.85597783220E+03  0.11878673921E+04 -0.31896906519E+03  0.14984891951E+04  0.12699999809E+01 0. -1.
       -4    1    3    3    0  502 -0.85597783220E+03 -0.11878673921E+04  0.31423858146E+03  0.14974893954E+04  0.12699999809E+01 0.  1.
</event>
<event>
 5   0  0.1723916E-06  0.3004220E+04  0.7818609E-02  0.8242527E-01
       -2   -1    0    0    0  501  0.00000000000E+00  0.00000000000E+00  0.11196794120E+04  0.11196794120E+04  0.25500000920E-02 0.  1.
        2   -1    0    0  501    0  0.00000000000E+00  0.00000000000E+00 -0.20151613719E+04  0.20151613719E+04  0.25500000920E-02 0. -1.
    10030    2    1    2    0    0  0.00000000000E+00  0.00000000000E+00 -0.89548195989E+03  0.31348407839E+04  0.30042201651E+04 0.  0.
        1    1    3    3  502    0 -0.81221553360E+03  0.46971630943E+03 -0.16717766869E+04  0.19170719275E+04  0.50400001928E-02 0. -1.
       -1    1    3    3    0  502  0.81221553360E+03 -0.46971630943E+03  0.77629472705E+03  0.12177688564E+04  0.50400001928E-02 0.  1.
</event>
<event>
 5   0  0.5887179E-07  0.3011569E+04  0.7818609E-02  0.8240435E-01
        1   -1    0    0  501    0  0.00000000000E+00  0.00000000000E+00  0.12982069748E+04  0.12982069748E+04  0.50400001928E-02 0.  1.
       -1   -1    0    0    0  501  0.00000000000E+00  0.00000000000E+00 -0.17465525519E+04  0.17465525519E+04  0.50400001928E-02 0. -1.
    10030    2    1    2    0    0  0.00000000000E+00  0.00000000000E+00 -0.44834557707E+03  0.30447595267E+04  0.30115688302E+04 0.  0.
        3    1    3    3  502    0 -0.35704877639E+03  0.14607462150E+04 -0.14505846008E+03  0.15107300554E+04  0.10100000352E+00 0.  1.
       -3    1    3    3    0  502  0.35704877639E+03 -0.14607462150E+04 -0.30328711699E+03  0.15340294713E+04  0.10100000352E+00 0. -1.
</event>
<event>
 5   0  0.1635086E-06  0.3017935E+04  0.7818609E-02  0.8238628E-01
        2   -1    0    0  501    0  0.00000000000E+00  0.00000000000E+00  0.24670920440E+04  0.24670920440E+04  0.25500000920E-02 0.  1.
       -2   -1    0    0    0  501  0.00000000000E+00  0.00000000000E+00 -0.92294227133E+03  0.92294227134E+03  0.25500000920E-02 0. -1.
    10030    2    1    2    0    0  0.00000000000E+00  0.00000000000E+00  0.15441497727E+04  0.33900343154E+04  0.30179354100E+04 0.  0.
        3    1    3    3  502    0 -0.99074678389E+03  0.11290807024E+04  0.93322420279E+03  0.17684201552E+04  0.10100000352E+00 0.  1.
       -3    1    3    3    0  502  0.99074678389E+03 -0.11290807024E+04  0.61092556989E+03  0.16216141602E+04  0.10100000352E+00 0. -1.
</event>
<event>
 5   0  0.5916703E-07  0.2994683E+04  0.7818609E-02  0.8245251E-01
       -1   -1    0    0    0  501  0.00000000000E+00  0.00000000000E+00  0.93687064434E+03  0.93687064435E+03  0.50400001928E-02 0. -1.
        1   -1    0    0  501    0  0.00000000000E+00  0.00000000000E+00 -0.23931061604E+04  0.23931061604E+04  0.50400001928E-02 0.  1.
    10030    2    1    2    0    0  0.00000000000E+00  0.00000000000E+00 -0.14562355161E+04  0.33299768048E+04  0.29946825611E+04 0.  0.
        5    1    3    3  502    0 -0.71070074308E+03 -0.12844045206E+04 -0.10565110127E+04  0.18085983879E+04  0.46999998093E+01 0.  1.
       -5    1    3    3    0  502  0.71070074308E+03  0.12844045206E+04 -0.39972450332E+03  0.15213784168E+04  0.46999998093E+01 0. -1.
</event>
<event>
 5   0  0.1723916E-06  0.3009548E+04  0.7818609E-02  0.8241010E-01
        2   -1    0    0  501    0  0.00000000000E+00  0.00000000000E+00  0.19355330795E+04  0.19355330795E+04  0.25500000920E-02 0.  1.
       -2   -1    0    0    0  501  0.00000000000E+00  0.00000000000E+00 -0.11698816137E+04  0.11698816137E+04  0.25500000920E-02 0. -1.
    10030    2    1    2    0    0  0.00000000000E+00  0.00000000000E+00  0.76565146576E+03  0.31054146932E+04  0.30095478481E+04 0.  0.
        1    1    3    3  502    0 -0.66442498214E+03 -0.70216185280E+03 -0.80710074103E+03  0.12593265782E+04  0.50400001928E-02 0. -1.
       -1    1    3    3    0  502  0.66442498214E+03  0.70216185280E+03  0.15727522068E+04  0.18460881150E+04  0.50400001928E-02 0.  1.
</event>
<event>
 5   0  0.1635086E-06  0.3001733E+04  0.7818609E-02  0.8243236E-01
       -2   -1    0    0    0  501  0.00000000000E+00  0.00000000000E+00  0.12483508428E+04  0.12483508428E+04  0.25500000920E-02 0.  1.
        2   -1    0    0  501    0  0.00000000000E+00  0.00000000000E+00 -0.18044609949E+04  0.18044609949E+04  0.25500000920E-02 0. -1.
    10030    2    1    2    0    0  0.00000000000E+00  0.00000000000E+00 -0.55611015212E+03  0.30528118378E+04  0.30017331020E+04 0.  0.
        3    1    3    3  502    0  0.87254539704E+02 -0.28408030510E+03 -0.17742398452E+04  0.17989558118E+04  0.10100000352E+00 0. -1.
       -3    1    3    3    0  502 -0.87254539704E+02  0.28408030510E+03  0.12181296931E+04  0.12538560259E+04  0.10100000352E+00 0.  1.
</event>
<event>
 5   0  0.5431625E-07  0.2936490E+04  0.7818609E-02  0.8262103E-01
        3   -1    0    0  501    0  0.00000000000E+00  0.00000000000E+00  0.12926998255E+04  0.12926998295E+04  0.10100000352E+00 0. -1.
       -3   -1    0    0    0  501  0.00000000000E+00  0.00000000000E+00 -0.16676291530E+04  0.16676291561E+04  0.10100000352E+00 0.  1.
    10030    2    1    2    0    0  0.00000000000E+00  0.00000000000E+00 -0.37492932746E+03  0.29603289855E+04  0.29364903715E+04 0.  0.
        2    1    3    3  502    0 -0.10071047073E+04 -0.10409743611E+04  0.55021605029E+02  0.14494533069E+04  0.25500000920E-02 0.  1.
       -2    1    3    3    0  502  0.10071047073E+04  0.10409743611E+04 -0.42995093249E+03  0.15108756786E+04  0.25500000920E-02 0. -1.
</event>
<event>
 5   0  0.5874741E-07  0.3005802E+04  0.7818609E-02  0.8242076E-01
       -1   -1    0    0    0  501  0.00000000000E+00  0.00000000000E+00  0.93183109928E+03  0.93183109929E+03  0.50400001928E-02 0.  1.
        1   -1    0    0  501    0  0.00000000000E+00  0.00000000000E+00 -0.24239491433E+04  0.24239491433E+04  0.50400001928E-02 0. -1.
    10030    2    1    2    0    0  0.00000000000E+00  0.00000000000E+00 -0.14921180440E+04  0.33557802426E+04  0.30058018530E+04 0.  0.
        4    1    3    3  502    0  0.11795496708E+03 -0.90259511954E+03 -0.20811754525E+04  0.22715378493E+04  0.12699999809E+01 0.  1.
       -4    1    3    3    0  502 -0.11795496708E+03  0.90259511954E+03  0.58905740843E+03  0.10842423933E+04  0.12699999809E+01 0. -1.
</event>
<event>
 5   0  0.5931588E-07  0.2957594E+04  0.7818609E-02  0.8255945E-01
       -1   -1    0    0    0  501  0.00000000000E+00  0.00000000000E+00  0.32016316592E+04  0.32016316592E+04  0.50400001928E-02 0. -1.
        1   -1    0    0  501    0  0.00000000000E+00  0.00000000000E+00 -0.68303920823E+03  0.68303920825E+03  0.50400001928E-02 0.  1.
    10030    2    1    2    0    0  0.00000000000E+00  0.00000000000E+00  0.25185924509E+04  0.38846708674E+04  0.29575935850E+04 0.  0.
        2    1    3    3  502    0  0.65141363122E+03  0.11013057966E+04  0.28554217015E+03  0.13110104910E+04  0.25500000920E-02 0.  1.
       -2    1    3    3    0  502 -0.65141363122E+03 -0.11013057966E+04  0.22330502808E+04  0.25736603764E+04  0.25500000920E-02 0. -1.
</event>
<event>
 5   0  0.1625212E-06  0.2996859E+04  0.7818609E-02  0.8244628E-01
       -2   -1    0    0    0  501  0.00000000000E+00  0.00000000000E+00  0.84134204594E+03  0.84134204595E+03  0.25500000920E-02 0. -1.
        2   -1    0    0  501    0  0.00000000000E+00  0.00000000000E+00 -0.26687020510E+04  0.26687020510E+04  0.25500000920E-02 0.  1.
    10030    2    1    2    0    0  0.00000000000E+00  0.00000000000E+00 -0.18273600050E+04  0.35100440969E+04  0.29968591849E+04 0.  0.
        4    1    3    3  502    0  0.50800524370E+03  0.50688926777E+03  0.62697315362E+03  0.95294438750E+03  0.12699999809E+01 0. -1.
       -4    1    3    3    0  502 -0.50800524370E+03 -0.50688926777E+03 -0.24543331586E+04  0.25570997094E+04  0.12699999809E+01 0.  1.
</event>
<event>
 5   0  0.1723916E-06  0.2999778E+04  0.7818609E-02  0.8243794E-01
        2   -1    0    0  501    0  0.00000000000E+00  0.00000000000E+00  0.16904933032E+04  0.16904933032E+04  0.25500000920E-02 0.  1.
       -2   -1    0    0    0  501  0.00000000000E+00  0.00000000000E+00 -0.13307751323E+04  0.13307751323E+04  0.25500000920E-02 0. -1.
    10030    2    1    2    0    0  0.00000000000E+00  0.00000000000E+00  0.35971817088E+03  0.30212684355E+04  0.29997776246E+04 0.  0.
        1    1    3    3  502    0  0.88973044449E+02 -0.11100522858E+03 -0.13239648261E+04  0.13315859808E+04  0.50400001928E-02 0. -1.
       -1    1    3    3    0  502 -0.88973044449E+02  0.11100522858E+03  0.16836829970E+04  0.16896824547E+04  0.50400001928E-02 0.  1.
</event>
<event>
 5   0  0.6291798E-07  0.2996343E+04  0.7818609E-02  0.8244776E-01
       -1   -1    0    0    0  501  0.00000000000E+00  0.00000000000E+00  0.16946768580E+04  0.16946768580E+04  0.50400001928E-02 0.  1.
        1   -1    0    0  501    0  0.00000000000E+00  0.00000000000E+00 -0.13244519738E+04  0.13244519738E+04  0.50400001928E-02 0. -1.
    10030    2    1    2    0    0  0.00000000000E+00  0.00000000000E+00  0.37022488419E+03  0.30191288319E+04  0.29963431777E+04 0.  0.
        1    1    3    3  502    0 -0.10580130719E+04  0.10597661196E+04  0.13980136307E+03  0.15040080817E+04  0.50400001928E-02 0. -1.
       -1    1    3    3    0  502  0.10580130719E+04 -0.10597661196E+04  0.23042352112E+03  0.15151207502E+04  0.50400001928E-02 0.  1.
</event>
<event>
 5   0  0.1560174E-06  0.3000406E+04  0.7818609E-02  0.8243615E-01
       -2   -1    0    0    0  501  0.00000000000E+00  0.00000000000E+00  0.12149929449E+04  0.12149929449E+04  0.25500000920E-02 0. -1.
        2   -1    0    0  501    0  0.00000000000E+00  0.00000000000E+00 -0.18523636974E+04  0.18523636974E+04  0.25500000920E-02 0.  1.
    10030    2    1    2    0    0  0.00000000000E+00  0.00000000000E+00 -0.63737075245E+03  0.30673566423E+04  0.30004058550E+04 0.  0.
        5    1    3    3  502    0  0.73615669138E+03  0.11694775245E+04 -0.91565225843E+03  0.16577229874E+04  0.46999998093E+01 0. -1.
       -5    1    3    3    0  502 -0.73615669138E+03 -0.11694775245E+04  0.27828150598E+03  0.14096336549E+04  0.46999998093E+01 0.  1.
</event>
<event>
 5   0  0.5874741E-07  0.3005523E+04  0.7818609E-02  0.8242155E-01
       -1   -1    0    0    0  501  0.00000000000E+00  0.00000000000E+00  0.25718726128E+04  0.25718726128E+04  0.50400001928E-02 0. -1.
        1   -1    0    0  501    0  0.00000000000E+00  0.00000000000E+00 -0.87807313405E+03  0.87807313406E+03  0.50400001928E-02 0.  1.
    10030    2    1    2    0    0  0.00000000000E+00  0.00000000000E+00  0.16937994788E+04  0.34499457469E+04  0.30055230796E+04 0.  0.
        4    1    3    3  502    0 -0.44279250039E+03  0.59391850978E+03 -0.65390779973E+03  0.98813026374E+03  0.12699999809E+01 0.  1.
       -4    1    3    3    0  502  0.44279250039E+03 -0.59391850978E+03  0.23477072785E+04  0.24618154831E+04  0.12699999809E+01 0. -1.
</event>
<event>
 5   0  0.5887179E-07  0.3007801E+04  0.7818609E-02  0.8241507E-01
       -1   -1    0    0    0  501  0.00000000000E+00  0.00000000000E+00  0.10676472243E+04  0.10676472243E+04  0.50400001928E-02 0.  1.
        1   -1    0    0  501    0  0.00000000000E+00  0.00000000000E+00 -0.21184117636E+04  0.21184117636E+04  0.50400001928E-02 0. -1.
    10030    2    1    2    0    0  0.00000000000E+00  0.00000000000E+00 -0.10507645393E+04  0.31860589880E+04  0.30078008175E+04 0.  0.
        3    1    3    3  502    0  0.13370512941E+04 -0.15530340237E+03 -0.12358730546E+04  0.18273498644E+04  0.10100000352E+00 0. -1.
       -3    1    3    3    0  502 -0.13370512941E+04  0.15530340237E+03  0.18510851526E+03  0.13587091235E+04  0.10100000352E+00 0.  1.
</event>
<event>
 5   0  0.5931588E-07  0.3054218E+04  0.7818609E-02  0.8228416E-01
       -1   -1    0    0    0  501  0.00000000000E+00  0.00000000000E+00  0.14521249959E+04  0.14521249959E+04  0.50400001928E-02 0. -1.
        1   -1    0    0  501    0  0.00000000000E+00  0.00000000000E+00 -0.16059652724E+04  0.16059652724E+04  0.50400001928E-02 0.  1.
    10030    2    1    2    0    0  0.00000000000E+00  0.00000000000E+00 -0.15384027650E+03  0.30580902683E+04  0.30542182729E+04 0.  0.
        2    1    3    3  502    0 -0.14082493585E+04  0.55214650637E+03 -0.28702012466E+03  0.15396144232E+04  0.25500000920E-02 0. -1.
       -2    1    3    3    0  502  0.14082493585E+04 -0.55214650637E+03  0.13317984816E+03  0.15184758451E+04  0.25500000920E-02 0.  1.
</event>
<event>
 5   0  0.1625212E-06  0.3026993E+04  0.7818609E-02  0.8236065E-01
       -2   -1    0    0    0  501  0.00000000000E+00  0.00000000000E+00  0.11921007455E+04  0.11921007455E+04  0.25500000920E-02 0. -1.
        2   -1    0    0  501    0  0.00000000000E+00  0.00000000000E+00 -0.19215422180E+04  0.19215422180E+04  0.25500000920E-02 0.  1.
    10030    2    1    2    0    0  0.00000000000E+00  0.00000000000E+00 -0.72944147247E+03  0.31136429635E+04  0.30269931685E+04 0.  0.
        4    1    3    3  502    0 -0.14441277251E+04 -0.45262137937E+03 -0.34692526376E+03  0.15526524888E+04  0.12699999809E+01 0.  1.
       -4    1    3    3    0  502  0.14441277251E+04  0.45262137937E+03 -0.38251620871E+03  0.15609904747E+04  0.12699999809E+01 0. -1.
</event>
<event>
 5   0  0.6291798E-07  0.2980972E+04  0.7818609E-02  0.8249185E-01
       -1   -1    0    0    0  501  0.00000000000E+00  0.00000000000E+00  0.13491714213E+04  0.13491714213E+04  0.50400001928E-02 0. -1.
        1   -1    0    0  501    0  0.00000000000E+00  0.00000000000E+00 -0.16466016983E+04  0.16466016983E+04  0.50400001928E-02 0.  1.
    10030    2    1    2    0    0  0.00000000000E+00  0.00000000000E+00 -0.29743027706E+03  0.29957731196E+04  0.29809716226E+04 0.  0.
        1    1    3    3  502    0 -0.74193672001E+03 -0.10860861997E+04  0.55583266250E+03  0.14279367207E+04  0.50400001928E-02 0. -1.
       -1    1    3    3    0  502  0.74193672001E+03  0.10860861997E+04 -0.85326293957E+03  0.15678363989E+04  0.50400001928E-02 0.  1.
</event>
<event>
 5   0  0.5887179E-07  0.3006844E+04  0.7818609E-02  0.8241779E-01
       -1   -1    0    0    0  501  0.00000000000E+00  0.00000000000E+00  0.16707763605E+04  0.16707763605E+04  0.50400001928E-02 0. -1.
        1   -1    0    0  501    0  0.00000000000E+00  0.00000000000E+00 -0.13528312001E+04  0.13528312001E+04  0.50400001928E-02 0.  1.
    10030    2    1    2    0    0  0.00000000000E+00  0.00000000000E+00  0.31794516042E+03  0.30236075606E+04  0.30068444515E+04 0.  0.
        3    1    3    3  502    0 -0.51954912772E+03 -0.57122620792E+03 -0.11381987652E+04  0.13754007111E+04  0.10100000352E+00 0.  1.
       -3    1    3    3    0  502  0.51954912772E+03  0.57122620792E+03  0.14561439256E+04  0.16482068496E+04  0.10100000352E+00 0. -1.
</event>
<event>
 5   0  0.1674806E-06  0.3022668E+04  0.7818609E-02  0.8237287E-01
        2   -1    0    0  501    0  0.00000000000E+00  0.00000000000E+00  0.18135647711E+04  0.18135647711E+04  0.25500000920E-02 0. -1.
       -2   -1    0    0    0  501  0.00000000000E+00  0.00000000000E+00 -0.12594699739E+04  0.12594699739E+04  0.25500000920E-02 0.  1.
    10030    2    1    2    0    0  0.00000000000E+00  0.00000000000E+00  0.55409479715E+03  0.30730347450E+04  0.30226679441E+04 0.  0.
        2    1    3    3  502    0 -0.38734653914E+03  0.64106632955E+02  0.17608124483E+04  0.18040530701E+04  0.25500000920E-02 0. -1.
       -2    1    3    3    0  502  0.38734653914E+03 -0.64106632955E+02 -0.12067176511E+04  0.12689816749E+04  0.25500000920E-02 0.  1.
</event>
<event>
 5   0  0.1625212E-06  0.3000087E+04  0.7818609E-02  0.8243706E-01
        2   -1    0    0  501    0  0.00000000000E+00  0.00000000000E+00  0.14991402370E+04  0.14991402370E+04  0.25500000920E-02 0. -1.
       -2   -1    0    0    0  501  0.00000000000E+00  0.00000000000E+00 -0.15009475789E+04  0.15009475789E+04  0.25500000920E-02 0.  1.
    10030    2    1    2    0    0  0.00000000000E+00  0.00000000000E+00 -0.18073418776E+01  0.30000878159E+04  0.30000872715E+04 0.  0.
        4    1    3    3  502    0  0.12132318339E+04  0.75816726515E+03  0.45007336323E+03  0.14997722260E+04  0.12699999809E+01 0. -1.
       -4    1    3    3    0  502 -0.12132318339E+04 -0.75816726515E+03 -0.45188070510E+03  0.15003155899E+04  0.12699999809E+01 0.  1.
</event>
<event>
 5   0  0.5916703E-07  0.3012340E+04  0.7818609E-02  0.8240216E-01
       -1   -1    0    0    0  501  0.00000000000E+00  0.00000000000E+00  0.17055949250E+04  0.17055949250E+04  0.50400001928E-02 0. -1.
        1   -1    0    0  501    0  0.00000000000E+00  0.00000000000E+00 -0.13300627762E+04  0.13300627763E+04  0.50400001928E-02 0.  1.
    10030    2    1    2    0    0  0.00000000000E+00  0.00000000000E+00  0.37553214878E+03  0.30356577013E+04  0.30123401675E+04 0.  0.
        5    1    3    3  502    0 -0.21992630043E+03 -0.38999543443E+03  0.16369736188E+04  0.16971059882E+04  0.46999998093E+01 0. -1.
       -5    1    3    3    0  502  0.21992630043E+03  0.38999543443E+03 -0.12614414700E+04  0.13385517131E+04  0.46999998093E+01 0.  1.
</event>
<event>
 5   0  0.1625212E-06  0.2994348E+04  0.7818609E-02  0.8245347E-01
       -2   -1    0    0    0  501  0.00000000000E+00  0.00000000000E+00  0.12992462639E+04  0.12992462639E+04  0.25500000920E-02 0.  1.
        2   -1    0    0  501    0  0.00000000000E+00  0.00000000000E+00 -0.17252536470E+04  0.17252536470E+04  0.25500000920E-02 0. -1.
    10030    2    1    2    0    0  0.00000000000E+00  0.00000000000E+00 -0.42600738310E+03  0.30244999108E+04  0.29943475784E+04 0.  0.
        4    1    3    3  502    0 -0.13218608095E+04  0.42883812529E+03  0.34966010732E+03  0.14329975370E+04  0.12699999809E+01 0.  1.
       -4    1    3    3    0  502  0.13218608095E+04 -0.42883812529E+03 -0.77566749042E+03  0.15915023739E+04  0.12699999809E+01 0. -1.
</event>
<event>
 5   0  0.5931588E-07  0.2973940E+04  0.7818609E-02  0.8251212E-01
        1   -1    0    0  501    0  0.00000000000E+00  0.00000000000E+00  0.12721562461E+04  0.12721562461E+04  0.50400001928E-02 0. -1.
       -1   -1    0    0    0  501  0.00000000000E+00  0.00000000000E+00 -0.17380563359E+04  0.17380563359E+04  0.50400001928E-02 0.  1.
    10030    2    1    2    0    0  0.00000000000E+00  0.00000000000E+00 -0.46590008986E+03  0.30102125820E+04  0.29739396253E+04 0.  0.
        2    1    3    3  502    0  0.11259990153E+04 -0.85758502441E+03 -0.69430910632E+03  0.15765122872E+04  0.25500000920E-02 0.  1.
       -2    1    3    3    0  502 -0.11259990153E+04  0.85758502441E+03  0.22840901646E+03  0.14337002948E+04  0.25500000920E-02 0. -1.
</event>
<event>
 5   0  0.1560174E-06  0.3008121E+04  0.7818609E-02  0.8241416E-01
        2   -1    0    0  501    0  0.00000000000E+00  0.00000000000E+00  0.14261523320E+04  0.14261523320E+04  0.25500000920E-02 0. -1.
       -2   -1    0    0    0  501  0.00000000000E+00  0.00000000000E+00 -0.15862246425E+04  0.15862246425E+04  0.25500000920E-02 0.  1.
    10030    2    1    2    0    0  0.00000000000E+00  0.00000000000E+00 -0.16007231051E+03  0.30123769744E+04  0.30081209902E+04 0.  0.
        5    1    3    3  502    0 -0.82748404425E+03 -0.11803019866E+04  0.34991178317E+03  0.14833418248E+04  0.46999998093E+01 0.  1.
       -5    1    3    3    0  502  0.82748404425E+03  0.11803019866E+04 -0.50998409368E+03  0.15290351497E+04  0.46999998093E+01 0. -1.
</event>
<event>
 5   0  0.5874741E-07  0.3001726E+04  0.7818609E-02  0.8243238E-01
        1   -1    0    0  501    0  0.00000000000E+00  0.00000000000E+00  0.13902790569E+04  0.13902790569E+04  0.50400001928E-02 0. -1.
       -1   -1    0    0    0  501  0.00000000000E+00  0.00000000000E+00 -0.16202425709E+04  0.16202425709E+04  0.50400001928E-02 0.  1.
    10030    2    1    2    0    0  0.00000000000E+00  0.00000000000E+00 -0.22996351403E+03  0.30105216278E+04  0.30017257126E+04 0.  0.
        4    1    3    3  502    0  0.40002517783E+01 -0.32478546356E+03  0.13546058350E+04  0.13930040130E+04  0.12699999809E+01 0. -1.
       -4    1    3    3    0  502 -0.40002517783E+01  0.32478546356E+03 -0.15845693490E+04  0.16175176147E+04  0.12699999809E+01 0.  1.
</event>
<event>
 5   0  0.1635086E-06  0.2981034E+04  0.7818609E-02  0.8249168E-01
       -2   -1    0    0    0  501  0.00000000000E+00  0.00000000000E+00  0.14173538281E+04  0.14173538281E+04  0.25500000920E-02 0. -1.
        2   -1    0    0  501    0  0.00000000000E+00  0.00000000000E+00 -0.15674565050E+04  0.15674565050E+04  0.25500000920E-02 0.  1.
    10030    2    1    2    0    0  0.00000000000E+00  0.00000000000E+00 -0.15010267696E+03  0.29848103331E+04  0.29810336984E+04 0.  0.
        3    1    3    3  502    0 -0.20340297264E+02  0.13404614679E+04  0.57722604305E+03  0.14596028876E+04  0.10100000352E+00 0. -1.
       -3    1    3    3    0  502  0.20340297264E+02 -0.13404614679E+04 -0.72732872001E+03  0.15252074455E+04  0.10100000352E+00 0.  1.
</event>
<event>
 5   0  0.5431625E-07  0.2996215E+04  0.7818609E-02  0.8244813E-01
        4   -1    0    0  501    0  0.00000000000E+00  0.00000000000E+00  0.14609744635E+04  0.14609750155E+04  0.12699999809E+01 0. -1.
       -4   -1    0    0    0  501  0.00000000000E+00  0.00000000000E+00 -0.15361831734E+04  0.15361836983E+04  0.12699999809E+01 0.  1.
    10030    2    1    2    0    0  0.00000000000E+00  0.00000000000E+00 -0.75208709839E+02  0.29971587139E+04  0.29962149466E+04 0.  0.
        5    1    3    3  502    0 -0.36234572075E+03 -0.95733014039E+03 -0.11318083541E+04  0.15260365852E+04  0.46999998093E+01 0.  1.
       -5    1    3    3    0  502  0.36234572075E+03  0.95733014039E+03  0.10565996443E+04  0.14711221286E+04  0.46999998093E+01 0. -1.
</event>
<event>
 5   0  0.1674806E-06  0.2994872E+04  0.7818609E-02  0.8245197E-01
        2   -1    0    0  501    0  0.00000000000E+00  0.00000000000E+00  0.12821116981E+04  0.12821116981E+04  0.25500000920E-02 0. -1.
       -2   -1    0    0    0  501  0.00000000000E+00  0.00000000000E+00 -0.17489232962E+04  0.17489232962E+04  0.25500000920E-02 0.  1.
    10030    2    1    2    0    0  0.00000000000E+00  0.00000000000E+00 -0.46681159813E+03  0.30310349943E+04  0.29948722959E+04 0.  0.
        2    1    3    3  502    0 -0.66394370371E+03 -0.16930617327E+03 -0.15809595264E+04  0.17230550908E+04  0.25500000920E-02 0.  1.
       -2    1    3    3    0  502  0.66394370371E+03  0.16930617327E+03  0.11141479282E+04  0.13079799035E+04  0.25500000920E-02 0. -1.
</event>
<event>
 5   0  0.5431625E-07  0.3009570E+04  0.7818609E-02  0.8241003E-01
        3   -1    0    0  501    0  0.00000000000E+00  0.00000000000E+00  0.21498854382E+04  0.21498854406E+04  0.10100000352E+00 0.  1.
       -3   -1    0    0    0  501  0.00000000000E+00  0.00000000000E+00 -0.10532553331E+04  0.10532553379E+04  0.10100000352E+00 0. -1.
    10030    2    1    2    0    0  0.00000000000E+00  0.00000000000E+00  0.10966301051E+04  0.32031407785E+04  0.30095702782E+04 0.  0.
        1    1    3    3  502    0  0.74554501109E+03 -0.60825192027E+03  0.17796952652E+04  0.20231468061E+04  0.50400001928E-02 0.  1.
       -1    1    3    3    0  502 -0.74554501109E+03  0.60825192027E+03 -0.68306516005E+03  0.11799939724E+04  0.50400001928E-02 0. -1.
</event>
<event>
 5   0  0.1625212E-06  0.3008400E+04  0.7818609E-02  0.8241336E-01
       -2   -1    0    0    0  501  0.00000000000E+00  0.00000000000E+00  0.21493685748E+04  0.21493685748E+04  0.25500000920E-02 0. -1.
        2   -1    0    0  501    0  0.00000000000E+00  0.00000000000E+00 -0.10526893502E+04  0.10526893502E+04  0.25500000920E-02 0.  1.
    10030    2    1    2    0    0  0.00000000000E+00  0.00000000000E+00  0.10966792246E+04  0.32020579251E+04  0.30083998461E+04 0.  0.
        4    1    3    3  502    0  0.22539361844E+03  0.40702602715E+03  0.20708548642E+04  0.21224782570E+04  0.12699999809E+01 0. -1.
       -4    1    3    3    0  502 -0.22539361844E+03 -0.40702602715E+03 -0.97417563960E+03  0.10795796681E+04  0.12699999809E+01 0.  1.
</event>
<event>
 5   0  0.1560174E-06  0.3002029E+04  0.7818609E-02  0.8243152E-01
       -2   -1    0    0    0  501  0.00000000000E+00  0.00000000000E+00  0.11495618957E+04  0.11495618957E+04  0.25500000920E-02 0. -1.
        2   -1    0    0  501    0  0.00000000000E+00  0.00000000000E+00 -0.19599162602E+04  0.19599162602E+04  0.25500000920E-02 0.  1.
    10030    2    1    2    0    0  0.00000000000E+00  0.00000000000E+00 -0.81035436455E+03  0.31094781559E+04  0.30020293479E+04 0.  0.
        5    1    3    3  502    0 -0.13833946689E+04  0.52815814458E+03 -0.65950816744E+03  0.16210197249E+04  0.46999998093E+01 0.  1.
       -5    1    3    3    0  502  0.13833946689E+04 -0.52815814458E+03 -0.15084619711E+03  0.14884584310E+04  0.46999998093E+01 0. -1.
</event>
<event>
 5   0  0.5874741E-07  0.3013712E+04  0.7818609E-02  0.8239826E-01
        1   -1    0    0  501    0  0.00000000000E+00  0.00000000000E+00  0.18418410325E+04  0.18418410325E+04  0.50400001928E-02 0.  1.
       -1   -1    0    0    0  501  0.00000000000E+00  0.00000000000E+00 -0.12327967162E+04  0.12327967162E+04  0.50400001928E-02 0. -1.
    10030    2    1    2    0    0  0.00000000000E+00  0.00000000000E+00  0.60904431627E+03  0.30746377487E+04  0.30137123796E+04 0.  0.
        4    1    3    3  502    0 -0.50201608906E+03 -0.11668054432E+04  0.11315637280E+04  0.17011446674E+04  0.12699999809E+01 0.  1.
       -4    1    3    3    0  502  0.50201608906E+03  0.11668054432E+04 -0.52251941178E+03  0.13734930813E+04  0.12699999809E+01 0. -1.
</event>
<event>
 5   0  0.5931588E-07  0.2988723E+04  0.7818609E-02  0.8246958E-01
        1   -1    0    0  501    0  0.00000000000E+00  0.00000000000E+00  0.14480209314E+04  0.14480209314E+04  0.50400001928E-02 0. -1.
       -1   -1    0    0    0  501  0.00000000000E+00  0.00000000000E+00 -0.15421850285E+04  0.15421850285E+04  0.50400001928E-02 0.  1.
    10030    2    1    2    0    0  0.00000000000E+00  0.00000000000E+00 -0.94164097106E+02  0.29902059599E+04  0.29887229389E+04 0.  0.
        2    1    3    3  502    0 -0.14869193923E+04 -0.10595794553E+03 -0.15182323144E+03  0.14984013678E+04  0.25500000920E-02 0.  1.
       -2    1    3    3    0  502  0.14869193923E+04  0.10595794553E+03  0.57659134330E+02  0.14918045921E+04  0.25500000920E-02 0. -1.
</event>
<event>
 5   0  0.1560174E-06  0.2995043E+04  0.7818609E-02  0.8245148E-01
        2   -1    0    0  501    0  0.00000000000E+00  0.00000000000E+00  0.19688261154E+04  0.19688261154E+04  0.25500000920E-02 0. -1.
       -2   -1    0    0    0  501  0.00000000000E+00  0.00000000000E+00 -0.11390393939E+04  0.11390393939E+04  0.25500000920E-02 0.  1.
    10030    2    1    2    0    0  0.00000000000E+00  0.00000000000E+00  0.82978672152E+03  0.31078655093E+04  0.29950429080E+04 0.  0.
        5    1    3    3  502    0 -0.48721204910E+03 -0.13882458643E+04  0.70459889694E+03  0.16312828866E+04  0.46999998093E+01 0. -1.
       -5    1    3    3    0  502  0.48721204910E+03  0.13882458643E+04  0.12518782458E+03  0.14765826228E+04  0.46999998093E+01 0.  1.
</event>
<event>
 5   0  0.5887179E-07  0.3012189E+04  0.7818609E-02  0.8240259E-01
       -1   -1    0    0    0  501  0.00000000000E+00  0.00000000000E+00  0.24065402506E+04  0.24065402506E+04  0.50400001928E-02 0.  1.
        1   -1    0    0  501    0  0.00000000000E+00  0.00000000000E+00 -0.94256481431E+03  0.94256481432E+03  0.50400001928E-02 0. -1.
    10030    2    1    2    0    0  0.00000000000E+00  0.00000000000E+00  0.14639754362E+04  0.33491050649E+04  0.30121886823E+04 0.  0.
        3    1    3    3  502    0  0.12875079611E+04  0.29425543610E+03 -0.72901151729E+02  0.13227159936E+04  0.10100000352E+00 0. -1.
       -3    1    3    3    0  502 -0.12875079611E+04 -0.29425543610E+03  0.15368765880E+04  0.20263890713E+04  0.10100000352E+00 0.  1.
</event>
<event>
 5   0  0.1723916E-06  0.3002204E+04  0.7818609E-02  0.8243102E-01
       -2   -1    0    0    0  501  0.00000000000E+00  0.00000000000E+00  0.14417774226E+04  0.14417774226E+04  0.25500000920E-02 0.  1.
        2   -1    0    0  501    0  0.00000000000E+00  0.00000000000E+00 -0.15628678907E+04  0.15628678907E+04  0.25500000920E-02 0. -1.
    10030    2    1    2    0    0  0.00000000000E+00  0.00000000000E+00 -0.12109046813E+03  0.30046453132E+04  0.30022042830E+04 0.  0.
        1    1    3    3  502    0  0.28090376193E+03  0.19463948501E+03 -0.15234163539E+04  0.15612779509E+04  0.50400001928E-02 0. -1.
       -1    1    3    3    0  502 -0.28090376193E+03 -0.19463948501E+03  0.14023258858E+04  0.14433673623E+04  0.50400001928E-02 0.  1.
</event>
<event>
 5   0  0.6291798E-07  0.3000451E+04  0.7818609E-02  0.8243602E-01
       -1   -1    0    0    0  501  0.00000000000E+00  0.00000000000E+00  0.10083549089E+04  0.10083549089E+04  0.50400001928E-02 0.  1.
        1   -1    0    0  501    0  0.00000000000E+00  0.00000000000E+00 -0.22320287879E+04  0.22320287879E+04  0.50400001928E-02 0. -1.
    10030    2    1    2    0    0  0.00000000000E+00  0.00000000000E+00 -0.12236738790E+04  0.32403836969E+04  0.30004514228E+04 0.  0.
        1    1    3    3  502    0  0.40931729148E+03  0.50268971486E+03 -0.20729625019E+04  0.21719602043E+04  0.50400001928E-02 0. -1.
       -1    1    3    3    0  502 -0.40931729148E+03 -0.50268971486E+03  0.84928862290E+03  0.10684234926E+04  0.50400001928E-02 0.  1.
</event>
<event>
 5   0  0.1723916E-06  0.2994697E+04  0.7818609E-02  0.8245247E-01
       -2   -1    0    0    0  501  0.00000000000E+00  0.00000000000E+00  0.10764428312E+04  0.10764428312E+04  0.25500000920E-02 0.  1.
        2   -1    0    0  501    0  0.00000000000E+00  0.00000000000E+00 -0.20828347756E+04  0.20828347756E+04  0.25500000920E-02 0. -1.
    10030    2    1    2    0    0  0.00000000000E+00  0.00000000000E+00 -0.10063919444E+04  0.31592776068E+04  0.29946970215E+04 0.  0.
        1    1    3    3  502    0  0.13045753899E+04 -0.37844253970E+03  0.16144126783E+03  0.13679177558E+04  0.50400001928E-02 0.  1.
       -1    1    3    3    0  502 -0.13045753899E+04  0.37844253970E+03 -0.11678332122E+04  0.17913598509E+04  0.50400001928E-02 0. -1.
</event>
<event>
 5   0  0.1723916E-06  0.2997278E+04  0.7818609E-02  0.8244509E-01
       -2   -1    0    0    0  501  0.00000000000E+00  0.00000000000E+00  0.80961263601E+03  0.80961263602E+03  0.25500000920E-02 0. -1.
        2   -1    0    0  501    0  0.00000000000E+00  0.00000000000E+00 -0.27740655692E+04  0.27740655692E+04  0.25500000920E-02 0.  1.
    10030    2    1    2    0    0  0.00000000000E+00  0.00000000000E+00 -0.19644529332E+04  0.35836782052E+04  0.29972777902E+04 0.  0.
        1    1    3    3  502    0  0.30799197393E+03 -0.78435831723E+03  0.49952447140E+03  0.97959263133E+03  0.50400001928E-02 0. -1.
       -1    1    3    3    0  502 -0.30799197393E+03  0.78435831723E+03 -0.24639774046E+04  0.26040855739E+04  0.50400001928E-02 0.  1.
</event>
<event>
 5   0  0.1560174E-06  0.2996284E+04  0.7818609E-02  0.8244793E-01
       -2   -1    0    0    0  501  0.00000000000E+00  0.00000000000E+00  0.10172251578E+04  0.10172251578E+04  0.25500000920E-02 0. -1.
        2   -1    0    0  501    0  0.00000000000E+00  0.00000000000E+00 -0.22064236814E+04  0.22064236814E+04  0.25500000920E-02 0.  1.
    10030    2    1    2    0    0  0.00000000000E+00  0.00000000000E+00 -0.11891985236E+04  0.32236488392E+04  0.29962841505E+04 0.  0.
        5    1    3    3  502    0  0.17543046164E+03 -0.13650541869E+04 -0.12313350527E+04  0.18467151600E+04  0.46999998093E+01 0.  1.
       -5    1    3    3    0  502 -0.17543046164E+03  0.13650541869E+04  0.42136529080E+02  0.13769336793E+04  0.46999998093E+01 0. -1.
</event>
<event>
 5   0  0.1635086E-06  0.2945631E+04  0.7818609E-02  0.8259429E-01
       -2   -1    0    0    0  501  0.00000000000E+00  0.00000000000E+00  0.13155919242E+04  0.13155919242E+04  0.25500000920E-02 0.  1.
        2   -1    0    0  501    0  0.00000000000E+00  0.00000000000E+00 -0.16488285795E+04  0.16488285795E+04  0.25500000920E-02 0. -1.
    10030    2    1    2    0    0  0.00000000000E+00  0.00000000000E+00 -0.33323665534E+03  0.29644205037E+04  0.29456310452E+04 0.  0.
        3    1    3    3  502    0  0.12364120335E+04  0.36408618471E+03  0.55060719223E+03  0.14015854440E+04  0.10100000352E+00 0.  1.
       -3    1    3    3    0  502 -0.12364120335E+04 -0.36408618471E+03 -0.88384384757E+03  0.15628350597E+04  0.10100000352E+00 0. -1.
</event>
<event>
 5   0  0.5931588E-07  0.2981837E+04  0.7818609E-02  0.8248936E-01
       -1   -1    0    0    0  501  0.00000000000E+00  0.00000000000E+00  0.18431393177E+04  0.18431393177E+04  0.50400001928E-02 0. -1.
        1   -1    0    0  501    0  0.00000000000E+00  0.00000000000E+00 -0.12060068900E+04  0.12060068900E+04  0.50400001928E-02 0.  1.
    10030    2    1    2    0    0  0.00000000000E+00  0.00000000000E+00  0.63713242771E+03  0.30491462077E+04  0.29818374982E+04 0.  0.
        2    1    3    3  502    0 -0.62881565886E+03 -0.60854988584E+03 -0.91578415997E+03  0.12666501980E+04  0.25500000920E-02 0.  1.
       -2    1    3    3    0  502  0.62881565886E+03  0.60854988584E+03  0.15529165877E+04  0.17824960097E+04  0.25500000920E-02 0. -1.
</event>
<event>
 5   0  0.5887179E-07  0.2993230E+04  0.7818609E-02  0.8245667E-01
        1   -1    0    0  501    0  0.00000000000E+00  0.00000000000E+00  0.14767055157E+04  0.14767055157E+04  0.50400001928E-02 0. -1.
       -1   -1    0    0    0  501  0.00000000000E+00  0.00000000000E+00 -0.15167929448E+04  0.15167929448E+04  0.50400001928E-02 0.  1.
    10030    2    1    2    0    0  0.00000000000E+00  0.00000000000E+00 -0.40087429119E+02  0.29934984606E+04  0.29932300332E+04 0.  0.
        3    1    3    3  502    0 -0.40087551846E+03 -0.23236020907E+03  0.14031664920E+04  0.14776903134E+04  0.10100000352E+00 0. -1.
       -3    1    3    3    0  502  0.40087551846E+03  0.23236020907E+03 -0.14432539211E+04  0.15158081471E+04  0.10100000352E+00 0.  1.
</event>
<event>
 5   0  0.5431625E-07  0.2976903E+04  0.7818609E-02  0.8250357E-01
        3   -1    0    0  501    0  0.00000000000E+00  0.00000000000E+00  0.26708604961E+04  0.26708604980E+04  0.10100000352E+00 0.  1.
       -3   -1    0    0    0  501  0.00000000000E+00  0.00000000000E+00 -0.82950362852E+03  0.82950363467E+03  0.10100000352E+00 0. -1.
    10030    2    1    2    0    0  0.00000000000E+00  0.00000000000E+00  0.18413568676E+04  0.35003641327E+04  0.29769034159E+04 0.  0.
        5    1    3    3  502    0  0.51574075482E+03 -0.10806779612E+04  0.19602260141E+04  0.22970331948E+04  0.46999998093E+01 0. -1.
       -5    1    3    3    0  502 -0.51574075482E+03  0.10806779612E+04 -0.11886914650E+03  0.12033309378E+04  0.46999998093E+01 0.  1.
</event>
<event>
 5   0  0.5931588E-07  0.3010800E+04  0.7818609E-02  0.8240654E-01
       -1   -1    0    0    0  501  0.00000000000E+00  0.00000000000E+00  0.14534225982E+04  0.14534225982E+04  0.50400001928E-02 0. -1.
        1   -1    0    0  501    0  0.00000000000E+00  0.00000000000E+00 -0.15592360347E+04  0.15592360347E+04  0.50400001928E-02 0.  1.
    10030    2    1    2    0    0  0.00000000000E+00  0.00000000000E+00 -0.10581343648E+03  0.30126586329E+04  0.30107998198E+04 0.  0.
        2    1    3    3  502    0  0.90394145497E+03 -0.10185235641E+04 -0.69496359140E+03  0.15288802432E+04  0.25500000920E-02 0.  1.
       -2    1    3    3    0  502 -0.90394145497E+03  0.10185235641E+04  0.58915015492E+03  0.14837783897E+04  0.25500000920E-02 0. -1.
</event>
<event>
 5   0  0.6291798E-07  0.2988345E+04  0.7818609E-02  0.8247067E-01
        1   -1    0    0  501    0  0.00000000000E+00  0.00000000000E+00  0.14024081128E+04  0.14024081128E+04  0.50400001928E-02 0.  1.
       -1   -1    0    0    0  501  0.00000000000E+00  0.00000000000E+00 -0.15919415280E+04  0.15919415280E+04  0.50400001928E-02 0. -1.
    10030    2    1    2    0    0  0.00000000000E+00  0.00000000000E+00 -0.18953341523E+03  0.29943496408E+04  0.29883451701E+04 0.  0.
        1    1    3    3  502    0 -0.81945213315E+03 -0.24464092540E+03 -0.13224635381E+04  0.15748843737E+04  0.50400001928E-02 0. -1.
       -1    1    3    3    0  502  0.81945213315E+03  0.24464092540E+03  0.11329301229E+04  0.14194652670E+04  0.50400001928E-02 0.  1.
</event>
<event>
 5   0  0.1625212E-06  0.2997410E+04  0.7818609E-02  0.8244471E-01
       -2   -1    0    0    0  501  0.00000000000E+00  0.00000000000E+00  0.11718076844E+04  0.11718076844E+04  0.25500000920E-02 0. -1.
        2   -1    0    0  501    0  0.00000000000E+00  0.00000000000E+00 -0.19167958417E+04  0.19167958417E+04  0.25500000920E-02 0.  1.
    10030    2    1    2    0    0  0.00000000000E+00  0.00000000000E+00 -0.74498815724E+03  0.30886035261E+04  0.29974096128E+04 0.  0.
        4    1    3    3  502    0 -0.71886422888E+03  0.13128567338E+04 -0.45066994721E+03  0.15631582125E+04  0.12699999809E+01 0. -1.
       -4    1    3    3    0  502  0.71886422888E+03 -0.13128567338E+04 -0.29431821004E+03  0.15254453136E+04  0.12699999809E+01 0.  1.
</event>
<event>
 5   0  0.5887179E-07  0.2930335E+04  0.7818609E-02  0.8263909E-01
       -1   -1    0    0    0  501  0.00000000000E+00  0.00000000000E+00  0.19289991541E+04  0.19289991541E+04  0.50400001928E-02 0. -1.
        1   -1    0    0  501    0  0.00000000000E+00  0.00000000000E+00 -0.11128647330E+04  0.11128647330E+04  0.50400001928E-02 0.  1.
    10030    2    1    2    0    0  0.00000000000E+00  0.00000000000E+00  0.81613442114E+03  0.30418638871E+04  0.29303345396E+04 0.  0.
        3    1    3    3  502    0  0.15127751746E+03  0.40229139714E+03  0.18620898673E+04  0.19110473410E+04  0.10100000352E+00 0. -1.
       -3    1    3    3    0  502 -0.15127751746E+03 -0.40229139714E+03 -0.10459554461E+04  0.11308165461E+04  0.10100000352E+00 0.  1.
</event>
<event>
 5   0  0.1674806E-06  0.3007920E+04  0.7818609E-02  0.8241473E-01
       -2   -1    0    0    0  501  0.00000000000E+00  0.00000000000E+00  0.22509509855E+04  0.22509509855E+04  0.25500000920E-02 0. -1.
        2   -1    0    0  501    0  0.00000000000E+00  0.00000000000E+00 -0.10048620694E+04  0.10048620694E+04  0.25500000920E-02 0.  1.
    10030    2    1    2    0    0  0.00000000000E+00  0.00000000000E+00  0.12460889161E+04  0.32558130549E+04  0.30079197232E+04 0.  0.
        2    1    3    3  502    0 -0.70343667720E+03 -0.22194322815E+03  0.20417138555E+04  0.21708701995E+04  0.25500000920E-02 0. -1.
       -2    1    3    3    0  502  0.70343667720E+03  0.22194322815E+03 -0.79562493935E+03  0.10849428554E+04  0.25500000920E-02 0.  1.
</event>
<event>
 5   0  0.5916703E-07  0.2989108E+04  0.7818609E-02  0.8246848E-01
        1   -1    0    0  501    0  0.00000000000E+00  0.00000000000E+00  0.19817017516E+04  0.19817017516E+04  0.50400001928E-02 0. -1.
       -1   -1    0    0    0  501  0.00000000000E+00  0.00000000000E+00 -0.11271582178E+04  0.11271582178E+04  0.50400001928E-02 0.  1.
    10030    2    1    2    0    0  0.00000000000E+00  0.00000000000E+00  0.85454353385E+03  0.31088599694E+04  0.29891078365E+04 0.  0.
        5    1    3    3  502    0 -0.92847717410E+03 -0.42476551875E+03  0.15624057579E+04  0.18664483521E+04  0.46999998093E+01 0. -1.
       -5    1    3    3    0  502  0.92847717410E+03  0.42476551875E+03 -0.70786222402E+03  0.12424116174E+04  0.46999998093E+01 0.  1.
</event>
<event>
 5   0  0.1625212E-06  0.2992146E+04  0.7818609E-02  0.8245977E-01
        2   -1    0    0  501    0  0.00000000000E+00  0.00000000000E+00  0.20747979399E+04  0.20747979399E+04  0.25500000920E-02 0.  1.
       -2   -1    0    0    0  501  0.00000000000E+00  0.00000000000E+00 -0.10787719943E+04  0.10787719943E+04  0.25500000920E-02 0. -1.
    10030    2    1    2    0    0  0.00000000000E+00  0.00000000000E+00  0.99602594561E+03  0.31535699343E+04  0.29921456592E+04 0.  0.
        4    1    3    3  502    0 -0.99093914486E+01  0.68837408301E+03 -0.90190601057E+03  0.11346334822E+04  0.12699999809E+01 0. -1.
       -4    1    3    3    0  502  0.99093914486E+01 -0.68837408301E+03  0.18979319562E+04  0.20189364520E+04  0.12699999809E+01 0.  1.
</event>
<event>
 5   0  0.1723916E-06  0.3000042E+04  0.7818609E-02  0.8243719E-01
        2   -1    0    0  501    0  0.00000000000E+00  0.00000000000E+00  0.11017460979E+04  0.11017460979E+04  0.25500000920E-02 0.  1.
       -2   -1    0    0    0  501  0.00000000000E+00  0.00000000000E+00 -0.20422696334E+04  0.20422696334E+04  0.25500000920E-02 0. -1.
    10030    2    1    2    0    0  0.00000000000E+00  0.00000000000E+00 -0.94052353553E+03  0.31440157313E+04  0.30000417327E+04 0.  0.
        1    1    3    3  502    0 -0.66901843397E+03  0.58001883102E+03  0.79865331435E+03  0.11924154586E+04  0.50400001928E-02 0.  1.
       -1    1    3    3    0  502  0.66901843397E+03 -0.58001883102E+03 -0.17391768499E+04  0.19516002727E+04  0.50400001928E-02 0. -1.
</event>
<event>
 5   0  0.1723916E-06  0.3003158E+04  0.7818609E-02  0.8242830E-01
        2   -1    0    0  501    0  0.00000000000E+00  0.00000000000E+00  0.13892544958E+04  0.13892544958E+04  0.25500000920E-02 0. -1.
       -2   -1    0    0    0  501  0.00000000000E+00  0.00000000000E+00 -0.16229857266E+04  0.16229857266E+04  0.25500000920E-02 0.  1.
    10030    2    1    2    0    0  0.00000000000E+00  0.00000000000E+00 -0.23373123088E+03  0.30122402224E+04  0.30031584822E+04 0.  0.
        1    1    3    3  502    0  0.31063968571E+03  0.14685607472E+04 -0.15664073205E+03  0.15092064145E+04  0.50400001928E-02 0. -1.
       -1    1    3    3    0  502 -0.31063968571E+03 -0.14685607472E+04 -0.77090498833E+02  0.15030338079E+04  0.50400001928E-02 0.  1.
</event>
<event>
 5   0  0.5874741E-07  0.2993812E+04  0.7818609E-02  0.8245500E-01
        1   -1    0    0  501    0  0.00000000000E+00  0.00000000000E+00  0.20128435372E+04  0.20128435372E+04  0.50400001928E-02 0. -1.
       -1   -1    0    0    0  501  0.00000000000E+00  0.00000000000E+00 -0.11132147421E+04  0.11132147421E+04  0.50400001928E-02 0.  1.
    10030    2    1    2    0    0  0.00000000000E+00  0.00000000000E+00  0.89962879516E+03  0.31260582793E+04  0.29938116836E+04 0.  0.
        4    1    3    3  502    0  0.25209969977E+02  0.21406632347E+03 -0.10969251294E+04  0.11179026280E+04  0.12699999809E+01 0.  1.
       -4    1    3    3    0  502 -0.25209969977E+02 -0.21406632347E+03  0.19965539245E+04  0.20081556513E+04  0.12699999809E+01 0. -1.
</event>
<event>
 5   0  0.1625212E-06  0.2997362E+04  0.7818609E-02  0.8244485E-01
       -2   -1    0    0    0  501  0.00000000000E+00  0.00000000000E+00  0.91050515076E+03  0.91050515076E+03  0.25500000920E-02 0.  1.
        2   -1    0    0  501    0  0.00000000000E+00  0.00000000000E+00 -0.24668120479E+04  0.24668120479E+04  0.25500000920E-02 0. -1.
    10030    2    1    2    0    0  0.00000000000E+00  0.00000000000E+00 -0.15563068971E+04  0.33773171986E+04  0.29973622241E+04 0.  0.
        4    1    3    3  502    0  0.54006120154E+02  0.37664415965E+03  0.85517353349E+03  0.93600260112E+03  0.12699999809E+01 0.  1.
       -4    1    3    3    0  502 -0.54006120154E+02 -0.37664415965E+03 -0.24114804306E+04  0.24413145975E+04  0.12699999809E+01 0. -1.
</event>
<event>
 5   0  0.1625212E-06  0.3009260E+04  0.7818609E-02  0.8241092E-01
       -2   -1    0    0    0  501  0.00000000000E+00  0.00000000000E+00  0.18788128679E+04  0.18788128679E+04  0.25500000920E-02 0. -1.
        2   -1    0    0  501    0  0.00000000000E+00  0.00000000000E+00 -0.12049691183E+04  0.12049691183E+04  0.25500000920E-02 0.  1.
    10030    2    1    2    0    0  0.00000000000E+00  0.00000000000E+00  0.67384374961E+03  0.30837819862E+04  0.30092600319E+04 0.  0.
        4    1    3    3  502    0  0.79327003649E+02 -0.94971201819E+03  0.15300855162E+04  0.18026117138E+04  0.12699999809E+01 0. -1.
       -4    1    3    3    0  502 -0.79327003649E+02  0.94971201819E+03 -0.85624176660E+03  0.12811702724E+04  0.12699999809E+01 0.  1.
</event>
<event>
 5   0  0.5931588E-07  0.2980798E+04  0.7818609E-02  0.8249236E-01
       -1   -1    0    0    0  501  0.00000000000E+00  0.00000000000E+00  0.17860992168E+04  0.17860992168E+04  0.50400001928E-02 0. -1.
        1   -1    0    0  501    0  0.00000000000E+00  0.00000000000E+00 -0.12436536661E+04  0.12436536661E+04  0.50400001928E-02 0.  1.
    10030    2    1    2    0    0  0.00000000000E+00  0.00000000000E+00  0.54244555071E+03  0.30297528829E+04  0.29807977718E+04 0.  0.
        2    1    3    3  502    0 -0.87078269037E+03 -0.12078837835E+04  0.33585253102E+03  0.15264477229E+04  0.25500000920E-02 0.  1.
       -2    1    3    3    0  502  0.87078269037E+03  0.12078837835E+04  0.20659301969E+03  0.15033051600E+04  0.25500000920E-02 0. -1.
</event>
<event>
 5   0  0.1723916E-06  0.2949085E+04  0.7818609E-02  0.8258421E-01
        2   -1    0    0  501    0  0.00000000000E+00  0.00000000000E+00  0.14085004329E+04  0.14085004329E+04  0.25500000920E-02 0. -1.
       -2   -1    0    0    0  501  0.00000000000E+00  0.00000000000E+00 -0.15436813949E+04  0.15436813949E+04  0.25500000920E-02 0.  1.
    10030    2    1    2    0    0  0.00000000000E+00  0.00000000000E+00 -0.13518096208E+03  0.29521818278E+04  0.29490852229E+04 0.  0.
        1    1    3    3  502    0  0.37959674963E+03  0.93183071609E+03 -0.11466247736E+04  0.15255000975E+04  0.50400001928E-02 0.  1.
       -1    1    3    3    0  502 -0.37959674963E+03 -0.93183071609E+03  0.10114438116E+04  0.14266817304E+04  0.50400001928E-02 0. -1.
</event>
<event>
 5   0  0.5916703E-07  0.3000992E+04  0.7818609E-02  0.8243448E-01
        1   -1    0    0  501    0  0.00000000000E+00  0.00000000000E+00  0.12297258876E+04  0.12297258876E+04  0.50400001928E-02 0. -1.
       -1   -1    0    0    0  501  0.00000000000E+00  0.00000000000E+00 -0.18308865836E+04  0.18308865836E+04  0.50400001928E-02 0.  1.
    10030    2    1    2    0    0  0.00000000000E+00  0.00000000000E+00 -0.60116069597E+03  0.30606124712E+04  0.30009922553E+04 0.  0.
        5    1    3    3  502    0  0.14036579470E+04 -0.48255450583E+03 -0.76320800636E+02  0.14862575274E+04  0.46999998093E+01 0. -1.
       -5    1    3    3    0  502 -0.14036579470E+04  0.48255450583E+03 -0.52483989533E+03  0.15743549438E+04  0.46999998093E+01 0.  1.
</event>
<event>
 5   0  0.5916703E-07  0.2986684E+04  0.7818609E-02  0.8247544E-01
        1   -1    0    0  501    0  0.00000000000E+00  0.00000000000E+00  0.10872550024E+04  0.10872550024E+04  0.50400001928E-02 0.  1.
       -1   -1    0    0    0  501  0.00000000000E+00  0.00000000000E+00 -0.20511011169E+04  0.20511011169E+04  0.50400001928E-02 0. -1.
    10030    2    1    2    0    0  0.00000000000E+00  0.00000000000E+00 -0.96384611456E+03  0.31383561193E+04  0.29866837461E+04 0.  0.
        5    1    3    3  502    0  0.70489095632E+03 -0.68455511979E+03 -0.16635567257E+04  0.19320792018E+04  0.46999998093E+01 0. -1.
       -5    1    3    3    0  502 -0.70489095632E+03  0.68455511979E+03  0.69971061117E+03  0.12062769175E+04  0.46999998093E+01 0.  1.
</event>
<event>
 5   0  0.5916703E-07  0.3004818E+04  0.7818609E-02  0.8242356E-01
        1   -1    0    0  501    0  0.00000000000E+00  0.00000000000E+00  0.25249052911E+04  0.25249052911E+04  0.50400001928E-02 0.  1.
       -1   -1    0    0    0  501  0.00000000000E+00  0.00000000000E+00 -0.89398706105E+03  0.89398706106E+03  0.50400001928E-02 0. -1.
    10030    2    1    2    0    0  0.00000000000E+00  0.00000000000E+00  0.16309182301E+04  0.34188923522E+04  0.30048179051E+04 0.  0.
        5    1    3    3  502    0 -0.53123292725E+03  0.13752905649E+04  0.11443965341E+04  0.18663595791E+04  0.46999998093E+01 0. -1.
       -5    1    3    3    0  502  0.53123292725E+03 -0.13752905649E+04  0.48652169594E+03  0.15525327731E+04  0.46999998093E+01 0.  1.
</event>
<event>
 5   0  0.5931588E-07  0.2996787E+04  0.7818609E-02  0.8244649E-01
       -1   -1    0    0    0  501  0.00000000000E+00  0.00000000000E+00  0.13161475331E+04  0.13161475331E+04  0.50400001928E-02 0. -1.
        1   -1    0    0  501    0  0.00000000000E+00  0.00000000000E+00 -0.17058753592E+04  0.17058753592E+04  0.50400001928E-02 0.  1.
    10030    2    1    2    0    0  0.00000000000E+00  0.00000000000E+00 -0.38972782611E+03  0.30220228923E+04  0.29967873771E+04 0.  0.
        2    1    3    3  502    0 -0.97603573179E+03  0.21142325107E+03 -0.13213373128E+04  0.16562843461E+04  0.25500000920E-02 0.  1.
       -2    1    3    3    0  502  0.97603573179E+03 -0.21142325107E+03  0.93160948674E+03  0.13657385462E+04  0.25500000920E-02 0. -1.
</event>
<event>
 5   0  0.1635086E-06  0.2992526E+04  0.7818609E-02  0.8245868E-01
        2   -1    0    0  501    0  0.00000000000E+00  0.00000000000E+00  0.14582215904E+04  0.14582215904E+04  0.25500000920E-02 0.  1.
       -2   -1    0    0    0  501  0.00000000000E+00  0.00000000000E+00 -0.15352966971E+04  0.15352966971E+04  0.25500000920E-02 0. -1.
    10030    2    1    2    0    0  0.00000000000E+00  0.00000000000E+00 -0.77075106718E+02  0.29935182874E+04  0.29925258838E+04 0.  0.
        3    1    3    3  502    0  0.90584769800E+03 -0.41124899858E+03  0.10794721114E+04  0.14679733786E+04  0.10100000352E+00 0.  1.
       -3    1    3    3    0  502 -0.90584769800E+03  0.41124899858E+03 -0.11565472181E+04  0.15255449088E+04  0.10100000352E+00 0. -1.
</event>
<event>
 5   0  0.1560174E-06  0.2997457E+04  0.7818609E-02  0.8244457E-01
       -2   -1    0    0    0  501  0.00000000000E+00  0.00000000000E+00  0.11787300579E+04  0.11787300579E+04  0.25500000920E-02 0.  1.
        2   -1    0    0  501    0  0.00000000000E+00  0.00000000000E+00 -0.19055995794E+04  0.19055995794E+04  0.25500000920E-02 0. -1.
    10030    2    1    2    0    0  0.00000000000E+00  0.00000000000E+00 -0.72686952144E+03  0.30843296373E+04  0.29974572574E+04 0.  0.
        5    1    3    3  502    0  0.76936105593E+03 -0.11671058105E+04 -0.91957361058E+03  0.16732274569E+04  0.46999998093E+01 0. -1.
       -5    1    3    3    0  502 -0.76936105593E+03  0.11671058105E+04  0.19270408914E+03  0.14111021803E+04  0.46999998093E+01 0.  1.
</event>
<event>
 5   0  0.1674806E-06  0.3005736E+04  0.7818609E-02  0.8242095E-01
       -2   -1    0    0    0  501  0.00000000000E+00  0.00000000000E+00  0.14956492654E+04  0.14956492654E+04  0.25500000920E-02 0. -1.
        2   -1    0    0  501    0  0.00000000000E+00  0.00000000000E+00 -0.15101212967E+04  0.15101212968E+04  0.25500000920E-02 0.  1.
    10030    2    1    2    0    0  0.00000000000E+00  0.00000000000E+00 -0.14472031343E+02  0.30057705622E+04  0.30057357224E+04 0.  0.
        2    1    3    3  502    0  0.58240510241E+03 -0.13241617982E+04  0.40021396352E+03  0.15009235116E+04  0.25500000920E-02 0. -1.
       -2    1    3    3    0  502 -0.58240510241E+03  0.13241617982E+04 -0.41468599486E+03  0.15048470505E+04  0.25500000920E-02 0.  1.
</event>
<event>
 5   0  0.5931588E-07  0.2999262E+04  0.7818609E-02  0.8243942E-01
       -1   -1    0    0    0  501  0.00000000000E+00  0.00000000000E+00  0.10787855468E+04  0.10787855468E+04  0.50400001928E-02 0. -1.
        1   -1    0    0  501    0  0.00000000000E+00  0.00000000000E+00 -0.20846521225E+04  0.20846521225E+04  0.50400001928E-02 0.  1.
    10030    2    1    2    0    0  0.00000000000E+00  0.00000000000E+00 -0.10058665757E+04  0.31634376693E+04  0.29992616290E+04 0.  0.
        2    1    3    3  502    0  0.10587081767E+03 -0.51733271183E+03  0.97748228382E+03  0.11109965706E+04  0.25500000920E-02 0. -1.
       -2    1    3    3    0  502 -0.10587081767E+03  0.51733271183E+03 -0.19833488595E+04  0.20524410986E+04  0.25500000920E-02 0.  1.
</event>
<event>
 5   0  0.1723916E-06  0.3065688E+04  0.7818609E-02  0.8225218E-01
       -2   -1    0    0    0  501  0.00000000000E+00  0.00000000000E+00  0.13037870456E+04  0.13037870456E+04  0.25500000920E-02 0. -1.
        2   -1    0    0  501    0  0.00000000000E+00  0.00000000000E+00 -0.18021425376E+04  0.18021425376E+04  0.25500000920E-02 0.  1.
    10030    2    1    2    0    0  0.00000000000E+00  0.00000000000E+00 -0.49835549197E+03  0.31059295832E+04  0.30656875867E+04 0.  0.
        1    1    3    3  502    0  0.74387906712E+03 -0.81255050218E+03  0.83065347131E+03  0.13797027124E+04  0.50400001928E-02 0. -1.
       -1    1    3    3    0  502 -0.74387906712E+03  0.81255050218E+03 -0.13290089633E+04  0.17262268708E+04  0.50400001928E-02 0.  1.
</event>
<event>
 5   0  0.5931588E-07  0.2996353E+04  0.7818609E-02  0.8244773E-01
       -1   -1    0    0    0  501  0.00000000000E+00  0.00000000000E+00  0.16561312091E+04  0.16561312091E+04  0.50400001928E-02 0.  1.
        1   -1    0    0  501    0  0.00000000000E+00  0.00000000000E+00 -0.13552870144E+04  0.13552870144E+04  0.50400001928E-02 0. -1.
    10030    2    1    2    0    0  0.00000000000E+00  0.00000000000E+00  0.30084419478E+03  0.30114182235E+04  0.29963531980E+04 0.  0.
        2    1    3    3  502    0 -0.82978946455E+02  0.75634742249E+03  0.14474867533E+04  0.16352873845E+04  0.25500000920E-02 0.  1.
       -2    1    3    3    0  502  0.82978946455E+02 -0.75634742249E+03 -0.11466425585E+04  0.13761308390E+04  0.25500000920E-02 0. -1.
</event>
<event>
 5   0  0.6291798E-07  0.3005787E+04  0.7818609E-02  0.8242080E-01
        1   -1    0    0  501    0  0.00000000000E+00  0.00000000000E+00  0.18482519243E+04  0.18482519243E+04  0.50400001928E-02 0.  1.
       -1   -1    0    0    0  501  0.00000000000E+00  0.00000000000E+00 -0.12220675867E+04  0.12220675867E+04  0.50400001928E-02 0. -1.
    10030    2    1    2    0    0  0.00000000000E+00  0.00000000000E+00  0.62618433762E+03  0.30703195110E+04  0.30057869310E+04 0.  0.
        1    1    3    3  502    0 -0.61817370610E+03 -0.67655568238E+03 -0.90362435441E+03  0.12870133240E+04  0.50400001928E-02 0. -1.
       -1    1    3    3    0  502  0.61817370610E+03  0.67655568238E+03  0.15298086920E+04  0.17833061870E+04  0.50400001928E-02 0.  1.
</event>
<event>
 5   0  0.5887179E-07  0.2994693E+04  0.7818609E-02  0.8245248E-01
        1   -1    0    0  501    0  0.00000000000E+00  0.00000000000E+00  0.14723662492E+04  0.14723662492E+04  0.50400001928E-02 0. -1.
       -1   -1    0    0    0  501  0.00000000000E+00  0.00000000000E+00 -0.15227509440E+04  0.15227509440E+04  0.50400001928E-02 0.  1.
    10030    2    1    2    0    0  0.00000000000E+00  0.00000000000E+00 -0.50384694822E+02  0.29951171931E+04  0.29946933705E+04 0.  0.
        3    1    3    3  502    0 -0.13705119571E+04  0.12101670377E+03 -0.61612198591E+03  0.15074993794E+04  0.10100000352E+00 0.  1.
       -3    1    3    3    0  502  0.13705119571E+04 -0.12101670377E+03  0.56573729109E+03  0.14876178138E+04  0.10100000352E+00 0. -1.
</event>
<event>
 5   0  0.5931588E-07  0.2991037E+04  0.7818609E-02  0.8246295E-01
        1   -1    0    0  501    0  0.00000000000E+00  0.00000000000E+00  0.26087357817E+04  0.26087357817E+04  0.50400001928E-02 0. -1.
       -1   -1    0    0    0  501  0.00000000000E+00  0.00000000000E+00 -0.85734073609E+03  0.85734073610E+03  0.50400001928E-02 0.  1.
    10030    2    1    2    0    0  0.00000000000E+00  0.00000000000E+00  0.17513950456E+04  0.34660765178E+04  0.29910369141E+04 0.  0.
        2    1    3    3  502    0  0.14351885458E+04  0.27753441679E+03  0.12417528226E+04  0.19180045847E+04  0.25500000920E-02 0. -1.
       -2    1    3    3    0  502 -0.14351885458E+04 -0.27753441679E+03  0.50964222307E+03  0.15480719331E+04  0.25500000920E-02 0.  1.
</event>
<event>
 5   0  0.5887179E-07  0.3002003E+04  0.7818609E-02  0.8243159E-01
       -1   -1    0    0    0  501  0.00000000000E+00  0.00000000000E+00  0.12926154527E+04  0.12926154528E+04  0.50400001928E-02 0.  1.
        1   -1    0    0  501    0  0.00000000000E+00  0.00000000000E+00 -0.17429817746E+04  0.17429817747E+04  0.50400001928E-02 0. -1.
    10030    2    1    2    0    0  0.00000000000E+00  0.00000000000E+00 -0.45036632190E+03  0.30355972274E+04  0.30020027820E+04 0.  0.
        3    1    3    3  502    0 -0.13683778382E+04  0.29228377795E+03  0.32414327855E+03  0.14362996171E+04  0.10100000352E+00 0.  1.
       -3    1    3    3    0  502  0.13683778382E+04 -0.29228377795E+03 -0.77450960044E+03  0.15992976103E+04  0.10100000352E+00 0. -1.
</event>
<event>
 5   0  0.5874741E-07  0.2996147E+04  0.7818609E-02  0.8244832E-01
       -1   -1    0    0    0  501  0.00000000000E+00  0.00000000000E+00  0.15967274500E+04  0.15967274500E+04  0.50400001928E-02 0. -1.
        1   -1    0    0  501    0  0.00000000000E+00  0.00000000000E+00 -0.14055150501E+04  0.14055150501E+04  0.50400001928E-02 0.  1.
    10030    2    1    2    0    0  0.00000000000E+00  0.00000000000E+00  0.19121239995E+03  0.30022425001E+04  0.29961471672E+04 0.  0.
        4    1    3    3  502    0 -0.13130085466E+04 -0.22913126731E+03  0.78090562048E+03  0.15447678732E+04  0.12699999809E+01 0. -1.
       -4    1    3    3    0  502  0.13130085466E+04  0.22913126731E+03 -0.58969322053E+03  0.14574746270E+04  0.12699999809E+01 0.  1.
</event>
<event>
 5   0  0.5931588E-07  0.2998781E+04  0.7818609E-02  0.8244079E-01
        1   -1    0    0  501    0  0.00000000000E+00  0.00000000000E+00  0.28909376752E+04  0.28909376752E+04  0.50400001928E-02 0.  1.
       -1   -1    0    0    0  501  0.00000000000E+00  0.00000000000E+00 -0.77766187919E+03  0.77766187921E+03  0.50400001928E-02 0. -1.
    10030    2    1    2    0    0  0.00000000000E+00  0.00000000000E+00  0.21132757960E+04  0.36685995545E+04  0.29987811025E+04 0.  0.
        2    1    3    3  502    0 -0.10938044110E+04 -0.81578471187E+03  0.18169553937E+04  0.22722763230E+04  0.25500000920E-02 0.  1.
       -2    1    3    3    0  502  0.10938044110E+04  0.81578471187E+03  0.29632040238E+03  0.13963232314E+04  0.25500000920E-02 0. -1.
</event>
<event>
 5   0  0.1674806E-06  0.2983207E+04  0.7818609E-02  0.8248543E-01
       -2   -1    0    0    0  501  0.00000000000E+00  0.00000000000E+00  0.20328266184E+04  0.20328266184E+04  0.25500000920E-02 0. -1.
        2   -1    0    0  501    0  0.00000000000E+00  0.00000000000E+00 -0.10944765202E+04  0.10944765202E+04  0.25500000920E-02 0.  1.
    10030    2    1    2    0    0  0.00000000000E+00  0.00000000000E+00  0.93835009819E+03  0.31273031385E+04  0.29832070015E+04 0.  0.
        2    1    3    3  502    0 -0.13130018128E+04 -0.51864142826E+03  0.97401546021E+03  0.17151293853E+04  0.25500000920E-02 0. -1.
       -2    1    3    3    0  502  0.13130018128E+04  0.51864142826E+03 -0.35665362021E+02  0.14121737533E+04  0.25500000920E-02 0.  1.
</event>
<event>
 5   0  0.5931588E-07  0.3009939E+04  0.7818609E-02  0.8240899E-01
        1   -1    0    0  501    0  0.00000000000E+00  0.00000000000E+00  0.17621550227E+04  0.17621550227E+04  0.50400001928E-02 0.  1.
       -1   -1    0    0    0  501  0.00000000000E+00  0.00000000000E+00 -0.12853197648E+04  0.12853197648E+04  0.50400001928E-02 0. -1.
    10030    2    1    2    0    0  0.00000000000E+00  0.00000000000E+00  0.47683525791E+03  0.30474747875E+04  0.30099386568E+04 0.  0.
        2    1    3    3  502    0  0.10956143357E+04 -0.82385006657E+03  0.86731842896E+03  0.16221408576E+04  0.25500000920E-02 0.  1.
       -2    1    3    3    0  502 -0.10956143357E+04  0.82385006657E+03 -0.39048317105E+03  0.14253339299E+04  0.25500000920E-02 0. -1.
</event>
<event>
 5   0  0.5916703E-07  0.3009126E+04  0.7818609E-02  0.8241130E-01
        1   -1    0    0  501    0  0.00000000000E+00  0.00000000000E+00  0.22212232250E+04  0.22212232250E+04  0.50400001928E-02 0.  1.
       -1   -1    0    0    0  501  0.00000000000E+00  0.00000000000E+00 -0.10191275850E+04  0.10191275850E+04  0.50400001928E-02 0. -1.
    10030    2    1    2    0    0  0.00000000000E+00  0.00000000000E+00  0.12020956400E+04  0.32403508100E+04  0.30091260267E+04 0.  0.
        5    1    3    3  502    0  0.19323066746E+03  0.14676537109E+04  0.31141504518E+03  0.15127283056E+04  0.46999998093E+01 0.  1.
       -5    1    3    3    0  502 -0.19323066746E+03 -0.14676537109E+04  0.89068059481E+03  0.17276225045E+04  0.46999998093E+01 0. -1.
</event>
<event>
 5   0  0.5431625E-07  0.2957997E+04  0.7818609E-02  0.8255828E-01
       -3   -1    0    0    0  501  0.00000000000E+00  0.00000000000E+00  0.11371814787E+04  0.11371814832E+04  0.10100000352E+00 0. -1.
        3   -1    0    0  501    0  0.00000000000E+00  0.00000000000E+00 -0.19235591766E+04  0.19235591792E+04  0.10100000352E+00 0.  1.
    10030    2    1    2    0    0  0.00000000000E+00  0.00000000000E+00 -0.78637769789E+03  0.30607406624E+04  0.29579965380E+04 0.  0.
        5    1    3    3  502    0 -0.90718560209E+03  0.95181706653E+03 -0.10938135489E+04  0.17103776233E+04  0.46999998093E+01 0.  1.
       -5    1    3    3    0  502  0.90718560209E+03 -0.95181706653E+03  0.30743585096E+03  0.13503630390E+04  0.46999998093E+01 0. -1.
</event>
<event>
 5   0  0.1635086E-06  0.2997289E+04  0.7818609E-02  0.8244506E-01
       -2   -1    0    0    0  501  0.00000000000E+00  0.00000000000E+00  0.99818757515E+03  0.99818757516E+03  0.25500000920E-02 0.  1.
        2   -1    0    0  501    0  0.00000000000E+00  0.00000000000E+00 -0.22500126033E+04  0.22500126033E+04  0.25500000920E-02 0. -1.
    10030    2    1    2    0    0  0.00000000000E+00  0.00000000000E+00 -0.12518250282E+04  0.32482001785E+04  0.29972885244E+04 0.  0.
        3    1    3    3  502    0  0.44508703092E+03 -0.50511356495E+03 -0.20769115636E+04  0.21833011318E+04  0.10100000352E+00 0. -1.
       -3    1    3    3    0  502 -0.44508703092E+03  0.50511356495E+03  0.82508653544E+03  0.10648990467E+04  0.10100000352E+00 0.  1.
</event>
<event>
 5   0  0.1635086E-06  0.3003069E+04  0.7818609E-02  0.8242855E-01
       -2   -1    0    0    0  501  0.00000000000E+00  0.00000000000E+00  0.20027644668E+04  0.20027644668E+04  0.25500000920E-02 0. -1.
        2   -1    0    0  501    0  0.00000000000E+00  0.00000000000E+00 -0.11257471847E+04  0.11257471847E+04  0.25500000920E-02 0.  1.
    10030    2    1    2    0    0  0.00000000000E+00  0.00000000000E+00  0.87701728217E+03  0.31285116515E+04  0.30030694032E+04 0.  0.
        3    1    3    3  502    0 -0.20942490894E+03  0.24765672565E+02 -0.11102428651E+04  0.11300935186E+04  0.10100000352E+00 0.  1.
       -3    1    3    3    0  502  0.20942490894E+03 -0.24765672565E+02  0.19872601473E+04  0.19984181329E+04  0.10100000352E+00 0. -1.
</event>
<event>
 5   0  0.1625212E-06  0.3059928E+04  0.7818609E-02  0.8226822E-01
        2   -1    0    0  501    0  0.00000000000E+00  0.00000000000E+00  0.25212902264E+04  0.25212902264E+04  0.25500000920E-02 0.  1.
       -2   -1    0    0    0  501  0.00000000000E+00  0.00000000000E+00 -0.92840976055E+03  0.92840976055E+03  0.25500000920E-02 0. -1.
    10030    2    1    2    0    0  0.00000000000E+00  0.00000000000E+00  0.15928804659E+04  0.34496999870E+04  0.30599284014E+04 0.  0.
        4    1    3    3  502    0 -0.45344933438E+03  0.13409375601E+04  0.14509603942E+04  0.20270711673E+04  0.12699999809E+01 0.  1.
       -4    1    3    3    0  502  0.45344933438E+03 -0.13409375601E+04  0.14192007168E+03  0.14226288197E+04  0.12699999809E+01 0. -1.
</event>
<event>
 5   0  0.1635086E-06  0.3024131E+04  0.7818609E-02  0.8236874E-01
       -2   -1    0    0    0  501  0.00000000000E+00  0.00000000000E+00  0.12269527889E+04  0.12269527889E+04  0.25500000920E-02 0.  1.
        2   -1    0    0  501    0  0.00000000000E+00  0.00000000000E+00 -0.18634307682E+04  0.18634307682E+04  0.25500000920E-02 0. -1.
    10030    2    1    2    0    0  0.00000000000E+00  0.00000000000E+00 -0.63647797934E+03  0.30903835571E+04  0.30241306704E+04 0.  0.
        3    1    3    3  502    0  0.12022800564E+04  0.62869757513E+03  0.36392089029E+03  0.14046979745E+04  0.10100000352E+00 0.  1.
       -3    1    3    3    0  502 -0.12022800564E+04 -0.62869757513E+03 -0.10003988696E+04  0.16856855826E+04  0.10100000352E+00 0. -1.
</event>
<event>
 5   0  0.1723916E-06  0.2971085E+04  0.7818609E-02  0.8252036E-01
       -2   -1    0    0    0  501  0.00000000000E+00  0.00000000000E+00  0.93883722016E+03  0.93883722016E+03  0.25500000920E-02 0.  1.
        2   -1    0    0  501    0  0.00000000000E+00  0.00000000000E+00 -0.23506061876E+04  0.23506061876E+04  0.25500000920E-02 0. -1.
    10030    2    1    2    0    0  0.00000000000E+00  0.00000000000E+00 -0.14117689675E+04  0.32894434078E+04  0.29710850401E+04 0.  0.
        1    1    3    3  502    0  0.48838064114E+03  0.89021759227E+03  0.49466554766E+03  0.11294675809E+04  0.50400001928E-02 0.  1.
       -1    1    3    3    0  502 -0.48838064114E+03 -0.89021759227E+03 -0.19064345151E+04  0.21599758269E+04  0.50400001928E-02 0. -1.
</event>
<event>
 5   0  0.1635086E-06  0.3005643E+04  0.7818609E-02  0.8242121E-01
        2   -1    0    0  501    0  0.00000000000E+00  0.00000000000E+00  0.17286247520E+04  0.17286247520E+04  0.25500000920E-02 0. -1.
       -2   -1    0    0    0  501  0.00000000000E+00  0.00000000000E+00 -0.13065142339E+04  0.13065142339E+04  0.25500000920E-02 0.  1.
    10030    2    1    2    0    0  0.00000000000E+00  0.00000000000E+00  0.42211051807E+03  0.30351389859E+04  0.30056432547E+04 0.  0.
        3    1    3    3  502    0  0.14358232926E+04 -0.12437164602E+03 -0.21905415080E+03  0.14577522304E+04  0.10100000352E+00 0.  1.
       -3    1    3    3    0  502 -0.14358232926E+04  0.12437164602E+03  0.64116466887E+03  0.15773867556E+04  0.10100000352E+00 0. -1.
</event>
<event>
 5   0  0.1560174E-06  0.3004733E+04  0.7818609E-02  0.8242381E-01
       -2   -1    0    0    0  501  0.00000000000E+00  0.00000000000E+00  0.12003944830E+04  0.12003944830E+04  0.25500000920E-02 0. -1.
        2   -1    0    0  501    0  0.00000000000E+00  0.00000000000E+00 -0.18803026626E+04  0.18803026626E+04  0.25500000920E-02 0.  1.
    10030    2    1    2    0    0  0.00000000000E+00  0.00000000000E+00 -0.67990817959E+03  0.30806971456E+04  0.30047328950E+04 0.  0.
        5    1    3    3  502    0 -0.13816563257E+04  0.67563353930E+02 -0.94089838902E+03  0.16729766519E+04  0.46999998093E+01 0. -1.
       -5    1    3    3    0  502  0.13816563257E+04 -0.67563353930E+02  0.26099020943E+03  0.14077204938E+04  0.46999998093E+01 0.  1.
</event>
<event>
 5   0  0.5887179E-07  0.3101543E+04  0.7818609E-02  0.8215315E-01
       -1   -1    0    0    0  501  0.00000000000E+00  0.00000000000E+00  0.12617902512E+04  0.12617902512E+04  0.50400001928E-02 0. -1.
        1   -1    0    0  501    0  0.00000000000E+00  0.00000000000E+00 -0.19059367753E+04  0.19059367753E+04  0.50400001928E-02 0.  1.
    10030    2    1    2    0    0  0.00000000000E+00  0.00000000000E+00 -0.64414652406E+03  0.31677270265E+04  0.31015431272E+04 0.  0.
        3    1    3    3  502    0 -0.45402916142E+03 -0.12621838584E+04  0.47276335814E+03  0.14222361881E+04  0.10100000352E+00 0. -1.
       -3    1    3    3    0  502  0.45402916142E+03  0.12621838584E+04 -0.11169098822E+04  0.17454908384E+04  0.10100000352E+00 0.  1.
</event>
<event>
 5   0  0.6291798E-07  0.3000658E+04  0.7818609E-02  0.8243543E-01
        1   -1    0    0  501    0  0.00000000000E+00  0.00000000000E+00  0.17689875743E+04  0.17689875743E+04  0.50400001928E-02 0. -1.
       -1   -1    0    0    0  501  0.00000000000E+00  0.00000000000E+00 -0.12724720658E+04  0.12724720658E+04  0.50400001928E-02 0.  1.
    10030    2    1    2    0    0  0.00000000000E+00  0.00000000000E+00  0.49651550856E+03  0.30414596401E+04  0.30006581099E+04 0.  0.
        1    1    3    3  502    0 -0.15100226803E+02 -0.77977150228E+02  0.17668551360E+04  0.17686394557E+04  0.50400001928E-02 0. -1.
       -1    1    3    3    0  502  0.15100226803E+02  0.77977150228E+02 -0.12703396274E+04  0.12728201844E+04  0.50400001928E-02 0.  1.
</event>
<event>
 5   0  0.5887179E-07  0.3028801E+04  0.7818609E-02  0.8235554E-01
       -1   -1    0    0    0  501  0.00000000000E+00  0.00000000000E+00  0.15738520167E+04  0.15738520167E+04  0.50400001928E-02 0.  1.
        1   -1    0    0  501    0  0.00000000000E+00  0.00000000000E+00 -0.14571946763E+04  0.14571946763E+04  0.50400001928E-02 0. -1.
    10030    2    1    2    0    0  0.00000000000E+00  0.00000000000E+00  0.11665734045E+03  0.30310466930E+04  0.30288009377E+04 0.  0.
        3    1    3    3  502    0  0.62370885245E+03 -0.12896108268E+04 -0.43325847059E+03  0.14966033976E+04  0.10100000352E+00 0.  1.
       -3    1    3    3    0  502 -0.62370885245E+03  0.12896108268E+04  0.54991581103E+03  0.15344432954E+04  0.10100000352E+00 0. -1.
</event>
<event>
 5   0  0.6291798E-07  0.2996442E+04  0.7818609E-02  0.8244747E-01
       -1   -1    0    0    0  501  0.00000000000E+00  0.00000000000E+00  0.12252260587E+04  0.12252260587E+04  0.50400001928E-02 0. -1.
        1   -1    0    0  501    0  0.00000000000E+00  0.00000000000E+00 -0.18320430450E+04  0.18320430450E+04  0.50400001928E-02 0.  1.
    10030    2    1    2    0    0  0.00000000000E+00  0.00000000000E+00 -0.60681698623E+03  0.30572691037E+04  0.29964424769E+04 0.  0.
        1    1    3    3  502    0 -0.59261754867E+03 -0.13113224112E+04  0.12207584154E+03  0.14441829995E+04  0.50400001928E-02 0. -1.
       -1    1    3    3    0  502  0.59261754867E+03  0.13113224112E+04 -0.72889282777E+03  0.16130861042E+04  0.50400001928E-02 0.  1.
</event>
<event>
 5   0  0.5874741E-07  0.3002572E+04  0.7818609E-02  0.8242997E-01
       -1   -1    0    0    0  501  0.00000000000E+00  0.00000000000E+00  0.13165059773E+04  0.13165059773E+04  0.50400001928E-02 0.  1.
        1   -1    0    0  501    0  0.00000000000E+00  0.00000000000E+00 -0.17120011159E+04  0.17120011160E+04  0.50400001928E-02 0. -1.
    10030    2    1    2    0    0  0.00000000000E+00  0.00000000000E+00 -0.39549513863E+03  0.30285070933E+04  0.30025720323E+04 0.  0.
        4    1    3    3  502    0 -0.66835236371E+03  0.85432306285E+03 -0.12446411699E+04  0.16509682107E+04  0.12699999809E+01 0. -1.
       -4    1    3    3    0  502  0.66835236371E+03 -0.85432306285E+03  0.84914603130E+03  0.13775388826E+04  0.12699999809E+01 0.  1.
</event>
<event>
 5   0  0.1625212E-06  0.2997381E+04  0.7818609E-02  0.8244479E-01
        2   -1    0    0  501    0  0.00000000000E+00  0.00000000000E+00  0.10772411298E+04  0.10772411298E+04  0.25500000920E-02 0.  1.
       -2   -1    0    0    0  501  0.00000000000E+00  0.00000000000E+00 -0.20850239817E+04  0.20850239817E+04  0.25500000920E-02 0. -1.
    10030    2    1    2    0    0  0.00000000000E+00  0.00000000000E+00 -0.10077828519E+04  0.31622651116E+04  0.29973812503E+04 0.  0.
        4    1    3    3  502    0 -0.77847793871E+03  0.17384738188E+03 -0.18424738140E+04  0.20077256240E+04  0.12699999809E+01 0. -1.
       -4    1    3    3    0  502  0.77847793871E+03 -0.17384738188E+03  0.83469096209E+03  0.11545394876E+04  0.12699999809E+01 0.  1.
</event>
<event>
 5   0  0.1560174E-06  0.3011128E+04  0.7818609E-02  0.8240560E-01
        2   -1    0    0  501    0  0.00000000000E+00  0.00000000000E+00  0.19331231547E+04  0.19331231547E+04  0.25500000920E-02 0.  1.
       -2   -1    0    0    0  501  0.00000000000E+00  0.00000000000E+00 -0.11725705577E+04  0.11725705577E+04  0.25500000920E-02 0. -1.
    10030    2    1    2    0    0  0.00000000000E+00  0.00000000000E+00  0.76055259704E+03  0.31056937124E+04  0.30111282241E+04 0.  0.
        5    1    3    3  502    0  0.21432824784E+03  0.13123450976E+04  0.11085061336E+04  0.17311828879E+04  0.46999998093E+01 0.  1.
       -5    1    3    3    0  502 -0.21432824784E+03 -0.13123450976E+04 -0.34795353659E+03  0.13745108245E+04  0.46999998093E+01 0. -1.
</event>
<event>
 5   0  0.6291798E-07  0.3010000E+04  0.7818609E-02  0.8240881E-01
       -1   -1    0    0    0  501  0.00000000000E+00  0.00000000000E+00  0.13623397838E+04  0.13623397838E+04  0.50400001928E-02 0. -1.
        1   -1    0    0  501    0  0.00000000000E+00  0.00000000000E+00 -0.16625987896E+04  0.16625987896E+04  0.50400001928E-02 0.  1.
    10030    2    1    2    0    0  0.00000000000E+00  0.00000000000E+00 -0.30025900575E+03  0.30249385734E+04  0.30099996516E+04 0.  0.
        1    1    3    3  502    0 -0.10849604450E+04  0.45104075989E+03 -0.10952477632E+04  0.16062828510E+04  0.50400001928E-02 0.  1.
       -1    1    3    3    0  502  0.10849604450E+04 -0.45104075989E+03  0.79498875748E+03  0.14186557225E+04  0.50400001928E-02 0. -1.
</event>
<event>
 5   0  0.1635086E-06  0.2991724E+04  0.7818609E-02  0.8246098E-01
        2   -1    0    0  501    0  0.00000000000E+00  0.00000000000E+00  0.23170868874E+04  0.23170868874E+04  0.25500000920E-02 0. -1.
       -2   -1    0    0    0  501  0.00000000000E+00  0.00000000000E+00 -0.96569662858E+03  0.96569662858E+03  0.25500000920E-02 0.  1.
    10030    2    1    2    0    0  0.00000000000E+00  0.00000000000E+00  0.13513902588E+04  0.32827835160E+04  0.29917239146E+04 0.  0.
        3    1    3    3  502    0  0.23709182803E+03 -0.10377638918E+04  0.18288592392E+04  0.21161031537E+04  0.10100000352E+00 0. -1.
       -3    1    3    3    0  502 -0.23709182803E+03  0.10377638918E+04 -0.47746898043E+03  0.11666803622E+04  0.10100000352E+00 0.  1.
</event>
<event>
 5   0  0.1723916E-06  0.3002467E+04  0.7818609E-02  0.8243027E-01
       -2   -1    0    0    0  501  0.00000000000E+00  0.00000000000E+00  0.11760890059E+04  0.11760890059E+04  0.25500000920E-02 0.  1.
        2   -1    0    0  501    0  0.00000000000E+00  0.00000000000E+00 -0.19162677946E+04  0.19162677946E+04  0.25500000920E-02 0. -1.
    10030    2    1    2    0    0  0.00000000000E+00  0.00000000000E+00 -0.74017878875E+03  0.30923568005E+04  0.30024666430E+04 0.  0.
        1    1    3    3  502    0 -0.21228523108E+03  0.12293782127E+04  0.48993456436E+03  0.13403252167E+04  0.50400001928E-02 0.  1.
       -1    1    3    3    0  502  0.21228523108E+03 -0.12293782127E+04 -0.12301133531E+04  0.17520315838E+04  0.50400001928E-02 0. -1.
</event>
<event>
 5   0  0.1674806E-06  0.2999559E+04  0.7818609E-02  0.8243857E-01
       -2   -1    0    0    0  501  0.00000000000E+00  0.00000000000E+00  0.11923329160E+04  0.11923329160E+04  0.25500000920E-02 0.  1.
        2   -1    0    0  501    0  0.00000000000E+00  0.00000000000E+00 -0.18865021222E+04  0.18865021222E+04  0.25500000920E-02 0. -1.
    10030    2    1    2    0    0  0.00000000000E+00  0.00000000000E+00 -0.69416920617E+03  0.30788350383E+04  0.29995590186E+04 0.  0.
        2    1    3    3  502    0  0.85376732549E+03  0.87509719658E+03  0.54456568361E+03  0.13383816845E+04  0.25500000920E-02 0.  1.
       -2    1    3    3    0  502 -0.85376732549E+03 -0.87509719658E+03 -0.12387348898E+04  0.17404533538E+04  0.25500000920E-02 0. -1.
</event>
<event>
 5   0  0.5931588E-07  0.3010526E+04  0.7818609E-02  0.8240731E-01
       -1   -1    0    0    0  501  0.00000000000E+00  0.00000000000E+00  0.97272595587E+03  0.97272595588E+03  0.50400001928E-02 0.  1.
        1   -1    0    0  501    0  0.00000000000E+00  0.00000000000E+00 -0.23293476951E+04  0.23293476951E+04  0.50400001928E-02 0. -1.
    10030    2    1    2    0    0  0.00000000000E+00  0.00000000000E+00 -0.13566217393E+04  0.33020736510E+04  0.30105261755E+04 0.  0.
        2    1    3    3  502    0 -0.11420540431E+03 -0.14155394032E+04 -0.12256587705E+04  0.18759088725E+04  0.25500000920E-02 0. -1.
       -2    1    3    3    0  502  0.11420540431E+03  0.14155394032E+04 -0.13096296876E+03  0.14261647785E+04  0.25500000920E-02 0.  1.
</event>
<event>
 5   0  0.5874741E-07  0.2995817E+04  0.7818609E-02  0.8244926E-01
        1   -1    0    0  501    0  0.00000000000E+00  0.00000000000E+00  0.17061689370E+04  0.17061689370E+04  0.50400001928E-02 0. -1.
       -1   -1    0    0    0  501  0.00000000000E+00  0.00000000000E+00 -0.13150693423E+04  0.13150693423E+04  0.50400001928E-02 0.  1.
    10030    2    1    2    0    0  0.00000000000E+00  0.00000000000E+00  0.39109959473E+03  0.30212382793E+04  0.29958173922E+04 0.  0.
        4    1    3    3  502    0  0.34321493495E+03  0.26708797800E+03 -0.12499994737E+04  0.13234926432E+04  0.12699999809E+01 0.  1.
       -4    1    3    3    0  502 -0.34321493495E+03 -0.26708797800E+03  0.16410990684E+04  0.16977456361E+04  0.12699999809E+01 0. -1.
</event>
<event>
 5   0  0.1560174E-06  0.3000709E+04  0.7818609E-02  0.8243528E-01
        2   -1    0    0  501    0  0.00000000000E+00  0.00000000000E+00  0.21390617380E+04  0.21390617380E+04  0.25500000920E-02 0. -1.
       -2   -1    0    0    0  501  0.00000000000E+00  0.00000000000E+00 -0.10523601989E+04  0.10523601989E+04  0.25500000920E-02 0.  1.
    10030    2    1    2    0    0  0.00000000000E+00  0.00000000000E+00  0.10867015391E+04  0.31914219369E+04  0.30007088736E+04 0.  0.
        5    1    3    3  502    0  0.61589974642E+03  0.77603960130E+03  0.17416680481E+04  0.20037464011E+04  0.46999998093E+01 0. -1.
       -5    1    3    3    0  502 -0.61589974642E+03 -0.77603960130E+03 -0.65496650890E+03  0.11876755357E+04  0.46999998093E+01 0.  1.
</event>
<event>
 5   0  0.5431625E-07  0.3134388E+04  0.7818609E-02  0.8206363E-01
        4   -1    0    0  501    0  0.00000000000E+00  0.00000000000E+00  0.11752024402E+04  0.11752031264E+04  0.12699999809E+01 0. -1.
       -4   -1    0    0    0  501  0.00000000000E+00  0.00000000000E+00 -0.20899344342E+04  0.20899348201E+04  0.12699999809E+01 0.  1.
    10030    2    1    2    0    0  0.00000000000E+00  0.00000000000E+00 -0.91473199402E+03  0.32651379465E+04  0.31343884872E+04 0.  0.
        3    1    3    3  502    0 -0.12374482303E+04  0.68417012777E+03 -0.11613761272E+04  0.18297981871E+04  0.10100000352E+00 0. -1.
       -3    1    3    3    0  502  0.12374482303E+04 -0.68417012777E+03  0.24664413318E+03  0.14353397594E+04  0.10100000352E+00 0.  1.
</event>
<event>
 5   0  0.5916703E-07  0.2987941E+04  0.7818609E-02  0.8247183E-01
        1   -1    0    0  501    0  0.00000000000E+00  0.00000000000E+00  0.12859453396E+04  0.12859453396E+04  0.50400001928E-02 0. -1.
       -1   -1    0    0    0  501  0.00000000000E+00  0.00000000000E+00 -0.17356476039E+04  0.17356476039E+04  0.50400001928E-02 0.  1.
    10030    2    1    2    0    0  0.00000000000E+00  0.00000000000E+00 -0.44970226437E+03  0.30215929435E+04  0.29879410620E+04 0.  0.
        5    1    3    3  502    0  0.12779215898E+04 -0.75898190382E+03 -0.37751071245E+03  0.15335167257E+04  0.46999998093E+01 0.  1.
       -5    1    3    3    0  502 -0.12779215898E+04  0.75898190382E+03 -0.72191551915E+02  0.14880762178E+04  0.46999998093E+01 0. -1.
</event>
<event>
 5   0  0.5874741E-07  0.3029314E+04  0.7818609E-02  0.8235409E-01
        1   -1    0    0  501    0  0.00000000000E+00  0.00000000000E+00  0.19662525111E+04  0.19662525111E+04  0.50400001928E-02 0. -1.
       -1   -1    0    0    0  501  0.00000000000E+00  0.00000000000E+00 -0.11667807204E+04  0.11667807204E+04  0.50400001928E-02 0.  1.
    10030    2    1    2    0    0  0.00000000000E+00  0.00000000000E+00  0.79947179072E+03  0.31330332316E+04  0.30293137979E+04 0.  0.
        4    1    3    3  502    0 -0.14411544116E+04 -0.32583259007E+03  0.74445088130E+03  0.16544792663E+04  0.12699999809E+01 0.  1.
       -4    1    3    3    0  502  0.14411544116E+04  0.32583259007E+03  0.55020909419E+02  0.14785539653E+04  0.12699999809E+01 0. -1.
</event>
<event>
 5   0  0.5887179E-07  0.2998058E+04  0.7818609E-02  0.8244286E-01
       -1   -1    0    0    0  501  0.00000000000E+00  0.00000000000E+00  0.24297921332E+04  0.24297921332E+04  0.50400001928E-02 0. -1.
        1   -1    0    0  501    0  0.00000000000E+00  0.00000000000E+00 -0.92480678498E+03  0.92480678499E+03  0.50400001928E-02 0.  1.
    10030    2    1    2    0    0  0.00000000000E+00  0.00000000000E+00  0.15049853482E+04  0.33545989182E+04  0.29980582055E+04 0.  0.
        3    1    3    3  502    0  0.58866739378E+03 -0.36876519979E+03  0.22388394034E+04  0.23441243477E+04  0.10100000352E+00 0. -1.
       -3    1    3    3    0  502 -0.58866739378E+03  0.36876519979E+03 -0.73385405518E+03  0.10104745705E+04  0.10100000352E+00 0.  1.
</event>
<event>
 5   0  0.5916703E-07  0.3004292E+04  0.7818609E-02  0.8242506E-01
       -1   -1    0    0    0  501  0.00000000000E+00  0.00000000000E+00  0.11441656399E+04  0.11441656399E+04  0.50400001928E-02 0. -1.
        1   -1    0    0  501    0  0.00000000000E+00  0.00000000000E+00 -0.19721297683E+04  0.19721297683E+04  0.50400001928E-02 0.  1.
    10030    2    1    2    0    0  0.00000000000E+00  0.00000000000E+00 -0.82796412842E+03  0.31162954082E+04  0.30042923415E+04 0.  0.
        5    1    3    3  502    0 -0.11302830185E+04 -0.82273524671E+03  0.15603952026E+03  0.14066994739E+04  0.46999998093E+01 0. -1.
       -5    1    3    3    0  502  0.11302830185E+04  0.82273524671E+03 -0.98400364868E+03  0.17095959343E+04  0.46999998093E+01 0.  1.
</event>
<event>
 5   0  0.6291798E-07  0.2998257E+04  0.7818609E-02  0.8244229E-01
       -1   -1    0    0    0  501  0.00000000000E+00  0.00000000000E+00  0.18276053124E+04  0.18276053124E+04  0.50400001928E-02 0. -1.
        1   -1    0    0  501    0  0.00000000000E+00  0.00000000000E+00 -0.12296893040E+04  0.12296893040E+04  0.50400001928E-02 0.  1.
    10030    2    1    2    0    0  0.00000000000E+00  0.00000000000E+00  0.59791600835E+03  0.30572946164E+04  0.29982572969E+04 0.  0.
        1    1    3    3  502    0  0.12258642459E+04  0.86218700241E+03  0.26251739624E+03  0.15215206078E+04  0.50400001928E-02 0. -1.
       -1    1    3    3    0  502 -0.12258642459E+04 -0.86218700241E+03  0.33539861211E+03  0.15357740086E+04  0.50400001928E-02 0.  1.
</event>
<event>
 5   0  0.5431625E-07  0.2999272E+04  0.7818609E-02  0.8243939E-01
       -3   -1    0    0    0  501  0.00000000000E+00  0.00000000000E+00  0.22838390380E+04  0.22838390403E+04  0.10100000352E+00 0. -1.
        3   -1    0    0  501    0  0.00000000000E+00  0.00000000000E+00 -0.98470547585E+03  0.98470548103E+03  0.10100000352E+00 0.  1.
    10030    2    1    2    0    0  0.00000000000E+00  0.00000000000E+00  0.12991335622E+04  0.32685445213E+04  0.29992724577E+04 0.  0.
        5    1    3    3  502    0 -0.11361321196E+04  0.90120765439E+03  0.10658499966E+04  0.17997304617E+04  0.46999998093E+01 0.  1.
       -5    1    3    3    0  502  0.11361321196E+04 -0.90120765439E+03  0.23328356555E+03  0.14688140596E+04  0.46999998093E+01 0. -1.
</event>
<event>
 5   0  0.1723916E-06  0.2957329E+04  0.7818609E-02  0.8256022E-01
       -2   -1    0    0    0  501  0.00000000000E+00  0.00000000000E+00  0.11384731774E+04  0.11384731774E+04  0.25500000920E-02 0.  1.
        2   -1    0    0  501    0  0.00000000000E+00  0.00000000000E+00 -0.19205100408E+04  0.19205100408E+04  0.25500000920E-02 0. -1.
    10030    2    1    2    0    0  0.00000000000E+00  0.00000000000E+00 -0.78203686343E+03  0.30589832182E+04  0.29573293143E+04 0.  0.
        1    1    3    3  502    0 -0.85752128223E+03  0.15168984962E+03  0.84508895039E+03  0.12134776034E+04  0.50400001928E-02 0.  1.
       -1    1    3    3    0  502  0.85752128223E+03 -0.15168984962E+03 -0.16271258138E+04  0.18455056147E+04  0.50400001928E-02 0. -1.
</event>
<event>
 5   0  0.6291798E-07  0.2996233E+04  0.7818609E-02  0.8244807E-01
        1   -1    0    0  501    0  0.00000000000E+00  0.00000000000E+00  0.16852417540E+04  0.16852417540E+04  0.50400001928E-02 0.  1.
       -1   -1    0    0    0  501  0.00000000000E+00  0.00000000000E+00 -0.13317690975E+04  0.13317690975E+04  0.50400001928E-02 0. -1.
    10030    2    1    2    0    0  0.00000000000E+00  0.00000000000E+00  0.35347265653E+03  0.30170108515E+04  0.29962328947E+04 0.  0.
        1    1    3    3  502    0  0.13945306118E+01  0.12005851157E+04  0.10790230409E+04  0.16142172369E+04  0.50400001928E-02 0.  1.
       -1    1    3    3    0  502 -0.13945306118E+01 -0.12005851157E+04 -0.72555038442E+03  0.14027936146E+04  0.50400001928E-02 0. -1.
</event>
<event>
 5   0  0.1625212E-06  0.2985906E+04  0.7818609E-02  0.8247767E-01
        2   -1    0    0  501    0  0.00000000000E+00  0.00000000000E+00  0.24712001477E+04  0.24712001477E+04  0.25500000920E-02 0.  1.
       -2   -1    0    0    0  501  0.00000000000E+00  0.00000000000E+00 -0.90195410959E+03  0.90195410959E+03  0.25500000920E-02 0. -1.
    10030    2    1    2    0    0  0.00000000000E+00  0.00000000000E+00  0.15692460381E+04  0.33731542573E+04  0.29859063139E+04 0.  0.
        4    1    3    3  502    0  0.12549685473E+04 -0.50950866587E+03  0.14940501036E+04  0.20166141079E+04  0.12699999809E+01 0.  1.
       -4    1    3    3    0  502 -0.12549685473E+04  0.50950866587E+03  0.75195934513E+02  0.13565401494E+04  0.12699999809E+01 0. -1.
</event>
<event>
 5   0  0.1560174E-06  0.2940486E+04  0.7818609E-02  0.8260933E-01
        2   -1    0    0  501    0  0.00000000000E+00  0.00000000000E+00  0.13653902366E+04  0.13653902366E+04  0.25500000920E-02 0. -1.
       -2   -1    0    0    0  501  0.00000000000E+00  0.00000000000E+00 -0.15831475933E+04  0.15831475933E+04  0.25500000920E-02 0.  1.
    10030    2    1    2    0    0  0.00000000000E+00  0.00000000000E+00 -0.21775735670E+03  0.29485378298E+04  0.29404858557E+04 0.  0.
        5    1    3    3  502    0 -0.10701113683E+03  0.14656095337E+04 -0.62605936446E+02  0.14708515499E+04  0.46999998093E+01 0.  1.
       -5    1    3    3    0  502  0.10701113683E+03 -0.14656095337E+04 -0.15515142026E+03  0.14776862799E+04  0.46999998093E+01 0. -1.
</event>
<event>
 5   0  0.5931588E-07  0.3021834E+04  0.7818609E-02  0.8237524E-01
        1   -1    0    0  501    0  0.00000000000E+00  0.00000000000E+00  0.11485884716E+04  0.11485884716E+04  0.50400001928E-02 0.  1.
       -1   -1    0    0    0  501  0.00000000000E+00  0.00000000000E+00 -0.19875436100E+04  0.19875436100E+04  0.50400001928E-02 0. -1.
    10030    2    1    2    0    0  0.00000000000E+00  0.00000000000E+00 -0.83895513840E+03  0.31361320816E+04  0.30218336666E+04 0.  0.
        2    1    3    3  502    0  0.29584066125E+02  0.14229570829E+04  0.10684113355E+03  0.14272691073E+04  0.25500000920E-02 0. -1.
       -2    1    3    3    0  502 -0.29584066125E+02 -0.14229570829E+04 -0.94579627195E+03  0.17088629743E+04  0.25500000920E-02 0.  1.
</event>
<event>
 5   0  0.6291798E-07  0.3174705E+04  0.7818609E-02  0.8195530E-01
        1   -1    0    0  501    0  0.00000000000E+00  0.00000000000E+00  0.20700480126E+04  0.20700480126E+04  0.50400001928E-02 0. -1.
       -1   -1    0    0    0  501  0.00000000000E+00  0.00000000000E+00 -0.12172120278E+04  0.12172120278E+04  0.50400001928E-02 0.  1.
    10030    2    1    2    0    0  0.00000000000E+00  0.00000000000E+00  0.85283598479E+03  0.32872600404E+04  0.31747046093E+04 0.  0.
        1    1    3    3  502    0 -0.74710435975E+03 -0.56028919448E+03 -0.90267822848E+03  0.12988136471E+04  0.50400001928E-02 0.  1.
       -1    1    3    3    0  502  0.74710435975E+03  0.56028919448E+03  0.17555142133E+04  0.19884463932E+04  0.50400001928E-02 0. -1.
</event>
<event>
 5   0  0.1674806E-06  0.2973826E+04  0.7818609E-02  0.8251245E-01
       -2   -1    0    0    0  501  0.00000000000E+00  0.00000000000E+00  0.26501619466E+04  0.26501619466E+04  0.25500000920E-02 0. -1.
        2   -1    0    0  501    0  0.00000000000E+00  0.00000000000E+00 -0.83425451783E+03  0.83425451784E+03  0.25500000920E-02 0.  1.
    10030    2    1    2    0    0  0.00000000000E+00  0.00000000000E+00  0.18159074287E+04  0.34844164644E+04  0.29738255342E+04 0.  0.
        2    1    3    3  502    0 -0.98697268940E+03  0.47364629582E+03 -0.27101464908E+03  0.11277875878E+04  0.25500000920E-02 0.  1.
       -2    1    3    3    0  502  0.98697268940E+03 -0.47364629582E+03  0.20869220778E+04  0.23566288766E+04  0.25500000920E-02 0. -1.
</event>
<event>
 5   0  0.5887179E-07  0.2989691E+04  0.7818609E-02  0.8246681E-01
       -1   -1    0    0    0  501  0.00000000000E+00  0.00000000000E+00  0.13719915204E+04  0.13719915205E+04  0.50400001928E-02 0.  1.
        1   -1    0    0  501    0  0.00000000000E+00  0.00000000000E+00 -0.16287007126E+04  0.16287007126E+04  0.50400001928E-02 0. -1.
    10030    2    1    2    0    0  0.00000000000E+00  0.00000000000E+00 -0.25670919218E+03  0.30006922331E+04  0.29896913333E+04 0.  0.
        3    1    3    3  502    0  0.95786625025E+03  0.11333299832E+04  0.52917146100E+02  0.14848383207E+04  0.10100000352E+00 0.  1.
       -3    1    3    3    0  502 -0.95786625025E+03 -0.11333299832E+04 -0.30962633828E+03  0.15158539124E+04  0.10100000352E+00 0. -1.
</event>
<event>
 5   0  0.5887179E-07  0.2988254E+04  0.7818609E-02  0.8247093E-01
        1   -1    0    0  501    0  0.00000000000E+00  0.00000000000E+00  0.27607725903E+04  0.27607725903E+04  0.50400001928E-02 0.  1.
       -1   -1    0    0    0  501  0.00000000000E+00  0.00000000000E+00 -0.80861960133E+03  0.80861960135E+03  0.50400001928E-02 0. -1.
    10030    2    1    2    0    0  0.00000000000E+00  0.00000000000E+00  0.19521529889E+04  0.35693921916E+04  0.29882535577E+04 0.  0.
        3    1    3    3  502    0  0.14503492682E+04 -0.34118114788E+03  0.84254491775E+03  0.17116657162E+04  0.10100000352E+00 0. -1.
       -3    1    3    3    0  502 -0.14503492682E+04  0.34118114788E+03  0.11096080712E+04  0.18577264754E+04  0.10100000352E+00 0.  1.
</event>
<event>
 5   0  0.1674806E-06  0.3002364E+04  0.7818609E-02  0.8243056E-01
       -2   -1    0    0    0  501  0.00000000000E+00  0.00000000000E+00  0.16163861404E+04  0.16163861404E+04  0.25500000920E-02 0. -1.
        2   -1    0    0  501    0  0.00000000000E+00  0.00000000000E+00 -0.13941885443E+04  0.13941885443E+04  0.25500000920E-02 0.  1.
    10030    2    1    2    0    0  0.00000000000E+00  0.00000000000E+00  0.22219759615E+03  0.30105746847E+04  0.30023637621E+04 0.  0.
        2    1    3    3  502    0  0.46013854181E+03  0.71568413017E+02  0.15421308582E+04  0.16109056767E+04  0.25500000920E-02 0. -1.
       -2    1    3    3    0  502 -0.46013854181E+03 -0.71568413017E+02 -0.13199332621E+04  0.13996690079E+04  0.25500000920E-02 0.  1.
</event>
<event>
 5   0  0.5916703E-07  0.3012115E+04  0.7818609E-02  0.8240280E-01
       -1   -1    0    0    0  501  0.00000000000E+00  0.00000000000E+00  0.90560382427E+03  0.90560382428E+03  0.50400001928E-02 0.  1.
        1   -1    0    0  501    0  0.00000000000E+00  0.00000000000E+00 -0.25046369996E+04  0.25046369996E+04  0.50400001928E-02 0. -1.
    10030    2    1    2    0    0  0.00000000000E+00  0.00000000000E+00 -0.15990331754E+04  0.34102408239E+04  0.30121147689E+04 0.  0.
        5    1    3    3  502    0 -0.82255658073E+03  0.92467108216E+03 -0.17711910471E+04  0.21607303752E+04  0.46999998093E+01 0. -1.
       -5    1    3    3    0  502  0.82255658073E+03 -0.92467108216E+03  0.17215787180E+03  0.12495104487E+04  0.46999998093E+01 0.  1.
</event>
<event>
 5   0  0.1635086E-06  0.3005982E+04  0.7818609E-02  0.8242025E-01
       -2   -1    0    0    0  501  0.00000000000E+00  0.00000000000E+00  0.13097759295E+04  0.13097759295E+04  0.25500000920E-02 0. -1.
        2   -1    0    0  501    0  0.00000000000E+00  0.00000000000E+00 -0.17247085154E+04  0.17247085154E+04  0.25500000920E-02 0.  1.
    10030    2    1    2    0    0  0.00000000000E+00  0.00000000000E+00 -0.41493258594E+03  0.30344844449E+04  0.30059818355E+04 0.  0.
        3    1    3    3  502    0  0.57498457630E+03 -0.43692892401E+03  0.11231624905E+04  0.13352932779E+04  0.10100000352E+00 0. -1.
       -3    1    3    3    0  502 -0.57498457630E+03  0.43692892401E+03 -0.15380950765E+04  0.16991911670E+04  0.10100000352E+00 0.  1.
</event>
<event>
 5   0  0.1635086E-06  0.3008097E+04  0.7818609E-02  0.8241422E-01
       -2   -1    0    0    0  501  0.00000000000E+00  0.00000000000E+00  0.96496200472E+03  0.96496200473E+03  0.25500000920E-02 0. -1.
        2   -1    0    0  501    0  0.00000000000E+00  0.00000000000E+00 -0.23443018935E+04  0.23443018935E+04  0.25500000920E-02 0.  1.
    10030    2    1    2    0    0  0.00000000000E+00  0.00000000000E+00 -0.13793398888E+04  0.33092638982E+04  0.30080972423E+04 0.  0.
        3    1    3    3  502    0 -0.62283305340E+03  0.55147953502E+03 -0.20681636417E+04  0.22292042412E+04  0.10100000352E+00 0.  1.
       -3    1    3    3    0  502  0.62283305340E+03 -0.55147953502E+03  0.68882375291E+03  0.10800596570E+04  0.10100000352E+00 0. -1.
</event>
<event>
 5   0  0.1674806E-06  0.3001184E+04  0.7818609E-02  0.8243393E-01
        2   -1    0    0  501    0  0.00000000000E+00  0.00000000000E+00  0.17279315680E+04  0.17279315680E+04  0.25500000920E-02 0.  1.
       -2   -1    0    0    0  501  0.00000000000E+00  0.00000000000E+00 -0.13031626366E+04  0.13031626366E+04  0.25500000920E-02 0. -1.
    10030    2    1    2    0    0  0.00000000000E+00  0.00000000000E+00  0.42476893136E+03  0.30310942046E+04  0.30011836719E+04 0.  0.
        2    1    3    3  502    0 -0.43504563726E+03 -0.83086568403E+03  0.13954569453E+04  0.16813395188E+04  0.25500000920E-02 0.  1.
       -2    1    3    3    0  502  0.43504563726E+03  0.83086568403E+03 -0.97068801394E+03  0.13497546858E+04  0.25500000920E-02 0. -1.
</event>
<event>
 5   0  0.5874741E-07  0.2997780E+04  0.7818609E-02  0.8244365E-01
        1   -1    0    0  501    0  0.00000000000E+00  0.00000000000E+00  0.22366356228E+04  0.22366356228E+04  0.50400001928E-02 0.  1.
       -1   -1    0    0    0  501  0.00000000000E+00  0.00000000000E+00 -0.10044870732E+04  0.10044870733E+04  0.50400001928E-02 0. -1.
    10030    2    1    2    0    0  0.00000000000E+00  0.00000000000E+00  0.12321485496E+04  0.32411226961E+04  0.29977802259E+04 0.  0.
        4    1    3    3  502    0  0.69763755986E+03 -0.29809762808E+03 -0.78157482176E+03  0.10892296249E+04  0.12699999809E+01 0. -1.
       -4    1    3    3    0  502 -0.69763755986E+03  0.29809762808E+03  0.20137233713E+04  0.21518930712E+04  0.12699999809E+01 0.  1.
</event>
<event>
 5   0  0.1723916E-06  0.2999622E+04  0.7818609E-02  0.8243839E-01
       -2   -1    0    0    0  501  0.00000000000E+00  0.00000000000E+00  0.90816717779E+03  0.90816717780E+03  0.25500000920E-02 0. -1.
        2   -1    0    0  501    0  0.00000000000E+00  0.00000000000E+00 -0.24768934276E+04  0.24768934276E+04  0.25500000920E-02 0.  1.
    10030    2    1    2    0    0  0.00000000000E+00  0.00000000000E+00 -0.15687262498E+04  0.33850606054E+04  0.29996221854E+04 0.  0.
        1    1    3    3  502    0  0.74706676988E+03  0.17930700754E+03 -0.22379660885E+04  0.23661682051E+04  0.50400001928E-02 0.  1.
       -1    1    3    3    0  502 -0.74706676988E+03 -0.17930700754E+03  0.66923983870E+03  0.10188924003E+04  0.50400001928E-02 0. -1.
</event>
<event>
 5   0  0.1674806E-06  0.2983429E+04  0.7818609E-02  0.8248479E-01
        2   -1    0    0  501    0  0.00000000000E+00  0.00000000000E+00  0.18110031727E+04  0.18110031727E+04  0.25500000920E-02 0.  1.
       -2   -1    0    0    0  501  0.00000000000E+00  0.00000000000E+00 -0.12287178805E+04  0.12287178805E+04  0.25500000920E-02 0. -1.
    10030    2    1    2    0    0  0.00000000000E+00  0.00000000000E+00  0.58228529228E+03  0.30397210532E+04  0.29834288863E+04 0.  0.
        2    1    3    3  502    0  0.26057070745E+02 -0.96080649749E+03 -0.87116408551E+03  0.12972104534E+04  0.25500000920E-02 0. -1.
       -2    1    3    3    0  502 -0.26057070745E+02  0.96080649749E+03  0.14534493778E+04  0.17425105998E+04  0.25500000920E-02 0.  1.
</event>
<event>
 5   0  0.1723916E-06  0.3006597E+04  0.7818609E-02  0.8241850E-01
        2   -1    0    0  501    0  0.00000000000E+00  0.00000000000E+00  0.12070571237E+04  0.12070571237E+04  0.25500000920E-02 0. -1.
       -2   -1    0    0    0  501  0.00000000000E+00  0.00000000000E+00 -0.18722445522E+04  0.18722445523E+04  0.25500000920E-02 0.  1.
    10030    2    1    2    0    0  0.00000000000E+00  0.00000000000E+00 -0.66518742852E+03  0.30793016760E+04  0.30065968297E+04 0.  0.
        1    1    3    3  502    0  0.95206558442E+03  0.10417221581E+04 -0.86308842764E+03  0.16542477341E+04  0.50400001928E-02 0.  1.
       -1    1    3    3    0  502 -0.95206558442E+03 -0.10417221581E+04  0.19790099912E+03  0.14250539419E+04  0.50400001928E-02 0. -1.
</event>
<event>
 5   0  0.1635086E-06  0.3018196E+04  0.7818609E-02  0.8238554E-01
       -2   -1    0    0    0  501  0.00000000000E+00  0.00000000000E+00  0.13678839142E+04  0.13678839142E+04  0.25500000920E-02 0.  1.
        2   -1    0    0  501    0  0.00000000000E+00  0.00000000000E+00 -0.16648899967E+04  0.16648899967E+04  0.25500000920E-02 0. -1.
    10030    2    1    2    0    0  0.00000000000E+00  0.00000000000E+00 -0.29700608251E+03  0.30327739110E+04  0.30181956501E+04 0.  0.
        3    1    3    3  502    0  0.10367163848E+04 -0.10707050718E+04  0.89677780506E+02  0.14930613945E+04  0.10100000352E+00 0. -1.
       -3    1    3    3    0  502 -0.10367163848E+04  0.10707050718E+04 -0.38668386302E+03  0.15397125165E+04  0.10100000352E+00 0.  1.
</event>
<event>
 5   0  0.5931588E-07  0.3000512E+04  0.7818609E-02  0.8243585E-01
        1   -1    0    0  501    0  0.00000000000E+00  0.00000000000E+00  0.18937074990E+04  0.18937074990E+04  0.50400001928E-02 0. -1.
       -1   -1    0    0    0  501  0.00000000000E+00  0.00000000000E+00 -0.11885514498E+04  0.11885514498E+04  0.50400001928E-02 0.  1.
    10030    2    1    2    0    0  0.00000000000E+00  0.00000000000E+00  0.70515604921E+03  0.30822589489E+04  0.30005124853E+04 0.  0.
        2    1    3    3  502    0 -0.53971263827E+03  0.11838464115E+04 -0.41475805954E+03  0.13655791101E+04  0.25500000920E-02 0.  1.
       -2    1    3    3    0  502  0.53971263827E+03 -0.11838464115E+04  0.11199141088E+04  0.17166798388E+04  0.25500000920E-02 0. -1.
</event>
<event>
 5   0  0.1723916E-06  0.2977599E+04  0.7818609E-02  0.8250157E-01
       -2   -1    0    0    0  501  0.00000000000E+00  0.00000000000E+00  0.13325088936E+04  0.13325088936E+04  0.25500000920E-02 0.  1.
        2   -1    0    0  501    0  0.00000000000E+00  0.00000000000E+00 -0.16634214720E+04  0.16634214720E+04  0.25500000920E-02 0. -1.
    10030    2    1    2    0    0  0.00000000000E+00  0.00000000000E+00 -0.33091257840E+03  0.29959303657E+04  0.29775989692E+04 0.  0.
        1    1    3    3  502    0 -0.99503908105E+02  0.14477133783E+04 -0.50029458744E+03  0.15349494218E+04  0.50400001928E-02 0. -1.
       -1    1    3    3    0  502  0.99503908105E+02 -0.14477133783E+04  0.16938200903E+03  0.14609809439E+04  0.50400001928E-02 0.  1.
</event>
<event>
 5   0  0.1625212E-06  0.3008404E+04  0.7818609E-02  0.8241335E-01
        2   -1    0    0  501    0  0.00000000000E+00  0.00000000000E+00  0.31003447186E+04  0.31003447186E+04  0.25500000920E-02 0. -1.
       -2   -1    0    0    0  501  0.00000000000E+00  0.00000000000E+00 -0.72979752063E+03  0.72979752063E+03  0.25500000920E-02 0.  1.
    10030    2    1    2    0    0  0.00000000000E+00  0.00000000000E+00  0.23705471980E+04  0.38301422393E+04  0.30084041542E+04 0.  0.
        4    1    3    3  502    0  0.69658194460E+03  0.92293327142E+03  0.24101381358E+04  0.26731628599E+04  0.12699999809E+01 0.  1.
       -4    1    3    3    0  502 -0.69658194460E+03 -0.92293327142E+03 -0.39590937774E+02  0.11569793794E+04  0.12699999809E+01 0. -1.
</event>
<event>
 5   0  0.6291798E-07  0.2985329E+04  0.7818609E-02  0.8247933E-01
        1   -1    0    0  501    0  0.00000000000E+00  0.00000000000E+00  0.19314041763E+04  0.19314041763E+04  0.50400001928E-02 0.  1.
       -1   -1    0    0    0  501  0.00000000000E+00  0.00000000000E+00 -0.11535896067E+04  0.11535896067E+04  0.50400001928E-02 0. -1.
    10030    2    1    2    0    0  0.00000000000E+00  0.00000000000E+00  0.77781456963E+03  0.30849937830E+04  0.29853293179E+04 0.  0.
        1    1    3    3  502    0 -0.42474658867E+03  0.14302538631E+04  0.43526016714E+03  0.15541837699E+04  0.50400001928E-02 0.  1.
       -1    1    3    3    0  502  0.42474658867E+03 -0.14302538631E+04  0.34255440249E+03  0.15308100131E+04  0.50400001928E-02 0. -1.
</event>
<event>
 5   0  0.5931588E-07  0.3014271E+04  0.7818609E-02  0.8239668E-01
       -1   -1    0    0    0  501  0.00000000000E+00  0.00000000000E+00  0.15239576843E+04  0.15239576843E+04  0.50400001928E-02 0.  1.
        1   -1    0    0  501    0  0.00000000000E+00  0.00000000000E+00 -0.14904985978E+04  0.14904985978E+04  0.50400001928E-02 0. -1.
    10030    2    1    2    0    0  0.00000000000E+00  0.00000000000E+00  0.33459086489E+02  0.30144562821E+04  0.30142705861E+04 0.  0.
        2    1    3    3  502    0 -0.99464290086E+03  0.97567460482E+03 -0.55793735384E+03  0.15008496012E+04  0.25500000920E-02 0. -1.
       -2    1    3    3    0  502  0.99464290086E+03 -0.97567460482E+03  0.59139644033E+03  0.15136066809E+04  0.25500000920E-02 0.  1.
</event>
<event>
 5   0  0.5916703E-07  0.3019066E+04  0.7818609E-02  0.8238307E-01
        1   -1    0    0  501    0  0.00000000000E+00  0.00000000000E+00  0.81106647696E+03  0.81106647698E+03  0.50400001928E-02 0.  1.
       -1   -1    0    0    0  501  0.00000000000E+00  0.00000000000E+00 -0.28094984283E+04  0.28094984283E+04  0.50400001928E-02 0. -1.
    10030    2    1    2    0    0  0.00000000000E+00  0.00000000000E+00 -0.19984319513E+04  0.36205649053E+04  0.30190660757E+04 0.  0.
        5    1    3    3  502    0 -0.10194461485E+03  0.34420672136E+02  0.80645301434E+03  0.81361295559E+03  0.46999998093E+01 0.  1.
       -5    1    3    3    0  502  0.10194461485E+03 -0.34420672136E+02 -0.28048849657E+04  0.28069519497E+04  0.46999998093E+01 0. -1.
</event>
<event>
 5   0  0.5431625E-07  0.3013811E+04  0.7818609E-02  0.8239798E-01
        3   -1    0    0  501    0  0.00000000000E+00  0.00000000000E+00  0.10857330526E+04  0.10857330573E+04  0.10100000352E+00 0.  1.
       -3   -1    0    0    0  501  0.00000000000E+00  0.00000000000E+00 -0.20914570148E+04  0.20914570173E+04  0.10100000352E+00 0. -1.
    10030    2    1    2    0    0  0.00000000000E+00  0.00000000000E+00 -0.10057239622E+04  0.31771900746E+04  0.30138108902E+04 0.  0.
        3    1    3    3  502    0 -0.79479994799E+03  0.24405188567E+03  0.82204816954E+03  0.11692012160E+04  0.10100000352E+00 0.  1.
       -3    1    3    3    0  502  0.79479994799E+03 -0.24405188567E+03 -0.18277721318E+04  0.20079888586E+04  0.10100000352E+00 0. -1.
</event>
<event>
 5   0  0.5887179E-07  0.3002383E+04  0.7818609E-02  0.8243051E-01
        1   -1    0    0  501    0  0.00000000000E+00  0.00000000000E+00  0.19904071280E+04  0.19904071280E+04  0.50400001928E-02 0.  1.
       -1   -1    0    0    0  501  0.00000000000E+00  0.00000000000E+00 -0.11322189083E+04  0.11322189083E+04  0.50400001928E-02 0. -1.
    10030    2    1    2    0    0  0.00000000000E+00  0.00000000000E+00  0.85818821965E+03  0.31226260363E+04  0.30023834436E+04 0.  0.
        3    1    3    3  502    0 -0.11459812032E+04  0.28609778715E+03 -0.53453909368E+03  0.12964786596E+04  0.10100000352E+00 0. -1.
       -3    1    3    3    0  502  0.11459812032E+04 -0.28609778715E+03  0.13927273133E+04  0.18261473767E+04  0.10100000352E+00 0.  1.
</event>
<event>
 5   0  0.1625212E-06  0.2964089E+04  0.7818609E-02  0.8254060E-01
       -2   -1    0    0    0  501  0.00000000000E+00  0.00000000000E+00  0.14691622828E+04  0.14691622828E+04  0.25500000920E-02 0.  1.
        2   -1    0    0  501    0  0.00000000000E+00  0.00000000000E+00 -0.14950400030E+04  0.14950400030E+04  0.25500000920E-02 0. -1.
    10030    2    1    2    0    0  0.00000000000E+00  0.00000000000E+00 -0.25877720196E+02  0.29642022858E+04  0.29640893263E+04 0.  0.
        4    1    3    3  502    0 -0.97220871912E+03  0.11136490326E+04  0.92187975472E+02  0.14811833773E+04  0.12699999809E+01 0. -1.
       -4    1    3    3    0  502  0.97220871912E+03 -0.11136490326E+04 -0.11806569567E+03  0.14830189085E+04  0.12699999809E+01 0.  1.
</event>
<event>
 5   0  0.6291798E-07  0.3001157E+04  0.7818609E-02  0.8243400E-01
        1   -1    0    0  501    0  0.00000000000E+00  0.00000000000E+00  0.23644485868E+04  0.23644485868E+04  0.50400001928E-02 0.  1.
       -1   -1    0    0    0  501  0.00000000000E+00  0.00000000000E+00 -0.95233047886E+03  0.95233047887E+03  0.50400001928E-02 0. -1.
    10030    2    1    2    0    0  0.00000000000E+00  0.00000000000E+00  0.14121181079E+04  0.33167790657E+04  0.30011574134E+04 0.  0.
        1    1    3    3  502    0 -0.13239915180E+03  0.60470693887E+03 -0.80464207628E+03  0.10152087905E+04  0.50400001928E-02 0. -1.
       -1    1    3    3    0  502  0.13239915180E+03 -0.60470693887E+03  0.22167601842E+04  0.23015702752E+04  0.50400001928E-02 0.  1.
</event>
<event>
 5   0  0.1560174E-06  0.3011031E+04  0.7818609E-02  0.8240588E-01
        2   -1    0    0  501    0  0.00000000000E+00  0.00000000000E+00  0.10232175923E+04  0.10232175923E+04  0.25500000920E-02 0. -1.
       -2   -1    0    0    0  501  0.00000000000E+00  0.00000000000E+00 -0.22151461057E+04  0.22151461057E+04  0.25500000920E-02 0.  1.
    10030    2    1    2    0    0  0.00000000000E+00  0.00000000000E+00 -0.11919285135E+04  0.32383636980E+04  0.30110306972E+04 0.  0.
        5    1    3    3  502    0 -0.11347941101E+04 -0.95880134517E+03 -0.85829960669E+03  0.17157383241E+04  0.46999998093E+01 0.  1.
       -5    1    3    3    0  502  0.11347941101E+04  0.95880134517E+03 -0.33362890677E+03  0.15226253739E+04  0.46999998093E+01 0. -1.
</event>
<event>
 5   0  0.1560174E-06  0.2997855E+04  0.7818609E-02  0.8244344E-01
        2   -1    0    0  501    0  0.00000000000E+00  0.00000000000E+00  0.16094963327E+04  0.16094963327E+04  0.25500000920E-02 0. -1.
       -2   -1    0    0    0  501  0.00000000000E+00  0.00000000000E+00 -0.13959548599E+04  0.13959548599E+04  0.25500000920E-02 0.  1.
    10030    2    1    2    0    0  0.00000000000E+00  0.00000000000E+00  0.21354147288E+03  0.30054511926E+04  0.29978553852E+04 0.  0.
        5    1    3    3  502    0 -0.23448900011E+03  0.19612104102E+03  0.15779061183E+04  0.16072518042E+04  0.46999998093E+01 0. -1.
       -5    1    3    3    0  502  0.23448900011E+03 -0.19612104102E+03 -0.13643646454E+04  0.13981993884E+04  0.46999998093E+01 0.  1.
</event>
<event>
 5   0  0.1560174E-06  0.3001541E+04  0.7818609E-02  0.8243291E-01
        2   -1    0    0  501    0  0.00000000000E+00  0.00000000000E+00  0.26545693927E+04  0.26545693927E+04  0.25500000920E-02 0.  1.
       -2   -1    0    0    0  501  0.00000000000E+00  0.00000000000E+00 -0.84846613259E+03  0.84846613259E+03  0.25500000920E-02 0. -1.
    10030    2    1    2    0    0  0.00000000000E+00  0.00000000000E+00  0.18061032601E+04  0.35030355253E+04  0.30015410884E+04 0.  0.
        5    1    3    3  502    0 -0.10498056953E+04  0.75613522280E+03  0.15413319312E+02  0.12938671236E+04  0.46999998093E+01 0. -1.
       -5    1    3    3    0  502  0.10498056953E+04 -0.75613522280E+03  0.17906899408E+04  0.22091684017E+04  0.46999998093E+01 0.  1.
</event>
<event>
 5   0  0.1674806E-06  0.2977117E+04  0.7818609E-02  0.8250296E-01
       -2   -1    0    0    0  501  0.00000000000E+00  0.00000000000E+00  0.75469777129E+03  0.75469777129E+03  0.25500000920E-02 0.  1.
        2   -1    0    0  501    0  0.00000000000E+00  0.00000000000E+00 -0.29360174742E+04  0.29360174742E+04  0.25500000920E-02 0. -1.
    10030    2    1    2    0    0  0.00000000000E+00  0.00000000000E+00 -0.21813197029E+04  0.36907152455E+04  0.29771166213E+04 0.  0.
        2    1    3    3  502    0 -0.13058748345E+04 -0.42798805854E+03 -0.17999157255E+04  0.22645484054E+04  0.25500000920E-02 0. -1.
       -2    1    3    3    0  502  0.13058748345E+04  0.42798805854E+03 -0.38140397744E+03  0.14261668401E+04  0.25500000920E-02 0.  1.
</event>
<event>
 5   0  0.5874741E-07  0.3002840E+04  0.7818609E-02  0.8242921E-01
       -1   -1    0    0    0  501  0.00000000000E+00  0.00000000000E+00  0.12947967572E+04  0.12947967573E+04  0.50400001928E-02 0.  1.
        1   -1    0    0  501    0  0.00000000000E+00  0.00000000000E+00 -0.17410155861E+04  0.17410155861E+04  0.50400001928E-02 0. -1.
    10030    2    1    2    0    0  0.00000000000E+00  0.00000000000E+00 -0.44621882888E+03  0.30358123434E+04  0.30028395463E+04 0.  0.
        4    1    3    3  502    0 -0.64598246908E+03 -0.34467332260E+03 -0.15482911486E+04  0.17126879878E+04  0.12699999809E+01 0. -1.
       -4    1    3    3    0  502  0.64598246908E+03  0.34467332260E+03  0.11020723197E+04  0.13231243556E+04  0.12699999809E+01 0.  1.
</event>
<event>
 5   0  0.1723916E-06  0.2993751E+04  0.7818609E-02  0.8245517E-01
        2   -1    0    0  501    0  0.00000000000E+00  0.00000000000E+00  0.19438748669E+04  0.19438748669E+04  0.25500000920E-02 0. -1.
       -2   -1    0    0    0  501  0.00000000000E+00  0.00000000000E+00 -0.11526652376E+04  0.11526652376E+04  0.25500000920E-02 0.  1.
    10030    2    1    2    0    0  0.00000000000E+00  0.00000000000E+00  0.79120962931E+03  0.30965401046E+04  0.29937514830E+04 0.  0.
        1    1    3    3  502    0 -0.11554987354E+04  0.66610765078E+03  0.10984654780E+04  0.17278608556E+04  0.50400001928E-02 0. -1.
       -1    1    3    3    0  502  0.11554987354E+04 -0.66610765078E+03 -0.30725584874E+03  0.13686792490E+04  0.50400001928E-02 0.  1.
</event>
<event>
 5   0  0.1560174E-06  0.2985299E+04  0.7818609E-02  0.8247941E-01
       -2   -1    0    0    0  501  0.00000000000E+00  0.00000000000E+00  0.16412426325E+04  0.16412426325E+04  0.25500000920E-02 0.  1.
        2   -1    0    0  501    0  0.00000000000E+00  0.00000000000E+00 -0.13575094863E+04  0.13575094863E+04  0.25500000920E-02 0. -1.
    10030    2    1    2    0    0  0.00000000000E+00  0.00000000000E+00  0.28373314622E+03  0.29987521188E+04  0.29852989417E+04 0.  0.
        5    1    3    3  502    0 -0.51010215493E+03  0.62012822155E+03  0.14057964544E+04  0.16189654044E+04  0.46999998093E+01 0.  1.
       -5    1    3    3    0  502  0.51010215493E+03 -0.62012822155E+03 -0.11220633081E+04  0.13797867143E+04  0.46999998093E+01 0. -1.
</event>
<event>
 5   0  0.1625212E-06  0.3014058E+04  0.7818609E-02  0.8239728E-01
        2   -1    0    0  501    0  0.00000000000E+00  0.00000000000E+00  0.11234521416E+04  0.11234521416E+04  0.25500000920E-02 0.  1.
       -2   -1    0    0    0  501  0.00000000000E+00  0.00000000000E+00 -0.20215696437E+04  0.20215696437E+04  0.25500000920E-02 0. -1.
    10030    2    1    2    0    0  0.00000000000E+00  0.00000000000E+00 -0.89811750212E+03  0.31450217853E+04  0.30140582248E+04 0.  0.
        4    1    3    3  502    0  0.99100251267E+03 -0.83325689477E+03  0.35563885674E+03  0.13427150264E+04  0.12699999809E+01 0.  1.
       -4    1    3    3    0  502 -0.99100251267E+03  0.83325689477E+03 -0.12537563589E+04  0.18023067589E+04  0.12699999809E+01 0. -1.
</event>
<event>
 5   0  0.1635086E-06  0.2983107E+04  0.7818609E-02  0.8248571E-01
        2   -1    0    0  501    0  0.00000000000E+00  0.00000000000E+00  0.13074653685E+04  0.13074653685E+04  0.25500000920E-02 0.  1.
       -2   -1    0    0    0  501  0.00000000000E+00  0.00000000000E+00 -0.17015602513E+04  0.17015602513E+04  0.25500000920E-02 0. -1.
    10030    2    1    2    0    0  0.00000000000E+00  0.00000000000E+00 -0.39409488275E+03  0.30090256198E+04  0.29831065023E+04 0.  0.
        3    1    3    3  502    0  0.64880694898E+03 -0.37178270699E+03 -0.14988257782E+04  0.16750079289E+04  0.10100000352E+00 0. -1.
       -3    1    3    3    0  502 -0.64880694898E+03  0.37178270699E+03  0.11047308954E+04  0.13340176909E+04  0.10100000352E+00 0.  1.
</event>
<event>
 5   0  0.1560174E-06  0.2992718E+04  0.7818609E-02  0.8245813E-01
       -2   -1    0    0    0  501  0.00000000000E+00  0.00000000000E+00  0.76633790131E+03  0.76633790131E+03  0.25500000920E-02 0. -1.
        2   -1    0    0  501    0  0.00000000000E+00  0.00000000000E+00 -0.29218056689E+04  0.29218056689E+04  0.25500000920E-02 0.  1.
    10030    2    1    2    0    0  0.00000000000E+00  0.00000000000E+00 -0.21554677676E+04  0.36881435702E+04  0.29927181119E+04 0.  0.
        5    1    3    3  502    0 -0.13411419126E+04 -0.62347083317E+03 -0.79754639600E+03  0.16803213542E+04  0.46999998093E+01 0. -1.
       -5    1    3    3    0  502  0.13411419126E+04  0.62347083317E+03 -0.13579213716E+04  0.20078222160E+04  0.46999998093E+01 0.  1.
</event>
<event>
 5   0  0.5874741E-07  0.3002128E+04  0.7818609E-02  0.8243123E-01
       -1   -1    0    0    0  501  0.00000000000E+00  0.00000000000E+00  0.11981611306E+04  0.11981611306E+04  0.50400001928E-02 0. -1.
        1   -1    0    0  501    0  0.00000000000E+00  0.00000000000E+00 -0.18805427313E+04  0.18805427313E+04  0.50400001928E-02 0.  1.
    10030    2    1    2    0    0  0.00000000000E+00  0.00000000000E+00 -0.68238160074E+03  0.30787038620E+04  0.30021280487E+04 0.  0.
        4    1    3    3  502    0  0.50074213368E+03 -0.12616921546E+04 -0.99830153111E+03  0.16849977262E+04  0.12699999809E+01 0.  1.
       -4    1    3    3    0  502 -0.50074213368E+03  0.12616921546E+04  0.31591993037E+03  0.13937061357E+04  0.12699999809E+01 0. -1.
</event>
<event>
 5   0  0.5887179E-07  0.3006491E+04  0.7818609E-02  0.8241880E-01
        1   -1    0    0  501    0  0.00000000000E+00  0.00000000000E+00  0.16350630593E+04  0.16350630593E+04  0.50400001928E-02 0.  1.
       -1   -1    0    0    0  501  0.00000000000E+00  0.00000000000E+00 -0.13820554130E+04  0.13820554130E+04  0.50400001928E-02 0. -1.
    10030    2    1    2    0    0  0.00000000000E+00  0.00000000000E+00  0.25300764629E+03  0.30171184723E+04  0.30064914779E+04 0.  0.
        3    1    3    3  502    0 -0.14209008355E+04  0.44799751356E+03  0.32742837129E+03  0.15254082421E+04  0.10100000352E+00 0.  1.
       -3    1    3    3    0  502  0.14209008355E+04 -0.44799751356E+03 -0.74420724997E+02  0.14917102302E+04  0.10100000352E+00 0. -1.
</event>
<event>
 5   0  0.5916703E-07  0.3027148E+04  0.7818609E-02  0.8236021E-01
        1   -1    0    0  501    0  0.00000000000E+00  0.00000000000E+00  0.20685762503E+04  0.20685762503E+04  0.50400001928E-02 0. -1.
       -1   -1    0    0    0  501  0.00000000000E+00  0.00000000000E+00 -0.11074794529E+04  0.11074794529E+04  0.50400001928E-02 0.  1.
    10030    2    1    2    0    0  0.00000000000E+00  0.00000000000E+00  0.96109679741E+03  0.31760557033E+04  0.30271476304E+04 0.  0.
        5    1    3    3  502    0  0.32938334383E+03  0.11173974594E+04  0.14944235946E+04  0.18948336179E+04  0.46999998093E+01 0. -1.
       -5    1    3    3    0  502 -0.32938334383E+03 -0.11173974594E+04 -0.53332679720E+03  0.12812220854E+04  0.46999998093E+01 0.  1.
</event>
<event>
 5   0  0.1723916E-06  0.3011644E+04  0.7818609E-02  0.8240414E-01
       -2   -1    0    0    0  501  0.00000000000E+00  0.00000000000E+00  0.10627041767E+04  0.10627041767E+04  0.25500000920E-02 0.  1.
        2   -1    0    0  501    0  0.00000000000E+00  0.00000000000E+00 -0.21337073611E+04  0.21337073611E+04  0.25500000920E-02 0. -1.
    10030    2    1    2    0    0  0.00000000000E+00  0.00000000000E+00 -0.10710031844E+04  0.31964115379E+04  0.30116438864E+04 0.  0.
        1    1    3    3  502    0 -0.86721112499E+03  0.32514045244E+03  0.72466156385E+03  0.11759701660E+04  0.50400001928E-02 0.  1.
       -1    1    3    3    0  502  0.86721112499E+03 -0.32514045244E+03 -0.17956647482E+04  0.20204413719E+04  0.50400001928E-02 0. -1.
</event>
<event>
 5   0  0.1560174E-06  0.2984797E+04  0.7818609E-02  0.8248086E-01
        2   -1    0    0  501    0  0.00000000000E+00  0.00000000000E+00  0.17078048564E+04  0.17078048564E+04  0.25500000920E-02 0.  1.
       -2   -1    0    0    0  501  0.00000000000E+00  0.00000000000E+00 -0.13041610331E+04  0.13041610331E+04  0.25500000920E-02 0. -1.
    10030    2    1    2    0    0  0.00000000000E+00  0.00000000000E+00  0.40364382327E+03  0.30119658895E+04  0.29847965062E+04 0.  0.
        5    1    3    3  502    0 -0.12500502658E+04  0.13994357809E+03  0.10122642268E+04  0.16145930840E+04  0.46999998093E+01 0.  1.
       -5    1    3    3    0  502  0.12500502658E+04 -0.13994357809E+03 -0.60862040354E+03  0.13973728055E+04  0.46999998093E+01 0. -1.
</event>
<event>
 5   0  0.5916703E-07  0.2999929E+04  0.7818609E-02  0.8243751E-01
       -1   -1    0    0    0  501  0.00000000000E+00  0.00000000000E+00  0.15689325784E+04  0.15689325784E+04  0.50400001928E-02 0.  1.
        1   -1    0    0  501    0  0.00000000000E+00  0.00000000000E+00 -0.14340277578E+04  0.14340277578E+04  0.50400001928E-02 0. -1.
    10030    2    1    2    0    0  0.00000000000E+00  0.00000000000E+00  0.13490482060E+03  0.30029603362E+04  0.29999285775E+04 0.  0.
        5    1    3    3  502    0 -0.29823913586E+03 -0.94512392106E+03 -0.10595917301E+04  0.14508489007E+04  0.46999998093E+01 0. -1.
       -5    1    3    3    0  502  0.29823913586E+03  0.94512392106E+03  0.11944965507E+04  0.15521114354E+04  0.46999998093E+01 0.  1.
</event>
<event>
 5   0  0.6291798E-07  0.2990349E+04  0.7818609E-02  0.8246492E-01
        1   -1    0    0  501    0  0.00000000000E+00  0.00000000000E+00  0.18184056671E+04  0.18184056671E+04  0.50400001928E-02 0. -1.
       -1   -1    0    0    0  501  0.00000000000E+00  0.00000000000E+00 -0.12293993708E+04  0.12293993708E+04  0.50400001928E-02 0.  1.
    10030    2    1    2    0    0  0.00000000000E+00  0.00000000000E+00  0.58900629629E+03  0.30478050378E+04  0.29903489983E+04 0.  0.
        1    1    3    3  502    0  0.21283907855E+03  0.40488488248E+02 -0.12133158004E+04  0.12325076156E+04  0.50400001928E-02 0.  1.
       -1    1    3    3    0  502 -0.21283907855E+03 -0.40488488248E+02  0.18023220967E+04  0.18152974222E+04  0.50400001928E-02 0. -1.
</event>
<event>
 5   0  0.1625212E-06  0.3009983E+04  0.7818609E-02  0.8240886E-01
        2   -1    0    0  501    0  0.00000000000E+00  0.00000000000E+00  0.20014648881E+04  0.20014648881E+04  0.25500000920E-02 0.  1.
       -2   -1    0    0    0  501  0.00000000000E+00  0.00000000000E+00 -0.11316705969E+04  0.11316705969E+04  0.25500000920E-02 0. -1.
    10030    2    1    2    0    0  0.00000000000E+00  0.00000000000E+00  0.86979429119E+03  0.31331354849E+04  0.30099827006E+04 0.  0.
        4    1    3    3  502    0  0.58293117817E+03  0.13120937498E+04  0.90457767092E+03  0.16969564351E+04  0.12699999809E+01 0.  1.
       -4    1    3    3    0  502 -0.58293117817E+03 -0.13120937498E+04 -0.34783379726E+02  0.14361790499E+04  0.12699999809E+01 0. -1.
</event>
<event>
 5   0  0.6291798E-07  0.2984882E+04  0.7818609E-02  0.8248061E-01
        1   -1    0    0  501    0  0.00000000000E+00  0.00000000000E+00  0.14787996660E+04  0.14787996660E+04  0.50400001928E-02 0. -1.
       -1   -1    0    0    0  501  0.00000000000E+00  0.00000000000E+00 -0.15062077020E+04  0.15062077020E+04  0.50400001928E-02 0.  1.
    10030    2    1    2    0    0  0.00000000000E+00  0.00000000000E+00 -0.27408036013E+02  0.29850073681E+04  0.29848815365E+04 0.  0.
        1    1    3    3  502    0  0.87503584411E+02 -0.13501546613E+04  0.61624710414E+03  0.14867195365E+04  0.50400001928E-02 0. -1.
       -1    1    3    3    0  502 -0.87503584411E+02  0.13501546613E+04 -0.64365514015E+03  0.14982878316E+04  0.50400001928E-02 0.  1.
</event>
<event>
 5   0  0.1625212E-06  0.3005993E+04  0.7818609E-02  0.8242022E-01
       -2   -1    0    0    0  501  0.00000000000E+00  0.00000000000E+00  0.97244150478E+03  0.97244150478E+03  0.25500000920E-02 0. -1.
        2   -1    0    0  501    0  0.00000000000E+00  0.00000000000E+00 -0.23230167354E+04  0.23230167354E+04  0.25500000920E-02 0.  1.
    10030    2    1    2    0    0  0.00000000000E+00  0.00000000000E+00 -0.13505752306E+04  0.32954582402E+04  0.30059926080E+04 0.  0.
        4    1    3    3  502    0  0.12780214755E+04  0.39633431963E+03  0.75156148200E+02  0.13401753036E+04  0.12699999809E+01 0. -1.
       -4    1    3    3    0  502 -0.12780214755E+04 -0.39633431963E+03 -0.14257313788E+04  0.19552829366E+04  0.12699999809E+01 0.  1.
</event>
<event>
 5   0  0.1723916E-06  0.3000012E+04  0.7818609E-02  0.8243728E-01
        2   -1    0    0  501    0  0.00000000000E+00  0.00000000000E+00  0.19344944021E+04  0.19344944022E+04  0.25500000920E-02 0. -1.
       -2   -1    0    0    0  501  0.00000000000E+00  0.00000000000E+00 -0.11631036815E+04  0.11631036815E+04  0.25500000920E-02 0.  1.
    10030    2    1    2    0    0  0.00000000000E+00  0.00000000000E+00  0.77139072069E+03  0.30975980836E+04  0.30000117073E+04 0.  0.
        1    1    3    3  502    0 -0.56827701970E+03 -0.64142782554E+03  0.16568589810E+04  0.18653552234E+04  0.50400001928E-02 0. -1.
       -1    1    3    3    0  502  0.56827701970E+03  0.64142782554E+03 -0.88546826032E+03  0.12322428602E+04  0.50400001928E-02 0.  1.
</event>
<event>
 5   0  0.5431625E-07  0.3005351E+04  0.7818609E-02  0.8242205E-01
        4   -1    0    0  501    0  0.00000000000E+00  0.00000000000E+00  0.96896040379E+03  0.96896123607E+03  0.12699999809E+01 0.  1.
       -4   -1    0    0    0  501  0.00000000000E+00  0.00000000000E+00 -0.23303654540E+04  0.23303658001E+04  0.12699999809E+01 0. -1.
    10030    2    1    2    0    0  0.00000000000E+00  0.00000000000E+00 -0.13614050502E+04  0.32993270362E+04  0.30053510911E+04 0.  0.
        4    1    3    3  502    0 -0.34770844918E+03 -0.38009678944E+03 -0.22303983919E+04  0.22891162781E+04  0.12699999809E+01 0. -1.
       -4    1    3    3    0  502  0.34770844918E+03  0.38009678944E+03  0.86899334168E+03  0.10102107581E+04  0.12699999809E+01 0.  1.
</event>
<event>
 5   0  0.6291798E-07  0.3001473E+04  0.7818609E-02  0.8243310E-01
       -1   -1    0    0    0  501  0.00000000000E+00  0.00000000000E+00  0.18196075187E+04  0.18196075187E+04  0.50400001928E-02 0.  1.
        1   -1    0    0  501    0  0.00000000000E+00  0.00000000000E+00 -0.12377451176E+04  0.12377451176E+04  0.50400001928E-02 0. -1.
    10030    2    1    2    0    0  0.00000000000E+00  0.00000000000E+00  0.58186240114E+03  0.30573526363E+04  0.30014731864E+04 0.  0.
        1    1    3    3  502    0  0.11411119086E+04 -0.38937447152E+03 -0.61927133978E+03  0.13554504268E+04  0.50400001928E-02 0. -1.
       -1    1    3    3    0  502 -0.11411119086E+04  0.38937447152E+03  0.12011337409E+04  0.17019022095E+04  0.50400001928E-02 0.  1.
</event>
<event>
 5   0  0.5431625E-07  0.2990968E+04  0.7818609E-02  0.8246315E-01
        3   -1    0    0  501    0  0.00000000000E+00  0.00000000000E+00  0.19430109104E+04  0.19430109130E+04  0.10100000352E+00 0.  1.
       -3   -1    0    0    0  501  0.00000000000E+00  0.00000000000E+00 -0.11510343931E+04  0.11510343976E+04  0.10100000352E+00 0. -1.
    10030    2    1    2    0    0  0.00000000000E+00  0.00000000000E+00  0.79197651727E+03  0.30940453106E+04  0.29909680005E+04 0.  0.
        4    1    3    3  502    0 -0.76493036584E+03 -0.34046819288E+03  0.16778182856E+04  0.18751300935E+04  0.12699999809E+01 0.  1.
       -4    1    3    3    0  502  0.76493036584E+03  0.34046819288E+03 -0.88584176838E+03  0.12189152171E+04  0.12699999809E+01 0. -1.
</event>
<event>
 5   0  0.1625212E-06  0.2999685E+04  0.7818609E-02  0.8243821E-01
        2   -1    0    0  501    0  0.00000000000E+00  0.00000000000E+00  0.14462279379E+04  0.14462279379E+04  0.25500000920E-02 0.  1.
       -2   -1    0    0    0  501  0.00000000000E+00  0.00000000000E+00 -0.15554441939E+04  0.15554441939E+04  0.25500000920E-02 0. -1.
    10030    2    1    2    0    0  0.00000000000E+00  0.00000000000E+00 -0.10921625606E+03  0.30016721318E+04  0.29996845495E+04 0.  0.
        4    1    3    3  502    0 -0.71875500754E+02 -0.11350893126E+04  0.92375714911E+03  0.14652381098E+04  0.12699999809E+01 0.  1.
       -4    1    3    3    0  502  0.71875500754E+02  0.11350893126E+04 -0.10329734052E+04  0.15364340220E+04  0.12699999809E+01 0. -1.
</event>
<event>
 5   0  0.5874741E-07  0.2966112E+04  0.7818609E-02  0.8253475E-01
        1   -1    0    0  501    0  0.00000000000E+00  0.00000000000E+00  0.17817548531E+04  0.17817548531E+04  0.50400001928E-02 0. -1.
       -1   -1    0    0    0  501  0.00000000000E+00  0.00000000000E+00 -0.12344317626E+04  0.12344317626E+04  0.50400001928E-02 0.  1.
    10030    2    1    2    0    0  0.00000000000E+00  0.00000000000E+00  0.54732309051E+03  0.30161866157E+04  0.29661117874E+04 0.  0.
        4    1    3    3  502    0 -0.64714762680E+03 -0.36094870154E+03  0.15800166382E+04  0.17451470442E+04  0.12699999809E+01 0. -1.
       -4    1    3    3    0  502  0.64714762680E+03  0.36094870154E+03 -0.10326935477E+04  0.12710395715E+04  0.12699999809E+01 0.  1.
</event>
<event>
 5   0  0.1625212E-06  0.3066749E+04  0.7818609E-02  0.8224923E-01
       -2   -1    0    0    0  501  0.00000000000E+00  0.00000000000E+00  0.14352654843E+04  0.14352654843E+04  0.25500000920E-02 0.  1.
        2   -1    0    0  501    0  0.00000000000E+00  0.00000000000E+00 -0.16381899621E+04  0.16381899621E+04  0.25500000920E-02 0. -1.
    10030    2    1    2    0    0  0.00000000000E+00  0.00000000000E+00 -0.20292447778E+03  0.30734554463E+04  0.30667490991E+04 0.  0.
        4    1    3    3  502    0 -0.13227588164E+04 -0.43098496961E+03  0.54477106156E+03  0.14940602574E+04  0.12699999809E+01 0.  1.
       -4    1    3    3    0  502  0.13227588164E+04  0.43098496961E+03 -0.74769553934E+03  0.15793951889E+04  0.12699999809E+01 0. -1.
</event>
<event>
 5   0  0.5931588E-07  0.2818337E+04  0.7818609E-02  0.8297598E-01
       -1   -1    0    0    0  501  0.00000000000E+00  0.00000000000E+00  0.10206398676E+04  0.10206398676E+04  0.50400001928E-02 0.  1.
        1   -1    0    0  501    0  0.00000000000E+00  0.00000000000E+00 -0.19455986957E+04  0.19455986957E+04  0.50400001928E-02 0. -1.
    10030    2    1    2    0    0  0.00000000000E+00  0.00000000000E+00 -0.92495882817E+03  0.29662385633E+04  0.28183368111E+04 0.  0.
        2    1    3    3  502    0  0.52677024097E+03 -0.75932177040E+03 -0.15821201213E+04  0.18322555815E+04  0.25500000920E-02 0. -1.
       -2    1    3    3    0  502 -0.52677024097E+03  0.75932177040E+03  0.65716129313E+03  0.11339829818E+04  0.25500000920E-02 0.  1.
</event>
<event>
 5   0  0.1723916E-06  0.2991031E+04  0.7818609E-02  0.8246297E-01
        2   -1    0    0  501    0  0.00000000000E+00  0.00000000000E+00  0.24969301552E+04  0.24969301552E+04  0.25500000920E-02 0.  1.
       -2   -1    0    0    0  501  0.00000000000E+00  0.00000000000E+00 -0.89572624480E+03  0.89572624481E+03  0.25500000920E-02 0. -1.
    10030    2    1    2    0    0  0.00000000000E+00  0.00000000000E+00  0.16012039104E+04  0.33926564000E+04  0.29910305057E+04 0.  0.
        1    1    3    3  502    0  0.13384667948E+04 -0.39436823607E+03  0.19025332574E+03  0.14082670181E+04  0.50400001928E-02 0. -1.
       -1    1    3    3    0  502 -0.13384667948E+04  0.39436823607E+03  0.14109505846E+04  0.19843893818E+04  0.50400001928E-02 0.  1.
</event>
<event>
 5   0  0.5887179E-07  0.2995488E+04  0.7818609E-02  0.8245020E-01
        1   -1    0    0  501    0  0.00000000000E+00  0.00000000000E+00  0.13149415676E+04  0.13149415676E+04  0.50400001928E-02 0.  1.
       -1   -1    0    0    0  501  0.00000000000E+00  0.00000000000E+00 -0.17059597430E+04  0.17059597431E+04  0.50400001928E-02 0. -1.
    10030    2    1    2    0    0  0.00000000000E+00  0.00000000000E+00 -0.39101817548E+03  0.30209013106E+04  0.29954881931E+04 0.  0.
        3    1    3    3  502    0 -0.93871087841E+03  0.28983502192E+03 -0.13356110232E+04  0.16580226985E+04  0.10100000352E+00 0. -1.
       -3    1    3    3    0  502  0.93871087841E+03 -0.28983502192E+03  0.94459284774E+03  0.13628786121E+04  0.10100000352E+00 0.  1.
</event>
<event>
 5   0  0.6291798E-07  0.2981202E+04  0.7818609E-02  0.8249119E-01
       -1   -1    0    0    0  501  0.00000000000E+00  0.00000000000E+00  0.17198275913E+04  0.17198275913E+04  0.50400001928E-02 0. -1.
        1   -1    0    0  501    0  0.00000000000E+00  0.00000000000E+00 -0.12919270421E+04  0.12919270422E+04  0.50400001928E-02 0.  1.
    10030    2    1    2    0    0  0.00000000000E+00  0.00000000000E+00  0.42790054911E+03  0.30117546334E+04  0.29812022897E+04 0.  0.
        1    1    3    3  502    0  0.59539932394E+03  0.19091450983E+03 -0.11530404295E+04  0.13116596117E+04  0.50400001928E-02 0.  1.
       -1    1    3    3    0  502 -0.59539932394E+03 -0.19091450983E+03  0.15809409786E+04  0.17000950217E+04  0.50400001928E-02 0. -1.
</event>
<event>
 5   0  0.5887179E-07  0.3002217E+04  0.7818609E-02  0.8243098E-01
       -1   -1    0    0    0  501  0.00000000000E+00  0.00000000000E+00  0.12438405841E+04  0.12438405841E+04  0.50400001928E-02 0. -1.
        1   -1    0    0  501    0  0.00000000000E+00  0.00000000000E+00 -0.18115885945E+04  0.18115885945E+04  0.50400001928E-02 0.  1.
    10030    2    1    2    0    0  0.00000000000E+00  0.00000000000E+00 -0.56774801042E+03  0.30554291786E+04  0.30022174575E+04 0.  0.
        3    1    3    3  502    0  0.82802097754E+03 -0.12519296101E+04 -0.30373704015E+03  0.15314054615E+04  0.10100000352E+00 0. -1.
       -3    1    3    3    0  502 -0.82802097754E+03  0.12519296101E+04 -0.26401097028E+03  0.15240237171E+04  0.10100000352E+00 0.  1.
</event>
<event>
 5   0  0.1635086E-06  0.2997987E+04  0.7818609E-02  0.8244306E-01
        2   -1    0    0  501    0  0.00000000000E+00  0.00000000000E+00  0.21413492240E+04  0.21413492240E+04  0.25500000920E-02 0.  1.
       -2   -1    0    0    0  501  0.00000000000E+00  0.00000000000E+00 -0.10493300006E+04  0.10493300006E+04  0.25500000920E-02 0. -1.
    10030    2    1    2    0    0  0.00000000000E+00  0.00000000000E+00  0.10920192234E+04  0.31906792247E+04  0.29979873133E+04 0.  0.
        3    1    3    3  502    0 -0.54406203057E+03 -0.44342378348E+02 -0.93979135412E+03  0.10868199203E+04  0.10100000352E+00 0. -1.
       -3    1    3    3    0  502  0.54406203057E+03  0.44342378348E+02  0.20318105775E+04  0.21038593044E+04  0.10100000352E+00 0.  1.
</event>
<event>
 5   0  0.1674806E-06  0.3001792E+04  0.7818609E-02  0.8243219E-01
        2   -1    0    0  501    0  0.00000000000E+00  0.00000000000E+00  0.21408884414E+04  0.21408884414E+04  0.25500000920E-02 0.  1.
       -2   -1    0    0    0  501  0.00000000000E+00  0.00000000000E+00 -0.10522218272E+04  0.10522218272E+04  0.25500000920E-02 0. -1.
    10030    2    1    2    0    0  0.00000000000E+00  0.00000000000E+00  0.10886666141E+04  0.31931102686E+04  0.30017924963E+04 0.  0.
        2    1    3    3  502    0 -0.71634322714E+03  0.47194005837E+03 -0.76575172872E+03  0.11498916244E+04  0.25500000920E-02 0. -1.
       -2    1    3    3    0  502  0.71634322714E+03 -0.47194005837E+03  0.18544183429E+04  0.20432186442E+04  0.25500000920E-02 0.  1.
</event>
<event>
 5   0  0.5874741E-07  0.2990214E+04  0.7818609E-02  0.8246531E-01
        1   -1    0    0  501    0  0.00000000000E+00  0.00000000000E+00  0.17459842739E+04  0.17459842739E+04  0.50400001928E-02 0. -1.
       -1   -1    0    0    0  501  0.00000000000E+00  0.00000000000E+00 -0.12802775240E+04  0.12802775240E+04  0.50400001928E-02 0.  1.
    10030    2    1    2    0    0  0.00000000000E+00  0.00000000000E+00  0.46570674987E+03  0.30262617979E+04  0.29902136533E+04 0.  0.
        4    1    3    3  502    0  0.11434775532E+04  0.42995268908E+03  0.11051855684E+04  0.16473727517E+04  0.12699999809E+01 0. -1.
       -4    1    3    3    0  502 -0.11434775532E+04 -0.42995268908E+03 -0.63947881849E+03  0.13788890462E+04  0.12699999809E+01 0.  1.
</event>
<event>
 5   0  0.1723916E-06  0.2985892E+04  0.7818609E-02  0.8247771E-01
        2   -1    0    0  501    0  0.00000000000E+00  0.00000000000E+00  0.23576479370E+04  0.23576479370E+04  0.25500000920E-02 0.  1.
       -2   -1    0    0    0  501  0.00000000000E+00  0.00000000000E+00 -0.94538641491E+03  0.94538641491E+03  0.25500000920E-02 0. -1.
    10030    2    1    2    0    0  0.00000000000E+00  0.00000000000E+00  0.14122615221E+04  0.33030343519E+04  0.29858923831E+04 0.  0.
        1    1    3    3  502    0  0.10549969115E+04  0.10537517978E+04  0.62426351982E+03  0.16165136179E+04  0.50400001928E-02 0. -1.
       -1    1    3    3    0  502 -0.10549969115E+04 -0.10537517978E+04  0.78799800229E+03  0.16865207340E+04  0.50400001928E-02 0.  1.
</event>
<event>
 5   0  0.1560174E-06  0.3054341E+04  0.7818609E-02  0.8228381E-01
        2   -1    0    0  501    0  0.00000000000E+00  0.00000000000E+00  0.29100500515E+04  0.29100500515E+04  0.25500000920E-02 0.  1.
       -2   -1    0    0    0  501  0.00000000000E+00  0.00000000000E+00 -0.80144666980E+03  0.80144666980E+03  0.25500000920E-02 0. -1.
    10030    2    1    2    0    0  0.00000000000E+00  0.00000000000E+00  0.21086033817E+04  0.37114967213E+04  0.30543411222E+04 0.  0.
        5    1    3    3  502    0  0.42687066145E+03  0.14484694872E+04  0.13312541052E+04  0.20130926455E+04  0.46999998093E+01 0. -1.
       -5    1    3    3    0  502 -0.42687066145E+03 -0.14484694872E+04  0.77734927658E+03  0.16984040758E+04  0.46999998093E+01 0.  1.
</event>
<event>
 5   0  0.5874741E-07  0.2998790E+04  0.7818609E-02  0.8244076E-01
        1   -1    0    0  501    0  0.00000000000E+00  0.00000000000E+00  0.11836824860E+04  0.11836824860E+04  0.50400001928E-02 0.  1.
       -1   -1    0    0    0  501  0.00000000000E+00  0.00000000000E+00 -0.18993149986E+04  0.18993149986E+04  0.50400001928E-02 0. -1.
    10030    2    1    2    0    0  0.00000000000E+00  0.00000000000E+00 -0.71563251257E+03  0.30829974846E+04  0.29987903556E+04 0.  0.
        4    1    3    3  502    0  0.14045521641E+04 -0.52012943958E+03 -0.28597652752E+03  0.15248231382E+04  0.12699999809E+01 0. -1.
       -4    1    3    3    0  502 -0.14045521641E+04  0.52012943958E+03 -0.42965598505E+03  0.15581743464E+04  0.12699999809E+01 0.  1.
</event>
<event>
 5   0  0.1723916E-06  0.2995725E+04  0.7818609E-02  0.8244953E-01
       -2   -1    0    0    0  501  0.00000000000E+00  0.00000000000E+00  0.13408804991E+04  0.13408804991E+04  0.25500000920E-02 0.  1.
        2   -1    0    0  501    0  0.00000000000E+00  0.00000000000E+00 -0.16732231687E+04  0.16732231687E+04  0.25500000920E-02 0. -1.
    10030    2    1    2    0    0  0.00000000000E+00  0.00000000000E+00 -0.33234266956E+03  0.30141036678E+04  0.29957251660E+04 0.  0.
        1    1    3    3  502    0 -0.78947338724E+03  0.31821156753E+03  0.10738937109E+04  0.13703191355E+04  0.50400001928E-02 0.  1.
       -1    1    3    3    0  502  0.78947338724E+03 -0.31821156753E+03 -0.14062363804E+04  0.16437845323E+04  0.50400001928E-02 0. -1.
</event>
<event>
 5   0  0.6291798E-07  0.2994973E+04  0.7818609E-02  0.8245168E-01
        1   -1    0    0  501    0  0.00000000000E+00  0.00000000000E+00  0.16497863985E+04  0.16497863985E+04  0.50400001928E-02 0. -1.
       -1   -1    0    0    0  501  0.00000000000E+00  0.00000000000E+00 -0.13592462881E+04  0.13592462881E+04  0.50400001928E-02 0.  1.
    10030    2    1    2    0    0  0.00000000000E+00  0.00000000000E+00  0.29054011035E+03  0.30090326866E+04  0.29949731473E+04 0.  0.
        1    1    3    3  502    0 -0.69811499485E+03 -0.68696133473E+03 -0.99282546545E+03  0.13946264110E+04  0.50400001928E-02 0.  1.
       -1    1    3    3    0  502  0.69811499485E+03  0.68696133473E+03  0.12833655758E+04  0.16144062756E+04  0.50400001928E-02 0. -1.
</event>
<event>
 5   0  0.1723916E-06  0.2926414E+04  0.7818609E-02  0.8265062E-01
        2   -1    0    0  501    0  0.00000000000E+00  0.00000000000E+00  0.15429483980E+04  0.15429483980E+04  0.25500000920E-02 0.  1.
       -2   -1    0    0    0  501  0.00000000000E+00  0.00000000000E+00 -0.13875863138E+04  0.13875863138E+04  0.25500000920E-02 0. -1.
    10030    2    1    2    0    0  0.00000000000E+00  0.00000000000E+00  0.15536208426E+03  0.29305347118E+04  0.29264135592E+04 0.  0.
        1    1    3    3  502    0  0.68610615496E+03 -0.12911724727E+04  0.13349165155E+03  0.14682261513E+04  0.50400001928E-02 0.  1.
       -1    1    3    3    0  502 -0.68610615496E+03  0.12911724727E+04  0.21870432705E+02  0.14623085605E+04  0.50400001928E-02 0. -1.
</event>
<event>
 5   0  0.5874741E-07  0.3000144E+04  0.7818609E-02  0.8243690E-01
       -1   -1    0    0    0  501  0.00000000000E+00  0.00000000000E+00  0.11579186409E+04  0.11579186409E+04  0.50400001928E-02 0. -1.
        1   -1    0    0  501    0  0.00000000000E+00  0.00000000000E+00 -0.19433279505E+04  0.19433279505E+04  0.50400001928E-02 0.  1.
    10030    2    1    2    0    0  0.00000000000E+00  0.00000000000E+00 -0.78540930957E+03  0.31012465915E+04  0.30001437695E+04 0.  0.
        4    1    3    3  502    0 -0.14677602455E+04  0.30169294355E+03 -0.46488082599E+03  0.15689023442E+04  0.12699999809E+01 0. -1.
       -4    1    3    3    0  502  0.14677602455E+04 -0.30169294355E+03 -0.32052848358E+03  0.15323442473E+04  0.12699999809E+01 0.  1.
</event>
<event>
 5   0  0.1674806E-06  0.2995122E+04  0.7818609E-02  0.8245125E-01
       -2   -1    0    0    0  501  0.00000000000E+00  0.00000000000E+00  0.10916154269E+04  0.10916154269E+04  0.25500000920E-02 0.  1.
        2   -1    0    0  501    0  0.00000000000E+00  0.00000000000E+00 -0.20544674612E+04  0.20544674612E+04  0.25500000920E-02 0. -1.
    10030    2    1    2    0    0  0.00000000000E+00  0.00000000000E+00 -0.96285203433E+03  0.31460828882E+04  0.29951216168E+04 0.  0.
        2    1    3    3  502    0  0.40840858467E+03 -0.84145078816E+03  0.74707396485E+03  0.11970616149E+04  0.25500000920E-02 0.  1.
       -2    1    3    3    0  502 -0.40840858467E+03  0.84145078816E+03 -0.17099259992E+04  0.19490212733E+04  0.25500000920E-02 0. -1.
</event>
<event>
 5   0  0.1674806E-06  0.3006986E+04  0.7818609E-02  0.8241739E-01
       -2   -1    0    0    0  501  0.00000000000E+00  0.00000000000E+00  0.13214255201E+04  0.13214255201E+04  0.25500000920E-02 0.  1.
        2   -1    0    0  501    0  0.00000000000E+00  0.00000000000E+00 -0.17106453738E+04  0.17106453738E+04  0.25500000920E-02 0. -1.
    10030    2    1    2    0    0  0.00000000000E+00  0.00000000000E+00 -0.38921985370E+03  0.30320708939E+04  0.30069855023E+04 0.  0.
        2    1    3    3  502    0 -0.12018865823E+03 -0.14763572645E+04 -0.45446968850E+03  0.15493930372E+04  0.25500000920E-02 0.  1.
       -2    1    3    3    0  502  0.12018865823E+03  0.14763572645E+04  0.65249834800E+02  0.14826778567E+04  0.25500000920E-02 0. -1.
</event>
<event>
 5   0  0.5874741E-07  0.2997339E+04  0.7818609E-02  0.8244491E-01
       -1   -1    0    0    0  501  0.00000000000E+00  0.00000000000E+00  0.10824809409E+04  0.10824809409E+04  0.50400001928E-02 0. -1.
        1   -1    0    0  501    0  0.00000000000E+00  0.00000000000E+00 -0.20748734997E+04  0.20748734997E+04  0.50400001928E-02 0.  1.
    10030    2    1    2    0    0  0.00000000000E+00  0.00000000000E+00 -0.99239255885E+03  0.31573544407E+04  0.29973394991E+04 0.  0.
        4    1    3    3  502    0  0.14074736037E+03 -0.13365757996E+04  0.20235387436E+03  0.13591149293E+04  0.12699999809E+01 0. -1.
       -4    1    3    3    0  502 -0.14074736037E+03  0.13365757996E+04 -0.11947464332E+04  0.17982395114E+04  0.12699999809E+01 0.  1.
</event>
<event>
 5   0  0.5916703E-07  0.2989263E+04  0.7818609E-02  0.8246804E-01
        1   -1    0    0  501    0  0.00000000000E+00  0.00000000000E+00  0.20235799229E+04  0.20235799229E+04  0.50400001928E-02 0.  1.
       -1   -1    0    0    0  501  0.00000000000E+00  0.00000000000E+00 -0.11039462628E+04  0.11039462628E+04  0.50400001928E-02 0. -1.
    10030    2    1    2    0    0  0.00000000000E+00  0.00000000000E+00  0.91963366013E+03  0.31275261857E+04  0.29892631155E+04 0.  0.
        5    1    3    3  502    0  0.79464161554E+02  0.24558666141E+03 -0.10804420662E+04  0.11108575560E+04  0.46999998093E+01 0. -1.
       -5    1    3    3    0  502 -0.79464161554E+02 -0.24558666141E+03  0.20000757263E+04  0.20166686298E+04  0.46999998093E+01 0.  1.
</event>
<event>
 5   0  0.5931588E-07  0.3004014E+04  0.7818609E-02  0.8242586E-01
       -1   -1    0    0    0  501  0.00000000000E+00  0.00000000000E+00  0.24537014534E+04  0.24537014534E+04  0.50400001928E-02 0.  1.
        1   -1    0    0  501    0  0.00000000000E+00  0.00000000000E+00 -0.91943746170E+03  0.91943746172E+03  0.50400001928E-02 0. -1.
    10030    2    1    2    0    0  0.00000000000E+00  0.00000000000E+00  0.15342639917E+04  0.33731389151E+04  0.30040140054E+04 0.  0.
        2    1    3    3  502    0  0.50370944904E+02 -0.12859430320E+04  0.16367917614E+04  0.20821320765E+04  0.25500000920E-02 0.  1.
       -2    1    3    3    0  502 -0.50370944904E+02  0.12859430320E+04 -0.10252776973E+03  0.12910068386E+04  0.25500000920E-02 0. -1.
</event>
<event>
 5   0  0.1635086E-06  0.3010086E+04  0.7818609E-02  0.8240857E-01
       -2   -1    0    0    0  501  0.00000000000E+00  0.00000000000E+00  0.17602867163E+04  0.17602867163E+04  0.25500000920E-02 0. -1.
        2   -1    0    0  501    0  0.00000000000E+00  0.00000000000E+00 -0.12868102748E+04  0.12868102748E+04  0.25500000920E-02 0.  1.
    10030    2    1    2    0    0  0.00000000000E+00  0.00000000000E+00  0.47347644148E+03  0.30470969911E+04  0.30100863995E+04 0.  0.
        3    1    3    3  502    0  0.79669742018E+03 -0.10702530933E+04 -0.46823426702E+03  0.14140055877E+04  0.10100000352E+00 0.  1.
       -3    1    3    3    0  502 -0.79669742018E+03  0.10702530933E+04  0.94171070850E+03  0.16330914034E+04  0.10100000352E+00 0. -1.
</event>
<event>
 5   0  0.5931588E-07  0.2910916E+04  0.7818609E-02  0.8269637E-01
        1   -1    0    0  501    0  0.00000000000E+00  0.00000000000E+00  0.20844637099E+04  0.20844637099E+04  0.50400001928E-02 0. -1.
       -1   -1    0    0    0  501  0.00000000000E+00  0.00000000000E+00 -0.10162600848E+04  0.10162600848E+04  0.50400001928E-02 0.  1.
    10030    2    1    2    0    0  0.00000000000E+00  0.00000000000E+00  0.10682036251E+04  0.31007237947E+04  0.29109155031E+04 0.  0.
        2    1    3    3  502    0 -0.81999908892E+03 -0.66201296624E+03 -0.53519579116E+03  0.11819873976E+04  0.25500000920E-02 0.  1.
       -2    1    3    3    0  502  0.81999908892E+03  0.66201296624E+03  0.16033994163E+04  0.19187363971E+04  0.25500000920E-02 0. -1.
</event>
<event>
 5   0  0.6291798E-07  0.2933858E+04  0.7818609E-02  0.8262874E-01
        1   -1    0    0  501    0  0.00000000000E+00  0.00000000000E+00  0.16174176909E+04  0.16174176909E+04  0.50400001928E-02 0. -1.
       -1   -1    0    0    0  501  0.00000000000E+00  0.00000000000E+00 -0.13304424800E+04  0.13304424800E+04  0.50400001928E-02 0.  1.
    10030    2    1    2    0    0  0.00000000000E+00  0.00000000000E+00  0.28697521089E+03  0.29478601710E+04  0.29338583497E+04 0.  0.
        1    1    3    3  502    0  0.71240781857E+03 -0.43683312321E+03  0.13548670626E+04  0.15918582961E+04  0.50400001928E-02 0. -1.
       -1    1    3    3    0  502 -0.71240781857E+03  0.43683312321E+03 -0.10678918518E+04  0.13560018748E+04  0.50400001928E-02 0.  1.
</event>
<event>
 5   0  0.1723916E-06  0.3004498E+04  0.7818609E-02  0.8242448E-01
        2   -1    0    0  501    0  0.00000000000E+00  0.00000000000E+00  0.11458859502E+04  0.11458859502E+04  0.25500000920E-02 0. -1.
       -2   -1    0    0    0  501  0.00000000000E+00  0.00000000000E+00 -0.19694386903E+04  0.19694386903E+04  0.25500000920E-02 0.  1.
    10030    2    1    2    0    0  0.00000000000E+00  0.00000000000E+00 -0.82355274015E+03  0.31153246405E+04  0.30044980446E+04 0.  0.
        1    1    3    3  502    0  0.66079039095E+03  0.81425779926E+03 -0.15271372521E+04  0.18525139382E+04  0.50400001928E-02 0.  1.
       -1    1    3    3    0  502 -0.66079039095E+03 -0.81425779926E+03  0.70358451195E+03  0.12628107023E+04  0.50400001928E-02 0. -1.
</event>
<event>
 5   0  0.5916703E-07  0.3069441E+04  0.7818609E-02  0.8224175E-01
       -1   -1    0    0    0  501  0.00000000000E+00  0.00000000000E+00  0.13929642684E+04  0.13929642685E+04  0.50400001928E-02 0. -1.
        1   -1    0    0  501    0  0.00000000000E+00  0.00000000000E+00 -0.16909032264E+04  0.16909032264E+04  0.50400001928E-02 0.  1.
    10030    2    1    2    0    0  0.00000000000E+00  0.00000000000E+00 -0.29793895799E+03  0.30838674949E+04  0.30694414970E+04 0.  0.
        5    1    3    3  502    0 -0.50256412026E+03  0.14353665737E+04 -0.35608827978E+03  0.15619439326E+04  0.46999998093E+01 0. -1.
       -5    1    3    3    0  502  0.50256412026E+03 -0.14353665737E+04  0.58149321787E+02  0.15219235623E+04  0.46999998093E+01 0.  1.
</event>
<event>
 5   0  0.5916703E-07  0.3017852E+04  0.7818609E-02  0.8238651E-01
       -1   -1    0    0    0  501  0.00000000000E+00  0.00000000000E+00  0.90723913796E+03  0.90723913798E+03  0.50400001928E-02 0.  1.
        1   -1    0    0  501    0  0.00000000000E+00  0.00000000000E+00 -0.25096552304E+04  0.25096552304E+04  0.50400001928E-02 0. -1.
    10030    2    1    2    0    0  0.00000000000E+00  0.00000000000E+00 -0.16024160924E+04  0.34168943683E+04  0.30178518504E+04 0.  0.
        5    1    3    3  502    0  0.13692487198E+04  0.60297556818E+03 -0.57929794217E+03  0.16043783183E+04  0.46999998093E+01 0.  1.
       -5    1    3    3    0  502 -0.13692487198E+04 -0.60297556818E+03 -0.10231181502E+04  0.18125160501E+04  0.46999998093E+01 0. -1.
</event>
<event>
 5   0  0.1674806E-06  0.2994785E+04  0.7818609E-02  0.8245222E-01
        2   -1    0    0  501    0  0.00000000000E+00  0.00000000000E+00  0.14821679612E+04  0.14821679612E+04  0.25500000920E-02 0. -1.
       -2   -1    0    0    0  501  0.00000000000E+00  0.00000000000E+00 -0.15127729958E+04  0.15127729958E+04  0.25500000920E-02 0.  1.
    10030    2    1    2    0    0  0.00000000000E+00  0.00000000000E+00 -0.30605034613E+02  0.29949409570E+04  0.29947845779E+04 0.  0.
        2    1    3    3  502    0 -0.57829219413E+03  0.26884191977E+03 -0.13701742899E+04  0.15113157924E+04  0.25500000920E-02 0.  1.
       -2    1    3    3    0  502  0.57829219413E+03 -0.26884191977E+03  0.13395692552E+04  0.14836251647E+04  0.25500000920E-02 0. -1.
</event>
<event>
 5   0  0.1674806E-06  0.3013454E+04  0.7818609E-02  0.8239899E-01
        2   -1    0    0  501    0  0.00000000000E+00  0.00000000000E+00  0.73784349591E+03  0.73784349592E+03  0.25500000920E-02 0.  1.
       -2   -1    0    0    0  501  0.00000000000E+00  0.00000000000E+00 -0.30768393421E+04  0.30768393421E+04  0.25500000920E-02 0. -1.
    10030    2    1    2    0    0  0.00000000000E+00  0.00000000000E+00 -0.23389958462E+04  0.38146828380E+04  0.30134537637E+04 0.  0.
        2    1    3    3  502    0 -0.10454883769E+04 -0.90513346370E+03 -0.41217193535E+03  0.14429824107E+04  0.25500000920E-02 0.  1.
       -2    1    3    3    0  502  0.10454883769E+04  0.90513346370E+03 -0.19268239108E+04  0.23717004273E+04  0.25500000920E-02 0. -1.
</event>
<event>
 5   0  0.5887179E-07  0.2987381E+04  0.7818609E-02  0.8247343E-01
       -1   -1    0    0    0  501  0.00000000000E+00  0.00000000000E+00  0.15739339288E+04  0.15739339288E+04  0.50400001928E-02 0.  1.
        1   -1    0    0  501    0  0.00000000000E+00  0.00000000000E+00 -0.14175382679E+04  0.14175382679E+04  0.50400001928E-02 0. -1.
    10030    2    1    2    0    0  0.00000000000E+00  0.00000000000E+00  0.15639566086E+03  0.29914721967E+04  0.29873811777E+04 0.  0.
        3    1    3    3  502    0 -0.12677082281E+04 -0.67342200877E+03 -0.33532071898E+03  0.14741171420E+04  0.10100000352E+00 0. -1.
       -3    1    3    3    0  502  0.12677082281E+04  0.67342200877E+03  0.49171637984E+03  0.15173550547E+04  0.10100000352E+00 0.  1.
</event>
<event>
 5   0  0.1560174E-06  0.3013998E+04  0.7818609E-02  0.8239745E-01
        2   -1    0    0  501    0  0.00000000000E+00  0.00000000000E+00  0.22805407919E+04  0.22805407919E+04  0.25500000920E-02 0.  1.
       -2   -1    0    0    0  501  0.00000000000E+00  0.00000000000E+00 -0.99583683803E+03  0.99583683803E+03  0.25500000920E-02 0. -1.
    10030    2    1    2    0    0  0.00000000000E+00  0.00000000000E+00  0.12847039539E+04  0.32763776299E+04  0.30139983618E+04 0.  0.
        5    1    3    3  502    0  0.96311058275E+03 -0.45070921368E+03 -0.51845817501E+03  0.11830222987E+04  0.46999998093E+01 0. -1.
       -5    1    3    3    0  502 -0.96311058275E+03  0.45070921368E+03  0.18031621289E+04  0.20933553313E+04  0.46999998093E+01 0.  1.
</event>
<event>
 5   0  0.5874741E-07  0.2997367E+04  0.7818609E-02  0.8244483E-01
        1   -1    0    0  501    0  0.00000000000E+00  0.00000000000E+00  0.13345977670E+04  0.13345977671E+04  0.50400001928E-02 0. -1.
       -1   -1    0    0    0  501  0.00000000000E+00  0.00000000000E+00 -0.16829426794E+04  0.16829426794E+04  0.50400001928E-02 0.  1.
    10030    2    1    2    0    0  0.00000000000E+00  0.00000000000E+00 -0.34834491237E+03  0.30175404465E+04  0.29973665388E+04 0.  0.
        4    1    3    3  502    0 -0.59320024959E+03 -0.12865264724E+04  0.31800762430E+03  0.14519529477E+04  0.12699999809E+01 0. -1.
       -4    1    3    3    0  502  0.59320024959E+03  0.12865264724E+04 -0.66635253667E+03  0.15655874988E+04  0.12699999809E+01 0.  1.
</event>
<event>
 5   0  0.1674806E-06  0.2925562E+04  0.7818609E-02  0.8265312E-01
       -2   -1    0    0    0  501  0.00000000000E+00  0.00000000000E+00  0.12196334000E+04  0.12196334000E+04  0.25500000920E-02 0.  1.
        2   -1    0    0  501    0  0.00000000000E+00  0.00000000000E+00 -0.17544026719E+04  0.17544026719E+04  0.25500000920E-02 0. -1.
    10030    2    1    2    0    0  0.00000000000E+00  0.00000000000E+00 -0.53476927197E+03  0.29740360719E+04  0.29255618918E+04 0.  0.
        2    1    3    3  502    0  0.14398753011E+04  0.23369894633E+03 -0.15662049840E+03  0.14671012442E+04  0.25500000920E-02 0. -1.
       -2    1    3    3    0  502 -0.14398753011E+04 -0.23369894633E+03 -0.37814877358E+03  0.15069348277E+04  0.25500000920E-02 0.  1.
</event>
<event>
 5   0  0.5916703E-07  0.2995553E+04  0.7818609E-02  0.8245002E-01
       -1   -1    0    0    0  501  0.00000000000E+00  0.00000000000E+00  0.10830715317E+04  0.10830715317E+04  0.50400001928E-02 0.  1.
        1   -1    0    0  501    0  0.00000000000E+00  0.00000000000E+00 -0.20712711768E+04  0.20712711768E+04  0.50400001928E-02 0. -1.
    10030    2    1    2    0    0  0.00000000000E+00  0.00000000000E+00 -0.98819964513E+03  0.31543427085E+04  0.29955532684E+04 0.  0.
        5    1    3    3  502    0 -0.50568495935E+03 -0.39433319255E+03 -0.19193990138E+04  0.20236923208E+04  0.46999998093E+01 0. -1.
       -5    1    3    3    0  502  0.50568495935E+03  0.39433319255E+03  0.93119936871E+03  0.11306503877E+04  0.46999998093E+01 0.  1.
</event>
<event>
 5   0  0.5916703E-07  0.2974082E+04  0.7818609E-02  0.8251171E-01
        1   -1    0    0  501    0  0.00000000000E+00  0.00000000000E+00  0.16612290660E+04  0.16612290660E+04  0.50400001928E-02 0.  1.
       -1   -1    0    0    0  501  0.00000000000E+00  0.00000000000E+00 -0.13311170878E+04  0.13311170878E+04  0.50400001928E-02 0. -1.
    10030    2    1    2    0    0  0.00000000000E+00  0.00000000000E+00  0.33011197813E+03  0.29923461538E+04  0.29740816375E+04 0.  0.
        5    1    3    3  502    0 -0.86130117894E+02  0.86808668190E+03  0.13767255256E+04  0.16298429824E+04  0.46999998093E+01 0.  1.
       -5    1    3    3    0  502  0.86130117894E+02 -0.86808668190E+03 -0.10466135474E+04  0.13625031714E+04  0.46999998093E+01 0. -1.
</event>
<event>
 5   0  0.5931588E-07  0.3000582E+04  0.7818609E-02  0.8243565E-01
        1   -1    0    0  501    0  0.00000000000E+00  0.00000000000E+00  0.15713773633E+04  0.15713773633E+04  0.50400001928E-02 0. -1.
       -1   -1    0    0    0  501  0.00000000000E+00  0.00000000000E+00 -0.14324200062E+04  0.14324200062E+04  0.50400001928E-02 0.  1.
    10030    2    1    2    0    0  0.00000000000E+00  0.00000000000E+00  0.13895735709E+03  0.30037973695E+04  0.30005815253E+04 0.  0.
        2    1    3    3  502    0  0.64653789568E+03  0.10033895481E+04 -0.84037963561E+03  0.14598081270E+04  0.25500000920E-02 0.  1.
       -2    1    3    3    0  502 -0.64653789568E+03 -0.10033895481E+04  0.97933699269E+03  0.15439892425E+04  0.25500000920E-02 0. -1.
</event>
<event>
 5   0  0.5916703E-07  0.3003176E+04  0.7818609E-02  0.8242825E-01
       -1   -1    0    0    0  501  0.00000000000E+00  0.00000000000E+00  0.21736230252E+04  0.21736230252E+04  0.50400001928E-02 0.  1.
        1   -1    0    0  501    0  0.00000000000E+00  0.00000000000E+00 -0.10373308559E+04  0.10373308559E+04  0.50400001928E-02 0. -1.
    10030    2    1    2    0    0  0.00000000000E+00  0.00000000000E+00  0.11362921693E+04  0.32109538811E+04  0.30031758078E+04 0.  0.
        5    1    3    3  502    0 -0.24155254131E+03 -0.11840562957E+04  0.15211065795E+04  0.19427105441E+04  0.46999998093E+01 0.  1.
       -5    1    3    3    0  502  0.24155254131E+03  0.11840562957E+04 -0.38481441028E+03  0.12682433371E+04  0.46999998093E+01 0. -1.
</event>
<event>
 5   0  0.1674806E-06  0.2993805E+04  0.7818609E-02  0.8245502E-01
       -2   -1    0    0    0  501  0.00000000000E+00  0.00000000000E+00  0.12399458444E+04  0.12399458444E+04  0.25500000920E-02 0.  1.
        2   -1    0    0  501    0  0.00000000000E+00  0.00000000000E+00 -0.18071088592E+04  0.18071088592E+04  0.25500000920E-02 0. -1.
    10030    2    1    2    0    0  0.00000000000E+00  0.00000000000E+00 -0.56716301483E+03  0.30470547036E+04  0.29938050173E+04 0.  0.
        2    1    3    3  502    0 -0.44916733999E+03 -0.18557716747E+03 -0.17245772162E+04  0.17917468457E+04  0.25500000920E-02 0. -1.
       -2    1    3    3    0  502  0.44916733999E+03  0.18557716747E+03  0.11574142014E+04  0.12553078579E+04  0.25500000920E-02 0.  1.
</event>
<event>
 5   0  0.1674806E-06  0.3002185E+04  0.7818609E-02  0.8243107E-01
       -2   -1    0    0    0  501  0.00000000000E+00  0.00000000000E+00  0.15438685584E+04  0.15438685584E+04  0.25500000920E-02 0. -1.
        2   -1    0    0  501    0  0.00000000000E+00  0.00000000000E+00 -0.14595017559E+04  0.14595017559E+04  0.25500000920E-02 0.  1.
    10030    2    1    2    0    0  0.00000000000E+00  0.00000000000E+00  0.84366802499E+02  0.30033703144E+04  0.30021851189E+04 0.  0.
        2    1    3    3  502    0  0.41043216257E+02 -0.10324931953E+04  0.11314438713E+04  0.15322832564E+04  0.25500000920E-02 0. -1.
       -2    1    3    3    0  502 -0.41043216257E+02  0.10324931953E+04 -0.10470770688E+04  0.14710870579E+04  0.25500000920E-02 0.  1.
</event>
<event>
 5   0  0.5874741E-07  0.3014035E+04  0.7818609E-02  0.8239734E-01
       -1   -1    0    0    0  501  0.00000000000E+00  0.00000000000E+00  0.16594365965E+04  0.16594365965E+04  0.50400001928E-02 0.  1.
        1   -1    0    0  501    0  0.00000000000E+00  0.00000000000E+00 -0.13685981588E+04  0.13685981588E+04  0.50400001928E-02 0. -1.
    10030    2    1    2    0    0  0.00000000000E+00  0.00000000000E+00  0.29083843768E+03  0.30280347553E+04  0.30140350831E+04 0.  0.
        4    1    3    3  502    0 -0.51607765431E+03 -0.10477656326E+04 -0.81134413883E+03  0.14221216160E+04  0.12699999809E+01 0. -1.
       -4    1    3    3    0  502  0.51607765431E+03  0.10477656326E+04  0.11021825765E+04  0.16059131393E+04  0.12699999809E+01 0.  1.
</event>
<event>
 5   0  0.1625212E-06  0.3013840E+04  0.7818609E-02  0.8239790E-01
        2   -1    0    0  501    0  0.00000000000E+00  0.00000000000E+00  0.18060399313E+04  0.18060399313E+04  0.25500000920E-02 0. -1.
       -2   -1    0    0    0  501  0.00000000000E+00  0.00000000000E+00 -0.12573411775E+04  0.12573411775E+04  0.25500000920E-02 0.  1.
    10030    2    1    2    0    0  0.00000000000E+00  0.00000000000E+00  0.54869875379E+03  0.30633811088E+04  0.30138403234E+04 0.  0.
        4    1    3    3  502    0 -0.27842732244E+01 -0.11755022434E+04  0.12327124680E+04  0.17033481494E+04  0.12699999809E+01 0. -1.
       -4    1    3    3    0  502  0.27842732244E+01  0.11755022434E+04 -0.68401371416E+03  0.13600329594E+04  0.12699999809E+01 0.  1.
</event>
<event>
 5   0  0.5431625E-07  0.3015587E+04  0.7818609E-02  0.8239294E-01
       -3   -1    0    0    0  501  0.00000000000E+00  0.00000000000E+00  0.15165618579E+04  0.15165618612E+04  0.10100000352E+00 0.  1.
        3   -1    0    0  501    0  0.00000000000E+00  0.00000000000E+00 -0.14990753353E+04  0.14990753387E+04  0.10100000352E+00 0. -1.
    10030    2    1    2    0    0  0.00000000000E+00  0.00000000000E+00  0.17486522579E+02  0.30156371999E+04  0.30155865007E+04 0.  0.
        1    1    3    3  502    0  0.14221346734E+04 -0.19172810078E+03  0.47158340085E+03  0.15105024323E+04  0.50400001928E-02 0.  1.
       -1    1    3    3    0  502 -0.14221346734E+04  0.19172810078E+03 -0.45409687827E+03  0.15051347677E+04  0.50400001928E-02 0. -1.
</event>
<event>
 5   0  0.5916703E-07  0.3004347E+04  0.7818609E-02  0.8242491E-01
        1   -1    0    0  501    0  0.00000000000E+00  0.00000000000E+00  0.12616090528E+04  0.12616090528E+04  0.50400001928E-02 0. -1.
       -1   -1    0    0    0  501  0.00000000000E+00  0.00000000000E+00 -0.17886085599E+04  0.17886085599E+04  0.50400001928E-02 0.  1.
    10030    2    1    2    0    0  0.00000000000E+00  0.00000000000E+00 -0.52699950710E+03  0.30502176127E+04  0.30043466851E+04 0.  0.
        5    1    3    3  502    0 -0.10815900899E+04  0.58641308202E+03  0.61150902350E+03  0.13739296930E+04  0.46999998093E+01 0. -1.
       -5    1    3    3    0  502  0.10815900899E+04 -0.58641308202E+03 -0.11385085306E+04  0.16762879197E+04  0.46999998093E+01 0.  1.
</event>
<event>
 5   0  0.5887179E-07  0.2997924E+04  0.7818609E-02  0.8244324E-01
       -1   -1    0    0    0  501  0.00000000000E+00  0.00000000000E+00  0.13154613605E+04  0.13154613605E+04  0.50400001928E-02 0.  1.
        1   -1    0    0  501    0  0.00000000000E+00  0.00000000000E+00 -0.17080596940E+04  0.17080596940E+04  0.50400001928E-02 0. -1.
    10030    2    1    2    0    0  0.00000000000E+00  0.00000000000E+00 -0.39259833348E+03  0.30235210545E+04  0.29979236340E+04 0.  0.
        3    1    3    3  502    0 -0.10190939658E+04  0.76379926913E+03 -0.99358348197E+03  0.16152863463E+04  0.10100000352E+00 0. -1.
       -3    1    3    3    0  502  0.10190939658E+04 -0.76379926913E+03  0.60098514849E+03  0.14082347082E+04  0.10100000352E+00 0.  1.
</event>
<event>
 5   0  0.1674806E-06  0.2899764E+04  0.7818609E-02  0.8272948E-01
        2   -1    0    0  501    0  0.00000000000E+00  0.00000000000E+00  0.28584934621E+04  0.28584934621E+04  0.25500000920E-02 0.  1.
       -2   -1    0    0    0  501  0.00000000000E+00  0.00000000000E+00 -0.73540782180E+03  0.73540782181E+03  0.25500000920E-02 0. -1.
    10030    2    1    2    0    0  0.00000000000E+00  0.00000000000E+00  0.21230856403E+04  0.35939012840E+04  0.28997644392E+04 0.  0.
        2    1    3    3  502    0  0.12679226534E+04 -0.44412158848E+03  0.38578497126E+03  0.13977488632E+04  0.25500000920E-02 0. -1.
       -2    1    3    3    0  502 -0.12679226534E+04  0.44412158848E+03  0.17373006691E+04  0.21961524208E+04  0.25500000920E-02 0.  1.
</event>
<event>
 5   0  0.6291798E-07  0.2881624E+04  0.7818609E-02  0.8278366E-01
       -1   -1    0    0    0  501  0.00000000000E+00  0.00000000000E+00  0.11240517546E+04  0.11240517547E+04  0.50400001928E-02 0. -1.
        1   -1    0    0  501    0  0.00000000000E+00  0.00000000000E+00 -0.18468357909E+04  0.18468357909E+04  0.50400001928E-02 0.  1.
    10030    2    1    2    0    0  0.00000000000E+00  0.00000000000E+00 -0.72278403626E+03  0.29708875456E+04  0.28816238556E+04 0.  0.
        1    1    3    3  502    0  0.39506997936E+03  0.75709279990E+03 -0.15578002388E+04  0.17765166422E+04  0.50400001928E-02 0.  1.
       -1    1    3    3    0  502 -0.39506997936E+03 -0.75709279990E+03  0.83501620250E+03  0.11943709033E+04  0.50400001928E-02 0. -1.
</event>
<event>
 5   0  0.1674806E-06  0.3007872E+04  0.7818609E-02  0.8241486E-01
        2   -1    0    0  501    0  0.00000000000E+00  0.00000000000E+00  0.27003256729E+04  0.27003256729E+04  0.25500000920E-02 0. -1.
       -2   -1    0    0    0  501  0.00000000000E+00  0.00000000000E+00 -0.83761159304E+03  0.83761159304E+03  0.25500000920E-02 0.  1.
    10030    2    1    2    0    0  0.00000000000E+00  0.00000000000E+00  0.18627140798E+04  0.35379372659E+04  0.30078723966E+04 0.  0.
        2    1    3    3  502    0 -0.95966567973E+03 -0.10010766278E+04  0.24680627019E+03  0.14085545664E+04  0.25500000920E-02 0. -1.
       -2    1    3    3    0  502  0.95966567973E+03  0.10010766278E+04  0.16159078096E+04  0.21293826995E+04  0.25500000920E-02 0.  1.
</event>
<event>
 5   0  0.1674806E-06  0.2998544E+04  0.7818609E-02  0.8244147E-01
       -2   -1    0    0    0  501  0.00000000000E+00  0.00000000000E+00  0.11288481866E+04  0.11288481866E+04  0.25500000920E-02 0.  1.
        2   -1    0    0  501    0  0.00000000000E+00  0.00000000000E+00 -0.19912481548E+04  0.19912481548E+04  0.25500000920E-02 0. -1.
    10030    2    1    2    0    0  0.00000000000E+00  0.00000000000E+00 -0.86239996818E+03  0.31200963414E+04  0.29985442259E+04 0.  0.
        2    1    3    3  502    0  0.56643454628E+03  0.10894298622E+04  0.46397116653E+03  0.13126213328E+04  0.25500000920E-02 0.  1.
       -2    1    3    3    0  502 -0.56643454628E+03 -0.10894298622E+04 -0.13263711347E+04  0.18074750087E+04  0.25500000920E-02 0. -1.
</event>
<event>
 5   0  0.5887179E-07  0.3002128E+04  0.7818609E-02  0.8243123E-01
        1   -1    0    0  501    0  0.00000000000E+00  0.00000000000E+00  0.11446671252E+04  0.11446671252E+04  0.50400001928E-02 0. -1.
       -1   -1    0    0    0  501  0.00000000000E+00  0.00000000000E+00 -0.19684266805E+04  0.19684266806E+04  0.50400001928E-02 0.  1.
    10030    2    1    2    0    0  0.00000000000E+00  0.00000000000E+00 -0.82375955532E+03  0.31130938058E+04  0.30021281183E+04 0.  0.
        3    1    3    3  502    0 -0.12580474511E+04 -0.87395340572E+02 -0.12561428831E+04  0.17799483947E+04  0.10100000352E+00 0.  1.
       -3    1    3    3    0  502  0.12580474511E+04  0.87395340572E+02  0.43238332780E+03  0.13331454111E+04  0.10100000352E+00 0. -1.
</event>
<event>
 5   0  0.6291798E-07  0.3002002E+04  0.7818609E-02  0.8243159E-01
        1   -1    0    0  501    0  0.00000000000E+00  0.00000000000E+00  0.11500251100E+04  0.11500251100E+04  0.50400001928E-02 0. -1.
       -1   -1    0    0    0  501  0.00000000000E+00  0.00000000000E+00 -0.19590909682E+04  0.19590909682E+04  0.50400001928E-02 0.  1.
    10030    2    1    2    0    0  0.00000000000E+00  0.00000000000E+00 -0.80906585815E+03  0.31091160782E+04  0.30020018696E+04 0.  0.
        1    1    3    3  502    0  0.40768656760E+03 -0.59216751968E+03  0.96010515247E+03  0.11994467944E+04  0.50400001928E-02 0. -1.
       -1    1    3    3    0  502 -0.40768656760E+03  0.59216751968E+03 -0.17691710106E+04  0.19096692838E+04  0.50400001928E-02 0.  1.
</event>
<event>
 5   0  0.5887179E-07  0.2840574E+04  0.7818609E-02  0.8290781E-01
       -1   -1    0    0    0  501  0.00000000000E+00  0.00000000000E+00  0.13801813192E+04  0.13801813192E+04  0.50400001928E-02 0.  1.
        1   -1    0    0  501    0  0.00000000000E+00  0.00000000000E+00 -0.14615585943E+04  0.14615585943E+04  0.50400001928E-02 0. -1.
    10030    2    1    2    0    0  0.00000000000E+00  0.00000000000E+00 -0.81377275120E+02  0.28417399135E+04  0.28405744974E+04 0.  0.
        3    1    3    3  502    0 -0.65656222755E+03 -0.47903922698E+03 -0.12059254190E+04  0.14542381738E+04  0.10100000352E+00 0. -1.
       -3    1    3    3    0  502  0.65656222755E+03  0.47903922698E+03  0.11245481439E+04  0.13875017397E+04  0.10100000352E+00 0.  1.
</event>
<event>
 5   0  0.5431625E-07  0.3078963E+04  0.7818609E-02  0.8221535E-01
        3   -1    0    0  501    0  0.00000000000E+00  0.00000000000E+00  0.18728918239E+04  0.18728918266E+04  0.10100000352E+00 0. -1.
       -3   -1    0    0    0  501  0.00000000000E+00  0.00000000000E+00 -0.12654247790E+04  0.12654247830E+04  0.10100000352E+00 0.  1.
    10030    2    1    2    0    0  0.00000000000E+00  0.00000000000E+00  0.60746704490E+03  0.31383166097E+04  0.30789632885E+04 0.  0.
        4    1    3    3  502    0  0.97585049750E+03  0.33364485303E+03 -0.86127786581E+03  0.13436533245E+04  0.12699999809E+01 0.  1.
       -4    1    3    3    0  502 -0.97585049750E+03 -0.33364485303E+03  0.14687449107E+04  0.17946632852E+04  0.12699999809E+01 0. -1.
</event>
<event>
 5   0  0.5874741E-07  0.3011219E+04  0.7818609E-02  0.8240535E-01
       -1   -1    0    0    0  501  0.00000000000E+00  0.00000000000E+00  0.13962049046E+04  0.13962049046E+04  0.50400001928E-02 0.  1.
        1   -1    0    0  501    0  0.00000000000E+00  0.00000000000E+00 -0.16235866509E+04  0.16235866509E+04  0.50400001928E-02 0. -1.
    10030    2    1    2    0    0  0.00000000000E+00  0.00000000000E+00 -0.22738174633E+03  0.30197915556E+04  0.30112187865E+04 0.  0.
        4    1    3    3  502    0  0.77294652193E+03 -0.14965041886E+03  0.11733241744E+04  0.14129871920E+04  0.12699999809E+01 0.  1.
       -4    1    3    3    0  502 -0.77294652193E+03  0.14965041886E+03 -0.14007059207E+04  0.16068043636E+04  0.12699999809E+01 0. -1.
</event>
<event>
 5   0  0.5874741E-07  0.2994065E+04  0.7818609E-02  0.8245428E-01
        1   -1    0    0  501    0  0.00000000000E+00  0.00000000000E+00  0.19819540025E+04  0.19819540025E+04  0.50400001928E-02 0.  1.
       -1   -1    0    0    0  501  0.00000000000E+00  0.00000000000E+00 -0.11307556856E+04  0.11307556857E+04  0.50400001928E-02 0. -1.
    10030    2    1    2    0    0  0.00000000000E+00  0.00000000000E+00  0.85119831683E+03  0.31127096881E+04  0.29940646333E+04 0.  0.
        4    1    3    3  502    0 -0.45277554028E+03  0.87178689594E+03 -0.74880459001E+03  0.12352036305E+04  0.12699999809E+01 0. -1.
       -4    1    3    3    0  502  0.45277554028E+03 -0.87178689594E+03  0.16000029068E+04  0.18775060577E+04  0.12699999809E+01 0.  1.
</event>
<event>
 5   0  0.1723916E-06  0.3004201E+04  0.7818609E-02  0.8242532E-01
        2   -1    0    0  501    0  0.00000000000E+00  0.00000000000E+00  0.10707955321E+04  0.10707955321E+04  0.25500000920E-02 0. -1.
       -2   -1    0    0    0  501  0.00000000000E+00  0.00000000000E+00 -0.21071304739E+04  0.21071304739E+04  0.25500000920E-02 0.  1.
    10030    2    1    2    0    0  0.00000000000E+00  0.00000000000E+00 -0.10363349419E+04  0.31779260060E+04  0.30042009899E+04 0.  0.
        1    1    3    3  502    0  0.46546090389E+02  0.39134494729E+03 -0.20514656954E+04  0.20889779572E+04  0.50400001928E-02 0.  1.
       -1    1    3    3    0  502 -0.46546090389E+02 -0.39134494729E+03  0.10151307535E+04  0.10889480488E+04  0.50400001928E-02 0. -1.
</event>
<event>
 5   0  0.1635086E-06  0.3013355E+04  0.7818609E-02  0.8239928E-01
        2   -1    0    0  501    0  0.00000000000E+00  0.00000000000E+00  0.81087780871E+03  0.81087780871E+03  0.25500000920E-02 0. -1.
       -2   -1    0    0    0  501  0.00000000000E+00  0.00000000000E+00 -0.27995305840E+04  0.27995305840E+04  0.25500000920E-02 0.  1.
    10030    2    1    2    0    0  0.00000000000E+00  0.00000000000E+00 -0.19886527753E+04  0.36104083927E+04  0.30133550905E+04 0.  0.
        3    1    3    3  502    0  0.72939396703E+03  0.14376059017E+03 -0.25644760807E+04  0.26700599703E+04  0.10100000352E+00 0.  1.
       -3    1    3    3    0  502 -0.72939396703E+03 -0.14376059017E+03  0.57582330535E+03  0.94034842245E+03  0.10100000352E+00 0. -1.
</event>
<event>
 5   0  0.5916703E-07  0.2981822E+04  0.7818609E-02  0.8248941E-01
       -1   -1    0    0    0  501  0.00000000000E+00  0.00000000000E+00  0.96791499653E+03  0.96791499654E+03  0.50400001928E-02 0. -1.
        1   -1    0    0  501    0  0.00000000000E+00  0.00000000000E+00 -0.22964991753E+04  0.22964991753E+04  0.50400001928E-02 0.  1.
    10030    2    1    2    0    0  0.00000000000E+00  0.00000000000E+00 -0.13285841788E+04  0.32644141718E+04  0.29818222558E+04 0.  0.
        5    1    3    3  502    0 -0.41761607677E+03  0.42336052660E+03 -0.21610320177E+04  0.22413653863E+04  0.46999998093E+01 0.  1.
       -5    1    3    3    0  502  0.41761607677E+03 -0.42336052660E+03  0.83244783897E+03  0.10230487856E+04  0.46999998093E+01 0. -1.
</event>
<event>
 5   0  0.1674806E-06  0.2998598E+04  0.7818609E-02  0.8244131E-01
        2   -1    0    0  501    0  0.00000000000E+00  0.00000000000E+00  0.14238154571E+04  0.14238154571E+04  0.25500000920E-02 0. -1.
       -2   -1    0    0    0  501  0.00000000000E+00  0.00000000000E+00 -0.15787844413E+04  0.15787844413E+04  0.25500000920E-02 0.  1.
    10030    2    1    2    0    0  0.00000000000E+00  0.00000000000E+00 -0.15496898422E+03  0.30025998984E+04  0.29985981331E+04 0.  0.
        2    1    3    3  502    0  0.10282344310E+04 -0.70999529955E+03  0.75219736034E+03  0.14584787415E+04  0.25500000920E-02 0. -1.
       -2    1    3    3    0  502 -0.10282344310E+04  0.70999529955E+03 -0.90716634457E+03  0.15441211569E+04  0.25500000920E-02 0.  1.
</event>
<event>
 5   0  0.1625212E-06  0.2993534E+04  0.7818609E-02  0.8245580E-01
       -2   -1    0    0    0  501  0.00000000000E+00  0.00000000000E+00  0.12865551198E+04  0.12865551198E+04  0.25500000920E-02 0. -1.
        2   -1    0    0  501    0  0.00000000000E+00  0.00000000000E+00 -0.17413252731E+04  0.17413252731E+04  0.25500000920E-02 0.  1.
    10030    2    1    2    0    0  0.00000000000E+00  0.00000000000E+00 -0.45477015337E+03  0.30278803929E+04  0.29935336613E+04 0.  0.
        4    1    3    3  502    0  0.13586165746E+04  0.59516459661E+03 -0.24460577355E+02  0.14834621082E+04  0.12699999809E+01 0. -1.
       -4    1    3    3    0  502 -0.13586165746E+04 -0.59516459661E+03 -0.43030957601E+03  0.15444182846E+04  0.12699999809E+01 0.  1.
</event>
<event>
 5   0  0.5874741E-07  0.3002808E+04  0.7818609E-02  0.8242930E-01
        1   -1    0    0  501    0  0.00000000000E+00  0.00000000000E+00  0.23009144321E+04  0.23009144321E+04  0.50400001928E-02 0.  1.
       -1   -1    0    0    0  501  0.00000000000E+00  0.00000000000E+00 -0.97970326277E+03  0.97970326278E+03  0.50400001928E-02 0. -1.
    10030    2    1    2    0    0  0.00000000000E+00  0.00000000000E+00  0.13212111694E+04  0.32806176949E+04  0.30028076039E+04 0.  0.
        4    1    3    3  502    0  0.19760315176E+03 -0.43978742022E+02  0.22859352119E+04  0.22948818142E+04  0.12699999809E+01 0.  1.
       -4    1    3    3    0  502 -0.19760315176E+03  0.43978742022E+02 -0.96472404254E+03  0.98573588070E+03  0.12699999809E+01 0. -1.
</event>
<event>
 5   0  0.1560174E-06  0.3033826E+04  0.7818609E-02  0.8234137E-01
       -2   -1    0    0    0  501  0.00000000000E+00  0.00000000000E+00  0.10829920526E+04  0.10829920526E+04  0.25500000920E-02 0.  1.
        2   -1    0    0  501    0  0.00000000000E+00  0.00000000000E+00 -0.21246930208E+04  0.21246930208E+04  0.25500000920E-02 0. -1.
    10030    2    1    2    0    0  0.00000000000E+00  0.00000000000E+00 -0.10417009682E+04  0.32076850734E+04  0.30338263996E+04 0.  0.
        5    1    3    3  502    0 -0.26736243717E+03 -0.24120051875E+03 -0.20788425217E+04  0.21098029963E+04  0.46999998093E+01 0. -1.
       -5    1    3    3    0  502  0.26736243717E+03  0.24120051875E+03  0.10371415535E+04  0.10978820771E+04  0.46999998093E+01 0.  1.
</event>
<event>
 5   0  0.1635086E-06  0.3013630E+04  0.7818609E-02  0.8239849E-01
       -2   -1    0    0    0  501  0.00000000000E+00  0.00000000000E+00  0.67882911572E+03  0.67882911573E+03  0.25500000920E-02 0. -1.
        2   -1    0    0  501    0  0.00000000000E+00  0.00000000000E+00 -0.33447171220E+04  0.33447171220E+04  0.25500000920E-02 0.  1.
    10030    2    1    2    0    0  0.00000000000E+00  0.00000000000E+00 -0.26658880062E+04  0.40235462377E+04  0.30136299482E+04 0.  0.
        3    1    3    3  502    0  0.85578511596E+03  0.11453897472E+04 -0.69794846878E+03  0.15910430268E+04  0.10100000352E+00 0. -1.
       -3    1    3    3    0  502 -0.85578511596E+03 -0.11453897472E+04 -0.19679395375E+04  0.24325032109E+04  0.10100000352E+00 0.  1.
</event>
<event>
 5   0  0.5874741E-07  0.3044052E+04  0.7818609E-02  0.8231262E-01
        1   -1    0    0  501    0  0.00000000000E+00  0.00000000000E+00  0.16632833388E+04  0.16632833388E+04  0.50400001928E-02 0.  1.
       -1   -1    0    0    0  501  0.00000000000E+00  0.00000000000E+00 -0.13927655992E+04  0.13927655992E+04  0.50400001928E-02 0. -1.
    10030    2    1    2    0    0  0.00000000000E+00  0.00000000000E+00  0.27051773954E+03  0.30560489380E+04  0.30440524411E+04 0.  0.
        4    1    3    3  502    0 -0.98703225990E+03  0.82024500178E+03  0.95673024701E+03  0.16007401174E+04  0.12699999809E+01 0.  1.
       -4    1    3    3    0  502  0.98703225990E+03 -0.82024500178E+03 -0.68621250747E+03  0.14553088206E+04  0.12699999809E+01 0. -1.
</event>
<event>
 5   0  0.5887179E-07  0.3010492E+04  0.7818609E-02  0.8240741E-01
       -1   -1    0    0    0  501  0.00000000000E+00  0.00000000000E+00  0.23455408598E+04  0.23455408598E+04  0.50400001928E-02 0.  1.
        1   -1    0    0  501    0  0.00000000000E+00  0.00000000000E+00 -0.96598878707E+03  0.96598878708E+03  0.50400001928E-02 0. -1.
    10030    2    1    2    0    0  0.00000000000E+00  0.00000000000E+00  0.13795520728E+04  0.33115296469E+04  0.30104924316E+04 0.  0.
        3    1    3    3  502    0  0.57334067176E+03  0.13021735432E+04  0.12302208737E+04  0.18809090544E+04  0.10100000352E+00 0.  1.
       -3    1    3    3    0  502 -0.57334067176E+03 -0.13021735432E+04  0.14933119907E+03  0.14306205925E+04  0.10100000352E+00 0. -1.
</event>
<event>
 5   0  0.1625212E-06  0.3009963E+04  0.7818609E-02  0.8240892E-01
       -2   -1    0    0    0  501  0.00000000000E+00  0.00000000000E+00  0.10713767580E+04  0.10713767580E+04  0.25500000920E-02 0.  1.
        2   -1    0    0  501    0  0.00000000000E+00  0.00000000000E+00 -0.21140730823E+04  0.21140730823E+04  0.25500000920E-02 0. -1.
    10030    2    1    2    0    0  0.00000000000E+00  0.00000000000E+00 -0.10426963243E+04  0.31854498403E+04  0.30099626344E+04 0.  0.
        4    1    3    3  502    0 -0.79270292552E+03  0.95677229584E+03 -0.14200803553E+04  0.18869077833E+04  0.12699999809E+01 0. -1.
       -4    1    3    3    0  502  0.79270292552E+03 -0.95677229584E+03  0.37738403099E+03  0.12985420571E+04  0.12699999809E+01 0.  1.
</event>
<event>
 5   0  0.1635086E-06  0.2983155E+04  0.7818609E-02  0.8248558E-01
        2   -1    0    0  501    0  0.00000000000E+00  0.00000000000E+00  0.21337089489E+04  0.21337089489E+04  0.25500000920E-02 0. -1.
       -2   -1    0    0    0  501  0.00000000000E+00  0.00000000000E+00 -0.10426927545E+04  0.10426927545E+04  0.25500000920E-02 0.  1.
    10030    2    1    2    0    0  0.00000000000E+00  0.00000000000E+00  0.10910161944E+04  0.31764017034E+04  0.29831546129E+04 0.  0.
        3    1    3    3  502    0 -0.80293006223E+03 -0.75848374368E+03 -0.52182831119E+03  0.12215969347E+04  0.10100000352E+00 0.  1.
       -3    1    3    3    0  502  0.80293006223E+03  0.75848374368E+03  0.16128445056E+04  0.19548047687E+04  0.10100000352E+00 0. -1.
</event>
<event>
 5   0  0.1674806E-06  0.2995561E+04  0.7818609E-02  0.8245000E-01
        2   -1    0    0  501    0  0.00000000000E+00  0.00000000000E+00  0.20238330213E+04  0.20238330213E+04  0.25500000920E-02 0. -1.
       -2   -1    0    0    0  501  0.00000000000E+00  0.00000000000E+00 -0.11084640663E+04  0.11084640663E+04  0.25500000920E-02 0.  1.
    10030    2    1    2    0    0  0.00000000000E+00  0.00000000000E+00  0.91536895499E+03  0.31322970876E+04  0.29955608359E+04 0.  0.
        2    1    3    3  502    0  0.12465726625E+04  0.32826591649E+03  0.12551529602E+04  0.17991972845E+04  0.25500000920E-02 0. -1.
       -2    1    3    3    0  502 -0.12465726625E+04 -0.32826591649E+03 -0.33978400523E+03  0.13330998031E+04  0.25500000920E-02 0.  1.
</event>
<event>
 5   0  0.1674806E-06  0.2997515E+04  0.7818609E-02  0.8244441E-01
       -2   -1    0    0    0  501  0.00000000000E+00  0.00000000000E+00  0.87653298878E+03  0.87653298878E+03  0.25500000920E-02 0. -1.
        2   -1    0    0  501    0  0.00000000000E+00  0.00000000000E+00 -0.25626805709E+04  0.25626805709E+04  0.25500000920E-02 0.  1.
    10030    2    1    2    0    0  0.00000000000E+00  0.00000000000E+00 -0.16861475822E+04  0.34392135597E+04  0.29975150109E+04 0.  0.
        2    1    3    3  502    0  0.36293662883E+03 -0.35271699426E+03  0.77552714399E+03  0.92605325207E+03  0.25500000920E-02 0. -1.
       -2    1    3    3    0  502 -0.36293662883E+03  0.35271699426E+03 -0.24616747261E+04  0.25131603076E+04  0.25500000920E-02 0.  1.
</event>
<event>
 5   0  0.1625212E-06  0.3001704E+04  0.7818609E-02  0.8243244E-01
        2   -1    0    0  501    0  0.00000000000E+00  0.00000000000E+00  0.17528800704E+04  0.17528800705E+04  0.25500000920E-02 0.  1.
       -2   -1    0    0    0  501  0.00000000000E+00  0.00000000000E+00 -0.12850602996E+04  0.12850602996E+04  0.25500000920E-02 0. -1.
    10030    2    1    2    0    0  0.00000000000E+00  0.00000000000E+00  0.46781977084E+03  0.30379403701E+04  0.30017039085E+04 0.  0.
        4    1    3    3  502    0 -0.49683304206E+02 -0.13565278571E+04  0.88188789759E+03  0.16187538833E+04  0.12699999809E+01 0. -1.
       -4    1    3    3    0  502  0.49683304206E+02  0.13565278571E+04 -0.41406812676E+03  0.14191864868E+04  0.12699999809E+01 0.  1.
</event>
<event>
 5   0  0.1560174E-06  0.2994879E+04  0.7818609E-02  0.8245195E-01
        2   -1    0    0  501    0  0.00000000000E+00  0.00000000000E+00  0.22313687331E+04  0.22313687331E+04  0.25500000920E-02 0. -1.
       -2   -1    0    0    0  501  0.00000000000E+00  0.00000000000E+00 -0.10049104569E+04  0.10049104569E+04  0.25500000920E-02 0.  1.
    10030    2    1    2    0    0  0.00000000000E+00  0.00000000000E+00  0.12264582762E+04  0.32362791900E+04  0.29948794788E+04 0.  0.
        5    1    3    3  502    0 -0.56297312995E+03  0.12229362544E+04  0.13216571438E+04  0.18866137716E+04  0.46999998093E+01 0.  1.
       -5    1    3    3    0  502  0.56297312995E+03 -0.12229362544E+04 -0.95198867568E+02  0.13496654184E+04  0.46999998093E+01 0. -1.
</event>
<event>
 5   0  0.1560174E-06  0.2993988E+04  0.7818609E-02  0.8245450E-01
        2   -1    0    0  501    0  0.00000000000E+00  0.00000000000E+00  0.13316769128E+04  0.13316769128E+04  0.25500000920E-02 0.  1.
       -2   -1    0    0    0  501  0.00000000000E+00  0.00000000000E+00 -0.16828335908E+04  0.16828335908E+04  0.25500000920E-02 0. -1.
    10030    2    1    2    0    0  0.00000000000E+00  0.00000000000E+00 -0.35115667791E+03  0.30145105036E+04  0.29939877361E+04 0.  0.
        5    1    3    3  502    0  0.13036674220E+04 -0.16893692216E+03  0.54548716159E+03  0.14232592049E+04  0.46999998093E+01 0.  1.
       -5    1    3    3    0  502 -0.13036674220E+04  0.16893692216E+03 -0.89664383950E+03  0.15912512987E+04  0.46999998093E+01 0. -1.
</event>
<event>
 5   0  0.1635086E-06  0.2989878E+04  0.7818609E-02  0.8246627E-01
       -2   -1    0    0    0  501  0.00000000000E+00  0.00000000000E+00  0.12172091630E+04  0.12172091630E+04  0.25500000920E-02 0.  1.
        2   -1    0    0  501    0  0.00000000000E+00  0.00000000000E+00 -0.18360385961E+04  0.18360385961E+04  0.25500000920E-02 0. -1.
    10030    2    1    2    0    0  0.00000000000E+00  0.00000000000E+00 -0.61882943310E+03  0.30532477592E+04  0.29898782603E+04 0.  0.
        3    1    3    3  502    0  0.70872300662E+03  0.68685777007E+03  0.83722871058E+03  0.12942232498E+04  0.10100000352E+00 0.  1.
       -3    1    3    3    0  502 -0.70872300662E+03 -0.68685777007E+03 -0.14560581437E+04  0.17590245093E+04  0.10100000352E+00 0. -1.
</event>
<event>
 5   0  0.6291798E-07  0.3002631E+04  0.7818609E-02  0.8242980E-01
        1   -1    0    0  501    0  0.00000000000E+00  0.00000000000E+00  0.18788095539E+04  0.18788095539E+04  0.50400001928E-02 0.  1.
       -1   -1    0    0    0  501  0.00000000000E+00  0.00000000000E+00 -0.11996682893E+04  0.11996682893E+04  0.50400001928E-02 0. -1.
    10030    2    1    2    0    0  0.00000000000E+00  0.00000000000E+00  0.67914126463E+03  0.30784778432E+04  0.30026310086E+04 0.  0.
        1    1    3    3  502    0  0.79902871459E+02  0.19419502424E+03 -0.11845371050E+04  0.12030063713E+04  0.50400001928E-02 0. -1.
       -1    1    3    3    0  502 -0.79902871459E+02 -0.19419502424E+03  0.18636783696E+04  0.18754714719E+04  0.50400001928E-02 0.  1.
</event>
<event>
 5   0  0.6291798E-07  0.3003453E+04  0.7818609E-02  0.8242746E-01
        1   -1    0    0  501    0  0.00000000000E+00  0.00000000000E+00  0.17001624829E+04  0.17001624829E+04  0.50400001928E-02 0. -1.
       -1   -1    0    0    0  501  0.00000000000E+00  0.00000000000E+00 -0.13264510908E+04  0.13264510908E+04  0.50400001928E-02 0.  1.
    10030    2    1    2    0    0  0.00000000000E+00  0.00000000000E+00  0.37371139210E+03  0.30266135736E+04  0.30034529328E+04 0.  0.
        1    1    3    3  502    0 -0.11361144177E+04  0.15511495416E+03  0.11640581499E+04  0.16339669506E+04  0.50400001928E-02 0. -1.
       -1    1    3    3    0  502  0.11361144177E+04 -0.15511495416E+03 -0.79034675783E+03  0.13926466231E+04  0.50400001928E-02 0.  1.
</event>
<event>
 5   0  0.1674806E-06  0.2992769E+04  0.7818609E-02  0.8245799E-01
        2   -1    0    0  501    0  0.00000000000E+00  0.00000000000E+00  0.29703433015E+04  0.29703433015E+04  0.25500000920E-02 0.  1.
       -2   -1    0    0    0  501  0.00000000000E+00  0.00000000000E+00 -0.75384086060E+03  0.75384086061E+03  0.25500000920E-02 0. -1.
    10030    2    1    2    0    0  0.00000000000E+00  0.00000000000E+00  0.22165024409E+04  0.37241841621E+04  0.29927687185E+04 0.  0.
        2    1    3    3  502    0  0.72217736137E+03 -0.12657265701E+04  0.68522624895E+03  0.16103226086E+04  0.25500000920E-02 0. -1.
       -2    1    3    3    0  502 -0.72217736137E+03  0.12657265701E+04  0.15312761919E+04  0.21138615535E+04  0.25500000920E-02 0.  1.
</event>
<event>
 5   0  0.1625212E-06  0.2989504E+04  0.7818609E-02  0.8246735E-01
        2   -1    0    0  501    0  0.00000000000E+00  0.00000000000E+00  0.17600237975E+04  0.17600237975E+04  0.25500000920E-02 0.  1.
       -2   -1    0    0    0  501  0.00000000000E+00  0.00000000000E+00 -0.12694617089E+04  0.12694617089E+04  0.25500000920E-02 0. -1.
    10030    2    1    2    0    0  0.00000000000E+00  0.00000000000E+00  0.49056208855E+03  0.30294855064E+04  0.29895035157E+04 0.  0.
        4    1    3    3  502    0  0.22914239204E+03 -0.11028171129E+04 -0.75049472482E+03  0.13534976045E+04  0.12699999809E+01 0. -1.
       -4    1    3    3    0  502 -0.22914239204E+03  0.11028171129E+04  0.12410568134E+04  0.16759879019E+04  0.12699999809E+01 0.  1.
</event>
<event>
 5   0  0.5916703E-07  0.3000547E+04  0.7818609E-02  0.8243575E-01
       -1   -1    0    0    0  501  0.00000000000E+00  0.00000000000E+00  0.12633462017E+04  0.12633462017E+04  0.50400001928E-02 0. -1.
        1   -1    0    0  501    0  0.00000000000E+00  0.00000000000E+00 -0.17816346112E+04  0.17816346112E+04  0.50400001928E-02 0.  1.
    10030    2    1    2    0    0  0.00000000000E+00  0.00000000000E+00 -0.51828840953E+03  0.30449808129E+04  0.30005474960E+04 0.  0.
        5    1    3    3  502    0 -0.69548765534E+03  0.16691567752E+03  0.10791858355E+04  0.12946922722E+04  0.46999998093E+01 0. -1.
       -5    1    3    3    0  502  0.69548765534E+03 -0.16691567752E+03 -0.15974742450E+04  0.17502885407E+04  0.46999998093E+01 0.  1.
</event>
<event>
 5   0  0.1723916E-06  0.3002431E+04  0.7818609E-02  0.8243037E-01
       -2   -1    0    0    0  501  0.00000000000E+00  0.00000000000E+00  0.14367788655E+04  0.14367788655E+04  0.25500000920E-02 0.  1.
        2   -1    0    0  501    0  0.00000000000E+00  0.00000000000E+00 -0.15685422419E+04  0.15685422419E+04  0.25500000920E-02 0. -1.
    10030    2    1    2    0    0  0.00000000000E+00  0.00000000000E+00 -0.13176337632E+03  0.30053211074E+04  0.30024312434E+04 0.  0.
        1    1    3    3  502    0  0.93300610275E+03  0.27872405000E+03  0.10777857029E+04  0.14525183321E+04  0.50400001928E-02 0.  1.
       -1    1    3    3    0  502 -0.93300610275E+03 -0.27872405000E+03 -0.12095490792E+04  0.15528027753E+04  0.50400001928E-02 0. -1.
</event>
<event>
 5   0  0.5916703E-07  0.3002135E+04  0.7818609E-02  0.8243121E-01
        1   -1    0    0  501    0  0.00000000000E+00  0.00000000000E+00  0.16561055837E+04  0.16561055837E+04  0.50400001928E-02 0.  1.
       -1   -1    0    0    0  501  0.00000000000E+00  0.00000000000E+00 -0.13605436301E+04  0.13605436301E+04  0.50400001928E-02 0. -1.
    10030    2    1    2    0    0  0.00000000000E+00  0.00000000000E+00  0.29556195359E+03  0.30166492139E+04  0.30021351753E+04 0.  0.
        5    1    3    3  502    0 -0.65683210549E+03 -0.98103314223E+02 -0.12048805589E+04  0.13757950161E+04  0.46999998093E+01 0. -1.
       -5    1    3    3    0  502  0.65683210549E+03  0.98103314223E+02  0.15004425125E+04  0.16408541978E+04  0.46999998093E+01 0.  1.
</event>
<event>
 5   0  0.5874741E-07  0.2992032E+04  0.7818609E-02  0.8246010E-01
        1   -1    0    0  501    0  0.00000000000E+00  0.00000000000E+00  0.13956605921E+04  0.13956605921E+04  0.50400001928E-02 0. -1.
       -1   -1    0    0    0  501  0.00000000000E+00  0.00000000000E+00 -0.16035877993E+04  0.16035877994E+04  0.50400001928E-02 0.  1.
    10030    2    1    2    0    0  0.00000000000E+00  0.00000000000E+00 -0.20792720729E+03  0.29992483914E+04  0.29920322842E+04 0.  0.
        4    1    3    3  502    0  0.12060038757E+04 -0.13902080456E+03  0.77238198503E+03  0.14388702777E+04  0.12699999809E+01 0. -1.
       -4    1    3    3    0  502 -0.12060038757E+04  0.13902080456E+03 -0.98030919232E+03  0.15603781137E+04  0.12699999809E+01 0.  1.
</event>
<event>
 5   0  0.6291798E-07  0.2983934E+04  0.7818609E-02  0.8248333E-01
        1   -1    0    0  501    0  0.00000000000E+00  0.00000000000E+00  0.12702806434E+04  0.12702806434E+04  0.50400001928E-02 0. -1.
       -1   -1    0    0    0  501  0.00000000000E+00  0.00000000000E+00 -0.17523418471E+04  0.17523418471E+04  0.50400001928E-02 0.  1.
    10030    2    1    2    0    0  0.00000000000E+00  0.00000000000E+00 -0.48206120371E+03  0.30226224905E+04  0.29839342680E+04 0.  0.
        1    1    3    3  502    0  0.13069703715E+04  0.59958929475E+03  0.16198082153E+03  0.14470372009E+04  0.50400001928E-02 0. -1.
       -1    1    3    3    0  502 -0.13069703715E+04 -0.59958929475E+03 -0.64404202524E+03  0.15755852895E+04  0.50400001928E-02 0.  1.
</event>
<event>
 5   0  0.6291798E-07  0.2998861E+04  0.7818609E-02  0.8244056E-01
       -1   -1    0    0    0  501  0.00000000000E+00  0.00000000000E+00  0.14954830258E+04  0.14954830258E+04  0.50400001928E-02 0.  1.
        1   -1    0    0  501    0  0.00000000000E+00  0.00000000000E+00 -0.15033883630E+04  0.15033883631E+04  0.50400001928E-02 0. -1.
    10030    2    1    2    0    0  0.00000000000E+00  0.00000000000E+00 -0.79053372417E+01  0.29988713889E+04  0.29988609692E+04 0.  0.
        1    1    3    3  502    0 -0.21646963708E+03  0.43287455311E+02  0.14791434697E+04  0.14955260986E+04  0.50400001928E-02 0.  1.
       -1    1    3    3    0  502  0.21646963708E+03 -0.43287455311E+02 -0.14870488069E+04  0.15033452903E+04  0.50400001928E-02 0. -1.
</event>
<event>
 5   0  0.6291798E-07  0.2975561E+04  0.7818609E-02  0.8250744E-01
       -1   -1    0    0    0  501  0.00000000000E+00  0.00000000000E+00  0.15202817248E+04  0.15202817248E+04  0.50400001928E-02 0.  1.
        1   -1    0    0  501    0  0.00000000000E+00  0.00000000000E+00 -0.14559744633E+04  0.14559744633E+04  0.50400001928E-02 0. -1.
    10030    2    1    2    0    0  0.00000000000E+00  0.00000000000E+00  0.64307261441E+02  0.29762561881E+04  0.29755613711E+04 0.  0.
        1    1    3    3  502    0  0.13031906907E+04  0.60593080730E+03  0.41699436501E+03  0.14964432565E+04  0.50400001928E-02 0.  1.
       -1    1    3    3    0  502 -0.13031906907E+04 -0.60593080730E+03 -0.35268710357E+03  0.14798129316E+04  0.50400001928E-02 0. -1.
</event>
<event>
 5   0  0.5931588E-07  0.2994566E+04  0.7818609E-02  0.8245284E-01
        1   -1    0    0  501    0  0.00000000000E+00  0.00000000000E+00  0.17170722330E+04  0.17170722330E+04  0.50400001928E-02 0. -1.
       -1   -1    0    0    0  501  0.00000000000E+00  0.00000000000E+00 -0.13056274324E+04  0.13056274324E+04  0.50400001928E-02 0.  1.
    10030    2    1    2    0    0  0.00000000000E+00  0.00000000000E+00  0.41144480056E+03  0.30226996654E+04  0.29945661528E+04 0.  0.
        2    1    3    3  502    0  0.10266330978E+04 -0.54129715038E+03 -0.74914511891E+03  0.13813748701E+04  0.25500000920E-02 0.  1.
       -2    1    3    3    0  502 -0.10266330978E+04  0.54129715038E+03  0.11605899195E+04  0.16413247953E+04  0.25500000920E-02 0. -1.
</event>
<event>
 5   0  0.5916703E-07  0.2981239E+04  0.7818609E-02  0.8249108E-01
       -1   -1    0    0    0  501  0.00000000000E+00  0.00000000000E+00  0.10185624287E+04  0.10185624287E+04  0.50400001928E-02 0. -1.
        1   -1    0    0  501    0  0.00000000000E+00  0.00000000000E+00 -0.21814541173E+04  0.21814541173E+04  0.50400001928E-02 0.  1.
    10030    2    1    2    0    0  0.00000000000E+00  0.00000000000E+00 -0.11628916886E+04  0.32000165460E+04  0.29812394764E+04 0.  0.
        5    1    3    3  502    0 -0.88525460216E+03 -0.46344827908E+03  0.60582868925E+03  0.11685506017E+04  0.46999998093E+01 0. -1.
       -5    1    3    3    0  502  0.88525460216E+03  0.46344827908E+03 -0.17687203778E+04  0.20314659443E+04  0.46999998093E+01 0.  1.
</event>
<event>
 5   0  0.1635086E-06  0.2997773E+04  0.7818609E-02  0.8244367E-01
       -2   -1    0    0    0  501  0.00000000000E+00  0.00000000000E+00  0.10005176290E+04  0.10005176290E+04  0.25500000920E-02 0.  1.
        2   -1    0    0  501    0  0.00000000000E+00  0.00000000000E+00 -0.22454985457E+04  0.22454985457E+04  0.25500000920E-02 0. -1.
    10030    2    1    2    0    0  0.00000000000E+00  0.00000000000E+00 -0.12449809167E+04  0.32460161747E+04  0.29977730941E+04 0.  0.
        3    1    3    3  502    0  0.10907442737E+04 -0.90249852566E+03 -0.11556397972E+04  0.18274928209E+04  0.10100000352E+00 0. -1.
       -3    1    3    3    0  502 -0.10907442737E+04  0.90249852566E+03 -0.89341119574E+02  0.14185233538E+04  0.10100000352E+00 0.  1.
</event>
<event>
 5   0  0.5887179E-07  0.2978146E+04  0.7818609E-02  0.8249999E-01
        1   -1    0    0  501    0  0.00000000000E+00  0.00000000000E+00  0.14935629410E+04  0.14935629410E+04  0.50400001928E-02 0. -1.
       -1   -1    0    0    0  501  0.00000000000E+00  0.00000000000E+00 -0.14845970486E+04  0.14845970486E+04  0.50400001928E-02 0.  1.
    10030    2    1    2    0    0  0.00000000000E+00  0.00000000000E+00  0.89658924402E+01  0.29781599896E+04  0.29781464935E+04 0.  0.
        3    1    3    3  502    0 -0.73556674335E+03  0.10234006549E+04  0.79753873869E+03  0.14914675270E+04  0.10100000352E+00 0. -1.
       -3    1    3    3    0  502  0.73556674335E+03 -0.10234006549E+04 -0.78857284625E+03  0.14866924626E+04  0.10100000352E+00 0.  1.
</event>
<event>
 5   0  0.5931588E-07  0.2995782E+04  0.7818609E-02  0.8244936E-01
        1   -1    0    0  501    0  0.00000000000E+00  0.00000000000E+00  0.26631857069E+04  0.26631857069E+04  0.50400001928E-02 0.  1.
       -1   -1    0    0    0  501  0.00000000000E+00  0.00000000000E+00 -0.84247889481E+03  0.84247889482E+03  0.50400001928E-02 0. -1.
    10030    2    1    2    0    0  0.00000000000E+00  0.00000000000E+00  0.18207068121E+04  0.35056646017E+04  0.29957822024E+04 0.  0.
        2    1    3    3  502    0 -0.13502954864E+04  0.42492368907E+03  0.33729015027E+03  0.14552053764E+04  0.25500000920E-02 0. -1.
       -2    1    3    3    0  502  0.13502954864E+04 -0.42492368907E+03  0.14834166618E+04  0.20504592253E+04  0.25500000920E-02 0.  1.
</event>
<event>
 5   0  0.1560174E-06  0.3005885E+04  0.7818609E-02  0.8242052E-01
        2   -1    0    0  501    0  0.00000000000E+00  0.00000000000E+00  0.13538697431E+04  0.13538697431E+04  0.25500000920E-02 0. -1.
       -2   -1    0    0    0  501  0.00000000000E+00  0.00000000000E+00 -0.16684295536E+04  0.16684295536E+04  0.25500000920E-02 0.  1.
    10030    2    1    2    0    0  0.00000000000E+00  0.00000000000E+00 -0.31455981050E+03  0.30222992967E+04  0.30058850883E+04 0.  0.
        5    1    3    3  502    0 -0.84163785081E+03 -0.78257718739E+03  0.81652986098E+03  0.14097958824E+04  0.46999998093E+01 0. -1.
       -5    1    3    3    0  502  0.84163785081E+03  0.78257718739E+03 -0.11310896715E+04  0.16125034143E+04  0.46999998093E+01 0.  1.
</event>
<event>
 5   0  0.1635086E-06  0.2993478E+04  0.7818609E-02  0.8245596E-01
       -2   -1    0    0    0  501  0.00000000000E+00  0.00000000000E+00  0.10711723348E+04  0.10711723348E+04  0.25500000920E-02 0. -1.
        2   -1    0    0  501    0  0.00000000000E+00  0.00000000000E+00 -0.20913790194E+04  0.20913790194E+04  0.25500000920E-02 0.  1.
    10030    2    1    2    0    0  0.00000000000E+00  0.00000000000E+00 -0.10202066846E+04  0.31625513542E+04  0.29934778083E+04 0.  0.
        3    1    3    3  502    0  0.39566853268E+03  0.50054234975E+03 -0.19405059951E+04  0.20427089266E+04  0.10100000352E+00 0.  1.
       -3    1    3    3    0  502 -0.39566853268E+03 -0.50054234975E+03  0.92029931048E+03  0.11198424276E+04  0.10100000352E+00 0. -1.
</event>
<event>
 5   0  0.6291798E-07  0.2996697E+04  0.7818609E-02  0.8244675E-01
       -1   -1    0    0    0  501  0.00000000000E+00  0.00000000000E+00  0.19357750548E+04  0.19357750548E+04  0.50400001928E-02 0.  1.
        1   -1    0    0  501    0  0.00000000000E+00  0.00000000000E+00 -0.11597673891E+04  0.11597673891E+04  0.50400001928E-02 0. -1.
    10030    2    1    2    0    0  0.00000000000E+00  0.00000000000E+00  0.77600766576E+03  0.30955424439E+04  0.29966973695E+04 0.  0.
        1    1    3    3  502    0  0.68267938217E+03  0.11589505681E+04 -0.29394697224E+03  0.13768160301E+04  0.50400001928E-02 0.  1.
       -1    1    3    3    0  502 -0.68267938217E+03 -0.11589505681E+04  0.10699546380E+04  0.17187264138E+04  0.50400001928E-02 0. -1.
</event>
<event>
 5   0  0.1625212E-06  0.2815266E+04  0.7818609E-02  0.8298545E-01
        2   -1    0    0  501    0  0.00000000000E+00  0.00000000000E+00  0.19095635064E+04  0.19095635064E+04  0.25500000920E-02 0.  1.
       -2   -1    0    0    0  501  0.00000000000E+00  0.00000000000E+00 -0.10376350278E+04  0.10376350278E+04  0.25500000920E-02 0. -1.
    10030    2    1    2    0    0  0.00000000000E+00  0.00000000000E+00  0.87192847861E+03  0.29471985342E+04  0.28152655165E+04 0.  0.
        4    1    3    3  502    0 -0.57206040071E+03 -0.15816147839E+03  0.17721656610E+04  0.18689143635E+04  0.12699999809E+01 0.  1.
       -4    1    3    3    0  502  0.57206040071E+03  0.15816147839E+03 -0.90023718239E+03  0.10782841707E+04  0.12699999809E+01 0. -1.
</event>
<event>
 5   0  0.1723916E-06  0.3004781E+04  0.7818609E-02  0.8242367E-01
        2   -1    0    0  501    0  0.00000000000E+00  0.00000000000E+00  0.21753981346E+04  0.21753981346E+04  0.25500000920E-02 0.  1.
       -2   -1    0    0    0  501  0.00000000000E+00  0.00000000000E+00 -0.10375924284E+04  0.10375924284E+04  0.25500000920E-02 0. -1.
    10030    2    1    2    0    0  0.00000000000E+00  0.00000000000E+00  0.11378057062E+04  0.32129905630E+04  0.30047806131E+04 0.  0.
        1    1    3    3  502    0 -0.87016573556E+03  0.49950674363E+03  0.17646387620E+04  0.20299372785E+04  0.50400001928E-02 0.  1.
       -1    1    3    3    0  502  0.87016573556E+03 -0.49950674363E+03 -0.62683305578E+03  0.11830532846E+04  0.50400001928E-02 0. -1.
</event>
<event>
 5   0  0.1635086E-06  0.2991886E+04  0.7818609E-02  0.8246052E-01
        2   -1    0    0  501    0  0.00000000000E+00  0.00000000000E+00  0.16439409280E+04  0.16439409280E+04  0.25500000920E-02 0.  1.
       -2   -1    0    0    0  501  0.00000000000E+00  0.00000000000E+00 -0.13612687037E+04  0.13612687037E+04  0.25500000920E-02 0. -1.
    10030    2    1    2    0    0  0.00000000000E+00  0.00000000000E+00  0.28267222431E+03  0.30052096317E+04  0.29918859177E+04 0.  0.
        3    1    3    3  502    0 -0.11199753163E+03 -0.13175606262E+04 -0.56130453686E+03  0.14365139206E+04  0.10100000352E+00 0. -1.
       -3    1    3    3    0  502  0.11199753163E+03  0.13175606262E+04  0.84397676116E+03  0.15686957112E+04  0.10100000352E+00 0.  1.
</event>
<event>
 5   0  0.5916703E-07  0.2998708E+04  0.7818609E-02  0.8244100E-01
       -1   -1    0    0    0  501  0.00000000000E+00  0.00000000000E+00  0.19245953004E+04  0.19245953004E+04  0.50400001928E-02 0. -1.
        1   -1    0    0  501    0  0.00000000000E+00  0.00000000000E+00 -0.11680704232E+04  0.11680704232E+04  0.50400001928E-02 0.  1.
    10030    2    1    2    0    0  0.00000000000E+00  0.00000000000E+00  0.75652487719E+03  0.30926657236E+04  0.29987082866E+04 0.  0.
        5    1    3    3  502    0 -0.11615638346E+04 -0.44704934259E+03  0.12404942104E+04  0.17572511580E+04  0.46999998093E+01 0. -1.
       -5    1    3    3    0  502  0.11615638346E+04  0.44704934259E+03 -0.48396933316E+03  0.13354145656E+04  0.46999998093E+01 0.  1.
</event>
<event>
 5   0  0.5931588E-07  0.3003448E+04  0.7818609E-02  0.8242747E-01
       -1   -1    0    0    0  501  0.00000000000E+00  0.00000000000E+00  0.10329401278E+04  0.10329401278E+04  0.50400001928E-02 0.  1.
        1   -1    0    0  501    0  0.00000000000E+00  0.00000000000E+00 -0.21832582604E+04  0.21832582604E+04  0.50400001928E-02 0. -1.
    10030    2    1    2    0    0  0.00000000000E+00  0.00000000000E+00 -0.11503181326E+04  0.32161983882E+04  0.30034480629E+04 0.  0.
        2    1    3    3  502    0  0.22746010632E+03 -0.12793555197E+03  0.10084719237E+04  0.10416915217E+04  0.25500000920E-02 0.  1.
       -2    1    3    3    0  502 -0.22746010632E+03  0.12793555197E+03 -0.21587900563E+04  0.21745068666E+04  0.25500000920E-02 0. -1.
</event>
<event>
 5   0  0.5887179E-07  0.2988260E+04  0.7818609E-02  0.8247091E-01
        1   -1    0    0  501    0  0.00000000000E+00  0.00000000000E+00  0.22589077967E+04  0.22589077967E+04  0.50400001928E-02 0. -1.
       -1   -1    0    0    0  501  0.00000000000E+00  0.00000000000E+00 -0.98827602441E+03  0.98827602442E+03  0.50400001928E-02 0.  1.
    10030    2    1    2    0    0  0.00000000000E+00  0.00000000000E+00  0.12706317723E+04  0.32471838211E+04  0.29882599732E+04 0.  0.
        3    1    3    3  502    0  0.65017143801E+02  0.10644649850E+04  0.17724656391E+04  0.20685616707E+04  0.10100000352E+00 0. -1.
       -3    1    3    3    0  502 -0.65017143801E+02 -0.10644649850E+04 -0.50183386685E+03  0.11786221504E+04  0.10100000352E+00 0.  1.
</event>
<event>
 5   0  0.1674806E-06  0.3000012E+04  0.7818609E-02  0.8243728E-01
        2   -1    0    0  501    0  0.00000000000E+00  0.00000000000E+00  0.15744295354E+04  0.15744295354E+04  0.25500000920E-02 0. -1.
       -2   -1    0    0    0  501  0.00000000000E+00  0.00000000000E+00 -0.14291000075E+04  0.14291000075E+04  0.25500000920E-02 0.  1.
    10030    2    1    2    0    0  0.00000000000E+00  0.00000000000E+00  0.14532952791E+03  0.30035295429E+04  0.30000115072E+04 0.  0.
        2    1    3    3  502    0 -0.26818987357E+03  0.14287207671E+04 -0.29769933740E+03  0.14838442419E+04  0.25500000920E-02 0.  1.
       -2    1    3    3    0  502  0.26818987357E+03 -0.14287207671E+04  0.44302886531E+03  0.15196853010E+04  0.25500000920E-02 0. -1.
</event>
<event>
 5   0  0.1625212E-06  0.2999211E+04  0.7818609E-02  0.8243956E-01
       -2   -1    0    0    0  501  0.00000000000E+00  0.00000000000E+00  0.93252786816E+03  0.93252786816E+03  0.25500000920E-02 0.  1.
        2   -1    0    0  501    0  0.00000000000E+00  0.00000000000E+00 -0.24115279826E+04  0.24115279826E+04  0.25500000920E-02 0. -1.
    10030    2    1    2    0    0  0.00000000000E+00  0.00000000000E+00 -0.14790001144E+04  0.33440558507E+04  0.29992112621E+04 0.  0.
        4    1    3    3  502    0  0.10196995991E+02  0.22044499479E+03 -0.23933237163E+04  0.24034766482E+04  0.12699999809E+01 0. -1.
       -4    1    3    3    0  502 -0.10196995991E+02 -0.22044499479E+03  0.91432360187E+03  0.94057920256E+03  0.12699999809E+01 0.  1.
</event>
<event>
 5   0  0.5931588E-07  0.3020390E+04  0.7818609E-02  0.8237932E-01
       -1   -1    0    0    0  501  0.00000000000E+00  0.00000000000E+00  0.91669422081E+03  0.91669422082E+03  0.50400001928E-02 0. -1.
        1   -1    0    0  501    0  0.00000000000E+00  0.00000000000E+00 -0.24879487650E+04  0.24879487650E+04  0.50400001928E-02 0.  1.
    10030    2    1    2    0    0  0.00000000000E+00  0.00000000000E+00 -0.15712545442E+04  0.34046429858E+04  0.30203895475E+04 0.  0.
        2    1    3    3  502    0 -0.33780092455E+03  0.13420239939E+04 -0.14671529840E+04  0.20168479723E+04  0.25500000920E-02 0.  1.
       -2    1    3    3    0  502  0.33780092455E+03 -0.13420239939E+04 -0.10410156019E+03  0.13877950136E+04  0.25500000920E-02 0. -1.
</event>
<event>
 5   0  0.5916703E-07  0.3040083E+04  0.7818609E-02  0.8232377E-01
        1   -1    0    0  501    0  0.00000000000E+00  0.00000000000E+00  0.17536667089E+04  0.17536667089E+04  0.50400001928E-02 0. -1.
       -1   -1    0    0    0  501  0.00000000000E+00  0.00000000000E+00 -0.13175398627E+04  0.13175398627E+04  0.50400001928E-02 0.  1.
    10030    2    1    2    0    0  0.00000000000E+00  0.00000000000E+00  0.43612684623E+03  0.30712065716E+04  0.30400827586E+04 0.  0.
        5    1    3    3  502    0 -0.96586834221E+03  0.11609707231E+04  0.39230830488E+03  0.15603469391E+04  0.46999998093E+01 0. -1.
       -5    1    3    3    0  502  0.96586834221E+03 -0.11609707231E+04  0.43818541355E+02  0.15108596324E+04  0.46999998093E+01 0.  1.
</event>
<event>
 5   0  0.5931588E-07  0.2998778E+04  0.7818609E-02  0.8244080E-01
       -1   -1    0    0    0  501  0.00000000000E+00  0.00000000000E+00  0.10800182085E+04  0.10800182085E+04  0.50400001928E-02 0.  1.
        1   -1    0    0  501    0  0.00000000000E+00  0.00000000000E+00 -0.20816014224E+04  0.20816014224E+04  0.50400001928E-02 0. -1.
    10030    2    1    2    0    0  0.00000000000E+00  0.00000000000E+00 -0.10015832139E+04  0.31616196309E+04  0.29987780439E+04 0.  0.
        2    1    3    3  502    0  0.44228823661E+03  0.10162956790E+04 -0.15654241274E+04  0.19180793754E+04  0.25500000920E-02 0. -1.
       -2    1    3    3    0  502 -0.44228823661E+03 -0.10162956790E+04  0.56384091356E+03  0.12435402556E+04  0.25500000920E-02 0.  1.
</event>
<event>
 5   0  0.1674806E-06  0.3003627E+04  0.7818609E-02  0.8242696E-01
        2   -1    0    0  501    0  0.00000000000E+00  0.00000000000E+00  0.21071158951E+04  0.21071158951E+04  0.25500000920E-02 0.  1.
       -2   -1    0    0    0  501  0.00000000000E+00  0.00000000000E+00 -0.10703939471E+04  0.10703939471E+04  0.25500000920E-02 0. -1.
    10030    2    1    2    0    0  0.00000000000E+00  0.00000000000E+00  0.10367219480E+04  0.31775098422E+04  0.30036272072E+04 0.  0.
        2    1    3    3  502    0  0.73547763275E+03  0.70780872732E+03 -0.64701210296E+03  0.12085301834E+04  0.25500000920E-02 0. -1.
       -2    1    3    3    0  502 -0.73547763275E+03 -0.70780872732E+03  0.16837340509E+04  0.19689796589E+04  0.25500000920E-02 0.  1.
</event>
<event>
 5   0  0.1635086E-06  0.3005238E+04  0.7818609E-02  0.8242237E-01
        2   -1    0    0  501    0  0.00000000000E+00  0.00000000000E+00  0.14938733505E+04  0.14938733505E+04  0.25500000920E-02 0. -1.
       -2   -1    0    0    0  501  0.00000000000E+00  0.00000000000E+00 -0.15114161439E+04  0.15114161439E+04  0.25500000920E-02 0.  1.
    10030    2    1    2    0    0  0.00000000000E+00  0.00000000000E+00 -0.17542793414E+02  0.30052894944E+04  0.30052382927E+04 0.  0.
        3    1    3    3  502    0  0.11148609342E+04  0.29907245904E+02 -0.10157915042E+04  0.15085230314E+04  0.10100000352E+00 0.  1.
       -3    1    3    3    0  502 -0.11148609342E+04 -0.29907245904E+02  0.99824871081E+03  0.14967664630E+04  0.10100000352E+00 0. -1.
</event>
<event>
 5   0  0.1674806E-06  0.3012919E+04  0.7818609E-02  0.8240051E-01
       -2   -1    0    0    0  501  0.00000000000E+00  0.00000000000E+00  0.16233033368E+04  0.16233033368E+04  0.25500000920E-02 0. -1.
        2   -1    0    0  501    0  0.00000000000E+00  0.00000000000E+00 -0.13980260294E+04  0.13980260294E+04  0.25500000920E-02 0.  1.
    10030    2    1    2    0    0  0.00000000000E+00  0.00000000000E+00  0.22527730739E+03  0.30213293661E+04  0.30129190619E+04 0.  0.
        2    1    3    3  502    0  0.14366445949E+04 -0.13459497125E+03 -0.32141694262E+03  0.14783004936E+04  0.25500000920E-02 0.  1.
       -2    1    3    3    0  502 -0.14366445949E+04  0.13459497125E+03  0.54669425001E+03  0.15430288725E+04  0.25500000920E-02 0. -1.
</event>
<event>
 5   0  0.5887179E-07  0.2999424E+04  0.7818609E-02  0.8243895E-01
       -1   -1    0    0    0  501  0.00000000000E+00  0.00000000000E+00  0.12409654138E+04  0.12409654138E+04  0.50400001928E-02 0.  1.
        1   -1    0    0  501    0  0.00000000000E+00  0.00000000000E+00 -0.18124086774E+04  0.18124086774E+04  0.50400001928E-02 0. -1.
    10030    2    1    2    0    0  0.00000000000E+00  0.00000000000E+00 -0.57144326364E+03  0.30533740912E+04  0.29994242676E+04 0.  0.
        3    1    3    3  502    0 -0.44100798151E+03  0.13916932232E+04  0.63728771684E+02  0.14612869102E+04  0.10100000352E+00 0.  1.
       -3    1    3    3    0  502  0.44100798151E+03 -0.13916932232E+04 -0.63517203533E+03  0.15920871810E+04  0.10100000352E+00 0. -1.
</event>
<event>
 5   0  0.5916703E-07  0.3002861E+04  0.7818609E-02  0.8242914E-01
       -1   -1    0    0    0  501  0.00000000000E+00  0.00000000000E+00  0.13448970770E+04  0.13448970770E+04  0.50400001928E-02 0. -1.
        1   -1    0    0  501    0  0.00000000000E+00  0.00000000000E+00 -0.16761829602E+04  0.16761829603E+04  0.50400001928E-02 0.  1.
    10030    2    1    2    0    0  0.00000000000E+00  0.00000000000E+00 -0.33128588329E+03  0.30210800372E+04  0.30028610116E+04 0.  0.
        5    1    3    3  502    0  0.11370387133E+04  0.58369605820E+02 -0.11503599471E+04  0.16185222101E+04  0.46999998093E+01 0.  1.
       -5    1    3    3    0  502 -0.11370387133E+04 -0.58369605820E+02  0.81907406386E+03  0.14025578272E+04  0.46999998093E+01 0. -1.
</event>
<event>
 5   0  0.1560174E-06  0.3004118E+04  0.7818609E-02  0.8242556E-01
        2   -1    0    0  501    0  0.00000000000E+00  0.00000000000E+00  0.24551309053E+04  0.24551309053E+04  0.25500000920E-02 0. -1.
       -2   -1    0    0    0  501  0.00000000000E+00  0.00000000000E+00 -0.91896591134E+03  0.91896591134E+03  0.25500000920E-02 0.  1.
    10030    2    1    2    0    0  0.00000000000E+00  0.00000000000E+00  0.15361649940E+04  0.33740968166E+04  0.30041182466E+04 0.  0.
        5    1    3    3  502    0  0.17696993530E+03  0.10911751711E+04 -0.37410695459E+03  0.11670302976E+04  0.46999998093E+01 0.  1.
       -5    1    3    3    0  502 -0.17696993530E+03 -0.10911751711E+04  0.19102719486E+04  0.22070665190E+04  0.46999998093E+01 0. -1.
</event>
<event>
 5   0  0.5916703E-07  0.3012621E+04  0.7818609E-02  0.8240136E-01
        1   -1    0    0  501    0  0.00000000000E+00  0.00000000000E+00  0.18536996171E+04  0.18536996171E+04  0.50400001928E-02 0. -1.
       -1   -1    0    0    0  501  0.00000000000E+00  0.00000000000E+00 -0.12240234500E+04  0.12240234501E+04  0.50400001928E-02 0.  1.
    10030    2    1    2    0    0  0.00000000000E+00  0.00000000000E+00  0.62967616708E+03  0.30777230672E+04  0.30126213175E+04 0.  0.
        5    1    3    3  502    0 -0.49797433140E+03 -0.37479371363E+03  0.17157853012E+04  0.18254835119E+04  0.46999998093E+01 0. -1.
       -5    1    3    3    0  502  0.49797433140E+03  0.37479371363E+03 -0.10861091341E+04  0.12522395553E+04  0.46999998093E+01 0.  1.
</event>
<event>
 5   0  0.5931588E-07  0.2996189E+04  0.7818609E-02  0.8244820E-01
        1   -1    0    0  501    0  0.00000000000E+00  0.00000000000E+00  0.10012278114E+04  0.10012278114E+04  0.50400001928E-02 0.  1.
       -1   -1    0    0    0  501  0.00000000000E+00  0.00000000000E+00 -0.22415345641E+04  0.22415345641E+04  0.50400001928E-02 0. -1.
    10030    2    1    2    0    0  0.00000000000E+00  0.00000000000E+00 -0.12403067528E+04  0.32427623755E+04  0.29961887429E+04 0.  0.
        2    1    3    3  502    0 -0.13958062195E+04  0.22210818989E+03 -0.82611058959E+02  0.14157795158E+04  0.25500000920E-02 0.  1.
       -2    1    3    3    0  502  0.13958062195E+04 -0.22210818989E+03 -0.11576956938E+04  0.18269828597E+04  0.25500000920E-02 0. -1.
</event>
<event>
 5   0  0.1560174E-06  0.3002580E+04  0.7818609E-02  0.8242995E-01
        2   -1    0    0  501    0  0.00000000000E+00  0.00000000000E+00  0.21570631393E+04  0.21570631393E+04  0.25500000920E-02 0. -1.
       -2   -1    0    0    0  501  0.00000000000E+00  0.00000000000E+00 -0.10448796116E+04  0.10448796116E+04  0.25500000920E-02 0.  1.
    10030    2    1    2    0    0  0.00000000000E+00  0.00000000000E+00  0.11121835277E+04  0.32019427510E+04  0.30025797544E+04 0.  0.
        5    1    3    3  502    0  0.10662414531E+04 -0.78660137556E+02 -0.56782766157E+03  0.12105819249E+04  0.46999998093E+01 0.  1.
       -5    1    3    3    0  502 -0.10662414531E+04  0.78660137556E+02  0.16800111893E+04  0.19913608261E+04  0.46999998093E+01 0. -1.
</event>
<event>
 5   0  0.6291798E-07  0.2972429E+04  0.7818609E-02  0.8251648E-01
        1   -1    0    0  501    0  0.00000000000E+00  0.00000000000E+00  0.21548764651E+04  0.21548764651E+04  0.50400001928E-02 0. -1.
       -1   -1    0    0    0  501  0.00000000000E+00  0.00000000000E+00 -0.10250394400E+04  0.10250394400E+04  0.50400001928E-02 0.  1.
    10030    2    1    2    0    0  0.00000000000E+00  0.00000000000E+00  0.11298370252E+04  0.31799159051E+04  0.29724288823E+04 0.  0.
        1    1    3    3  502    0 -0.11946557490E+04 -0.81132042253E+03  0.94070785427E+03  0.17234774306E+04  0.50400001928E-02 0.  1.
       -1    1    3    3    0  502  0.11946557490E+04  0.81132042253E+03  0.18912917090E+03  0.14564384745E+04  0.50400001928E-02 0. -1.
</event>
<event>
 5   0  0.1635086E-06  0.3005875E+04  0.7818609E-02  0.8242055E-01
        2   -1    0    0  501    0  0.00000000000E+00  0.00000000000E+00  0.15526286943E+04  0.15526286943E+04  0.25500000920E-02 0. -1.
       -2   -1    0    0    0  501  0.00000000000E+00  0.00000000000E+00 -0.14548365232E+04  0.14548365232E+04  0.25500000920E-02 0.  1.
    10030    2    1    2    0    0  0.00000000000E+00  0.00000000000E+00  0.97792171104E+02  0.30074652176E+04  0.30058748687E+04 0.  0.
        3    1    3    3  502    0 -0.32143112720E+02  0.78200210485E+03 -0.12348495739E+04  0.14619897236E+04  0.10100000352E+00 0.  1.
       -3    1    3    3    0  502  0.32143112720E+02 -0.78200210485E+03  0.13326417450E+04  0.15454754939E+04  0.10100000352E+00 0. -1.
</event>
<event>
 5   0  0.1723916E-06  0.2999898E+04  0.7818609E-02  0.8243760E-01
        2   -1    0    0  501    0  0.00000000000E+00  0.00000000000E+00  0.12252162437E+04  0.12252162437E+04  0.25500000920E-02 0.  1.
       -2   -1    0    0    0  501  0.00000000000E+00  0.00000000000E+00 -0.18362861171E+04  0.18362861171E+04  0.25500000920E-02 0. -1.
    10030    2    1    2    0    0  0.00000000000E+00  0.00000000000E+00 -0.61106987340E+03  0.30615023608E+04  0.29998983841E+04 0.  0.
        1    1    3    3  502    0 -0.95740694879E+03 -0.10590336270E+04 -0.77505583700E+03  0.16244666322E+04  0.50400001928E-02 0.  1.
       -1    1    3    3    0  502  0.95740694879E+03  0.10590336270E+04  0.16398596360E+03  0.14370357285E+04  0.50400001928E-02 0. -1.
</event>
<event>
 5   0  0.1635086E-06  0.2995564E+04  0.7818609E-02  0.8244999E-01
       -2   -1    0    0    0  501  0.00000000000E+00  0.00000000000E+00  0.10720642203E+04  0.10720642203E+04  0.25500000920E-02 0.  1.
        2   -1    0    0  501    0  0.00000000000E+00  0.00000000000E+00 -0.20925531214E+04  0.20925531214E+04  0.25500000920E-02 0. -1.
    10030    2    1    2    0    0  0.00000000000E+00  0.00000000000E+00 -0.10204889011E+04  0.31646173417E+04  0.29955642744E+04 0.  0.
        3    1    3    3  502    0 -0.84864787679E+03 -0.12300142349E+04 -0.61700750771E+03  0.16167363767E+04  0.10100000352E+00 0. -1.
       -3    1    3    3    0  502  0.84864787679E+03  0.12300142349E+04 -0.40348139341E+03  0.15478809650E+04  0.10100000352E+00 0.  1.
</event>
<event>
 5   0  0.5931588E-07  0.2995416E+04  0.7818609E-02  0.8245041E-01
        1   -1    0    0  501    0  0.00000000000E+00  0.00000000000E+00  0.12651769228E+04  0.12651769228E+04  0.50400001928E-02 0. -1.
       -1   -1    0    0    0  501  0.00000000000E+00  0.00000000000E+00 -0.17729767259E+04  0.17729767259E+04  0.50400001928E-02 0.  1.
    10030    2    1    2    0    0  0.00000000000E+00  0.00000000000E+00 -0.50779980308E+03  0.30381536487E+04  0.29954159900E+04 0.  0.
        2    1    3    3  502    0 -0.11787601864E+04 -0.76162671464E+03  0.27661000661E+03  0.14304069090E+04  0.25500000920E-02 0. -1.
       -2    1    3    3    0  502  0.11787601864E+04  0.76162671464E+03 -0.78440980969E+03  0.16077467397E+04  0.25500000920E-02 0.  1.
</event>
<event>
 5   0  0.1625212E-06  0.3001063E+04  0.7818609E-02  0.8243427E-01
       -2   -1    0    0    0  501  0.00000000000E+00  0.00000000000E+00  0.11855915431E+04  0.11855915431E+04  0.25500000920E-02 0.  1.
        2   -1    0    0  501    0  0.00000000000E+00  0.00000000000E+00 -0.18991320129E+04  0.18991320129E+04  0.25500000920E-02 0. -1.
    10030    2    1    2    0    0  0.00000000000E+00  0.00000000000E+00 -0.71354046982E+03  0.30847235561E+04  0.30010630475E+04 0.  0.
        4    1    3    3  502    0  0.77916826126E+03  0.58529174115E+02  0.95998163075E+03  0.12377783274E+04  0.12699999809E+01 0.  1.
       -4    1    3    3    0  502 -0.77916826126E+03 -0.58529174115E+02 -0.16735221006E+04  0.18469452286E+04  0.12699999809E+01 0. -1.
</event>
<event>
 5   0  0.5916703E-07  0.2925937E+04  0.7818609E-02  0.8265202E-01
        1   -1    0    0  501    0  0.00000000000E+00  0.00000000000E+00  0.28808808612E+04  0.28808808612E+04  0.50400001928E-02 0. -1.
       -1   -1    0    0    0  501  0.00000000000E+00  0.00000000000E+00 -0.74292433520E+03  0.74292433522E+03  0.50400001928E-02 0.  1.
    10030    2    1    2    0    0  0.00000000000E+00  0.00000000000E+00  0.21379565260E+04  0.36238051965E+04  0.29259367722E+04 0.  0.
        5    1    3    3  502    0 -0.12055257502E+04 -0.80516178388E+03  0.82540819584E+03  0.16682022097E+04  0.46999998093E+01 0. -1.
       -5    1    3    3    0  502  0.12055257502E+04  0.80516178388E+03  0.13125483302E+04  0.19556029868E+04  0.46999998093E+01 0.  1.
</event>
<event>
 5   0  0.5931588E-07  0.3005019E+04  0.7818609E-02  0.8242299E-01
        1   -1    0    0  501    0  0.00000000000E+00  0.00000000000E+00  0.11112780014E+04  0.11112780014E+04  0.50400001928E-02 0.  1.
       -1   -1    0    0    0  501  0.00000000000E+00  0.00000000000E+00 -0.20314762527E+04  0.20314762527E+04  0.50400001928E-02 0. -1.
    10030    2    1    2    0    0  0.00000000000E+00  0.00000000000E+00 -0.92019825131E+03  0.31427542542E+04  0.30050190483E+04 0.  0.
        2    1    3    3  502    0 -0.60078839731E+03 -0.11795303560E+03  0.97489756896E+03  0.11512101836E+04  0.25500000920E-02 0.  1.
       -2    1    3    3    0  502  0.60078839731E+03  0.11795303560E+03 -0.18950958203E+04  0.19915440706E+04  0.25500000920E-02 0. -1.
</event>
<event>
 5   0  0.5431625E-07  0.3041710E+04  0.7818609E-02  0.8231920E-01
        3   -1    0    0  501    0  0.00000000000E+00  0.00000000000E+00  0.97976801690E+03  0.97976802211E+03  0.10100000352E+00 0. -1.
       -3   -1    0    0    0  501  0.00000000000E+00  0.00000000000E+00 -0.23607628659E+04  0.23607628680E+04  0.10100000352E+00 0.  1.
    10030    2    1    2    0    0  0.00000000000E+00  0.00000000000E+00 -0.13809948489E+04  0.33405308901E+04  0.30417100215E+04 0.  0.
        5    1    3    3  502    0  0.13811004639E+03  0.98056829339E+03 -0.19581879758E+04  0.21943360731E+04  0.46999998093E+01 0.  1.
       -5    1    3    3    0  502 -0.13811004639E+03 -0.98056829339E+03  0.57719312688E+03  0.11461948171E+04  0.46999998093E+01 0. -1.
</event>
<event>
 5   0  0.5931588E-07  0.2998171E+04  0.7818609E-02  0.8244253E-01
        1   -1    0    0  501    0  0.00000000000E+00  0.00000000000E+00  0.13116768691E+04  0.13116768691E+04  0.50400001928E-02 0. -1.
       -1   -1    0    0    0  501  0.00000000000E+00  0.00000000000E+00 -0.17132706314E+04  0.17132706314E+04  0.50400001928E-02 0.  1.
    10030    2    1    2    0    0  0.00000000000E+00  0.00000000000E+00 -0.40159376227E+03  0.30249475005E+04  0.29981710810E+04 0.  0.
        2    1    3    3  502    0  0.33681155056E+03 -0.91811025836E+02  0.12700936636E+04  0.13171974793E+04  0.25500000920E-02 0. -1.
       -2    1    3    3    0  502 -0.33681155056E+03  0.91811025836E+02 -0.16716874259E+04  0.17077500212E+04  0.25500000920E-02 0.  1.
</event>
<event>
 5   0  0.5887179E-07  0.3005315E+04  0.7818609E-02  0.8242215E-01
        1   -1    0    0  501    0  0.00000000000E+00  0.00000000000E+00  0.18941301772E+04  0.18941301772E+04  0.50400001928E-02 0. -1.
       -1   -1    0    0    0  501  0.00000000000E+00  0.00000000000E+00 -0.11920927600E+04  0.11920927600E+04  0.50400001928E-02 0.  1.
    10030    2    1    2    0    0  0.00000000000E+00  0.00000000000E+00  0.70203741718E+03  0.30862229372E+04  0.30053145398E+04 0.  0.
        3    1    3    3  502    0  0.61907207236E+02 -0.17341803494E+03 -0.11804630789E+04  0.11947382174E+04  0.10100000352E+00 0.  1.
       -3    1    3    3    0  502 -0.61907207236E+02  0.17341803494E+03  0.18825004961E+04  0.18914847198E+04  0.10100000352E+00 0. -1.
</event>
<event>
 5   0  0.5916703E-07  0.2836747E+04  0.7818609E-02  0.8291950E-01
        1   -1    0    0  501    0  0.00000000000E+00  0.00000000000E+00  0.20729119449E+04  0.20729119450E+04  0.50400001928E-02 0.  1.
       -1   -1    0    0    0  501  0.00000000000E+00  0.00000000000E+00 -0.97051087744E+03  0.97051087745E+03  0.50400001928E-02 0. -1.
    10030    2    1    2    0    0  0.00000000000E+00  0.00000000000E+00  0.11024010675E+04  0.30434228224E+04  0.28367471446E+04 0.  0.
        5    1    3    3  502    0  0.12683841824E+03 -0.95751798832E+03 -0.56314208652E+03  0.11180696677E+04  0.46999998093E+01 0. -1.
       -5    1    3    3    0  502 -0.12683841824E+03  0.95751798832E+03  0.16655431540E+04  0.19253531547E+04  0.46999998093E+01 0.  1.
</event>
<event>
 5   0  0.1560174E-06  0.2992466E+04  0.7818609E-02  0.8245886E-01
        2   -1    0    0  501    0  0.00000000000E+00  0.00000000000E+00  0.22932601920E+04  0.22932601920E+04  0.25500000920E-02 0.  1.
       -2   -1    0    0    0  501  0.00000000000E+00  0.00000000000E+00 -0.97621427811E+03  0.97621427811E+03  0.25500000920E-02 0. -1.
    10030    2    1    2    0    0  0.00000000000E+00  0.00000000000E+00  0.13170459139E+04  0.32694744702E+04  0.29924661020E+04 0.  0.
        5    1    3    3  502    0  0.37327097281E+03  0.12981813125E+04 -0.44539042382E+02  0.13515220144E+04  0.46999998093E+01 0. -1.
       -5    1    3    3    0  502 -0.37327097281E+03 -0.12981813125E+04  0.13615849563E+04  0.19179524557E+04  0.46999998093E+01 0.  1.
</event>
<event>
 5   0  0.6291798E-07  0.2999434E+04  0.7818609E-02  0.8243893E-01
        1   -1    0    0  501    0  0.00000000000E+00  0.00000000000E+00  0.10429127870E+04  0.10429127870E+04  0.50400001928E-02 0. -1.
       -1   -1    0    0    0  501  0.00000000000E+00  0.00000000000E+00 -0.21566044924E+04  0.21566044924E+04  0.50400001928E-02 0.  1.
    10030    2    1    2    0    0  0.00000000000E+00  0.00000000000E+00 -0.11136917054E+04  0.31995172794E+04  0.29994335476E+04 0.  0.
        1    1    3    3  502    0 -0.10274603185E+04  0.31772779229E+03  0.55811817680E+03  0.12116606602E+04  0.50400001928E-02 0. -1.
       -1    1    3    3    0  502  0.10274603185E+04 -0.31772779229E+03 -0.16718098822E+04  0.19878566192E+04  0.50400001928E-02 0.  1.
</event>
<event>
 5   0  0.5916703E-07  0.2982166E+04  0.7818609E-02  0.8248842E-01
       -1   -1    0    0    0  501  0.00000000000E+00  0.00000000000E+00  0.10345427133E+04  0.10345427133E+04  0.50400001928E-02 0.  1.
        1   -1    0    0  501    0  0.00000000000E+00  0.00000000000E+00 -0.21490929437E+04  0.21490929437E+04  0.50400001928E-02 0. -1.
    10030    2    1    2    0    0  0.00000000000E+00  0.00000000000E+00 -0.11145502304E+04  0.31836356570E+04  0.29821659545E+04 0.  0.
        5    1    3    3  502    0  0.12650491029E+04  0.48011845921E+03  0.11149993141E+03  0.13576882161E+04  0.46999998093E+01 0.  1.
       -5    1    3    3    0  502 -0.12650491029E+04 -0.48011845921E+03 -0.12260501618E+04  0.18259474409E+04  0.46999998093E+01 0. -1.
</event>
<event>
 5   0  0.5874741E-07  0.2998769E+04  0.7818609E-02  0.8244083E-01
       -1   -1    0    0    0  501  0.00000000000E+00  0.00000000000E+00  0.99552796840E+03  0.99552796842E+03  0.50400001928E-02 0.  1.
        1   -1    0    0  501    0  0.00000000000E+00  0.00000000000E+00 -0.22582524764E+04  0.22582524764E+04  0.50400001928E-02 0. -1.
    10030    2    1    2    0    0  0.00000000000E+00  0.00000000000E+00 -0.12627245080E+04  0.32537804449E+04  0.29987687474E+04 0.  0.
        4    1    3    3  502    0  0.19677409029E+02  0.11830510270E+04 -0.16306323024E+04  0.20146861422E+04  0.12699999809E+01 0. -1.
       -4    1    3    3    0  502 -0.19677409029E+02 -0.11830510270E+04  0.36790779434E+03  0.12390943027E+04  0.12699999809E+01 0.  1.
</event>
<event>
 5   0  0.5931588E-07  0.2993307E+04  0.7818609E-02  0.8245645E-01
        1   -1    0    0  501    0  0.00000000000E+00  0.00000000000E+00  0.14384405144E+04  0.14384405144E+04  0.50400001928E-02 0.  1.
       -1   -1    0    0    0  501  0.00000000000E+00  0.00000000000E+00 -0.15572224835E+04  0.15572224835E+04  0.50400001928E-02 0. -1.
    10030    2    1    2    0    0  0.00000000000E+00  0.00000000000E+00 -0.11878196909E+03  0.29956629978E+04  0.29933071410E+04 0.  0.
        2    1    3    3  502    0 -0.14643268882E+04 -0.29222980382E+03 -0.16106039018E+03  0.15018628243E+04  0.25500000920E-02 0.  1.
       -2    1    3    3    0  502  0.14643268882E+04  0.29222980382E+03  0.42278421089E+02  0.14938001736E+04  0.25500000920E-02 0. -1.
</event>
<event>
 5   0  0.1674806E-06  0.2974189E+04  0.7818609E-02  0.8251140E-01
        2   -1    0    0  501    0  0.00000000000E+00  0.00000000000E+00  0.15180885686E+04  0.15180885686E+04  0.25500000920E-02 0.  1.
       -2   -1    0    0    0  501  0.00000000000E+00  0.00000000000E+00 -0.14567328750E+04  0.14567328750E+04  0.25500000920E-02 0. -1.
    10030    2    1    2    0    0  0.00000000000E+00  0.00000000000E+00  0.61355693617E+02  0.29748214436E+04  0.29741886457E+04 0.  0.
        2    1    3    3  502    0  0.47461923590E+03  0.11160380246E+04 -0.83011273824E+03  0.14696569156E+04  0.25500000920E-02 0. -1.
       -2    1    3    3    0  502 -0.47461923590E+03 -0.11160380246E+04  0.89146843185E+03  0.15051645280E+04  0.25500000920E-02 0.  1.
</event>
<event>
 5   0  0.1635086E-06  0.2953562E+04  0.7818609E-02  0.8257117E-01
       -2   -1    0    0    0  501  0.00000000000E+00  0.00000000000E+00  0.19925946556E+04  0.19925946556E+04  0.25500000920E-02 0.  1.
        2   -1    0    0  501    0  0.00000000000E+00  0.00000000000E+00 -0.10944934111E+04  0.10944934111E+04  0.25500000920E-02 0. -1.
    10030    2    1    2    0    0  0.00000000000E+00  0.00000000000E+00  0.89810124445E+03  0.30870880667E+04  0.29535617288E+04 0.  0.
        3    1    3    3  502    0  0.11992240866E+02 -0.12616499074E+04  0.12511945227E+04  0.17769051878E+04  0.10100000352E+00 0.  1.
       -3    1    3    3    0  502 -0.11992240866E+02  0.12616499074E+04 -0.35309327830E+03  0.13101828788E+04  0.10100000352E+00 0. -1.
</event>
<event>
 5   0  0.1625212E-06  0.2984747E+04  0.7818609E-02  0.8248100E-01
       -2   -1    0    0    0  501  0.00000000000E+00  0.00000000000E+00  0.97326643239E+03  0.97326643239E+03  0.25500000920E-02 0.  1.
        2   -1    0    0  501    0  0.00000000000E+00  0.00000000000E+00 -0.22883541415E+04  0.22883541415E+04  0.25500000920E-02 0. -1.
    10030    2    1    2    0    0  0.00000000000E+00  0.00000000000E+00 -0.13150877091E+04  0.32616205739E+04  0.29847467372E+04 0.  0.
        4    1    3    3  502    0 -0.91379161944E+03  0.10344227797E+04 -0.12777588243E+04  0.18808813989E+04  0.12699999809E+01 0. -1.
       -4    1    3    3    0  502  0.91379161944E+03 -0.10344227797E+04 -0.37328884816E+02  0.13807391750E+04  0.12699999809E+01 0.  1.
</event>
<event>
 5   0  0.5916703E-07  0.3001179E+04  0.7818609E-02  0.8243394E-01
       -1   -1    0    0    0  501  0.00000000000E+00  0.00000000000E+00  0.11514945290E+04  0.11514945290E+04  0.50400001928E-02 0. -1.
        1   -1    0    0  501    0  0.00000000000E+00  0.00000000000E+00 -0.19555188146E+04  0.19555188146E+04  0.50400001928E-02 0.  1.
    10030    2    1    2    0    0  0.00000000000E+00  0.00000000000E+00 -0.80402428554E+03  0.31070133436E+04  0.30011792458E+04 0.  0.
        5    1    3    3  502    0 -0.90503263961E+03  0.96302468309E+03 -0.11378851012E+04  0.17439338326E+04  0.46999998093E+01 0.  1.
       -5    1    3    3    0  502  0.90503263961E+03 -0.96302468309E+03  0.33386081570E+03  0.13630795110E+04  0.46999998093E+01 0. -1.
</event>
<event>
 5   0  0.1723916E-06  0.2989913E+04  0.7818609E-02  0.8246617E-01
        2   -1    0    0  501    0  0.00000000000E+00  0.00000000000E+00  0.26613565096E+04  0.26613565096E+04  0.25500000920E-02 0.  1.
       -2   -1    0    0    0  501  0.00000000000E+00  0.00000000000E+00 -0.83975759821E+03  0.83975759822E+03  0.25500000920E-02 0. -1.
    10030    2    1    2    0    0  0.00000000000E+00  0.00000000000E+00  0.18215989114E+04  0.35011141079E+04  0.29899126078E+04 0.  0.
        1    1    3    3  502    0  0.67713455886E+03 -0.13304054315E+04  0.10045106172E+04  0.17993141480E+04  0.50400001928E-02 0.  1.
       -1    1    3    3    0  502 -0.67713455886E+03  0.13304054315E+04  0.81708829421E+03  0.17017999599E+04  0.50400001928E-02 0. -1.
</event>
<event>
 5   0  0.1560174E-06  0.2992951E+04  0.7818609E-02  0.8245747E-01
        2   -1    0    0  501    0  0.00000000000E+00  0.00000000000E+00  0.18771522767E+04  0.18771522768E+04  0.25500000920E-02 0. -1.
       -2   -1    0    0    0  501  0.00000000000E+00  0.00000000000E+00 -0.11929976309E+04  0.11929976309E+04  0.25500000920E-02 0.  1.
    10030    2    1    2    0    0  0.00000000000E+00  0.00000000000E+00  0.68415464588E+03  0.30701499076E+04  0.29929505301E+04 0.  0.
        5    1    3    3  502    0  0.10278273659E+04  0.44646686813E+03 -0.67529824969E+03  0.13083621725E+04  0.46999998093E+01 0. -1.
       -5    1    3    3    0  502 -0.10278273659E+04 -0.44646686813E+03  0.13594528956E+04  0.17617877351E+04  0.46999998093E+01 0.  1.
</event>
<event>
 5   0  0.5874741E-07  0.3001404E+04  0.7818609E-02  0.8243330E-01
       -1   -1    0    0    0  501  0.00000000000E+00  0.00000000000E+00  0.97137508800E+03  0.97137508801E+03  0.50400001928E-02 0. -1.
        1   -1    0    0  501    0  0.00000000000E+00  0.00000000000E+00 -0.23184731139E+04  0.23184731139E+04  0.50400001928E-02 0.  1.
    10030    2    1    2    0    0  0.00000000000E+00  0.00000000000E+00 -0.13470980259E+04  0.32898482019E+04  0.30014043547E+04 0.  0.
        4    1    3    3  502    0 -0.56887438538E+03  0.75449946154E+03  0.60434811812E+03  0.11216620545E+04  0.12699999809E+01 0. -1.
       -4    1    3    3    0  502  0.56887438538E+03 -0.75449946154E+03 -0.19514461440E+04  0.21681861474E+04  0.12699999809E+01 0.  1.
</event>
<event>
 5   0  0.5931588E-07  0.3002389E+04  0.7818609E-02  0.8243049E-01
       -1   -1    0    0    0  501  0.00000000000E+00  0.00000000000E+00  0.12615874243E+04  0.12615874243E+04  0.50400001928E-02 0. -1.
        1   -1    0    0  501    0  0.00000000000E+00  0.00000000000E+00 -0.17863094315E+04  0.17863094315E+04  0.50400001928E-02 0.  1.
    10030    2    1    2    0    0  0.00000000000E+00  0.00000000000E+00 -0.52472200721E+03  0.30478968559E+04  0.30023893917E+04 0.  0.
        2    1    3    3  502    0  0.40940302372E+03 -0.34797968482E+03 -0.16853508378E+04  0.17689285297E+04  0.25500000920E-02 0.  1.
       -2    1    3    3    0  502 -0.40940302372E+03  0.34797968482E+03  0.11606288306E+04  0.12789683261E+04  0.25500000920E-02 0. -1.
</event>
<event>
 5   0  0.5931588E-07  0.2986852E+04  0.7818609E-02  0.8247495E-01
       -1   -1    0    0    0  501  0.00000000000E+00  0.00000000000E+00  0.17248664524E+04  0.17248664524E+04  0.50400001928E-02 0. -1.
        1   -1    0    0  501    0  0.00000000000E+00  0.00000000000E+00 -0.12930395433E+04  0.12930395433E+04  0.50400001928E-02 0.  1.
    10030    2    1    2    0    0  0.00000000000E+00  0.00000000000E+00  0.43182690905E+03  0.30179059957E+04  0.29868515396E+04 0.  0.
        2    1    3    3  502    0 -0.95435847550E+03  0.59677571333E+03 -0.77581026126E+03  0.13670489798E+04  0.25500000920E-02 0.  1.
       -2    1    3    3    0  502  0.95435847550E+03 -0.59677571333E+03  0.12076371703E+04  0.16508570159E+04  0.25500000920E-02 0. -1.
</event>
<event>
 5   0  0.5916703E-07  0.3022858E+04  0.7818609E-02  0.8237234E-01
        1   -1    0    0  501    0  0.00000000000E+00  0.00000000000E+00  0.11585600383E+04  0.11585600383E+04  0.50400001928E-02 0. -1.
       -1   -1    0    0    0  501  0.00000000000E+00  0.00000000000E+00 -0.19717728874E+04  0.19717728874E+04  0.50400001928E-02 0.  1.
    10030    2    1    2    0    0  0.00000000000E+00  0.00000000000E+00 -0.81321284911E+03  0.31303329258E+04  0.30228577684E+04 0.  0.
        5    1    3    3  502    0 -0.13811788855E+04  0.51207344602E+03 -0.56165267475E+02  0.14741271841E+04  0.46999998093E+01 0.  1.
       -5    1    3    3    0  502  0.13811788855E+04 -0.51207344602E+03 -0.75704758163E+03  0.16562057416E+04  0.46999998093E+01 0. -1.
</event>
<event>
 5   0  0.5931588E-07  0.2998470E+04  0.7818609E-02  0.8244168E-01
       -1   -1    0    0    0  501  0.00000000000E+00  0.00000000000E+00  0.10572702233E+04  0.10572702233E+04  0.50400001928E-02 0.  1.
        1   -1    0    0  501    0  0.00000000000E+00  0.00000000000E+00 -0.21259513762E+04  0.21259513762E+04  0.50400001928E-02 0. -1.
    10030    2    1    2    0    0  0.00000000000E+00  0.00000000000E+00 -0.10686811529E+04  0.31832215995E+04  0.29984696672E+04 0.  0.
        2    1    3    3  502    0  0.12582707008E+04  0.81304044505E+03 -0.59647151607E+03  0.16124695939E+04  0.25500000920E-02 0.  1.
       -2    1    3    3    0  502 -0.12582707008E+04 -0.81304044505E+03 -0.47220963679E+03  0.15707520056E+04  0.25500000920E-02 0. -1.
</event>
<event>
 5   0  0.1674806E-06  0.2996801E+04  0.7818609E-02  0.8244645E-01
        2   -1    0    0  501    0  0.00000000000E+00  0.00000000000E+00  0.27761484293E+04  0.27761484293E+04  0.25500000920E-02 0.  1.
       -2   -1    0    0    0  501  0.00000000000E+00  0.00000000000E+00 -0.80874772027E+03  0.80874772027E+03  0.25500000920E-02 0. -1.
    10030    2    1    2    0    0  0.00000000000E+00  0.00000000000E+00  0.19674007090E+04  0.35848961496E+04  0.29968007697E+04 0.  0.
        2    1    3    3  502    0 -0.12572200030E+04  0.26010257912E+03  0.59455502185E+02  0.12852199985E+04  0.25500000920E-02 0. -1.
       -2    1    3    3    0  502  0.12572200030E+04 -0.26010257912E+03  0.19079452069E+04  0.22996761511E+04  0.25500000920E-02 0.  1.
</event>
<event>
 5   0  0.1674806E-06  0.3002560E+04  0.7818609E-02  0.8243000E-01
       -2   -1    0    0    0  501  0.00000000000E+00  0.00000000000E+00  0.92383471247E+03  0.92383471247E+03  0.25500000920E-02 0. -1.
        2   -1    0    0  501    0  0.00000000000E+00  0.00000000000E+00 -0.24396597510E+04  0.24396597510E+04  0.25500000920E-02 0.  1.
    10030    2    1    2    0    0  0.00000000000E+00  0.00000000000E+00 -0.15158250385E+04  0.33634944635E+04  0.30025604837E+04 0.  0.
        2    1    3    3  502    0 -0.12302048568E+04  0.29228967039E+02  0.20545659482E+03  0.12475859628E+04  0.25500000920E-02 0. -1.
       -2    1    3    3    0  502  0.12302048568E+04 -0.29228967039E+02 -0.17212816334E+04  0.21159085007E+04  0.25500000920E-02 0.  1.
</event>
<event>
 5   0  0.1635086E-06  0.2986206E+04  0.7818609E-02  0.8247681E-01
        2   -1    0    0  501    0  0.00000000000E+00  0.00000000000E+00  0.75594803110E+03  0.75594803110E+03  0.25500000920E-02 0. -1.
       -2   -1    0    0    0  501  0.00000000000E+00  0.00000000000E+00 -0.29490861290E+04  0.29490861290E+04  0.25500000920E-02 0.  1.
    10030    2    1    2    0    0  0.00000000000E+00  0.00000000000E+00 -0.21931380980E+04  0.37050341602E+04  0.29862055206E+04 0.  0.
        3    1    3    3  502    0  0.74422773699E+03 -0.12144577846E+04 -0.54090924371E+03  0.15236027879E+04  0.10100000352E+00 0.  1.
       -3    1    3    3    0  502 -0.74422773699E+03  0.12144577846E+04 -0.16522288542E+04  0.21814313723E+04  0.10100000352E+00 0. -1.
</event>
<event>
 5   0  0.6291798E-07  0.2968354E+04  0.7818609E-02  0.8252826E-01
       -1   -1    0    0    0  501  0.00000000000E+00  0.00000000000E+00  0.10427060355E+04  0.10427060355E+04  0.50400001928E-02 0.  1.
        1   -1    0    0  501    0  0.00000000000E+00  0.00000000000E+00 -0.21125616204E+04  0.21125616204E+04  0.50400001928E-02 0. -1.
    10030    2    1    2    0    0  0.00000000000E+00  0.00000000000E+00 -0.10698555850E+04  0.31552676559E+04  0.29683535854E+04 0.  0.
        1    1    3    3  502    0 -0.82536141737E+03 -0.59480343226E+03 -0.16836073395E+04  0.19671162310E+04  0.50400001928E-02 0. -1.
       -1    1    3    3    0  502  0.82536141737E+03  0.59480343226E+03  0.61375175458E+03  0.11881514249E+04  0.50400001928E-02 0.  1.
</event>
<event>
 5   0  0.5931588E-07  0.2997469E+04  0.7818609E-02  0.8244454E-01
       -1   -1    0    0    0  501  0.00000000000E+00  0.00000000000E+00  0.30854797789E+04  0.30854797789E+04  0.50400001928E-02 0.  1.
        1   -1    0    0  501    0  0.00000000000E+00  0.00000000000E+00 -0.72799216469E+03  0.72799216470E+03  0.50400001928E-02 0. -1.
    10030    2    1    2    0    0  0.00000000000E+00  0.00000000000E+00  0.23574876142E+04  0.38134719436E+04  0.29974690013E+04 0.  0.
        2    1    3    3  502    0 -0.12427187302E+04 -0.33864517555E+03  0.21536201344E+04  0.25094043278E+04  0.25500000920E-02 0.  1.
       -2    1    3    3    0  502  0.12427187302E+04  0.33864517555E+03  0.20386747986E+03  0.13040676158E+04  0.25500000920E-02 0. -1.
</event>
<event>
 5   0  0.5931588E-07  0.3018155E+04  0.7818609E-02  0.8238566E-01
       -1   -1    0    0    0  501  0.00000000000E+00  0.00000000000E+00  0.25230207233E+04  0.25230207233E+04  0.50400001928E-02 0. -1.
        1   -1    0    0  501    0  0.00000000000E+00  0.00000000000E+00 -0.90261438189E+03  0.90261438190E+03  0.50400001928E-02 0.  1.
    10030    2    1    2    0    0  0.00000000000E+00  0.00000000000E+00  0.16204063414E+04  0.34256351052E+04  0.30181549269E+04 0.  0.
        2    1    3    3  502    0 -0.12156201562E+04 -0.89408108629E+03  0.79409412465E+03  0.17051975932E+04  0.25500000920E-02 0.  1.
       -2    1    3    3    0  502  0.12156201562E+04  0.89408108629E+03  0.82631221674E+03  0.17204375120E+04  0.25500000920E-02 0. -1.
</event>
<event>
 5   0  0.1635086E-06  0.2993757E+04  0.7818609E-02  0.8245516E-01
       -2   -1    0    0    0  501  0.00000000000E+00  0.00000000000E+00  0.69496760588E+03  0.69496760589E+03  0.25500000920E-02 0.  1.
        2   -1    0    0  501    0  0.00000000000E+00  0.00000000000E+00 -0.32241009485E+04  0.32241009485E+04  0.25500000920E-02 0. -1.
    10030    2    1    2    0    0  0.00000000000E+00  0.00000000000E+00 -0.25291333426E+04  0.39190685544E+04  0.29937573164E+04 0.  0.
        3    1    3    3  502    0 -0.97240461903E+03  0.68281045399E+03 -0.72768020450E+02  0.11904184366E+04  0.10100000352E+00 0.  1.
       -3    1    3    3    0  502  0.97240461903E+03 -0.68281045399E+03 -0.24563653222E+04  0.27286501178E+04  0.10100000352E+00 0. -1.
</event>
<event>
 5   0  0.1674806E-06  0.2994821E+04  0.7818609E-02  0.8245211E-01
       -2   -1    0    0    0  501  0.00000000000E+00  0.00000000000E+00  0.92019185245E+03  0.92019185246E+03  0.25500000920E-02 0. -1.
        2   -1    0    0  501    0  0.00000000000E+00  0.00000000000E+00 -0.24367066480E+04  0.24367066480E+04  0.25500000920E-02 0.  1.
    10030    2    1    2    0    0  0.00000000000E+00  0.00000000000E+00 -0.15165147955E+04  0.33568985005E+04  0.29948205985E+04 0.  0.
        2    1    3    3  502    0 -0.37179118268E+03  0.44288752601E+03 -0.23065056549E+04  0.23778869570E+04  0.25500000920E-02 0.  1.
       -2    1    3    3    0  502  0.37179118268E+03 -0.44288752601E+03  0.78999085939E+03  0.97901154341E+03  0.25500000920E-02 0. -1.
</event>
<event>
 5   0  0.1674806E-06  0.2979273E+04  0.7818609E-02  0.8249675E-01
        2   -1    0    0  501    0  0.00000000000E+00  0.00000000000E+00  0.13060776638E+04  0.13060776639E+04  0.25500000920E-02 0. -1.
       -2   -1    0    0    0  501  0.00000000000E+00  0.00000000000E+00 -0.16989926024E+04  0.16989926024E+04  0.25500000920E-02 0.  1.
    10030    2    1    2    0    0  0.00000000000E+00  0.00000000000E+00 -0.39291493860E+03  0.30050702663E+04  0.29792725885E+04 0.  0.
        2    1    3    3  502    0 -0.66769854839E+03  0.12096062426E+04  0.36518330627E+03  0.14291002277E+04  0.25500000920E-02 0.  1.
       -2    1    3    3    0  502  0.66769854839E+03 -0.12096062426E+04 -0.75809824486E+03  0.15759700386E+04  0.25500000920E-02 0. -1.
</event>
<event>
 5   0  0.5874741E-07  0.2974752E+04  0.7818609E-02  0.8250978E-01
        1   -1    0    0  501    0  0.00000000000E+00  0.00000000000E+00  0.12864612612E+04  0.12864612612E+04  0.50400001928E-02 0.  1.
       -1   -1    0    0    0  501  0.00000000000E+00  0.00000000000E+00 -0.17196685150E+04  0.17196685150E+04  0.50400001928E-02 0. -1.
    10030    2    1    2    0    0  0.00000000000E+00  0.00000000000E+00 -0.43320725378E+03  0.30061297763E+04  0.29747517051E+04 0.  0.
        4    1    3    3  502    0 -0.79762246973E+03 -0.94420650111E+03  0.61950376435E+03  0.13825751509E+04  0.12699999809E+01 0.  1.
       -4    1    3    3    0  502  0.79762246973E+03  0.94420650111E+03 -0.10527110181E+04  0.16235546254E+04  0.12699999809E+01 0. -1.
</event>
<event>
 5   0  0.5431625E-07  0.2963732E+04  0.7818609E-02  0.8254164E-01
       -3   -1    0    0    0  501  0.00000000000E+00  0.00000000000E+00  0.89061897299E+03  0.89061897872E+03  0.10100000352E+00 0. -1.
        3   -1    0    0  501    0  0.00000000000E+00  0.00000000000E+00 -0.24656182129E+04  0.24656182150E+04  0.10100000352E+00 0.  1.
    10030    2    1    2    0    0  0.00000000000E+00  0.00000000000E+00 -0.15749992399E+04  0.33562371937E+04  0.29637316840E+04 0.  0.
        4    1    3    3  502    0 -0.11480602495E+04  0.61232958960E+03  0.15600422379E+02  0.13012435778E+04  0.12699999809E+01 0. -1.
       -4    1    3    3    0  502  0.11480602495E+04 -0.61232958960E+03 -0.15905996623E+04  0.20549936159E+04  0.12699999809E+01 0.  1.
</event>
<event>
 5   0  0.1723916E-06  0.2985804E+04  0.7818609E-02  0.8247796E-01
       -2   -1    0    0    0  501  0.00000000000E+00  0.00000000000E+00  0.11263037480E+04  0.11263037480E+04  0.25500000920E-02 0.  1.
        2   -1    0    0  501    0  0.00000000000E+00  0.00000000000E+00 -0.19788241631E+04  0.19788241631E+04  0.25500000920E-02 0. -1.
    10030    2    1    2    0    0  0.00000000000E+00  0.00000000000E+00 -0.85252041512E+03  0.31051279110E+04  0.29858044621E+04 0.  0.
        1    1    3    3  502    0 -0.12982372216E+03 -0.78587576545E+03 -0.17393772825E+04  0.19130834400E+04  0.50400001928E-02 0. -1.
       -1    1    3    3    0  502  0.12982372216E+03  0.78587576545E+03  0.88685686739E+03  0.11920444710E+04  0.50400001928E-02 0.  1.
</event>
<event>
 5   0  0.1635086E-06  0.3000065E+04  0.7818609E-02  0.8243712E-01
        2   -1    0    0  501    0  0.00000000000E+00  0.00000000000E+00  0.20448439053E+04  0.20448439053E+04  0.25500000920E-02 0. -1.
       -2   -1    0    0    0  501  0.00000000000E+00  0.00000000000E+00 -0.11003759335E+04  0.11003759335E+04  0.25500000920E-02 0.  1.
    10030    2    1    2    0    0  0.00000000000E+00  0.00000000000E+00  0.94446797186E+03  0.31452198388E+04  0.30000646800E+04 0.  0.
        3    1    3    3  502    0  0.27974740792E+03 -0.13552278261E+04 -0.13473955797E+03  0.13903437818E+04  0.10100000352E+00 0. -1.
       -3    1    3    3    0  502 -0.27974740792E+03  0.13552278261E+04  0.10792075298E+04  0.17548760570E+04  0.10100000352E+00 0.  1.
</event>
<event>
 5   0  0.5931588E-07  0.2987419E+04  0.7818609E-02  0.8247333E-01
        1   -1    0    0  501    0  0.00000000000E+00  0.00000000000E+00  0.21386789164E+04  0.21386789164E+04  0.50400001928E-02 0. -1.
       -1   -1    0    0    0  501  0.00000000000E+00  0.00000000000E+00 -0.10432458485E+04  0.10432458486E+04  0.50400001928E-02 0.  1.
    10030    2    1    2    0    0  0.00000000000E+00  0.00000000000E+00  0.10954330678E+04  0.31819247649E+04  0.29874188865E+04 0.  0.
        2    1    3    3  502    0 -0.10853555439E+04 -0.53981856865E+03  0.14773353526E+04  0.19109998660E+04  0.25500000920E-02 0. -1.
       -2    1    3    3    0  502  0.10853555439E+04  0.53981856865E+03 -0.38190228480E+03  0.12709248990E+04  0.25500000920E-02 0.  1.
</event>
<event>
 5   0  0.1635086E-06  0.2980596E+04  0.7818609E-02  0.8249294E-01
       -2   -1    0    0    0  501  0.00000000000E+00  0.00000000000E+00  0.10131587820E+04  0.10131587820E+04  0.25500000920E-02 0. -1.
        2   -1    0    0  501    0  0.00000000000E+00  0.00000000000E+00 -0.21921423800E+04  0.21921423800E+04  0.25500000920E-02 0.  1.
    10030    2    1    2    0    0  0.00000000000E+00  0.00000000000E+00 -0.11789835980E+04  0.32053011620E+04  0.29805961173E+04 0.  0.
        3    1    3    3  502    0  0.12377497814E+04  0.44254460206E+03  0.16567199236E+03  0.13248839441E+04  0.10100000352E+00 0. -1.
       -3    1    3    3    0  502 -0.12377497814E+04 -0.44254460206E+03 -0.13446555904E+04  0.18804172178E+04  0.10100000352E+00 0.  1.
</event>
<event>
 5   0  0.1674806E-06  0.2899981E+04  0.7818609E-02  0.8272883E-01
       -2   -1    0    0    0  501  0.00000000000E+00  0.00000000000E+00  0.13287880637E+04  0.13287880637E+04  0.25500000920E-02 0.  1.
        2   -1    0    0  501    0  0.00000000000E+00  0.00000000000E+00 -0.15822486768E+04  0.15822486768E+04  0.25500000920E-02 0. -1.
    10030    2    1    2    0    0  0.00000000000E+00  0.00000000000E+00 -0.25346061309E+03  0.29110367406E+04  0.28999814866E+04 0.  0.
        2    1    3    3  502    0  0.95940040591E+03  0.10510449879E+04  0.15240971954E+03  0.14312139700E+04  0.25500000920E-02 0.  1.
       -2    1    3    3    0  502 -0.95940040591E+03 -0.10510449879E+04 -0.40587033263E+03  0.14798227706E+04  0.25500000920E-02 0. -1.
</event>
<event>
 5   0  0.1560174E-06  0.3005585E+04  0.7818609E-02  0.8242138E-01
        2   -1    0    0  501    0  0.00000000000E+00  0.00000000000E+00  0.15299339673E+04  0.15299339673E+04  0.25500000920E-02 0.  1.
       -2   -1    0    0    0  501  0.00000000000E+00  0.00000000000E+00 -0.14761322680E+04  0.14761322680E+04  0.25500000920E-02 0. -1.
    10030    2    1    2    0    0  0.00000000000E+00  0.00000000000E+00  0.53801699241E+02  0.30060662353E+04  0.30055847332E+04 0.  0.
        5    1    3    3  502    0 -0.77243283113E+03  0.12818234381E+04 -0.10964575269E+03  0.15005892463E+04  0.46999998093E+01 0.  1.
       -5    1    3    3    0  502  0.77243283113E+03 -0.12818234381E+04  0.16344745193E+03  0.15054769890E+04  0.46999998093E+01 0. -1.
</event>
<event>
 5   0  0.5916703E-07  0.2964747E+04  0.7818609E-02  0.8253870E-01
        1   -1    0    0  501    0  0.00000000000E+00  0.00000000000E+00  0.16828631635E+04  0.16828631635E+04  0.50400001928E-02 0. -1.
       -1   -1    0    0    0  501  0.00000000000E+00  0.00000000000E+00 -0.13057692259E+04  0.13057692259E+04  0.50400001928E-02 0.  1.
    10030    2    1    2    0    0  0.00000000000E+00  0.00000000000E+00  0.37709393759E+03  0.29886323895E+04  0.29647468225E+04 0.  0.
        5    1    3    3  502    0 -0.12324048388E+04  0.45612738523E+03 -0.50293496162E+03  0.14070677112E+04  0.46999998093E+01 0.  1.
       -5    1    3    3    0  502  0.12324048388E+04 -0.45612738523E+03  0.88002889921E+03  0.15815646783E+04  0.46999998093E+01 0. -1.
</event>
<event>
 5   0  0.5916703E-07  0.3025747E+04  0.7818609E-02  0.8236417E-01
       -1   -1    0    0    0  501  0.00000000000E+00  0.00000000000E+00  0.91884444767E+03  0.91884444768E+03  0.50400001928E-02 0. -1.
        1   -1    0    0  501    0  0.00000000000E+00  0.00000000000E+00 -0.24909394543E+04  0.24909394543E+04  0.50400001928E-02 0.  1.
    10030    2    1    2    0    0  0.00000000000E+00  0.00000000000E+00 -0.15720950066E+04  0.34097839020E+04  0.30257467753E+04 0.  0.
        5    1    3    3  502    0 -0.10555375426E+04  0.10760477440E+04 -0.64030560283E+03  0.16376970435E+04  0.46999998093E+01 0. -1.
       -5    1    3    3    0  502  0.10555375426E+04 -0.10760477440E+04 -0.93178940381E+03  0.17720868585E+04  0.46999998093E+01 0.  1.
</event>
<event>
 5   0  0.1723916E-06  0.2988929E+04  0.7818609E-02  0.8246899E-01
        2   -1    0    0  501    0  0.00000000000E+00  0.00000000000E+00  0.21659470696E+04  0.21659470696E+04  0.25500000920E-02 0.  1.
       -2   -1    0    0    0  501  0.00000000000E+00  0.00000000000E+00 -0.10311533025E+04  0.10311533025E+04  0.25500000920E-02 0. -1.
    10030    2    1    2    0    0  0.00000000000E+00  0.00000000000E+00  0.11347937671E+04  0.31971003721E+04  0.29889285531E+04 0.  0.
        1    1    3    3  502    0  0.12136075729E+04 -0.72517507076E+03  0.10855981119E+04  0.17824829550E+04  0.50400001928E-02 0.  1.
       -1    1    3    3    0  502 -0.12136075729E+04  0.72517507076E+03  0.49195655140E+02  0.14146174171E+04  0.50400001928E-02 0. -1.
</event>
<event>
 5   0  0.5874741E-07  0.2992812E+04  0.7818609E-02  0.8245787E-01
       -1   -1    0    0    0  501  0.00000000000E+00  0.00000000000E+00  0.10055029682E+04  0.10055029682E+04  0.50400001928E-02 0. -1.
        1   -1    0    0  501    0  0.00000000000E+00  0.00000000000E+00 -0.22269752342E+04  0.22269752342E+04  0.50400001928E-02 0.  1.
    10030    2    1    2    0    0  0.00000000000E+00  0.00000000000E+00 -0.12214722661E+04  0.32324782024E+04  0.29928115264E+04 0.  0.
        4    1    3    3  502    0  0.10722278439E+04 -0.74854944656E+03 -0.13964752437E+04  0.19131501620E+04  0.12699999809E+01 0.  1.
       -4    1    3    3    0  502 -0.10722278439E+04  0.74854944656E+03  0.17500297764E+03  0.13193280404E+04  0.12699999809E+01 0. -1.
</event>
<event>
 5   0  0.1674806E-06  0.2993320E+04  0.7818609E-02  0.8245641E-01
       -2   -1    0    0    0  501  0.00000000000E+00  0.00000000000E+00  0.12642313290E+04  0.12642313290E+04  0.25500000920E-02 0.  1.
        2   -1    0    0  501    0  0.00000000000E+00  0.00000000000E+00 -0.17718209809E+04  0.17718209809E+04  0.25500000920E-02 0. -1.
    10030    2    1    2    0    0  0.00000000000E+00  0.00000000000E+00 -0.50758965184E+03  0.30360523099E+04  0.29933202926E+04 0.  0.
        2    1    3    3  502    0 -0.79486997770E+03  0.47735070056E+03  0.93784310186E+03  0.13187993238E+04  0.25500000920E-02 0.  1.
       -2    1    3    3    0  502  0.79486997770E+03 -0.47735070056E+03 -0.14454327537E+04  0.17172529861E+04  0.25500000920E-02 0. -1.
</event>
<event>
 5   0  0.6291798E-07  0.3015887E+04  0.7818609E-02  0.8239209E-01
       -1   -1    0    0    0  501  0.00000000000E+00  0.00000000000E+00  0.19647627172E+04  0.19647627172E+04  0.50400001928E-02 0. -1.
        1   -1    0    0  501    0  0.00000000000E+00  0.00000000000E+00 -0.11573375717E+04  0.11573375717E+04  0.50400001928E-02 0.  1.
    10030    2    1    2    0    0  0.00000000000E+00  0.00000000000E+00  0.80742514549E+03  0.31221002890E+04  0.30158870749E+04 0.  0.
        1    1    3    3  502    0 -0.26554376312E+02 -0.11182301119E+04  0.14506398523E+04  0.18318023090E+04  0.50400001928E-02 0. -1.
       -1    1    3    3    0  502  0.26554376312E+02  0.11182301119E+04 -0.64321470686E+03  0.12902979800E+04  0.50400001928E-02 0.  1.
</event>
<event>
 5   0  0.1625212E-06  0.2993486E+04  0.7818609E-02  0.8245593E-01
        2   -1    0    0  501    0  0.00000000000E+00  0.00000000000E+00  0.17375069693E+04  0.17375069693E+04  0.25500000920E-02 0.  1.
       -2   -1    0    0    0  501  0.00000000000E+00  0.00000000000E+00 -0.12893415641E+04  0.12893415641E+04  0.25500000920E-02 0. -1.
    10030    2    1    2    0    0  0.00000000000E+00  0.00000000000E+00  0.44816540516E+03  0.30268485334E+04  0.29934862307E+04 0.  0.
        4    1    3    3  502    0  0.57091626465E+03 -0.12629759227E+04  0.79534361578E+03  0.15980070847E+04  0.12699999809E+01 0.  1.
       -4    1    3    3    0  502 -0.57091626465E+03  0.12629759227E+04 -0.34717821062E+03  0.14288414487E+04  0.12699999809E+01 0. -1.
</event>
<event>
 5   0  0.5874741E-07  0.2995357E+04  0.7818609E-02  0.8245058E-01
       -1   -1    0    0    0  501  0.00000000000E+00  0.00000000000E+00  0.12325155818E+04  0.12325155818E+04  0.50400001928E-02 0.  1.
        1   -1    0    0  501    0  0.00000000000E+00  0.00000000000E+00 -0.18198889447E+04  0.18198889447E+04  0.50400001928E-02 0. -1.
    10030    2    1    2    0    0  0.00000000000E+00  0.00000000000E+00 -0.58737336288E+03  0.30524045265E+04  0.29953573954E+04 0.  0.
        4    1    3    3  502    0  0.15727312976E+03 -0.12096474358E+04  0.59180325465E+03  0.13558076786E+04  0.12699999809E+01 0.  1.
       -4    1    3    3    0  502 -0.15727312976E+03  0.12096474358E+04 -0.11791766175E+04  0.16965968479E+04  0.12699999809E+01 0. -1.
</event>
<event>
 5   0  0.1560174E-06  0.2997301E+04  0.7818609E-02  0.8244502E-01
       -2   -1    0    0    0  501  0.00000000000E+00  0.00000000000E+00  0.70656565012E+03  0.70656565013E+03  0.25500000920E-02 0. -1.
        2   -1    0    0  501    0  0.00000000000E+00  0.00000000000E+00 -0.31786906452E+04  0.31786906452E+04  0.25500000920E-02 0.  1.
    10030    2    1    2    0    0  0.00000000000E+00  0.00000000000E+00 -0.24721249951E+04  0.38852562953E+04  0.29973012009E+04 0.  0.
        5    1    3    3  502    0  0.66845166222E+03 -0.55918884894E+03  0.34430776234E+03  0.93706441546E+03  0.46999998093E+01 0. -1.
       -5    1    3    3    0  502 -0.66845166222E+03  0.55918884894E+03 -0.28164327574E+04  0.29481918799E+04  0.46999998093E+01 0.  1.
</event>
<event>
 5   0  0.5874741E-07  0.3016697E+04  0.7818609E-02  0.8238979E-01
        1   -1    0    0  501    0  0.00000000000E+00  0.00000000000E+00  0.20825057266E+04  0.20825057266E+04  0.50400001928E-02 0.  1.
       -1   -1    0    0    0  501  0.00000000000E+00  0.00000000000E+00 -0.10924896098E+04  0.10924896098E+04  0.50400001928E-02 0. -1.
    10030    2    1    2    0    0  0.00000000000E+00  0.00000000000E+00  0.99001611680E+03  0.31749953365E+04  0.30166974451E+04 0.  0.
        4    1    3    3  502    0  0.10147447769E+04  0.58918533394E+03  0.14925112296E+04  0.18985356735E+04  0.12699999809E+01 0.  1.
       -4    1    3    3    0  502 -0.10147447769E+04 -0.58918533394E+03 -0.50249511283E+03  0.12764596630E+04  0.12699999809E+01 0. -1.
</event>
<event>
 5   0  0.5916703E-07  0.2980109E+04  0.7818609E-02  0.8249434E-01
        1   -1    0    0  501    0  0.00000000000E+00  0.00000000000E+00  0.14221454637E+04  0.14221454637E+04  0.50400001928E-02 0. -1.
       -1   -1    0    0    0  501  0.00000000000E+00  0.00000000000E+00 -0.15612061515E+04  0.15612061515E+04  0.50400001928E-02 0.  1.
    10030    2    1    2    0    0  0.00000000000E+00  0.00000000000E+00 -0.13906068780E+03  0.29833516153E+04  0.29801088882E+04 0.  0.
        5    1    3    3  502    0 -0.60665689525E+03  0.11741154886E+04  0.61944842952E+03  0.14595609669E+04  0.46999998093E+01 0. -1.
       -5    1    3    3    0  502  0.60665689525E+03 -0.11741154886E+04 -0.75850911733E+03  0.15237906484E+04  0.46999998093E+01 0.  1.
</event>
<event>
 5   0  0.1723916E-06  0.3003944E+04  0.7818609E-02  0.8242606E-01
        2   -1    0    0  501    0  0.00000000000E+00  0.00000000000E+00  0.11701216030E+04  0.11701216031E+04  0.25500000920E-02 0. -1.
       -2   -1    0    0    0  501  0.00000000000E+00  0.00000000000E+00 -0.19279357271E+04  0.19279357271E+04  0.25500000920E-02 0.  1.
    10030    2    1    2    0    0  0.00000000000E+00  0.00000000000E+00 -0.75781412407E+03  0.30980573302E+04  0.30039435704E+04 0.  0.
        1    1    3    3  502    0 -0.14814784824E+04 -0.22016689185E+03 -0.26283183869E+03  0.15206355676E+04  0.50400001928E-02 0.  1.
       -1    1    3    3    0  502  0.14814784824E+04  0.22016689185E+03 -0.49498228537E+03  0.15774217625E+04  0.50400001928E-02 0. -1.
</event>
<event>
 5   0  0.5887179E-07  0.2996431E+04  0.7818609E-02  0.8244751E-01
       -1   -1    0    0    0  501  0.00000000000E+00  0.00000000000E+00  0.13592286431E+04  0.13592286431E+04  0.50400001928E-02 0. -1.
        1   -1    0    0  501    0  0.00000000000E+00  0.00000000000E+00 -0.16514138355E+04  0.16514138355E+04  0.50400001928E-02 0.  1.
    10030    2    1    2    0    0  0.00000000000E+00  0.00000000000E+00 -0.29218519237E+03  0.30106424786E+04  0.29964305344E+04 0.  0.
        3    1    3    3  502    0 -0.37279953403E+03  0.29634904874E+03  0.12811541389E+04  0.13668058344E+04  0.10100000352E+00 0. -1.
       -3    1    3    3    0  502  0.37279953403E+03 -0.29634904874E+03 -0.15733393312E+04  0.16438366442E+04  0.10100000352E+00 0.  1.
</event>
<event>
 5   0  0.1723916E-06  0.2996514E+04  0.7818609E-02  0.8244727E-01
       -2   -1    0    0    0  501  0.00000000000E+00  0.00000000000E+00  0.12730906969E+04  0.12730906969E+04  0.25500000920E-02 0.  1.
        2   -1    0    0  501    0  0.00000000000E+00  0.00000000000E+00 -0.17632478470E+04  0.17632478470E+04  0.25500000920E-02 0. -1.
    10030    2    1    2    0    0  0.00000000000E+00  0.00000000000E+00 -0.49015715007E+03  0.30363385439E+04  0.29965142618E+04 0.  0.
        1    1    3    3  502    0  0.64302691499E+03  0.11983862753E+04  0.39189433868E+03  0.14153425207E+04  0.50400001928E-02 0.  1.
       -1    1    3    3    0  502 -0.64302691499E+03 -0.11983862753E+04 -0.88205148875E+03  0.16209960232E+04  0.50400001928E-02 0. -1.
</event>
<event>
 5   0  0.5887179E-07  0.2995908E+04  0.7818609E-02  0.8244900E-01
       -1   -1    0    0    0  501  0.00000000000E+00  0.00000000000E+00  0.10756314512E+04  0.10756314512E+04  0.50400001928E-02 0. -1.
        1   -1    0    0  501    0  0.00000000000E+00  0.00000000000E+00 -0.20860917312E+04  0.20860917312E+04  0.50400001928E-02 0.  1.
    10030    2    1    2    0    0  0.00000000000E+00  0.00000000000E+00 -0.10104602799E+04  0.31617231824E+04  0.29959077931E+04 0.  0.
        3    1    3    3  502    0  0.23268881245E+03 -0.14672326380E+04 -0.30236678055E+03  0.15160281586E+04  0.10100000352E+00 0.  1.
       -3    1    3    3    0  502 -0.23268881245E+03  0.14672326380E+04 -0.70809349938E+03  0.16456950238E+04  0.10100000352E+00 0. -1.
</event>
<event>
 5   0  0.5916703E-07  0.2977602E+04  0.7818609E-02  0.8250156E-01
        1   -1    0    0  501    0  0.00000000000E+00  0.00000000000E+00  0.21197551516E+04  0.21197551516E+04  0.50400001928E-02 0.  1.
       -1   -1    0    0    0  501  0.00000000000E+00  0.00000000000E+00 -0.10456531689E+04  0.10456531689E+04  0.50400001928E-02 0. -1.
    10030    2    1    2    0    0  0.00000000000E+00  0.00000000000E+00  0.10741019827E+04  0.31654083206E+04  0.29776021841E+04 0.  0.
        5    1    3    3  502    0  0.13373863674E+04  0.36466594295E+03 -0.40270105488E+02  0.13868047148E+04  0.46999998093E+01 0. -1.
       -5    1    3    3    0  502 -0.13373863674E+04 -0.36466594295E+03  0.11143720882E+04  0.17786036058E+04  0.46999998093E+01 0.  1.
</event>
<event>
 5   0  0.1625212E-06  0.2971290E+04  0.7818609E-02  0.8251977E-01
        2   -1    0    0  501    0  0.00000000000E+00  0.00000000000E+00  0.13683857974E+04  0.13683857974E+04  0.25500000920E-02 0.  1.
       -2   -1    0    0    0  501  0.00000000000E+00  0.00000000000E+00 -0.16129522925E+04  0.16129522925E+04  0.25500000920E-02 0. -1.
    10030    2    1    2    0    0  0.00000000000E+00  0.00000000000E+00 -0.24456649515E+03  0.29813380900E+04  0.29712899616E+04 0.  0.
        4    1    3    3  502    0 -0.67386788546E+03  0.10831208188E+04 -0.88636404923E+03  0.15533484721E+04  0.12699999809E+01 0. -1.
       -4    1    3    3    0  502  0.67386788546E+03 -0.10831208188E+04  0.64179755409E+03  0.14279896178E+04  0.12699999809E+01 0.  1.
</event>
<event>
 5   0  0.1674806E-06  0.3012639E+04  0.7818609E-02  0.8240131E-01
       -2   -1    0    0    0  501  0.00000000000E+00  0.00000000000E+00  0.11663302587E+04  0.11663302587E+04  0.25500000920E-02 0.  1.
        2   -1    0    0  501    0  0.00000000000E+00  0.00000000000E+00 -0.19454164918E+04  0.19454164918E+04  0.25500000920E-02 0. -1.
    10030    2    1    2    0    0  0.00000000000E+00  0.00000000000E+00 -0.77908623310E+03  0.31117467506E+04  0.30126387904E+04 0.  0.
        2    1    3    3  502    0  0.10747975510E+04 -0.10539521231E+04 -0.33303251824E+03  0.15417248495E+04  0.25500000920E-02 0. -1.
       -2    1    3    3    0  502 -0.10747975510E+04  0.10539521231E+04 -0.44605371486E+03  0.15700219011E+04  0.25500000920E-02 0.  1.
</event>
<event>
 5   0  0.5874741E-07  0.3013578E+04  0.7818609E-02  0.8239864E-01
       -1   -1    0    0    0  501  0.00000000000E+00  0.00000000000E+00  0.24726950921E+04  0.24726950921E+04  0.50400001928E-02 0. -1.
        1   -1    0    0  501    0  0.00000000000E+00  0.00000000000E+00 -0.91819381937E+03  0.91819381938E+03  0.50400001928E-02 0.  1.
    10030    2    1    2    0    0  0.00000000000E+00  0.00000000000E+00  0.15545012727E+04  0.33908889115E+04  0.30135781727E+04 0.  0.
        4    1    3    3  502    0  0.34062375966E+03 -0.60812805769E+03  0.22803842443E+04  0.23845331188E+04  0.12699999809E+01 0. -1.
       -4    1    3    3    0  502 -0.34062375966E+03  0.60812805769E+03 -0.72588297155E+03  0.10063557927E+04  0.12699999809E+01 0.  1.
</event>
<event>
 5   0  0.1560174E-06  0.3000231E+04  0.7818609E-02  0.8243665E-01
        2   -1    0    0  501    0  0.00000000000E+00  0.00000000000E+00  0.24928625660E+04  0.24928625660E+04  0.25500000920E-02 0. -1.
       -2   -1    0    0    0  501  0.00000000000E+00  0.00000000000E+00 -0.90271574467E+03  0.90271574468E+03  0.25500000920E-02 0.  1.
    10030    2    1    2    0    0  0.00000000000E+00  0.00000000000E+00  0.15901468213E+04  0.33955783107E+04  0.30002308496E+04 0.  0.
        5    1    3    3  502    0  0.94144174197E+03  0.67944901848E+03  0.18701741459E+04  0.22012580376E+04  0.46999998093E+01 0. -1.
       -5    1    3    3    0  502 -0.94144174197E+03 -0.67944901848E+03 -0.28002732453E+03  0.11943202731E+04  0.46999998093E+01 0.  1.
</event>
<event>
 5   0  0.6291798E-07  0.3008572E+04  0.7818609E-02  0.8241287E-01
        1   -1    0    0  501    0  0.00000000000E+00  0.00000000000E+00  0.16027190336E+04  0.16027190336E+04  0.50400001928E-02 0.  1.
       -1   -1    0    0    0  501  0.00000000000E+00  0.00000000000E+00 -0.14118988015E+04  0.14118988015E+04  0.50400001928E-02 0. -1.
    10030    2    1    2    0    0  0.00000000000E+00  0.00000000000E+00  0.19082023204E+03  0.30146178351E+04  0.30085724739E+04 0.  0.
        1    1    3    3  502    0  0.20918159455E+03  0.49376757891E+03 -0.13128725271E+04  0.14181669979E+04  0.50400001928E-02 0. -1.
       -1    1    3    3    0  502 -0.20918159455E+03 -0.49376757891E+03  0.15036927592E+04  0.15964508372E+04  0.50400001928E-02 0.  1.
</event>
<event>
 5   0  0.1625212E-06  0.2992742E+04  0.7818609E-02  0.8245807E-01
        2   -1    0    0  501    0  0.00000000000E+00  0.00000000000E+00  0.20045018530E+04  0.20045018530E+04  0.25500000920E-02 0. -1.
       -2   -1    0    0    0  501  0.00000000000E+00  0.00000000000E+00 -0.11170483516E+04  0.11170483516E+04  0.25500000920E-02 0.  1.
    10030    2    1    2    0    0  0.00000000000E+00  0.00000000000E+00  0.88745350144E+03  0.31215502046E+04  0.29927415463E+04 0.  0.
        4    1    3    3  502    0 -0.30873003824E+03  0.10219057126E+04 -0.64998367871E+03  0.12498343560E+04  0.12699999809E+01 0.  1.
       -4    1    3    3    0  502  0.30873003824E+03 -0.10219057126E+04  0.15374371802E+04  0.18717158486E+04  0.12699999809E+01 0. -1.
</event>
<event>
 5   0  0.5931588E-07  0.3000379E+04  0.7818609E-02  0.8243623E-01
        1   -1    0    0  501    0  0.00000000000E+00  0.00000000000E+00  0.15683091368E+04  0.15683091368E+04  0.50400001928E-02 0.  1.
       -1   -1    0    0    0  501  0.00000000000E+00  0.00000000000E+00 -0.14350286497E+04  0.14350286497E+04  0.50400001928E-02 0. -1.
    10030    2    1    2    0    0  0.00000000000E+00  0.00000000000E+00  0.13328048710E+03  0.30033377866E+04  0.30003790047E+04 0.  0.
        2    1    3    3  502    0  0.33268152593E+02 -0.43855131094E+03 -0.13690455682E+04  0.14379568110E+04  0.25500000920E-02 0. -1.
       -2    1    3    3    0  502 -0.33268152593E+02  0.43855131094E+03  0.15023260553E+04  0.15653809756E+04  0.25500000920E-02 0.  1.
</event>
<event>
 5   0  0.5931588E-07  0.3006124E+04  0.7818609E-02  0.8241984E-01
       -1   -1    0    0    0  501  0.00000000000E+00  0.00000000000E+00  0.14828536134E+04  0.14828536134E+04  0.50400001928E-02 0.  1.
        1   -1    0    0  501    0  0.00000000000E+00  0.00000000000E+00 -0.15235459898E+04  0.15235459898E+04  0.50400001928E-02 0. -1.
    10030    2    1    2    0    0  0.00000000000E+00  0.00000000000E+00 -0.40692376359E+02  0.30063996032E+04  0.30061241998E+04 0.  0.
        2    1    3    3  502    0  0.93801457507E+03  0.11565722678E+04 -0.22448476146E+03  0.15059628687E+04  0.25500000920E-02 0.  1.
       -2    1    3    3    0  502 -0.93801457507E+03 -0.11565722678E+04  0.18379238510E+03  0.15004367346E+04  0.25500000920E-02 0. -1.
</event>
<event>
 5   0  0.1674806E-06  0.2990606E+04  0.7818609E-02  0.8246419E-01
       -2   -1    0    0    0  501  0.00000000000E+00  0.00000000000E+00  0.19927137318E+04  0.19927137318E+04  0.25500000920E-02 0.  1.
        2   -1    0    0  501    0  0.00000000000E+00  0.00000000000E+00 -0.11220531678E+04  0.11220531678E+04  0.25500000920E-02 0. -1.
    10030    2    1    2    0    0  0.00000000000E+00  0.00000000000E+00  0.87066056397E+03  0.31147668996E+04  0.29906057951E+04 0.  0.
        2    1    3    3  502    0  0.84641506625E+03 -0.17345121023E+03 -0.83575879577E+03  0.12020800936E+04  0.25500000920E-02 0. -1.
       -2    1    3    3    0  502 -0.84641506625E+03  0.17345121023E+03  0.17064193597E+04  0.19126868060E+04  0.25500000920E-02 0.  1.
</event>
<event>
 5   0  0.5916703E-07  0.3000065E+04  0.7818609E-02  0.8243712E-01
       -1   -1    0    0    0  501  0.00000000000E+00  0.00000000000E+00  0.13895411101E+04  0.13895411101E+04  0.50400001928E-02 0.  1.
        1   -1    0    0  501    0  0.00000000000E+00  0.00000000000E+00 -0.16193100944E+04  0.16193100944E+04  0.50400001928E-02 0. -1.
    10030    2    1    2    0    0  0.00000000000E+00  0.00000000000E+00 -0.22976898432E+03  0.30088512045E+04  0.30000652967E+04 0.  0.
        5    1    3    3  502    0  0.71289439222E+03  0.17432850846E+03 -0.14269462287E+04  0.16046203517E+04  0.46999998093E+01 0. -1.
       -5    1    3    3    0  502 -0.71289439222E+03 -0.17432850846E+03  0.11971772444E+04  0.14042308528E+04  0.46999998093E+01 0.  1.
</event>
<event>
 5   0  0.5874741E-07  0.3007412E+04  0.7818609E-02  0.8241617E-01
        1   -1    0    0  501    0  0.00000000000E+00  0.00000000000E+00  0.14022384963E+04  0.14022384963E+04  0.50400001928E-02 0.  1.
       -1   -1    0    0    0  501  0.00000000000E+00  0.00000000000E+00 -0.16125160710E+04  0.16125160710E+04  0.50400001928E-02 0. -1.
    10030    2    1    2    0    0  0.00000000000E+00  0.00000000000E+00 -0.21027757468E+03  0.30147545673E+04  0.30074122502E+04 0.  0.
        4    1    3    3  502    0  0.64651378332E+03  0.10349865152E+04 -0.98589258080E+03  0.15688094060E+04  0.12699999809E+01 0. -1.
       -4    1    3    3    0  502 -0.64651378332E+03 -0.10349865152E+04  0.77561500612E+03  0.14459451612E+04  0.12699999809E+01 0.  1.
</event>
<event>
 5   0  0.5916703E-07  0.2999084E+04  0.7818609E-02  0.8243992E-01
        1   -1    0    0  501    0  0.00000000000E+00  0.00000000000E+00  0.10233275375E+04  0.10233275376E+04  0.50400001928E-02 0.  1.
       -1   -1    0    0    0  501  0.00000000000E+00  0.00000000000E+00 -0.21973671796E+04  0.21973671796E+04  0.50400001928E-02 0. -1.
    10030    2    1    2    0    0  0.00000000000E+00  0.00000000000E+00 -0.11740396421E+04  0.32206947172E+04  0.29990840902E+04 0.  0.
        5    1    3    3  502    0  0.10205252588E+04  0.53575112058E+03  0.44307970107E+03  0.12348452448E+04  0.46999998093E+01 0.  1.
       -5    1    3    3    0  502 -0.10205252588E+04 -0.53575112058E+03 -0.16171193431E+04  0.19858494724E+04  0.46999998093E+01 0. -1.
</event>
<event>
 5   0  0.1674806E-06  0.3003869E+04  0.7818609E-02  0.8242627E-01
        2   -1    0    0  501    0  0.00000000000E+00  0.00000000000E+00  0.22090271033E+04  0.22090271033E+04  0.25500000920E-02 0.  1.
       -2   -1    0    0    0  501  0.00000000000E+00  0.00000000000E+00 -0.10211769423E+04  0.10211769423E+04  0.25500000920E-02 0. -1.
    10030    2    1    2    0    0  0.00000000000E+00  0.00000000000E+00  0.11878501610E+04  0.32302040456E+04  0.30038692000E+04 0.  0.
        2    1    3    3  502    0  0.56890170835E+03 -0.78612183814E+03 -0.63882446982E+03  0.11617802724E+04  0.25500000920E-02 0. -1.
       -2    1    3    3    0  502 -0.56890170835E+03  0.78612183814E+03  0.18266746309E+04  0.20684237731E+04  0.25500000920E-02 0.  1.
</event>
<event>
 5   0  0.1674806E-06  0.3000941E+04  0.7818609E-02  0.8243462E-01
       -2   -1    0    0    0  501  0.00000000000E+00  0.00000000000E+00  0.11631698343E+04  0.11631698343E+04  0.25500000920E-02 0.  1.
        2   -1    0    0  501    0  0.00000000000E+00  0.00000000000E+00 -0.19355830095E+04  0.19355830095E+04  0.25500000920E-02 0. -1.
    10030    2    1    2    0    0  0.00000000000E+00  0.00000000000E+00 -0.77241317517E+03  0.30987528439E+04  0.30009410314E+04 0.  0.
        2    1    3    3  502    0 -0.94725943314E+03  0.81790908012E+03 -0.12409148324E+04  0.17624259752E+04  0.25500000920E-02 0. -1.
       -2    1    3    3    0  502  0.94725943314E+03 -0.81790908012E+03  0.46850165719E+03  0.13363268686E+04  0.25500000920E-02 0.  1.
</event>
<event>
 5   0  0.6291798E-07  0.3000550E+04  0.7818609E-02  0.8243574E-01
       -1   -1    0    0    0  501  0.00000000000E+00  0.00000000000E+00  0.13750882073E+04  0.13750882073E+04  0.50400001928E-02 0.  1.
        1   -1    0    0  501    0  0.00000000000E+00  0.00000000000E+00 -0.16368584354E+04  0.16368584354E+04  0.50400001928E-02 0. -1.
    10030    2    1    2    0    0  0.00000000000E+00  0.00000000000E+00 -0.26177022812E+03  0.30119466427E+04  0.30005497706E+04 0.  0.
        1    1    3    3  502    0  0.76350017801E+03 -0.50485908440E+03 -0.13241008776E+04  0.16096764740E+04  0.50400001928E-02 0. -1.
       -1    1    3    3    0  502 -0.76350017801E+03  0.50485908440E+03  0.10623306495E+04  0.14022701686E+04  0.50400001928E-02 0.  1.
</event>
<event>
 5   0  0.1635086E-06  0.3002429E+04  0.7818609E-02  0.8243038E-01
        2   -1    0    0  501    0  0.00000000000E+00  0.00000000000E+00  0.14327914207E+04  0.14327914207E+04  0.25500000920E-02 0.  1.
       -2   -1    0    0    0  501  0.00000000000E+00  0.00000000000E+00 -0.15729048453E+04  0.15729048453E+04  0.25500000920E-02 0. -1.
    10030    2    1    2    0    0  0.00000000000E+00  0.00000000000E+00 -0.14011342457E+03  0.30056962661E+04  0.30024287289E+04 0.  0.
        3    1    3    3  502    0 -0.12656359228E+04  0.40086986144E+03  0.63150095492E+03  0.14701443471E+04  0.10100000352E+00 0.  1.
       -3    1    3    3    0  502  0.12656359228E+04 -0.40086986144E+03 -0.77161437949E+03  0.15355519190E+04  0.10100000352E+00 0. -1.
</event>
<event>
 5   0  0.1635086E-06  0.3004835E+04  0.7818609E-02  0.8242352E-01
        2   -1    0    0  501    0  0.00000000000E+00  0.00000000000E+00  0.23057623565E+04  0.23057623565E+04  0.25500000920E-02 0. -1.
       -2   -1    0    0    0  501  0.00000000000E+00  0.00000000000E+00 -0.97896376247E+03  0.97896376247E+03  0.25500000920E-02 0.  1.
    10030    2    1    2    0    0  0.00000000000E+00  0.00000000000E+00  0.13267985941E+04  0.32847261190E+04  0.30048346323E+04 0.  0.
        3    1    3    3  502    0  0.11581765560E+04 -0.74589825207E+03  0.13188507108E+04  0.19071193840E+04  0.10100000352E+00 0. -1.
       -3    1    3    3    0  502 -0.11581765560E+04  0.74589825207E+03  0.79478832184E+01  0.13776067350E+04  0.10100000352E+00 0.  1.
</event>
<event>
 5   0  0.1625212E-06  0.3003266E+04  0.7818609E-02  0.8242799E-01
       -2   -1    0    0    0  501  0.00000000000E+00  0.00000000000E+00  0.18672153621E+04  0.18672153621E+04  0.25500000920E-02 0. -1.
        2   -1    0    0  501    0  0.00000000000E+00  0.00000000000E+00 -0.12076277487E+04  0.12076277487E+04  0.25500000920E-02 0.  1.
    10030    2    1    2    0    0  0.00000000000E+00  0.00000000000E+00  0.65958761339E+03  0.30748431109E+04  0.30032656121E+04 0.  0.
        4    1    3    3  502    0 -0.14860769664E+04 -0.17209488811E+03  0.46272691307E+03  0.15659371665E+04  0.12699999809E+01 0. -1.
       -4    1    3    3    0  502  0.14860769664E+04  0.17209488811E+03  0.19686070032E+03  0.15089059443E+04  0.12699999809E+01 0.  1.
</event>
<event>
 5   0  0.5874741E-07  0.2998514E+04  0.7818609E-02  0.8244155E-01
        1   -1    0    0  501    0  0.00000000000E+00  0.00000000000E+00  0.16559037130E+04  0.16559037130E+04  0.50400001928E-02 0.  1.
       -1   -1    0    0    0  501  0.00000000000E+00  0.00000000000E+00 -0.13574287542E+04  0.13574287542E+04  0.50400001928E-02 0. -1.
    10030    2    1    2    0    0  0.00000000000E+00  0.00000000000E+00  0.29847495885E+03  0.30133324672E+04  0.29985138414E+04 0.  0.
        4    1    3    3  502    0  0.78153674853E+03 -0.11737231118E+04 -0.36253762201E+03  0.14559741663E+04  0.12699999809E+01 0. -1.
       -4    1    3    3    0  502 -0.78153674853E+03  0.11737231118E+04  0.66101258086E+03  0.15573583009E+04  0.12699999809E+01 0.  1.
</event>
<event>
 5   0  0.5874741E-07  0.2994801E+04  0.7818609E-02  0.8245217E-01
       -1   -1    0    0    0  501  0.00000000000E+00  0.00000000000E+00  0.14080605822E+04  0.14080605822E+04  0.50400001928E-02 0.  1.
        1   -1    0    0  501    0  0.00000000000E+00  0.00000000000E+00 -0.15924088709E+04  0.15924088709E+04  0.50400001928E-02 0. -1.
    10030    2    1    2    0    0  0.00000000000E+00  0.00000000000E+00 -0.18434828870E+03  0.30004694532E+04  0.29948009363E+04 0.  0.
        4    1    3    3  502    0 -0.61028236735E+03 -0.66251131593E+03  0.11062675163E+04  0.14266026924E+04  0.12699999809E+01 0.  1.
       -4    1    3    3    0  502  0.61028236735E+03  0.66251131593E+03 -0.12906158050E+04  0.15738667607E+04  0.12699999809E+01 0. -1.
</event>
<event>
 5   0  0.1560174E-06  0.3001759E+04  0.7818609E-02  0.8243229E-01
       -2   -1    0    0    0  501  0.00000000000E+00  0.00000000000E+00  0.10545509144E+04  0.10545509144E+04  0.25500000920E-02 0. -1.
        2   -1    0    0  501    0  0.00000000000E+00  0.00000000000E+00 -0.21361125179E+04  0.21361125179E+04  0.25500000920E-02 0.  1.
    10030    2    1    2    0    0  0.00000000000E+00  0.00000000000E+00 -0.10815616035E+04  0.31906634323E+04  0.30017590903E+04 0.  0.
        5    1    3    3  502    0  0.14924178759E+04  0.13282649249E+03 -0.44773135410E+03  0.15637900910E+04  0.46999998093E+01 0. -1.
       -5    1    3    3    0  502 -0.14924178759E+04 -0.13282649249E+03 -0.63383024939E+03  0.16268733412E+04  0.46999998093E+01 0.  1.
</event>
<event>
 5   0  0.5874741E-07  0.3019208E+04  0.7818609E-02  0.8238267E-01
        1   -1    0    0  501    0  0.00000000000E+00  0.00000000000E+00  0.11422250294E+04  0.11422250295E+04  0.50400001928E-02 0.  1.
       -1   -1    0    0    0  501  0.00000000000E+00  0.00000000000E+00 -0.19951442225E+04  0.19951442225E+04  0.50400001928E-02 0. -1.
    10030    2    1    2    0    0  0.00000000000E+00  0.00000000000E+00 -0.85291919302E+03  0.31373692519E+04  0.30192076234E+04 0.  0.
        4    1    3    3  502    0 -0.20167122240E+02  0.87250381414E+02  0.11394619817E+04  0.11429761863E+04  0.12699999809E+01 0.  1.
       -4    1    3    3    0  502  0.20167122240E+02 -0.87250381414E+02 -0.19923811747E+04  0.19943930656E+04  0.12699999809E+01 0. -1.
</event>
<event>
 5   0  0.1635086E-06  0.3000878E+04  0.7818609E-02  0.8243480E-01
        2   -1    0    0  501    0  0.00000000000E+00  0.00000000000E+00  0.15219363574E+04  0.15219363574E+04  0.25500000920E-02 0. -1.
       -2   -1    0    0    0  501  0.00000000000E+00  0.00000000000E+00 -0.14792454988E+04  0.14792454988E+04  0.25500000920E-02 0.  1.
    10030    2    1    2    0    0  0.00000000000E+00  0.00000000000E+00  0.42690858553E+02  0.30011818562E+04  0.30008782089E+04 0.  0.
        3    1    3    3  502    0 -0.42513028483E+03 -0.49640171950E+03 -0.13294085266E+04  0.14813768821E+04  0.10100000352E+00 0.  1.
       -3    1    3    3    0  502  0.42513028483E+03  0.49640171950E+03  0.13720993851E+04  0.15198049740E+04  0.10100000352E+00 0. -1.
</event>
<event>
 5   0  0.1635086E-06  0.2841343E+04  0.7818609E-02  0.8290547E-01
       -2   -1    0    0    0  501  0.00000000000E+00  0.00000000000E+00  0.10881132940E+04  0.10881132940E+04  0.25500000920E-02 0. -1.
        2   -1    0    0  501    0  0.00000000000E+00  0.00000000000E+00 -0.18548688038E+04  0.18548688038E+04  0.25500000920E-02 0.  1.
    10030    2    1    2    0    0  0.00000000000E+00  0.00000000000E+00 -0.76675550980E+03  0.29429820979E+04  0.28413429249E+04 0.  0.
        3    1    3    3  502    0 -0.13595134261E+04  0.34588278628E+03 -0.61589805021E+03  0.15320711720E+04  0.10100000352E+00 0. -1.
       -3    1    3    3    0  502  0.13595134261E+04 -0.34588278628E+03 -0.15085745959E+03  0.14109109259E+04  0.10100000352E+00 0.  1.
</event>
<event>
 5   0  0.5874741E-07  0.3002797E+04  0.7818609E-02  0.8242933E-01
        1   -1    0    0  501    0  0.00000000000E+00  0.00000000000E+00  0.20022113877E+04  0.20022113877E+04  0.50400001928E-02 0. -1.
       -1   -1    0    0    0  501  0.00000000000E+00  0.00000000000E+00 -0.11258535390E+04  0.11258535390E+04  0.50400001928E-02 0.  1.
    10030    2    1    2    0    0  0.00000000000E+00  0.00000000000E+00  0.87635784868E+03  0.31280649266E+04  0.30027965476E+04 0.  0.
        4    1    3    3  502    0  0.30179120669E+03  0.78327006388E+03 -0.85858341375E+03  0.12007318671E+04  0.12699999809E+01 0.  1.
       -4    1    3    3    0  502 -0.30179120669E+03 -0.78327006388E+03  0.17349412624E+04  0.19273330595E+04  0.12699999809E+01 0. -1.
</event>
<event>
 5   0  0.5887179E-07  0.3006972E+04  0.7818609E-02  0.8241743E-01
        1   -1    0    0  501    0  0.00000000000E+00  0.00000000000E+00  0.27293119617E+04  0.27293119617E+04  0.50400001928E-02 0.  1.
       -1   -1    0    0    0  501  0.00000000000E+00  0.00000000000E+00 -0.82822003805E+03  0.82822003806E+03  0.50400001928E-02 0. -1.
    10030    2    1    2    0    0  0.00000000000E+00  0.00000000000E+00  0.19010919236E+04  0.35575319997E+04  0.30069724686E+04 0.  0.
        3    1    3    3  502    0  0.52761673798E+03 -0.70775736084E+03 -0.48931963535E+03  0.10093233475E+04  0.10100000352E+00 0. -1.
       -3    1    3    3    0  502 -0.52761673798E+03  0.70775736084E+03  0.23904115590E+04  0.25482086523E+04  0.10100000352E+00 0.  1.
</event>
<event>
 5   0  0.5874741E-07  0.3008013E+04  0.7818609E-02  0.8241446E-01
        1   -1    0    0  501    0  0.00000000000E+00  0.00000000000E+00  0.20617940330E+04  0.20617940330E+04  0.50400001928E-02 0. -1.
       -1   -1    0    0    0  501  0.00000000000E+00  0.00000000000E+00 -0.10971200149E+04  0.10971200149E+04  0.50400001928E-02 0.  1.
    10030    2    1    2    0    0  0.00000000000E+00  0.00000000000E+00  0.96467401819E+03  0.31589140479E+04  0.30080129655E+04 0.  0.
        4    1    3    3  502    0  0.89854143056E+03 -0.48974813868E+02  0.17478892922E+04  0.19659333217E+04  0.12699999809E+01 0. -1.
       -4    1    3    3    0  502 -0.89854143056E+03  0.48974813868E+02 -0.78321527397E+03  0.11929807262E+04  0.12699999809E+01 0.  1.
</event>
<event>
 5   0  0.1560174E-06  0.2994258E+04  0.7818609E-02  0.8245372E-01
        2   -1    0    0  501    0  0.00000000000E+00  0.00000000000E+00  0.10052457964E+04  0.10052457964E+04  0.25500000920E-02 0.  1.
       -2   -1    0    0    0  501  0.00000000000E+00  0.00000000000E+00 -0.22296993227E+04  0.22296993227E+04  0.25500000920E-02 0. -1.
    10030    2    1    2    0    0  0.00000000000E+00  0.00000000000E+00 -0.12244535263E+04  0.32349451191E+04  0.29942584200E+04 0.  0.
        5    1    3    3  502    0  0.71288795045E+03  0.13142509666E+04 -0.52917808335E+03  0.15860379463E+04  0.46999998093E+01 0. -1.
       -5    1    3    3    0  502 -0.71288795045E+03 -0.13142509666E+04 -0.69527544291E+03  0.16489071728E+04  0.46999998093E+01 0.  1.
</event>
<event>
 5   0  0.5874741E-07  0.3002801E+04  0.7818609E-02  0.8242931E-01
       -1   -1    0    0    0  501  0.00000000000E+00  0.00000000000E+00  0.77639447594E+03  0.77639447596E+03  0.50400001928E-02 0.  1.
        1   -1    0    0  501    0  0.00000000000E+00  0.00000000000E+00 -0.29034259735E+04  0.29034259735E+04  0.50400001928E-02 0. -1.
    10030    2    1    2    0    0  0.00000000000E+00  0.00000000000E+00 -0.21270314975E+04  0.36798204494E+04  0.30028012836E+04 0.  0.
        4    1    3    3  502    0  0.12894641478E+04  0.76644296388E+03 -0.98553097855E+03  0.17948330084E+04  0.12699999809E+01 0. -1.
       -4    1    3    3    0  502 -0.12894641478E+04 -0.76644296388E+03 -0.11415005190E+04  0.18849874411E+04  0.12699999809E+01 0.  1.
</event>
<event>
 5   0  0.5931588E-07  0.3003841E+04  0.7818609E-02  0.8242635E-01
       -1   -1    0    0    0  501  0.00000000000E+00  0.00000000000E+00  0.11399559145E+04  0.11399559146E+04  0.50400001928E-02 0.  1.
        1   -1    0    0  501    0  0.00000000000E+00  0.00000000000E+00 -0.19788176822E+04  0.19788176822E+04  0.50400001928E-02 0. -1.
    10030    2    1    2    0    0  0.00000000000E+00  0.00000000000E+00 -0.83886176764E+03  0.31187735968E+04  0.30038408218E+04 0.  0.
        2    1    3    3  502    0 -0.88354650112E+03  0.62333941358E+03  0.66283379767E+03  0.12682882509E+04  0.25500000920E-02 0.  1.
       -2    1    3    3    0  502  0.88354650112E+03 -0.62333941358E+03 -0.15016955653E+04  0.18504853458E+04  0.25500000920E-02 0. -1.
</event>
<event>
 5   0  0.5916703E-07  0.3012349E+04  0.7818609E-02  0.8240213E-01
       -1   -1    0    0    0  501  0.00000000000E+00  0.00000000000E+00  0.13240924133E+04  0.13240924133E+04  0.50400001928E-02 0.  1.
        1   -1    0    0  501    0  0.00000000000E+00  0.00000000000E+00 -0.17132957375E+04  0.17132957375E+04  0.50400001928E-02 0. -1.
    10030    2    1    2    0    0  0.00000000000E+00  0.00000000000E+00 -0.38920332413E+03  0.30373881508E+04  0.30123491748E+04 0.  0.
        5    1    3    3  502    0  0.12006271770E+03  0.12972541419E+04 -0.95669915820E+03  0.16163473433E+04  0.46999998093E+01 0. -1.
       -5    1    3    3    0  502 -0.12006271770E+03 -0.12972541419E+04  0.56749583407E+03  0.14210408075E+04  0.46999998093E+01 0.  1.
</event>
<event>
 5   0  0.1674806E-06  0.2999127E+04  0.7818609E-02  0.8243980E-01
       -2   -1    0    0    0  501  0.00000000000E+00  0.00000000000E+00  0.10617395378E+04  0.10617395379E+04  0.25500000920E-02 0. -1.
        2   -1    0    0  501    0  0.00000000000E+00  0.00000000000E+00 -0.21179312179E+04  0.21179312179E+04  0.25500000920E-02 0.  1.
    10030    2    1    2    0    0  0.00000000000E+00  0.00000000000E+00 -0.10561916801E+04  0.31796707558E+04  0.29991274148E+04 0.  0.
        2    1    3    3  502    0  0.28415000748E+03 -0.13823353062E+04  0.94773327864E+01  0.14112696218E+04  0.25500000920E-02 0. -1.
       -2    1    3    3    0  502 -0.28415000748E+03  0.13823353062E+04 -0.10656690128E+04  0.17684011339E+04  0.25500000920E-02 0.  1.
</event>
<event>
 5   0  0.1625212E-06  0.3002770E+04  0.7818609E-02  0.8242940E-01
       -2   -1    0    0    0  501  0.00000000000E+00  0.00000000000E+00  0.12757147157E+04  0.12757147157E+04  0.25500000920E-02 0.  1.
        2   -1    0    0  501    0  0.00000000000E+00  0.00000000000E+00 -0.17669760463E+04  0.17669760463E+04  0.25500000920E-02 0. -1.
    10030    2    1    2    0    0  0.00000000000E+00  0.00000000000E+00 -0.49126133060E+03  0.30426907620E+04  0.30027702840E+04 0.  0.
        4    1    3    3  502    0 -0.14063041653E+04 -0.21061732356E+03 -0.73380803746E+03  0.16001646512E+04  0.12699999809E+01 0. -1.
       -4    1    3    3    0  502  0.14063041653E+04  0.21061732356E+03  0.24254670686E+03  0.14425261108E+04  0.12699999809E+01 0.  1.
</event>
<event>
 5   0  0.1635086E-06  0.2993149E+04  0.7818609E-02  0.8245690E-01
       -2   -1    0    0    0  501  0.00000000000E+00  0.00000000000E+00  0.27888575101E+04  0.27888575102E+04  0.25500000920E-02 0. -1.
        2   -1    0    0  501    0  0.00000000000E+00  0.00000000000E+00 -0.80310125007E+03  0.80310125007E+03  0.25500000920E-02 0.  1.
    10030    2    1    2    0    0  0.00000000000E+00  0.00000000000E+00  0.19857562601E+04  0.35919587602E+04  0.29931488120E+04 0.  0.
        3    1    3    3  502    0  0.92911924286E+03 -0.60785074960E+02  0.23989357439E+04  0.25732955731E+04  0.10100000352E+00 0. -1.
       -3    1    3    3    0  502 -0.92911924286E+03  0.60785074960E+02 -0.41317948383E+03  0.10186631871E+04  0.10100000352E+00 0.  1.
</event>
<event>
 5   0  0.5874741E-07  0.3151725E+04  0.7818609E-02  0.8201684E-01
        1   -1    0    0  501    0  0.00000000000E+00  0.00000000000E+00  0.78202830272E+03  0.78202830274E+03  0.50400001928E-02 0. -1.
       -1   -1    0    0    0  501  0.00000000000E+00  0.00000000000E+00 -0.31755144480E+04  0.31755144480E+04  0.50400001928E-02 0.  1.
    10030    2    1    2    0    0  0.00000000000E+00  0.00000000000E+00 -0.23934861453E+04  0.39575427507E+04  0.31517247177E+04 0.  0.
        4    1    3    3  502    0 -0.80599761788E+03 -0.38634816569E+03  0.43294902962E+03  0.99314829724E+03  0.12699999809E+01 0. -1.
       -4    1    3    3    0  502  0.80599761788E+03  0.38634816569E+03 -0.28264351749E+04  0.29643944535E+04  0.12699999809E+01 0.  1.
</event>
<event>
 5   0  0.5887179E-07  0.2995293E+04  0.7818609E-02  0.8245076E-01
        1   -1    0    0  501    0  0.00000000000E+00  0.00000000000E+00  0.25223873624E+04  0.25223873624E+04  0.50400001928E-02 0.  1.
       -1   -1    0    0    0  501  0.00000000000E+00  0.00000000000E+00 -0.88921489081E+03  0.88921489082E+03  0.50400001928E-02 0. -1.
    10030    2    1    2    0    0  0.00000000000E+00  0.00000000000E+00  0.16331724716E+04  0.34116022533E+04  0.29952925754E+04 0.  0.
        3    1    3    3  502    0 -0.29128188304E+03 -0.62086770660E+03  0.23330333790E+04  0.24317414752E+04  0.10100000352E+00 0.  1.
       -3    1    3    3    0  502  0.29128188304E+03  0.62086770660E+03 -0.69986090738E+03  0.97986077805E+03  0.10100000352E+00 0. -1.
</event>
<event>
 5   0  0.5916703E-07  0.3006055E+04  0.7818609E-02  0.8242004E-01
        1   -1    0    0  501    0  0.00000000000E+00  0.00000000000E+00  0.15711450027E+04  0.15711450027E+04  0.50400001928E-02 0.  1.
       -1   -1    0    0    0  501  0.00000000000E+00  0.00000000000E+00 -0.14378631900E+04  0.14378631900E+04  0.50400001928E-02 0. -1.
    10030    2    1    2    0    0  0.00000000000E+00  0.00000000000E+00  0.13328181275E+03  0.30090081927E+04  0.30060549333E+04 0.  0.
        5    1    3    3  502    0 -0.12039524937E+04  0.81258775289E+03  0.45337395535E+03  0.15216341534E+04  0.46999998093E+01 0.  1.
       -5    1    3    3    0  502  0.12039524937E+04 -0.81258775289E+03 -0.32009214259E+03  0.14873740394E+04  0.46999998093E+01 0. -1.
</event>
<event>
 5   0  0.5916703E-07  0.3000476E+04  0.7818609E-02  0.8243595E-01
       -1   -1    0    0    0  501  0.00000000000E+00  0.00000000000E+00  0.11624031016E+04  0.11624031016E+04  0.50400001928E-02 0. -1.
        1   -1    0    0  501    0  0.00000000000E+00  0.00000000000E+00 -0.19362592493E+04  0.19362592493E+04  0.50400001928E-02 0.  1.
    10030    2    1    2    0    0  0.00000000000E+00  0.00000000000E+00 -0.77385614766E+03  0.30986623509E+04  0.30004758002E+04 0.  0.
        5    1    3    3  502    0 -0.29811322973E+02 -0.10918761203E+04  0.67512640951E+03  0.12840949871E+04  0.46999998093E+01 0. -1.
       -5    1    3    3    0  502  0.29811322973E+02  0.10918761203E+04 -0.14489825572E+04  0.18145673639E+04  0.46999998093E+01 0.  1.
</event>
<event>
 5   0  0.1674806E-06  0.3002543E+04  0.7818609E-02  0.8243005E-01
       -2   -1    0    0    0  501  0.00000000000E+00  0.00000000000E+00  0.29000847790E+04  0.29000847790E+04  0.25500000920E-02 0.  1.
        2   -1    0    0  501    0  0.00000000000E+00  0.00000000000E+00 -0.77715512448E+03  0.77715512449E+03  0.25500000920E-02 0. -1.
    10030    2    1    2    0    0  0.00000000000E+00  0.00000000000E+00  0.21229296545E+04  0.36772399035E+04  0.30025427540E+04 0.  0.
        2    1    3    3  502    0 -0.10678173855E+04  0.10548676533E+04  0.10260537456E+04  0.18181765656E+04  0.25500000920E-02 0. -1.
       -2    1    3    3    0  502  0.10678173855E+04 -0.10548676533E+04  0.10968759089E+04  0.18590633379E+04  0.25500000920E-02 0.  1.
</event>
<event>
 5   0  0.1674806E-06  0.3045815E+04  0.7818609E-02  0.8230768E-01
       -2   -1    0    0    0  501  0.00000000000E+00  0.00000000000E+00  0.12549064606E+04  0.12549064606E+04  0.25500000920E-02 0. -1.
        2   -1    0    0  501    0  0.00000000000E+00  0.00000000000E+00 -0.18481430013E+04  0.18481430013E+04  0.25500000920E-02 0.  1.
    10030    2    1    2    0    0  0.00000000000E+00  0.00000000000E+00 -0.59323654062E+03  0.31030494619E+04  0.30458145659E+04 0.  0.
        2    1    3    3  502    0  0.68696016509E+03 -0.61017273630E+03 -0.15339450784E+04  0.17880750935E+04  0.25500000920E-02 0.  1.
       -2    1    3    3    0  502 -0.68696016509E+03  0.61017273630E+03  0.94070853775E+03  0.13149743684E+04  0.25500000920E-02 0. -1.
</event>
<event>
 5   0  0.5887179E-07  0.3005510E+04  0.7818609E-02  0.8242159E-01
        1   -1    0    0  501    0  0.00000000000E+00  0.00000000000E+00  0.15807582985E+04  0.15807582985E+04  0.50400001928E-02 0. -1.
       -1   -1    0    0    0  501  0.00000000000E+00  0.00000000000E+00 -0.14286012189E+04  0.14286012189E+04  0.50400001928E-02 0.  1.
    10030    2    1    2    0    0  0.00000000000E+00  0.00000000000E+00  0.15215707962E+03  0.30093595174E+04  0.30055104272E+04 0.  0.
        3    1    3    3  502    0 -0.12113149067E+04 -0.56896838572E+03 -0.60836429292E+03  0.14700734506E+04  0.10100000352E+00 0.  1.
       -3    1    3    3    0  502  0.12113149067E+04  0.56896838572E+03  0.76052137255E+03  0.15392860668E+04  0.10100000352E+00 0. -1.
</event>
<event>
 5   0  0.6291798E-07  0.2996069E+04  0.7818609E-02  0.8244854E-01
        1   -1    0    0  501    0  0.00000000000E+00  0.00000000000E+00  0.16050625903E+04  0.16050625903E+04  0.50400001928E-02 0.  1.
       -1   -1    0    0    0  501  0.00000000000E+00  0.00000000000E+00 -0.13981435040E+04  0.13981435040E+04  0.50400001928E-02 0. -1.
    10030    2    1    2    0    0  0.00000000000E+00  0.00000000000E+00  0.20691908627E+03  0.30032060943E+04  0.29960693144E+04 0.  0.
        1    1    3    3  502    0  0.47904127379E+03  0.39821984487E+03 -0.12621543004E+04  0.14075130780E+04  0.50400001928E-02 0. -1.
       -1    1    3    3    0  502 -0.47904127379E+03 -0.39821984487E+03  0.14690733866E+04  0.15956930163E+04  0.50400001928E-02 0.  1.
</event>
<event>
 5   0  0.1723916E-06  0.2992963E+04  0.7818609E-02  0.8245743E-01
        2   -1    0    0  501    0  0.00000000000E+00  0.00000000000E+00  0.89439607771E+03  0.89439607771E+03  0.25500000920E-02 0.  1.
       -2   -1    0    0    0  501  0.00000000000E+00  0.00000000000E+00 -0.25038752183E+04  0.25038752183E+04  0.25500000920E-02 0. -1.
    10030    2    1    2    0    0  0.00000000000E+00  0.00000000000E+00 -0.16094791406E+04  0.33982712960E+04  0.29929625285E+04 0.  0.
        1    1    3    3  502    0 -0.44249623187E+03  0.13630461467E+04 -0.31537663795E+03  0.14673650319E+04  0.50400001928E-02 0.  1.
       -1    1    3    3    0  502  0.44249623187E+03 -0.13630461467E+04 -0.12941025026E+04  0.19309062640E+04  0.50400001928E-02 0. -1.
</event>
<event>
 5   0  0.1560174E-06  0.3008375E+04  0.7818609E-02  0.8241343E-01
       -2   -1    0    0    0  501  0.00000000000E+00  0.00000000000E+00  0.24597341683E+04  0.24597341683E+04  0.25500000920E-02 0.  1.
        2   -1    0    0  501    0  0.00000000000E+00  0.00000000000E+00 -0.91984730187E+03  0.91984730187E+03  0.25500000920E-02 0. -1.
    10030    2    1    2    0    0  0.00000000000E+00  0.00000000000E+00  0.15398868664E+04  0.33795814701E+04  0.30083748689E+04 0.  0.
        5    1    3    3  502    0  0.53112682234E+03  0.71288755735E+03 -0.59313939851E+03  0.10687098797E+04  0.46999998093E+01 0. -1.
       -5    1    3    3    0  502 -0.53112682234E+03 -0.71288755735E+03  0.21330262649E+04  0.23108715905E+04  0.46999998093E+01 0.  1.
</event>
<event>
 5   0  0.5931588E-07  0.2994925E+04  0.7818609E-02  0.8245182E-01
       -1   -1    0    0    0  501  0.00000000000E+00  0.00000000000E+00  0.15588527434E+04  0.15588527434E+04  0.50400001928E-02 0.  1.
        1   -1    0    0  501    0  0.00000000000E+00  0.00000000000E+00 -0.14384895826E+04  0.14384895826E+04  0.50400001928E-02 0. -1.
    10030    2    1    2    0    0  0.00000000000E+00  0.00000000000E+00  0.12036316081E+03  0.29973423260E+04  0.29949246617E+04 0.  0.
        2    1    3    3  502    0  0.12151908682E+03 -0.16214196098E+03  0.15450694676E+04  0.15582992535E+04  0.25500000920E-02 0.  1.
       -2    1    3    3    0  502 -0.12151908682E+03  0.16214196098E+03 -0.14247063068E+04  0.14390430725E+04  0.25500000920E-02 0. -1.
</event>
<event>
 5   0  0.5931588E-07  0.2997369E+04  0.7818609E-02  0.8244483E-01
        1   -1    0    0  501    0  0.00000000000E+00  0.00000000000E+00  0.18400036451E+04  0.18400036451E+04  0.50400001928E-02 0.  1.
       -1   -1    0    0    0  501  0.00000000000E+00  0.00000000000E+00 -0.12206796934E+04  0.12206796934E+04  0.50400001928E-02 0. -1.
    10030    2    1    2    0    0  0.00000000000E+00  0.00000000000E+00  0.61932395172E+03  0.30606833385E+04  0.29973689031E+04 0.  0.
        2    1    3    3  502    0 -0.11011428587E+04  0.59464180616E+03 -0.53234112932E+03  0.13599638050E+04  0.25500000920E-02 0. -1.
       -2    1    3    3    0  502  0.11011428587E+04 -0.59464180616E+03  0.11516650810E+04  0.17007195335E+04  0.25500000920E-02 0.  1.
</event>
<event>
 5   0  0.5887179E-07  0.2957231E+04  0.7818609E-02  0.8256050E-01
       -1   -1    0    0    0  501  0.00000000000E+00  0.00000000000E+00  0.15622027406E+04  0.15622027406E+04  0.50400001928E-02 0. -1.
        1   -1    0    0  501    0  0.00000000000E+00  0.00000000000E+00 -0.13995003845E+04  0.13995003845E+04  0.50400001928E-02 0.  1.
    10030    2    1    2    0    0  0.00000000000E+00  0.00000000000E+00  0.16270235609E+03  0.29617031251E+04  0.29572306884E+04 0.  0.
        3    1    3    3  502    0  0.32133122585E+03 -0.78908887702E+03  0.12916441005E+04  0.15473394925E+04  0.10100000352E+00 0. -1.
       -3    1    3    3    0  502 -0.32133122585E+03  0.78908887702E+03 -0.11289417444E+04  0.14143636326E+04  0.10100000352E+00 0.  1.
</event>
<event>
 5   0  0.1635086E-06  0.2999790E+04  0.7818609E-02  0.8243791E-01
        2   -1    0    0  501    0  0.00000000000E+00  0.00000000000E+00  0.12891280207E+04  0.12891280207E+04  0.25500000920E-02 0. -1.
       -2   -1    0    0    0  501  0.00000000000E+00  0.00000000000E+00 -0.17451216847E+04  0.17451216847E+04  0.25500000920E-02 0.  1.
    10030    2    1    2    0    0  0.00000000000E+00  0.00000000000E+00 -0.45599366407E+03  0.30342497054E+04  0.29997901682E+04 0.  0.
        3    1    3    3  502    0 -0.47165035469E+03 -0.52257423315E+03 -0.15676534041E+04  0.17184513644E+04  0.10100000352E+00 0.  1.
       -3    1    3    3    0  502  0.47165035469E+03  0.52257423315E+03  0.11116597401E+04  0.13157983410E+04  0.10100000352E+00 0. -1.
</event>
<event>
 5   0  0.5916703E-07  0.3002118E+04  0.7818609E-02  0.8243126E-01
        1   -1    0    0  501    0  0.00000000000E+00  0.00000000000E+00  0.19292612459E+04  0.19292612459E+04  0.50400001928E-02 0. -1.
       -1   -1    0    0    0  501  0.00000000000E+00  0.00000000000E+00 -0.11678971650E+04  0.11678971650E+04  0.50400001928E-02 0.  1.
    10030    2    1    2    0    0  0.00000000000E+00  0.00000000000E+00  0.76136408084E+03  0.30971584109E+04  0.30021184118E+04 0.  0.
        5    1    3    3  502    0 -0.32565595512E+03 -0.78527395601E+03  0.16569595782E+04  0.18623222387E+04  0.46999998093E+01 0. -1.
       -5    1    3    3    0  502  0.32565595512E+03  0.78527395601E+03 -0.89559549737E+03  0.12348361721E+04  0.46999998093E+01 0.  1.
</event>
<event>
 5   0  0.5931588E-07  0.2999293E+04  0.7818609E-02  0.8243933E-01
        1   -1    0    0  501    0  0.00000000000E+00  0.00000000000E+00  0.16628903083E+04  0.16628903083E+04  0.50400001928E-02 0.  1.
       -1   -1    0    0    0  501  0.00000000000E+00  0.00000000000E+00 -0.13524277455E+04  0.13524277456E+04  0.50400001928E-02 0. -1.
    10030    2    1    2    0    0  0.00000000000E+00  0.00000000000E+00  0.31046256273E+03  0.30153180538E+04  0.29992925771E+04 0.  0.
        2    1    3    3  502    0 -0.41898648443E+03 -0.78729370941E+03 -0.10568464378E+04  0.13828613279E+04  0.25500000920E-02 0. -1.
       -2    1    3    3    0  502  0.41898648443E+03  0.78729370941E+03  0.13673090006E+04  0.16324567259E+04  0.25500000920E-02 0.  1.
</event>
<event>
 5   0  0.1635086E-06  0.2961799E+04  0.7818609E-02  0.8254724E-01
        2   -1    0    0  501    0  0.00000000000E+00  0.00000000000E+00  0.17455136794E+04  0.17455136794E+04  0.25500000920E-02 0. -1.
       -2   -1    0    0    0  501  0.00000000000E+00  0.00000000000E+00 -0.12563996589E+04  0.12563996589E+04  0.25500000920E-02 0.  1.
    10030    2    1    2    0    0  0.00000000000E+00  0.00000000000E+00  0.48911402042E+03  0.30019133383E+04  0.29617986369E+04 0.  0.
        3    1    3    3  502    0  0.75044712213E+03 -0.55207153278E+03 -0.92216773900E+03  0.13108574329E+04  0.10100000352E+00 0.  1.
       -3    1    3    3    0  502 -0.75044712213E+03  0.55207153278E+03  0.14112817594E+04  0.16910559054E+04  0.10100000352E+00 0. -1.
</event>
<event>
 5   0  0.1560174E-06  0.2993259E+04  0.7818609E-02  0.8245658E-01
        2   -1    0    0  501    0  0.00000000000E+00  0.00000000000E+00  0.17205914592E+04  0.17205914592E+04  0.25500000920E-02 0.  1.
       -2   -1    0    0    0  501  0.00000000000E+00  0.00000000000E+00 -0.13018200210E+04  0.13018200210E+04  0.25500000920E-02 0. -1.
    10030    2    1    2    0    0  0.00000000000E+00  0.00000000000E+00  0.41877143825E+03  0.30224114802E+04  0.29932593670E+04 0.  0.
        5    1    3    3  502    0  0.32090800519E+03 -0.11579870369E+04 -0.69147056991E+03  0.13863872346E+04  0.46999998093E+01 0. -1.
       -5    1    3    3    0  502 -0.32090800519E+03  0.11579870369E+04  0.11102420082E+04  0.16360242455E+04  0.46999998093E+01 0.  1.
</event>
<event>
 5   0  0.1560174E-06  0.3000822E+04  0.7818609E-02  0.8243496E-01
        2   -1    0    0  501    0  0.00000000000E+00  0.00000000000E+00  0.22973713317E+04  0.22973713317E+04  0.25500000920E-02 0. -1.
       -2   -1    0    0    0  501  0.00000000000E+00  0.00000000000E+00 -0.97991671301E+03  0.97991671302E+03  0.25500000920E-02 0.  1.
    10030    2    1    2    0    0  0.00000000000E+00  0.00000000000E+00  0.13174546187E+04  0.32772880447E+04  0.30008215968E+04 0.  0.
        5    1    3    3  502    0  0.69187136575E+02  0.93850834686E+03 -0.61753597944E+03  0.11255920899E+04  0.46999998093E+01 0.  1.
       -5    1    3    3    0  502 -0.69187136575E+02 -0.93850834686E+03  0.19349905981E+04  0.21516959548E+04  0.46999998093E+01 0. -1.
</event>
<event>
 5   0  0.1560174E-06  0.3003072E+04  0.7818609E-02  0.8242854E-01
       -2   -1    0    0    0  501  0.00000000000E+00  0.00000000000E+00  0.86583398100E+03  0.86583398100E+03  0.25500000920E-02 0.  1.
        2   -1    0    0  501    0  0.00000000000E+00  0.00000000000E+00 -0.26039758620E+04  0.26039758620E+04  0.25500000920E-02 0. -1.
    10030    2    1    2    0    0  0.00000000000E+00  0.00000000000E+00 -0.17381418810E+04  0.34698098430E+04  0.30030722848E+04 0.  0.
        5    1    3    3  502    0 -0.10208480761E+03  0.11551621365E+04 -0.19711307791E+04  0.22869629441E+04  0.46999998093E+01 0. -1.
       -5    1    3    3    0  502  0.10208480761E+03 -0.11551621365E+04  0.23298889811E+03  0.11828468989E+04  0.46999998093E+01 0.  1.
</event>
<event>
 5   0  0.1674806E-06  0.3005632E+04  0.7818609E-02  0.8242124E-01
       -2   -1    0    0    0  501  0.00000000000E+00  0.00000000000E+00  0.15660790924E+04  0.15660790924E+04  0.25500000920E-02 0. -1.
        2   -1    0    0  501    0  0.00000000000E+00  0.00000000000E+00 -0.14421089413E+04  0.14421089413E+04  0.25500000920E-02 0.  1.
    10030    2    1    2    0    0  0.00000000000E+00  0.00000000000E+00  0.12397015112E+03  0.30081880338E+04  0.30056324872E+04 0.  0.
        2    1    3    3  502    0  0.10772715088E+04  0.44728896057E+03 -0.88638343657E+03  0.14650108923E+04  0.25500000920E-02 0.  1.
       -2    1    3    3    0  502 -0.10772715088E+04 -0.44728896057E+03  0.10103535877E+04  0.15431771415E+04  0.25500000920E-02 0. -1.
</event>
<event>
 5   0  0.1625212E-06  0.3009510E+04  0.7818609E-02  0.8241021E-01
       -2   -1    0    0    0  501  0.00000000000E+00  0.00000000000E+00  0.12930858804E+04  0.12930858804E+04  0.25500000920E-02 0.  1.
        2   -1    0    0  501    0  0.00000000000E+00  0.00000000000E+00 -0.17510723207E+04  0.17510723207E+04  0.25500000920E-02 0. -1.
    10030    2    1    2    0    0  0.00000000000E+00  0.00000000000E+00 -0.45798644031E+03  0.30441582012E+04  0.30095095239E+04 0.  0.
        4    1    3    3  502    0 -0.10585910407E+04  0.10587521413E+04 -0.76545775893E+02  0.14991437412E+04  0.12699999809E+01 0.  1.
       -4    1    3    3    0  502  0.10585910407E+04 -0.10587521413E+04 -0.38144066442E+03  0.15450144600E+04  0.12699999809E+01 0. -1.
</event>
<event>
 5   0  0.1635086E-06  0.2997848E+04  0.7818609E-02  0.8244346E-01
       -2   -1    0    0    0  501  0.00000000000E+00  0.00000000000E+00  0.16528800173E+04  0.16528800173E+04  0.25500000920E-02 0. -1.
        2   -1    0    0  501    0  0.00000000000E+00  0.00000000000E+00 -0.13593081172E+04  0.13593081172E+04  0.25500000920E-02 0.  1.
    10030    2    1    2    0    0  0.00000000000E+00  0.00000000000E+00  0.29357190013E+03  0.30121881345E+04  0.29978480444E+04 0.  0.
        3    1    3    3  502    0  0.11386197566E+04  0.90082921382E+03  0.52116048973E+03  0.15425811126E+04  0.10100000352E+00 0. -1.
       -3    1    3    3    0  502 -0.11386197566E+04 -0.90082921382E+03 -0.22758858960E+03  0.14696070219E+04  0.10100000352E+00 0.  1.
</event>
<event>
 5   0  0.1560174E-06  0.3002270E+04  0.7818609E-02  0.8243083E-01
        2   -1    0    0  501    0  0.00000000000E+00  0.00000000000E+00  0.18212343276E+04  0.18212343276E+04  0.25500000920E-02 0.  1.
       -2   -1    0    0    0  501  0.00000000000E+00  0.00000000000E+00 -0.12372962766E+04  0.12372962766E+04  0.25500000920E-02 0. -1.
    10030    2    1    2    0    0  0.00000000000E+00  0.00000000000E+00  0.58393805096E+03  0.30585306042E+04  0.30022701093E+04 0.  0.
        5    1    3    3  502    0 -0.14304015797E+04 -0.85943361853E+02 -0.16356743630E+03  0.14422937762E+04  0.46999998093E+01 0. -1.
       -5    1    3    3    0  502  0.14304015797E+04  0.85943361853E+02  0.74750548726E+03  0.16162368280E+04  0.46999998093E+01 0.  1.
</event>
<event>
 5   0  0.1625212E-06  0.3024988E+04  0.7818609E-02  0.8236631E-01
        2   -1    0    0  501    0  0.00000000000E+00  0.00000000000E+00  0.21796135024E+04  0.21796135024E+04  0.25500000920E-02 0. -1.
       -2   -1    0    0    0  501  0.00000000000E+00  0.00000000000E+00 -0.10495614990E+04  0.10495614990E+04  0.25500000920E-02 0.  1.
    10030    2    1    2    0    0  0.00000000000E+00  0.00000000000E+00  0.11300520033E+04  0.32291750014E+04  0.30249882081E+04 0.  0.
        4    1    3    3  502    0 -0.13801875479E+04  0.21049941656E+03 -0.55970182407E+02  0.13972694608E+04  0.12699999809E+01 0.  1.
       -4    1    3    3    0  502  0.13801875479E+04 -0.21049941656E+03  0.11860221857E+04  0.18319055406E+04  0.12699999809E+01 0. -1.
</event>
<event>
 5   0  0.5431625E-07  0.2996795E+04  0.7818609E-02  0.8244647E-01
        3   -1    0    0  501    0  0.00000000000E+00  0.00000000000E+00  0.13509694036E+04  0.13509694074E+04  0.10100000352E+00 0.  1.
       -3   -1    0    0    0  501  0.00000000000E+00  0.00000000000E+00 -0.16619144456E+04  0.16619144486E+04  0.10100000352E+00 0. -1.
    10030    2    1    2    0    0  0.00000000000E+00  0.00000000000E+00 -0.31094504192E+03  0.30128838560E+04  0.29967953402E+04 0.  0.
        3    1    3    3  502    0  0.67536731215E+03 -0.33170564851E+03 -0.14582090559E+04  0.16408910093E+04  0.10100000352E+00 0. -1.
       -3    1    3    3    0  502 -0.67536731215E+03  0.33170564851E+03  0.11472640140E+04  0.13719928467E+04  0.10100000352E+00 0.  1.
</event>
<event>
 5   0  0.1723916E-06  0.2991100E+04  0.7818609E-02  0.8246277E-01
        2   -1    0    0  501    0  0.00000000000E+00  0.00000000000E+00  0.20279713852E+04  0.20279713852E+04  0.25500000920E-02 0.  1.
       -2   -1    0    0    0  501  0.00000000000E+00  0.00000000000E+00 -0.11029099127E+04  0.11029099127E+04  0.25500000920E-02 0. -1.
    10030    2    1    2    0    0  0.00000000000E+00  0.00000000000E+00  0.92506147248E+03  0.31308812979E+04  0.29910999605E+04 0.  0.
        1    1    3    3  502    0  0.38456759401E+03  0.68626832605E+03  0.17939041343E+04  0.19588130316E+04  0.50400001928E-02 0.  1.
       -1    1    3    3    0  502 -0.38456759401E+03 -0.68626832605E+03 -0.86884266186E+03  0.11720682663E+04  0.50400001928E-02 0. -1.
</event>
<event>
 5   0  0.5931588E-07  0.3043069E+04  0.7818609E-02  0.8231538E-01
       -1   -1    0    0    0  501  0.00000000000E+00  0.00000000000E+00  0.15309755004E+04  0.15309755004E+04  0.50400001928E-02 0.  1.
        1   -1    0    0  501    0  0.00000000000E+00  0.00000000000E+00 -0.15121520613E+04  0.15121520613E+04  0.50400001928E-02 0. -1.
    10030    2    1    2    0    0  0.00000000000E+00  0.00000000000E+00  0.18823439157E+02  0.30431275617E+04  0.30430693444E+04 0.  0.
        2    1    3    3  502    0  0.13681702299E+04  0.31668928958E+03  0.59498749967E+03  0.15251858932E+04  0.25500000920E-02 0.  1.
       -2    1    3    3    0  502 -0.13681702299E+04 -0.31668928958E+03 -0.57616406051E+03  0.15179416684E+04  0.25500000920E-02 0. -1.
</event>
<event>
 5   0  0.1635086E-06  0.2945504E+04  0.7818609E-02  0.8259466E-01
        2   -1    0    0  501    0  0.00000000000E+00  0.00000000000E+00  0.23721854095E+04  0.23721854095E+04  0.25500000920E-02 0. -1.
       -2   -1    0    0    0  501  0.00000000000E+00  0.00000000000E+00 -0.91434591887E+03  0.91434591887E+03  0.25500000920E-02 0.  1.
    10030    2    1    2    0    0  0.00000000000E+00  0.00000000000E+00  0.14578394906E+04  0.32865313284E+04  0.29455037246E+04 0.  0.
        3    1    3    3  502    0 -0.11233303907E+04  0.81187203857E+03  0.17327672164E+03  0.13967935446E+04  0.10100000352E+00 0.  1.
       -3    1    3    3    0  502  0.11233303907E+04 -0.81187203857E+03  0.12845627690E+04  0.18897377838E+04  0.10100000352E+00 0. -1.
</event>
<event>
 5   0  0.5874741E-07  0.3004072E+04  0.7818609E-02  0.8242569E-01
        1   -1    0    0  501    0  0.00000000000E+00  0.00000000000E+00  0.23747854170E+04  0.23747854170E+04  0.50400001928E-02 0.  1.
       -1   -1    0    0    0  501  0.00000000000E+00  0.00000000000E+00 -0.95002789044E+03  0.95002789045E+03  0.50400001928E-02 0. -1.
    10030    2    1    2    0    0  0.00000000000E+00  0.00000000000E+00  0.14247575266E+04  0.33248133075E+04  0.30040721563E+04 0.  0.
        4    1    3    3  502    0  0.38747009938E+02  0.14994489138E+04  0.62479431367E+03  0.16248747407E+04  0.12699999809E+01 0.  1.
       -4    1    3    3    0  502 -0.38747009938E+02 -0.14994489138E+04  0.79996321290E+03  0.16999385667E+04  0.12699999809E+01 0. -1.
</event>
<event>
 5   0  0.6291798E-07  0.3013306E+04  0.7818609E-02  0.8239941E-01
        1   -1    0    0  501    0  0.00000000000E+00  0.00000000000E+00  0.19906704299E+04  0.19906704299E+04  0.50400001928E-02 0. -1.
       -1   -1    0    0    0  501  0.00000000000E+00  0.00000000000E+00 -0.11403209207E+04  0.11403209207E+04  0.50400001928E-02 0.  1.
    10030    2    1    2    0    0  0.00000000000E+00  0.00000000000E+00  0.85034950921E+03  0.31309913505E+04  0.30133059170E+04 0.  0.
        1    1    3    3  502    0 -0.34828021023E+03 -0.39274577470E+03  0.18925822784E+04  0.19640305570E+04  0.50400001928E-02 0. -1.
       -1    1    3    3    0  502  0.34828021023E+03  0.39274577470E+03 -0.10422327692E+04  0.11669607935E+04  0.50400001928E-02 0.  1.
</event>
<event>
 5   0  0.5916703E-07  0.3012844E+04  0.7818609E-02  0.8240073E-01
       -1   -1    0    0    0  501  0.00000000000E+00  0.00000000000E+00  0.18752375726E+04  0.18752375726E+04  0.50400001928E-02 0.  1.
        1   -1    0    0  501    0  0.00000000000E+00  0.00000000000E+00 -0.12101437684E+04  0.12101437684E+04  0.50400001928E-02 0. -1.
    10030    2    1    2    0    0  0.00000000000E+00  0.00000000000E+00  0.66509380416E+03  0.30853813410E+04  0.30128438809E+04 0.  0.
        5    1    3    3  502    0 -0.14601843196E+04  0.29005681030E+03  0.96756254885E+02  0.14918629506E+04  0.46999998093E+01 0. -1.
       -5    1    3    3    0  502  0.14601843196E+04 -0.29005681030E+03  0.56833754927E+03  0.15935183904E+04  0.46999998093E+01 0.  1.
</event>
<event>
 5   0  0.1625212E-06  0.3034676E+04  0.7818609E-02  0.8233898E-01
        2   -1    0    0  501    0  0.00000000000E+00  0.00000000000E+00  0.19788005681E+04  0.19788005681E+04  0.25500000920E-02 0.  1.
       -2   -1    0    0    0  501  0.00000000000E+00  0.00000000000E+00 -0.11634901588E+04  0.11634901588E+04  0.25500000920E-02 0. -1.
    10030    2    1    2    0    0  0.00000000000E+00  0.00000000000E+00  0.81531040931E+03  0.31422907270E+04  0.30346762511E+04 0.  0.
        4    1    3    3  502    0 -0.24561934559E+03 -0.18281643306E+03 -0.11311684754E+04  0.11718764627E+04  0.12699999809E+01 0. -1.
       -4    1    3    3    0  502  0.24561934559E+03  0.18281643306E+03  0.19464788847E+04  0.19704142643E+04  0.12699999809E+01 0.  1.
</event>
<event>
 5   0  0.5931588E-07  0.2990894E+04  0.7818609E-02  0.8246336E-01
        1   -1    0    0  501    0  0.00000000000E+00  0.00000000000E+00  0.78825148426E+03  0.78825148427E+03  0.50400001928E-02 0.  1.
       -1   -1    0    0    0  501  0.00000000000E+00  0.00000000000E+00 -0.28371164868E+04  0.28371164869E+04  0.50400001928E-02 0. -1.
    10030    2    1    2    0    0  0.00000000000E+00  0.00000000000E+00 -0.20488650026E+04  0.36253679711E+04  0.29908937004E+04 0.  0.
        2    1    3    3  502    0  0.30744279267E+03 -0.79048624949E+03  0.46849890779E+03  0.96895862038E+03  0.25500000920E-02 0.  1.
       -2    1    3    3    0  502 -0.30744279267E+03  0.79048624949E+03 -0.25173639104E+04  0.26564093507E+04  0.25500000920E-02 0. -1.
</event>
<event>
 5   0  0.1674806E-06  0.2943825E+04  0.7818609E-02  0.8259956E-01
        2   -1    0    0  501    0  0.00000000000E+00  0.00000000000E+00  0.19900434333E+04  0.19900434333E+04  0.25500000920E-02 0.  1.
       -2   -1    0    0    0  501  0.00000000000E+00  0.00000000000E+00 -0.10886829985E+04  0.10886829985E+04  0.25500000920E-02 0. -1.
    10030    2    1    2    0    0  0.00000000000E+00  0.00000000000E+00  0.90136043483E+03  0.30787264318E+04  0.29438250302E+04 0.  0.
        2    1    3    3  502    0 -0.67847834732E+03  0.10012045834E+04 -0.42668109962E+03  0.12824976594E+04  0.25500000920E-02 0. -1.
       -2    1    3    3    0  502  0.67847834732E+03 -0.10012045834E+04  0.13280415344E+04  0.17962287724E+04  0.25500000920E-02 0.  1.
</event>
<event>
 5   0  0.1723916E-06  0.3001237E+04  0.7818609E-02  0.8243378E-01
       -2   -1    0    0    0  501  0.00000000000E+00  0.00000000000E+00  0.96764311020E+03  0.96764311020E+03  0.25500000920E-02 0. -1.
        2   -1    0    0  501    0  0.00000000000E+00  0.00000000000E+00 -0.23271556122E+04  0.23271556122E+04  0.25500000920E-02 0.  1.
    10030    2    1    2    0    0  0.00000000000E+00  0.00000000000E+00 -0.13595125020E+04  0.32947987224E+04  0.30012371412E+04 0.  0.
        1    1    3    3  502    0 -0.33241428718E+03  0.41097547214E+03 -0.22215711509E+04  0.22835889463E+04  0.50400001928E-02 0.  1.
       -1    1    3    3    0  502  0.33241428718E+03 -0.41097547214E+03  0.86205864894E+03  0.10112097761E+04  0.50400001928E-02 0. -1.
</event>
<event>
 5   0  0.1560174E-06  0.3004941E+04  0.7818609E-02  0.8242321E-01
        2   -1    0    0  501    0  0.00000000000E+00  0.00000000000E+00  0.22453485046E+04  0.22453485046E+04  0.25500000920E-02 0. -1.
       -2   -1    0    0    0  501  0.00000000000E+00  0.00000000000E+00 -0.10053749340E+04  0.10053749340E+04  0.25500000920E-02 0.  1.
    10030    2    1    2    0    0  0.00000000000E+00  0.00000000000E+00  0.12399735706E+04  0.32507234386E+04  0.30049406681E+04 0.  0.
        5    1    3    3  502    0  0.64896519937E+03 -0.11534419663E+04 -0.14938840350E+03  0.13318870765E+04  0.46999998093E+01 0.  1.
       -5    1    3    3    0  502 -0.64896519937E+03  0.11534419663E+04  0.13893619741E+04  0.19188363621E+04  0.46999998093E+01 0. -1.
</event>
<event>
 5   0  0.5931588E-07  0.3003708E+04  0.7818609E-02  0.8242673E-01
        1   -1    0    0  501    0  0.00000000000E+00  0.00000000000E+00  0.21166669157E+04  0.21166669157E+04  0.50400001928E-02 0.  1.
       -1   -1    0    0    0  501  0.00000000000E+00  0.00000000000E+00 -0.10656210716E+04  0.10656210716E+04  0.50400001928E-02 0. -1.
    10030    2    1    2    0    0  0.00000000000E+00  0.00000000000E+00  0.10510458441E+04  0.31822879873E+04  0.30037076202E+04 0.  0.
        2    1    3    3  502    0 -0.42174075582E+03 -0.12149373619E+04 -0.29623786405E+03  0.13197329012E+04  0.25500000920E-02 0. -1.
       -2    1    3    3    0  502  0.42174075582E+03  0.12149373619E+04  0.13472837081E+04  0.18625550861E+04  0.25500000920E-02 0.  1.
</event>
<event>
 5   0  0.5874741E-07  0.2994129E+04  0.7818609E-02  0.8245409E-01
       -1   -1    0    0    0  501  0.00000000000E+00  0.00000000000E+00  0.84487921587E+03  0.84487921588E+03  0.50400001928E-02 0. -1.
        1   -1    0    0  501    0  0.00000000000E+00  0.00000000000E+00 -0.26526893640E+04  0.26526893640E+04  0.50400001928E-02 0.  1.
    10030    2    1    2    0    0  0.00000000000E+00  0.00000000000E+00 -0.18078101481E+04  0.34975685799E+04  0.29941289951E+04 0.  0.
        4    1    3    3  502    0 -0.31738473733E+03  0.12128255171E+04 -0.18597293524E+04  0.22428271631E+04  0.12699999809E+01 0.  1.
       -4    1    3    3    0  502  0.31738473733E+03 -0.12128255171E+04  0.51919204238E+02  0.12547414168E+04  0.12699999809E+01 0. -1.
</event>
<event>
 5   0  0.1625212E-06  0.3001099E+04  0.7818609E-02  0.8243417E-01
        2   -1    0    0  501    0  0.00000000000E+00  0.00000000000E+00  0.15156346411E+04  0.15156346411E+04  0.25500000920E-02 0. -1.
       -2   -1    0    0    0  501  0.00000000000E+00  0.00000000000E+00 -0.14856140922E+04  0.14856140922E+04  0.25500000920E-02 0.  1.
    10030    2    1    2    0    0  0.00000000000E+00  0.00000000000E+00  0.30020548862E+02  0.30012487333E+04  0.30010985864E+04 0.  0.
        4    1    3    3  502    0 -0.40584561342E+03  0.61626052129E+03  0.13216585443E+04  0.15136943591E+04  0.12699999809E+01 0. -1.
       -4    1    3    3    0  502  0.40584561342E+03 -0.61626052129E+03 -0.12916379954E+04  0.14875543742E+04  0.12699999809E+01 0.  1.
</event>
<event>
 5   0  0.1635086E-06  0.3019637E+04  0.7818609E-02  0.8238146E-01
       -2   -1    0    0    0  501  0.00000000000E+00  0.00000000000E+00  0.10699338520E+04  0.10699338520E+04  0.25500000920E-02 0. -1.
        2   -1    0    0  501    0  0.00000000000E+00  0.00000000000E+00 -0.21305543449E+04  0.21305543449E+04  0.25500000920E-02 0.  1.
    10030    2    1    2    0    0  0.00000000000E+00  0.00000000000E+00 -0.10606204930E+04  0.32004881969E+04  0.30196372081E+04 0.  0.
        3    1    3    3  502    0 -0.96879580393E+02 -0.60987954404E+03  0.92996253438E+03  0.11163194153E+04  0.10100000352E+00 0. -1.
       -3    1    3    3    0  502  0.96879580393E+02  0.60987954404E+03 -0.19905830274E+04  0.20841687816E+04  0.10100000352E+00 0.  1.
</event>
<event>
 5   0  0.6291798E-07  0.3001245E+04  0.7818609E-02  0.8243375E-01
        1   -1    0    0  501    0  0.00000000000E+00  0.00000000000E+00  0.17281456982E+04  0.17281456982E+04  0.50400001928E-02 0. -1.
       -1   -1    0    0    0  501  0.00000000000E+00  0.00000000000E+00 -0.13030544252E+04  0.13030544252E+04  0.50400001928E-02 0.  1.
    10030    2    1    2    0    0  0.00000000000E+00  0.00000000000E+00  0.42509127305E+03  0.30312001234E+04  0.30012450079E+04 0.  0.
        1    1    3    3  502    0  0.14187868628E+04 -0.15266809301E+02  0.70596928074E+03  0.15847971046E+04  0.50400001928E-02 0. -1.
       -1    1    3    3    0  502 -0.14187868628E+04  0.15266809301E+02 -0.28087800770E+03  0.14464030188E+04  0.50400001928E-02 0.  1.
</event>
<event>
 5   0  0.5887179E-07  0.3011266E+04  0.7818609E-02  0.8240521E-01
        1   -1    0    0  501    0  0.00000000000E+00  0.00000000000E+00  0.24749355030E+04  0.24749355030E+04  0.50400001928E-02 0.  1.
       -1   -1    0    0    0  501  0.00000000000E+00  0.00000000000E+00 -0.91595538012E+03  0.91595538013E+03  0.50400001928E-02 0. -1.
    10030    2    1    2    0    0  0.00000000000E+00  0.00000000000E+00  0.15589801229E+04  0.33908908831E+04  0.30112658398E+04 0.  0.
        3    1    3    3  502    0 -0.12365591301E+03 -0.28932619181E+03 -0.87852071785E+03  0.93316616526E+03  0.10100000352E+00 0. -1.
       -3    1    3    3    0  502  0.12365591301E+03  0.28932619181E+03  0.24375008407E+04  0.24577247179E+04  0.10100000352E+00 0.  1.
</event>
<event>
 5   0  0.5931588E-07  0.3006085E+04  0.7818609E-02  0.8241996E-01
        1   -1    0    0  501    0  0.00000000000E+00  0.00000000000E+00  0.16621497995E+04  0.16621497995E+04  0.50400001928E-02 0.  1.
       -1   -1    0    0    0  501  0.00000000000E+00  0.00000000000E+00 -0.13591652405E+04  0.13591652405E+04  0.50400001928E-02 0. -1.
    10030    2    1    2    0    0  0.00000000000E+00  0.00000000000E+00  0.30298455899E+03  0.30213150401E+04  0.30060846509E+04 0.  0.
        2    1    3    3  502    0  0.13917624232E+04 -0.50426060161E+03  0.41330166198E+03  0.15369123790E+04  0.25500000920E-02 0. -1.
       -2    1    3    3    0  502 -0.13917624232E+04  0.50426060161E+03 -0.11031710299E+03  0.14844026611E+04  0.25500000920E-02 0.  1.
</event>
<event>
 5   0  0.5931588E-07  0.2997258E+04  0.7818609E-02  0.8244514E-01
        1   -1    0    0  501    0  0.00000000000E+00  0.00000000000E+00  0.11655254948E+04  0.11655254948E+04  0.50400001928E-02 0.  1.
       -1   -1    0    0    0  501  0.00000000000E+00  0.00000000000E+00 -0.19269318978E+04  0.19269318978E+04  0.50400001928E-02 0. -1.
    10030    2    1    2    0    0  0.00000000000E+00  0.00000000000E+00 -0.76140640301E+03  0.30924573926E+04  0.29972575822E+04 0.  0.
        2    1    3    3  502    0 -0.87573197163E+02  0.37537142461E+03 -0.18749128574E+04  0.19141240801E+04  0.25500000920E-02 0. -1.
       -2    1    3    3    0  502  0.87573197163E+02 -0.37537142461E+03  0.11135064544E+04  0.11783333125E+04  0.25500000920E-02 0.  1.
</event>
<event>
 5   0  0.1560174E-06  0.2989298E+04  0.7818609E-02  0.8246793E-01
        2   -1    0    0  501    0  0.00000000000E+00  0.00000000000E+00  0.12964671869E+04  0.12964671869E+04  0.25500000920E-02 0.  1.
       -2   -1    0    0    0  501  0.00000000000E+00  0.00000000000E+00 -0.17231257666E+04  0.17231257666E+04  0.25500000920E-02 0. -1.
    10030    2    1    2    0    0  0.00000000000E+00  0.00000000000E+00 -0.42665857966E+03  0.30195929535E+04  0.29892982557E+04 0.  0.
        5    1    3    3  502    0 -0.11139634754E+04 -0.91994718624E+03  0.17361478070E+03  0.14551225488E+04  0.46999998093E+01 0.  1.
       -5    1    3    3    0  502  0.11139634754E+04  0.91994718624E+03 -0.60027336036E+03  0.15644704047E+04  0.46999998093E+01 0. -1.
</event>
<event>
 5   0  0.5916703E-07  0.3010961E+04  0.7818609E-02  0.8240608E-01
       -1   -1    0    0    0  501  0.00000000000E+00  0.00000000000E+00  0.18270634050E+04  0.18270634050E+04  0.50400001928E-02 0.  1.
        1   -1    0    0  501    0  0.00000000000E+00  0.00000000000E+00 -0.12404995003E+04  0.12404995003E+04  0.50400001928E-02 0. -1.
    10030    2    1    2    0    0  0.00000000000E+00  0.00000000000E+00  0.58656390470E+03  0.30675629054E+04  0.30109608042E+04 0.  0.
        5    1    3    3  502    0 -0.26392108359E+03 -0.74420944966E+03 -0.10125887140E+04  0.12840794512E+04  0.46999998093E+01 0. -1.
       -5    1    3    3    0  502  0.26392108359E+03  0.74420944966E+03  0.15991526187E+04  0.17834834542E+04  0.46999998093E+01 0.  1.
</event>
<event>
 5   0  0.5887179E-07  0.2974373E+04  0.7818609E-02  0.8251087E-01
        1   -1    0    0  501    0  0.00000000000E+00  0.00000000000E+00  0.97428756597E+03  0.97428756598E+03  0.50400001928E-02 0. -1.
       -1   -1    0    0    0  501  0.00000000000E+00  0.00000000000E+00 -0.22700938090E+04  0.22700938090E+04  0.50400001928E-02 0.  1.
    10030    2    1    2    0    0  0.00000000000E+00  0.00000000000E+00 -0.12958062431E+04  0.32443813750E+04  0.29743733268E+04 0.  0.
        3    1    3    3  502    0 -0.47819135362E+03 -0.13441582382E+04 -0.18991160751E+03  0.14392688314E+04  0.10100000352E+00 0. -1.
       -3    1    3    3    0  502  0.47819135362E+03  0.13441582382E+04 -0.11058946356E+04  0.18051125436E+04  0.10100000352E+00 0.  1.
</event>
<event>
 5   0  0.5916703E-07  0.2840837E+04  0.7818609E-02  0.8290701E-01
        1   -1    0    0  501    0  0.00000000000E+00  0.00000000000E+00  0.27649808746E+04  0.27649808746E+04  0.50400001928E-02 0. -1.
       -1   -1    0    0    0  501  0.00000000000E+00  0.00000000000E+00 -0.72969374220E+03  0.72969374222E+03  0.50400001928E-02 0.  1.
    10030    2    1    2    0    0  0.00000000000E+00  0.00000000000E+00  0.20352871324E+04  0.34946746168E+04  0.28408373706E+04 0.  0.
        5    1    3    3  502    0  0.85787513439E+03 -0.11032662448E+04  0.13298731847E+04  0.19291788229E+04  0.46999998093E+01 0. -1.
       -5    1    3    3    0  502 -0.85787513439E+03  0.11032662448E+04  0.70541394762E+03  0.15654957939E+04  0.46999998093E+01 0.  1.
</event>
<event>
 5   0  0.6291798E-07  0.2996230E+04  0.7818609E-02  0.8244808E-01
        1   -1    0    0  501    0  0.00000000000E+00  0.00000000000E+00  0.17769620460E+04  0.17769620460E+04  0.50400001928E-02 0. -1.
       -1   -1    0    0    0  501  0.00000000000E+00  0.00000000000E+00 -0.12630252135E+04  0.12630252135E+04  0.50400001928E-02 0.  1.
    10030    2    1    2    0    0  0.00000000000E+00  0.00000000000E+00  0.51393683246E+03  0.30399872595E+04  0.29962295423E+04 0.  0.
        1    1    3    3  502    0  0.12796382827E+04 -0.54509138644E+03 -0.30771068881E+03  0.14245296143E+04  0.50400001928E-02 0.  1.
       -1    1    3    3    0  502 -0.12796382827E+04  0.54509138644E+03  0.82164752127E+03  0.16154576452E+04  0.50400001928E-02 0. -1.
</event>
<event>
 5   0  0.1674806E-06  0.3003917E+04  0.7818609E-02  0.8242613E-01
        2   -1    0    0  501    0  0.00000000000E+00  0.00000000000E+00  0.16079502074E+04  0.16079502074E+04  0.25500000920E-02 0.  1.
       -2   -1    0    0    0  501  0.00000000000E+00  0.00000000000E+00 -0.14029535809E+04  0.14029535809E+04  0.25500000920E-02 0. -1.
    10030    2    1    2    0    0  0.00000000000E+00  0.00000000000E+00  0.20499662643E+03  0.30109037883E+04  0.30039171103E+04 0.  0.
        2    1    3    3  502    0 -0.91871126167E+03  0.11570288546E+04  0.37355908072E+03  0.15239069983E+04  0.25500000920E-02 0.  1.
       -2    1    3    3    0  502  0.91871126167E+03 -0.11570288546E+04 -0.16856245429E+03  0.14869967900E+04  0.25500000920E-02 0. -1.
</event>
<event>
 5   0  0.1723916E-06  0.3013346E+04  0.7818609E-02  0.8239930E-01
        2   -1    0    0  501    0  0.00000000000E+00  0.00000000000E+00  0.19821807122E+04  0.19821807122E+04  0.25500000920E-02 0. -1.
       -2   -1    0    0    0  501  0.00000000000E+00  0.00000000000E+00 -0.11452355861E+04  0.11452355861E+04  0.25500000920E-02 0.  1.
    10030    2    1    2    0    0  0.00000000000E+00  0.00000000000E+00  0.83694512617E+03  0.31274162983E+04  0.30133462394E+04 0.  0.
        1    1    3    3  502    0  0.43591802563E+03 -0.10375900771E+04  0.14581142970E+04  0.18419324081E+04  0.50400001928E-02 0. -1.
       -1    1    3    3    0  502 -0.43591802563E+03  0.10375900771E+04 -0.62116917078E+03  0.12854838902E+04  0.50400001928E-02 0.  1.
</event>
<event>
 5   0  0.5916703E-07  0.2834364E+04  0.7818609E-02  0.8292678E-01
        1   -1    0    0  501    0  0.00000000000E+00  0.00000000000E+00  0.19530669834E+04  0.19530669834E+04  0.50400001928E-02 0.  1.
       -1   -1    0    0    0  501  0.00000000000E+00  0.00000000000E+00 -0.10283338468E+04  0.10283338468E+04  0.50400001928E-02 0. -1.
    10030    2    1    2    0    0  0.00000000000E+00  0.00000000000E+00  0.92473313667E+03  0.29814008302E+04  0.28343640444E+04 0.  0.
        5    1    3    3  502    0 -0.22281347803E+03  0.87142076416E+03 -0.68960039716E+03  0.11333978966E+04  0.46999998093E+01 0. -1.
       -5    1    3    3    0  502  0.22281347803E+03 -0.87142076416E+03  0.16143335338E+04  0.18480029336E+04  0.46999998093E+01 0.  1.
</event>
<event>
 5   0  0.5931588E-07  0.2992817E+04  0.7818609E-02  0.8245785E-01
        1   -1    0    0  501    0  0.00000000000E+00  0.00000000000E+00  0.20436581834E+04  0.20436581834E+04  0.50400001928E-02 0.  1.
       -1   -1    0    0    0  501  0.00000000000E+00  0.00000000000E+00 -0.10957009488E+04  0.10957009488E+04  0.50400001928E-02 0. -1.
    10030    2    1    2    0    0  0.00000000000E+00  0.00000000000E+00  0.94795723464E+03  0.31393591322E+04  0.29928168742E+04 0.  0.
        2    1    3    3  502    0 -0.51638947916E+03 -0.11305253192E+04  0.13481461528E+04  0.18336421791E+04  0.25500000920E-02 0.  1.
       -2    1    3    3    0  502  0.51638947916E+03  0.11305253192E+04 -0.40018891813E+03  0.13057169532E+04  0.25500000920E-02 0. -1.
</event>
<event>
 5   0  0.5887179E-07  0.2992938E+04  0.7818609E-02  0.8245750E-01
        1   -1    0    0  501    0  0.00000000000E+00  0.00000000000E+00  0.24166111392E+04  0.24166111392E+04  0.50400001928E-02 0.  1.
       -1   -1    0    0    0  501  0.00000000000E+00  0.00000000000E+00 -0.92667746811E+03  0.92667746813E+03  0.50400001928E-02 0. -1.
    10030    2    1    2    0    0  0.00000000000E+00  0.00000000000E+00  0.14899336710E+04  0.33432886073E+04  0.29929377487E+04 0.  0.
        3    1    3    3  502    0  0.97285236496E+03 -0.11005289371E+04  0.42545389751E+03  0.15292536397E+04  0.10100000352E+00 0. -1.
       -3    1    3    3    0  502 -0.97285236496E+03  0.11005289371E+04  0.10644797735E+04  0.18140349676E+04  0.10100000352E+00 0.  1.
</event>
<event>
 5   0  0.1674806E-06  0.2984599E+04  0.7818609E-02  0.8248143E-01
        2   -1    0    0  501    0  0.00000000000E+00  0.00000000000E+00  0.24924447703E+04  0.24924447704E+04  0.25500000920E-02 0. -1.
       -2   -1    0    0    0  501  0.00000000000E+00  0.00000000000E+00 -0.89348303545E+03  0.89348303545E+03  0.25500000920E-02 0.  1.
    10030    2    1    2    0    0  0.00000000000E+00  0.00000000000E+00  0.15989617349E+04  0.33859278058E+04  0.29845985453E+04 0.  0.
        2    1    3    3  502    0  0.11477607027E+04  0.80966192272E+03  0.22767129527E+03  0.14229340387E+04  0.25500000920E-02 0.  1.
       -2    1    3    3    0  502 -0.11477607027E+04 -0.80966192272E+03  0.13712904396E+04  0.19629937671E+04  0.25500000920E-02 0. -1.
</event>
<event>
 5   0  0.1723916E-06  0.3009074E+04  0.7818609E-02  0.8241145E-01
       -2   -1    0    0    0  501  0.00000000000E+00  0.00000000000E+00  0.11720479886E+04  0.11720479886E+04  0.25500000920E-02 0.  1.
        2   -1    0    0  501    0  0.00000000000E+00  0.00000000000E+00 -0.19313466174E+04  0.19313466174E+04  0.25500000920E-02 0. -1.
    10030    2    1    2    0    0  0.00000000000E+00  0.00000000000E+00 -0.75929862873E+03  0.31033946060E+04  0.30090735572E+04 0.  0.
        1    1    3    3  502    0  0.57859914555E+03 -0.12011380379E+04 -0.10987282207E+04  0.17276322700E+04  0.50400001928E-02 0. -1.
       -1    1    3    3    0  502 -0.57859914555E+03  0.12011380379E+04  0.33942959194E+03  0.13757623360E+04  0.50400001928E-02 0.  1.
</event>
<event>
 5   0  0.6291798E-07  0.3005848E+04  0.7818609E-02  0.8242063E-01
       -1   -1    0    0    0  501  0.00000000000E+00  0.00000000000E+00  0.10858219457E+04  0.10858219458E+04  0.50400001928E-02 0.  1.
        1   -1    0    0  501    0  0.00000000000E+00  0.00000000000E+00 -0.20802499605E+04  0.20802499605E+04  0.50400001928E-02 0. -1.
    10030    2    1    2    0    0  0.00000000000E+00  0.00000000000E+00 -0.99442801476E+03  0.31660719063E+04  0.30058483393E+04 0.  0.
        1    1    3    3  502    0 -0.86344198818E+03 -0.10725419715E+04 -0.11317391227E+04  0.17823332431E+04  0.50400001928E-02 0.  1.
       -1    1    3    3    0  502  0.86344198818E+03  0.10725419715E+04  0.13731110795E+03  0.13837386632E+04  0.50400001928E-02 0. -1.
</event>
<event>
 5   0  0.1674806E-06  0.2999743E+04  0.7818609E-02  0.8243804E-01
       -2   -1    0    0    0  501  0.00000000000E+00  0.00000000000E+00  0.89411847359E+03  0.89411847359E+03  0.25500000920E-02 0. -1.
        2   -1    0    0  501    0  0.00000000000E+00  0.00000000000E+00 -0.25160139669E+04  0.25160139669E+04  0.25500000920E-02 0.  1.
    10030    2    1    2    0    0  0.00000000000E+00  0.00000000000E+00 -0.16218954933E+04  0.34101324405E+04  0.29997430341E+04 0.  0.
        2    1    3    3  502    0  0.67325700808E+03 -0.12301034951E+04 -0.20599384116E+03  0.14173436669E+04  0.25500000920E-02 0. -1.
       -2    1    3    3    0  502 -0.67325700808E+03  0.12301034951E+04 -0.14159016521E+04  0.19927887736E+04  0.25500000920E-02 0.  1.
</event>
<event>
 5   0  0.5874741E-07  0.3014436E+04  0.7818609E-02  0.8239620E-01
        1   -1    0    0  501    0  0.00000000000E+00  0.00000000000E+00  0.13565458980E+04  0.13565458980E+04  0.50400001928E-02 0. -1.
       -1   -1    0    0    0  501  0.00000000000E+00  0.00000000000E+00 -0.16746257599E+04  0.16746257599E+04  0.50400001928E-02 0.  1.
    10030    2    1    2    0    0  0.00000000000E+00  0.00000000000E+00 -0.31807986190E+03  0.30311716578E+04  0.30144364018E+04 0.  0.
        4    1    3    3  502    0  0.10626054364E+04  0.18174698939E+03  0.90015632700E+03  0.14044377194E+04  0.12699999809E+01 0. -1.
       -4    1    3    3    0  502 -0.10626054364E+04 -0.18174698939E+03 -0.12182361889E+04  0.16267339385E+04  0.12699999809E+01 0.  1.
</event>
<event>
 5   0  0.5887179E-07  0.3000067E+04  0.7818609E-02  0.8243712E-01
        1   -1    0    0  501    0  0.00000000000E+00  0.00000000000E+00  0.21918185362E+04  0.21918185362E+04  0.50400001928E-02 0. -1.
       -1   -1    0    0    0  501  0.00000000000E+00  0.00000000000E+00 -0.10265904636E+04  0.10265904636E+04  0.50400001928E-02 0.  1.
    10030    2    1    2    0    0  0.00000000000E+00  0.00000000000E+00  0.11652280726E+04  0.32184089998E+04  0.30000666707E+04 0.  0.
        3    1    3    3  502    0 -0.11712236810E+04 -0.75537407141E+03  0.11777358921E+04  0.18246689399E+04  0.10100000352E+00 0. -1.
       -3    1    3    3    0  502  0.11712236810E+04  0.75537407141E+03 -0.12507819513E+02  0.13937400599E+04  0.10100000352E+00 0.  1.
</event>
<event>
 5   0  0.1560174E-06  0.2991234E+04  0.7818609E-02  0.8246239E-01
        2   -1    0    0  501    0  0.00000000000E+00  0.00000000000E+00  0.26523447954E+04  0.26523447954E+04  0.25500000920E-02 0. -1.
       -2   -1    0    0    0  501  0.00000000000E+00  0.00000000000E+00 -0.84335568839E+03  0.84335568840E+03  0.25500000920E-02 0.  1.
    10030    2    1    2    0    0  0.00000000000E+00  0.00000000000E+00  0.18089891070E+04  0.34957004838E+04  0.29912339065E+04 0.  0.
        5    1    3    3  502    0 -0.66789515788E+03  0.11961633842E+03 -0.65312382773E+03  0.94179872302E+03  0.46999998093E+01 0.  1.
       -5    1    3    3    0  502  0.66789515788E+03 -0.11961633842E+03  0.24621129347E+04  0.25539017608E+04  0.46999998093E+01 0. -1.
</event>
<event>
 5   0  0.1674806E-06  0.3002014E+04  0.7818609E-02  0.8243156E-01
       -2   -1    0    0    0  501  0.00000000000E+00  0.00000000000E+00  0.10453176914E+04  0.10453176914E+04  0.25500000920E-02 0.  1.
        2   -1    0    0  501    0  0.00000000000E+00  0.00000000000E+00 -0.21553473094E+04  0.21553473094E+04  0.25500000920E-02 0. -1.
    10030    2    1    2    0    0  0.00000000000E+00  0.00000000000E+00 -0.11100296181E+04  0.32006650008E+04  0.30020144394E+04 0.  0.
        2    1    3    3  502    0  0.26886294837E+03 -0.71676094206E+03 -0.19315706367E+04  0.20777388329E+04  0.25500000920E-02 0. -1.
       -2    1    3    3    0  502 -0.26886294837E+03  0.71676094206E+03  0.82154101868E+03  0.11229261679E+04  0.25500000920E-02 0.  1.
</event>
<event>
 5   0  0.5431625E-07  0.2978936E+04  0.7818609E-02  0.8249772E-01
        3   -1    0    0  501    0  0.00000000000E+00  0.00000000000E+00  0.13162327763E+04  0.13162327801E+04  0.10100000352E+00 0. -1.
       -3   -1    0    0    0  501  0.00000000000E+00  0.00000000000E+00 -0.16855030347E+04  0.16855030377E+04  0.10100000352E+00 0.  1.
    10030    2    1    2    0    0  0.00000000000E+00  0.00000000000E+00 -0.36927025838E+03  0.30017358178E+04  0.29789356147E+04 0.  0.
        1    1    3    3  502    0 -0.57077506685E+03 -0.13635658649E+04 -0.42922131490E+00  0.14782070995E+04  0.50400001928E-02 0. -1.
       -1    1    3    3    0  502  0.57077506685E+03  0.13635658649E+04 -0.36884103707E+03  0.15235287183E+04  0.50400001928E-02 0.  1.
</event>
<event>
 5   0  0.5916703E-07  0.2997881E+04  0.7818609E-02  0.8244336E-01
       -1   -1    0    0    0  501  0.00000000000E+00  0.00000000000E+00  0.12862390981E+04  0.12862390981E+04  0.50400001928E-02 0. -1.
        1   -1    0    0  501    0  0.00000000000E+00  0.00000000000E+00 -0.17468152698E+04  0.17468152698E+04  0.50400001928E-02 0.  1.
    10030    2    1    2    0    0  0.00000000000E+00  0.00000000000E+00 -0.46057617177E+03  0.30330543679E+04  0.29978806495E+04 0.  0.
        5    1    3    3  502    0 -0.11169816686E+03 -0.11479584310E+04 -0.11988683981E+04  0.16636082970E+04  0.46999998093E+01 0.  1.
       -5    1    3    3    0  502  0.11169816686E+03  0.11479584310E+04  0.73829222635E+03  0.13694460710E+04  0.46999998093E+01 0. -1.
</event>
<event>
 5   0  0.5931588E-07  0.2943227E+04  0.7818609E-02  0.8260131E-01
        1   -1    0    0  501    0  0.00000000000E+00  0.00000000000E+00  0.21173983436E+04  0.21173983436E+04  0.50400001928E-02 0. -1.
       -1   -1    0    0    0  501  0.00000000000E+00  0.00000000000E+00 -0.10227863996E+04  0.10227863996E+04  0.50400001928E-02 0.  1.
    10030    2    1    2    0    0  0.00000000000E+00  0.00000000000E+00  0.10946119440E+04  0.31401847432E+04  0.29432269558E+04 0.  0.
        2    1    3    3  502    0  0.64735528966E+03  0.44061644565E+03 -0.78204020321E+03  0.11067061953E+04  0.25500000920E-02 0.  1.
       -2    1    3    3    0  502 -0.64735528966E+03 -0.44061644565E+03  0.18766521473E+04  0.20334785480E+04  0.25500000920E-02 0. -1.
</event>
<event>
 5   0  0.6291798E-07  0.2999882E+04  0.7818609E-02  0.8243765E-01
        1   -1    0    0  501    0  0.00000000000E+00  0.00000000000E+00  0.22505303032E+04  0.22505303033E+04  0.50400001928E-02 0. -1.
       -1   -1    0    0    0  501  0.00000000000E+00  0.00000000000E+00 -0.99968566291E+03  0.99968566292E+03  0.50400001928E-02 0.  1.
    10030    2    1    2    0    0  0.00000000000E+00  0.00000000000E+00  0.12508446403E+04  0.32502159662E+04  0.29998819164E+04 0.  0.
        1    1    3    3  502    0  0.70247803987E+03 -0.71894490897E+03  0.18316389612E+04  0.20893200958E+04  0.50400001928E-02 0. -1.
       -1    1    3    3    0  502 -0.70247803987E+03  0.71894490897E+03 -0.58079432086E+03  0.11608958703E+04  0.50400001928E-02 0.  1.
</event>
<event>
 5   0  0.1674806E-06  0.3003771E+04  0.7818609E-02  0.8242655E-01
        2   -1    0    0  501    0  0.00000000000E+00  0.00000000000E+00  0.27629525823E+04  0.27629525823E+04  0.25500000920E-02 0.  1.
       -2   -1    0    0    0  501  0.00000000000E+00  0.00000000000E+00 -0.81639487817E+03  0.81639487818E+03  0.25500000920E-02 0. -1.
    10030    2    1    2    0    0  0.00000000000E+00  0.00000000000E+00  0.19465577041E+04  0.35793474604E+04  0.30037711876E+04 0.  0.
        2    1    3    3  502    0 -0.76229693062E+03  0.20744199867E+03  0.24953492834E+04  0.26174217924E+04  0.25500000920E-02 0.  1.
       -2    1    3    3    0  502  0.76229693062E+03 -0.20744199867E+03 -0.54879157933E+03  0.96192566801E+03  0.25500000920E-02 0. -1.
</event>
<event>
 5   0  0.6291798E-07  0.3000180E+04  0.7818609E-02  0.8243680E-01
       -1   -1    0    0    0  501  0.00000000000E+00  0.00000000000E+00  0.10103140592E+04  0.10103140592E+04  0.50400001928E-02 0.  1.
        1   -1    0    0  501    0  0.00000000000E+00  0.00000000000E+00 -0.22272968497E+04  0.22272968497E+04  0.50400001928E-02 0. -1.
    10030    2    1    2    0    0  0.00000000000E+00  0.00000000000E+00 -0.12169827905E+04  0.32376109089E+04  0.30001795421E+04 0.  0.
        1    1    3    3  502    0 -0.50425002082E+03  0.43444500676E+03 -0.20592246965E+04  0.21641203520E+04  0.50400001928E-02 0. -1.
       -1    1    3    3    0  502  0.50425002082E+03 -0.43444500676E+03  0.84224190601E+03  0.10734905569E+04  0.50400001928E-02 0.  1.
</event>
<event>
 5   0  0.1560174E-06  0.2998394E+04  0.7818609E-02  0.8244190E-01
       -2   -1    0    0    0  501  0.00000000000E+00  0.00000000000E+00  0.13656831350E+04  0.13656831350E+04  0.25500000920E-02 0.  1.
        2   -1    0    0  501    0  0.00000000000E+00  0.00000000000E+00 -0.16457641438E+04  0.16457641438E+04  0.25500000920E-02 0. -1.
    10030    2    1    2    0    0  0.00000000000E+00  0.00000000000E+00 -0.28008100880E+03  0.30114472787E+04  0.29983944606E+04 0.  0.
        5    1    3    3  502    0  0.74146002861E+03 -0.76193250972E+03 -0.12016500444E+04  0.16044591122E+04  0.46999998093E+01 0. -1.
       -5    1    3    3    0  502 -0.74146002861E+03  0.76193250972E+03  0.92156903563E+03  0.14069881666E+04  0.46999998093E+01 0.  1.
</event>
<event>
 5   0  0.5887179E-07  0.2994853E+04  0.7818609E-02  0.8245202E-01
        1   -1    0    0  501    0  0.00000000000E+00  0.00000000000E+00  0.10550727349E+04  0.10550727350E+04  0.50400001928E-02 0.  1.
       -1   -1    0    0    0  501  0.00000000000E+00  0.00000000000E+00 -0.21252432549E+04  0.21252432549E+04  0.50400001928E-02 0. -1.
    10030    2    1    2    0    0  0.00000000000E+00  0.00000000000E+00 -0.10701705199E+04  0.31803159898E+04  0.29948530604E+04 0.  0.
        3    1    3    3  502    0  0.84824685171E+03 -0.90792081994E+03  0.35239830888E+03  0.12915213955E+04  0.10100000352E+00 0.  1.
       -3    1    3    3    0  502 -0.84824685171E+03  0.90792081994E+03 -0.14225688288E+04  0.18887945943E+04  0.10100000352E+00 0. -1.
</event>
<event>
 5   0  0.5431625E-07  0.2996384E+04  0.7818609E-02  0.8244764E-01
       -3   -1    0    0    0  501  0.00000000000E+00  0.00000000000E+00  0.14442861448E+04  0.14442861484E+04  0.10100000352E+00 0. -1.
        3   -1    0    0  501    0  0.00000000000E+00  0.00000000000E+00 -0.15541093652E+04  0.15541093685E+04  0.10100000352E+00 0.  1.
    10030    2    1    2    0    0  0.00000000000E+00  0.00000000000E+00 -0.10982322042E+03  0.29983955169E+04  0.29963835762E+04 0.  0.
        4    1    3    3  502    0 -0.11017662452E+04  0.82110474508E+03  0.54254469387E+03  0.14773145296E+04  0.12699999809E+01 0. -1.
       -4    1    3    3    0  502  0.11017662452E+04 -0.82110474508E+03 -0.65236791429E+03  0.15210809873E+04  0.12699999809E+01 0.  1.
</event>
<event>
 5   0  0.5916703E-07  0.3004464E+04  0.7818609E-02  0.8242457E-01
       -1   -1    0    0    0  501  0.00000000000E+00  0.00000000000E+00  0.16990745744E+04  0.16990745744E+04  0.50400001928E-02 0. -1.
        1   -1    0    0  501    0  0.00000000000E+00  0.00000000000E+00 -0.13281941320E+04  0.13281941320E+04  0.50400001928E-02 0.  1.
    10030    2    1    2    0    0  0.00000000000E+00  0.00000000000E+00  0.37088044244E+03  0.30272687064E+04  0.30044639319E+04 0.  0.
        5    1    3    3  502    0  0.10556704023E+04  0.55212655038E+03 -0.73659853234E+03  0.14006724149E+04  0.46999998093E+01 0.  1.
       -5    1    3    3    0  502 -0.10556704023E+04 -0.55212655038E+03  0.11074789748E+04  0.16265962915E+04  0.46999998093E+01 0. -1.
</event>
<event>
 5   0  0.1674806E-06  0.3004300E+04  0.7818609E-02  0.8242504E-01
        2   -1    0    0  501    0  0.00000000000E+00  0.00000000000E+00  0.19583691564E+04  0.19583691564E+04  0.25500000920E-02 0.  1.
       -2   -1    0    0    0  501  0.00000000000E+00  0.00000000000E+00 -0.11522107613E+04  0.11522107613E+04  0.25500000920E-02 0. -1.
    10030    2    1    2    0    0  0.00000000000E+00  0.00000000000E+00  0.80615839518E+03  0.31105799177E+04  0.30042995966E+04 0.  0.
        2    1    3    3  502    0  0.84086697669E+03 -0.90603173853E+03  0.12867975334E+04  0.17843202279E+04  0.25500000920E-02 0.  1.
       -2    1    3    3    0  502 -0.84086697669E+03  0.90603173853E+03 -0.48063913818E+03  0.13262596898E+04  0.25500000920E-02 0. -1.
</event>
<event>
 5   0  0.5431625E-07  0.3000666E+04  0.7818609E-02  0.8243541E-01
       -3   -1    0    0    0  501  0.00000000000E+00  0.00000000000E+00  0.11312823547E+04  0.11312823592E+04  0.10100000352E+00 0.  1.
        3   -1    0    0  501    0  0.00000000000E+00  0.00000000000E+00 -0.19897771993E+04  0.19897772018E+04  0.10100000352E+00 0. -1.
    10030    2    1    2    0    0  0.00000000000E+00  0.00000000000E+00 -0.85849484459E+03  0.31210595611E+04  0.30006664902E+04 0.  0.
        4    1    3    3  502    0 -0.70591818591E+03  0.51962871645E+02  0.94669599286E+03  0.11820556421E+04  0.12699999809E+01 0.  1.
       -4    1    3    3    0  502  0.70591818591E+03 -0.51962871645E+02 -0.18051908374E+04  0.19390039190E+04  0.12699999809E+01 0. -1.
</event>
<event>
 5   0  0.6291798E-07  0.2998651E+04  0.7818609E-02  0.8244116E-01
       -1   -1    0    0    0  501  0.00000000000E+00  0.00000000000E+00  0.10457387837E+04  0.10457387837E+04  0.50400001928E-02 0.  1.
        1   -1    0    0  501    0  0.00000000000E+00  0.00000000000E+00 -0.21496540895E+04  0.21496540895E+04  0.50400001928E-02 0. -1.
    10030    2    1    2    0    0  0.00000000000E+00  0.00000000000E+00 -0.11039153059E+04  0.31953928732E+04  0.29986507985E+04 0.  0.
        1    1    3    3  502    0 -0.52764758364E+03  0.12717371125E+04 -0.11844037218E+04  0.18161881599E+04  0.50400001928E-02 0. -1.
       -1    1    3    3    0  502  0.52764758364E+03 -0.12717371125E+04  0.80488415968E+02  0.13792047133E+04  0.50400001928E-02 0.  1.
</event>
<event>
 5   0  0.1674806E-06  0.2999336E+04  0.7818609E-02  0.8243921E-01
        2   -1    0    0  501    0  0.00000000000E+00  0.00000000000E+00  0.10667952460E+04  0.10667952460E+04  0.25500000920E-02 0.  1.
       -2   -1    0    0    0  501  0.00000000000E+00  0.00000000000E+00 -0.21081871992E+04  0.21081871992E+04  0.25500000920E-02 0. -1.
    10030    2    1    2    0    0  0.00000000000E+00  0.00000000000E+00 -0.10413919532E+04  0.31749824453E+04  0.29993359811E+04 0.  0.
        2    1    3    3  502    0  0.14460484797E+04  0.39238485254E+03 -0.45389742543E+03  0.15655813460E+04  0.25500000920E-02 0.  1.
       -2    1    3    3    0  502 -0.14460484797E+04 -0.39238485254E+03 -0.58749452776E+03  0.16094010993E+04  0.25500000920E-02 0. -1.
</event>
<event>
 5   0  0.5931588E-07  0.2992117E+04  0.7818609E-02  0.8245986E-01
       -1   -1    0    0    0  501  0.00000000000E+00  0.00000000000E+00  0.23368178676E+04  0.23368178676E+04  0.50400001928E-02 0.  1.
        1   -1    0    0  501    0  0.00000000000E+00  0.00000000000E+00 -0.95779428774E+03  0.95779428775E+03  0.50400001928E-02 0. -1.
    10030    2    1    2    0    0  0.00000000000E+00  0.00000000000E+00  0.13790235799E+04  0.32946121553E+04  0.29921168460E+04 0.  0.
        2    1    3    3  502    0  0.14854033609E+04 -0.65784613006E+02  0.87190898632E+03  0.17236519487E+04  0.25500000920E-02 0.  1.
       -2    1    3    3    0  502 -0.14854033609E+04  0.65784613006E+02  0.50711459353E+03  0.15709602066E+04  0.25500000920E-02 0. -1.
</event>
<event>
 5   0  0.5931588E-07  0.3020881E+04  0.7818609E-02  0.8237793E-01
        1   -1    0    0  501    0  0.00000000000E+00  0.00000000000E+00  0.21058725714E+04  0.21058725714E+04  0.50400001928E-02 0.  1.
       -1   -1    0    0    0  501  0.00000000000E+00  0.00000000000E+00 -0.10833656950E+04  0.10833656950E+04  0.50400001928E-02 0. -1.
    10030    2    1    2    0    0  0.00000000000E+00  0.00000000000E+00  0.10225068765E+04  0.31892382664E+04  0.30208807337E+04 0.  0.
        2    1    3    3  502    0 -0.14499889378E+04  0.34571640831E+03  0.76864918197E+03  0.16771432019E+04  0.25500000920E-02 0.  1.
       -2    1    3    3    0  502  0.14499889378E+04 -0.34571640831E+03  0.25385769449E+03  0.15120950644E+04  0.25500000920E-02 0. -1.
</event>
<event>
 5   0  0.5874741E-07  0.3007385E+04  0.7818609E-02  0.8241625E-01
       -1   -1    0    0    0  501  0.00000000000E+00  0.00000000000E+00  0.84395629667E+03  0.84395629668E+03  0.50400001928E-02 0.  1.
        1   -1    0    0  501    0  0.00000000000E+00  0.00000000000E+00 -0.26791575414E+04  0.26791575414E+04  0.50400001928E-02 0. -1.
    10030    2    1    2    0    0  0.00000000000E+00  0.00000000000E+00 -0.18352012447E+04  0.35231138381E+04  0.30073854937E+04 0.  0.
        4    1    3    3  502    0 -0.13761568304E+02 -0.44050348161E+02  0.84312583177E+03  0.84438888850E+03  0.12699999809E+01 0.  1.
       -4    1    3    3    0  502  0.13761568304E+02  0.44050348161E+02 -0.26783270765E+04  0.26787249496E+04  0.12699999809E+01 0. -1.
</event>
<event>
 5   0  0.5874741E-07  0.2992055E+04  0.7818609E-02  0.8246003E-01
       -1   -1    0    0    0  501  0.00000000000E+00  0.00000000000E+00  0.11330369732E+04  0.11330369732E+04  0.50400001928E-02 0. -1.
        1   -1    0    0  501    0  0.00000000000E+00  0.00000000000E+00 -0.19753092600E+04  0.19753092600E+04  0.50400001928E-02 0.  1.
    10030    2    1    2    0    0  0.00000000000E+00  0.00000000000E+00 -0.84227228679E+03  0.31083462333E+04  0.29920550966E+04 0.  0.
        4    1    3    3  502    0 -0.13041491543E+04 -0.46348551803E+03 -0.10110742644E+04  0.17140293530E+04  0.12699999809E+01 0.  1.
       -4    1    3    3    0  502  0.13041491543E+04  0.46348551803E+03  0.16880197757E+03  0.13943168803E+04  0.12699999809E+01 0. -1.
</event>
<event>
 5   0  0.5916703E-07  0.2986346E+04  0.7818609E-02  0.8247641E-01
       -1   -1    0    0    0  501  0.00000000000E+00  0.00000000000E+00  0.12547618992E+04  0.12547618992E+04  0.50400001928E-02 0. -1.
        1   -1    0    0  501    0  0.00000000000E+00  0.00000000000E+00 -0.17768831427E+04  0.17768831428E+04  0.50400001928E-02 0.  1.
    10030    2    1    2    0    0  0.00000000000E+00  0.00000000000E+00 -0.52212124353E+03  0.30316450420E+04  0.29863457716E+04 0.  0.
        5    1    3    3  502    0 -0.11804418157E+04  0.56130963312E+03 -0.99383516274E+03  0.16420236921E+04  0.46999998093E+01 0.  1.
       -5    1    3    3    0  502  0.11804418157E+04 -0.56130963312E+03  0.47171391920E+03  0.13896213499E+04  0.46999998093E+01 0. -1.
</event>
<event>
 5   0  0.5887179E-07  0.3011478E+04  0.7818609E-02  0.8240461E-01
        1   -1    0    0  501    0  0.00000000000E+00  0.00000000000E+00  0.17188174622E+04  0.17188174622E+04  0.50400001928E-02 0. -1.
       -1   -1    0    0    0  501  0.00000000000E+00  0.00000000000E+00 -0.13190751940E+04  0.13190751940E+04  0.50400001928E-02 0.  1.
    10030    2    1    2    0    0  0.00000000000E+00  0.00000000000E+00  0.39974226825E+03  0.30378926562E+04  0.30114776953E+04 0.  0.
        3    1    3    3  502    0 -0.89062421596E+03  0.98112281476E+03 -0.52154926530E+03  0.14240179486E+04  0.10100000352E+00 0.  1.
       -3    1    3    3    0  502  0.89062421596E+03 -0.98112281476E+03  0.92129153355E+03  0.16138747076E+04  0.10100000352E+00 0. -1.
</event>
<event>
 5   0  0.1560174E-06  0.3010706E+04  0.7818609E-02  0.8240680E-01
       -2   -1    0    0    0  501  0.00000000000E+00  0.00000000000E+00  0.10279557428E+04  0.10279557428E+04  0.25500000920E-02 0. -1.
        2   -1    0    0  501    0  0.00000000000E+00  0.00000000000E+00 -0.22044601273E+04  0.22044601273E+04  0.25500000920E-02 0.  1.
    10030    2    1    2    0    0  0.00000000000E+00  0.00000000000E+00 -0.11765043845E+04  0.32324158701E+04  0.30107058625E+04 0.  0.
        5    1    3    3  502    0 -0.86764747912E+02 -0.15000833845E+04 -0.68598931539E+03  0.16517813756E+04  0.46999998093E+01 0.  1.
       -5    1    3    3    0  502  0.86764747912E+02  0.15000833845E+04 -0.49051506912E+03  0.15806344945E+04  0.46999998093E+01 0. -1.
</event>
<event>
 5   0  0.5916703E-07  0.2996350E+04  0.7818609E-02  0.8244774E-01
       -1   -1    0    0    0  501  0.00000000000E+00  0.00000000000E+00  0.11554486348E+04  0.11554486348E+04  0.50400001928E-02 0. -1.
        1   -1    0    0  501    0  0.00000000000E+00  0.00000000000E+00 -0.19425594065E+04  0.19425594065E+04  0.50400001928E-02 0.  1.
    10030    2    1    2    0    0  0.00000000000E+00  0.00000000000E+00 -0.78711077174E+03  0.30980080413E+04  0.29963495219E+04 0.  0.
        5    1    3    3  502    0 -0.99596682241E+03 -0.11191742995E+04 -0.39136201632E+03  0.15484467514E+04  0.46999998093E+01 0. -1.
       -5    1    3    3    0  502  0.99596682241E+03  0.11191742995E+04 -0.39574875542E+03  0.15495612900E+04  0.46999998093E+01 0.  1.
</event>
<event>
 5   0  0.1723916E-06  0.3012158E+04  0.7818609E-02  0.8240267E-01
       -2   -1    0    0    0  501  0.00000000000E+00  0.00000000000E+00  0.27769328979E+04  0.27769328979E+04  0.25500000920E-02 0.  1.
        2   -1    0    0  501    0  0.00000000000E+00  0.00000000000E+00 -0.81682733081E+03  0.81682733081E+03  0.25500000920E-02 0. -1.
    10030    2    1    2    0    0  0.00000000000E+00  0.00000000000E+00  0.19601055671E+04  0.35937602287E+04  0.30121584864E+04 0.  0.
        1    1    3    3  502    0 -0.12992581115E+04  0.75841710966E+03  0.89563384757E+03  0.17508364120E+04  0.50400001928E-02 0.  1.
       -1    1    3    3    0  502  0.12992581115E+04 -0.75841710966E+03  0.10644717195E+04  0.18429238167E+04  0.50400001928E-02 0. -1.
</event>
<event>
 5   0  0.5887179E-07  0.3007198E+04  0.7818609E-02  0.8241678E-01
        1   -1    0    0  501    0  0.00000000000E+00  0.00000000000E+00  0.15836152879E+04  0.15836152879E+04  0.50400001928E-02 0.  1.
       -1   -1    0    0    0  501  0.00000000000E+00  0.00000000000E+00 -0.14276261999E+04  0.14276261999E+04  0.50400001928E-02 0. -1.
    10030    2    1    2    0    0  0.00000000000E+00  0.00000000000E+00  0.15598908798E+03  0.30112414879E+04  0.30071984808E+04 0.  0.
        3    1    3    3  502    0 -0.12383518059E+04  0.74906200697E+03 -0.33023183630E+03  0.14844736984E+04  0.10100000352E+00 0.  1.
       -3    1    3    3    0  502  0.12383518059E+04 -0.74906200697E+03  0.48622092428E+03  0.15267677894E+04  0.10100000352E+00 0. -1.
</event>
<event>
 5   0  0.5874741E-07  0.2914970E+04  0.7818609E-02  0.8268437E-01
       -1   -1    0    0    0  501  0.00000000000E+00  0.00000000000E+00  0.21329529869E+04  0.21329529869E+04  0.50400001928E-02 0.  1.
        1   -1    0    0  501    0  0.00000000000E+00  0.00000000000E+00 -0.99592594683E+03  0.99592594684E+03  0.50400001928E-02 0. -1.
    10030    2    1    2    0    0  0.00000000000E+00  0.00000000000E+00  0.11370270401E+04  0.31288789337E+04  0.29149704788E+04 0.  0.
        4    1    3    3  502    0 -0.57696038763E+03 -0.42283365363E+03 -0.79455153096E+03  0.10691049227E+04  0.12699999809E+01 0. -1.
       -4    1    3    3    0  502  0.57696038763E+03  0.42283365363E+03  0.19315785710E+04  0.20597740110E+04  0.12699999809E+01 0.  1.
</event>
<event>
 5   0  0.1723916E-06  0.3012696E+04  0.7818609E-02  0.8240115E-01
       -2   -1    0    0    0  501  0.00000000000E+00  0.00000000000E+00  0.13456742597E+04  0.13456742597E+04  0.25500000920E-02 0.  1.
        2   -1    0    0  501    0  0.00000000000E+00  0.00000000000E+00 -0.16862066393E+04  0.16862066393E+04  0.25500000920E-02 0. -1.
    10030    2    1    2    0    0  0.00000000000E+00  0.00000000000E+00 -0.34053237957E+03  0.30318808990E+04  0.30126963810E+04 0.  0.
        1    1    3    3  502    0 -0.13279740120E+03  0.53156716877E+03  0.12418390481E+04  0.13573367401E+04  0.50400001928E-02 0.  1.
       -1    1    3    3    0  502  0.13279740120E+03 -0.53156716877E+03 -0.15823714277E+04  0.16745441588E+04  0.50400001928E-02 0. -1.
</event>
<event>
 5   0  0.1635086E-06  0.3003426E+04  0.7818609E-02  0.8242753E-01
        2   -1    0    0  501    0  0.00000000000E+00  0.00000000000E+00  0.25110840343E+04  0.25110840343E+04  0.25500000920E-02 0.  1.
       -2   -1    0    0    0  501  0.00000000000E+00  0.00000000000E+00 -0.89807480455E+03  0.89807480456E+03  0.25500000920E-02 0. -1.
    10030    2    1    2    0    0  0.00000000000E+00  0.00000000000E+00  0.16130092297E+04  0.34091588388E+04  0.30034255798E+04 0.  0.
        3    1    3    3  502    0 -0.68805728689E+02  0.10624234526E+04  0.20086628878E+04  0.22733685200E+04  0.10100000352E+00 0.  1.
       -3    1    3    3    0  502  0.68805728689E+02 -0.10624234526E+04 -0.39565365803E+03  0.11357903188E+04  0.10100000352E+00 0. -1.
</event>
<event>
 5   0  0.1723916E-06  0.2990128E+04  0.7818609E-02  0.8246555E-01
       -2   -1    0    0    0  501  0.00000000000E+00  0.00000000000E+00  0.12788127594E+04  0.12788127594E+04  0.25500000920E-02 0.  1.
        2   -1    0    0  501    0  0.00000000000E+00  0.00000000000E+00 -0.17478844424E+04  0.17478844424E+04  0.25500000920E-02 0. -1.
    10030    2    1    2    0    0  0.00000000000E+00  0.00000000000E+00 -0.46907168308E+03  0.30266972018E+04  0.29901283764E+04 0.  0.
        1    1    3    3  502    0 -0.25104530092E+03  0.70933900734E+03  0.10731739897E+04  0.13106822585E+04  0.50400001928E-02 0.  1.
       -1    1    3    3    0  502  0.25104530092E+03 -0.70933900734E+03 -0.15422456728E+04  0.17160149433E+04  0.50400001928E-02 0. -1.
</event>
<event>
 5   0  0.1635086E-06  0.2999439E+04  0.7818609E-02  0.8243891E-01
        2   -1    0    0  501    0  0.00000000000E+00  0.00000000000E+00  0.12549732282E+04  0.12549732282E+04  0.25500000920E-02 0.  1.
       -2   -1    0    0    0  501  0.00000000000E+00  0.00000000000E+00 -0.17921969439E+04  0.17921969439E+04  0.25500000920E-02 0. -1.
    10030    2    1    2    0    0  0.00000000000E+00  0.00000000000E+00 -0.53722371569E+03  0.30471701722E+04  0.29994394039E+04 0.  0.
        3    1    3    3  502    0 -0.86117994231E+03 -0.84603769156E+03  0.63535028323E+03  0.13642143018E+04  0.10100000352E+00 0.  1.
       -3    1    3    3    0  502  0.86117994231E+03  0.84603769156E+03 -0.11725739989E+04  0.16829558704E+04  0.10100000352E+00 0. -1.
</event>
<event>
 5   0  0.1674806E-06  0.2994418E+04  0.7818609E-02  0.8245327E-01
       -2   -1    0    0    0  501  0.00000000000E+00  0.00000000000E+00  0.78357793862E+03  0.78357793863E+03  0.25500000920E-02 0. -1.
        2   -1    0    0  501    0  0.00000000000E+00  0.00000000000E+00 -0.28607671907E+04  0.28607671907E+04  0.25500000920E-02 0.  1.
    10030    2    1    2    0    0  0.00000000000E+00  0.00000000000E+00 -0.20771892521E+04  0.36443451293E+04  0.29944175114E+04 0.  0.
        2    1    3    3  502    0 -0.11024346105E+04  0.30489543782E+03  0.13716970664E+03  0.11520151158E+04  0.25500000920E-02 0. -1.
       -2    1    3    3    0  502  0.11024346105E+04 -0.30489543782E+03 -0.22143589587E+04  0.24923300136E+04  0.25500000920E-02 0.  1.
</event>
<event>
 5   0  0.1723916E-06  0.3001196E+04  0.7818609E-02  0.8243389E-01
        2   -1    0    0  501    0  0.00000000000E+00  0.00000000000E+00  0.19863847590E+04  0.19863847590E+04  0.25500000920E-02 0.  1.
       -2   -1    0    0    0  501  0.00000000000E+00  0.00000000000E+00 -0.11336142434E+04  0.11336142434E+04  0.25500000920E-02 0. -1.
    10030    2    1    2    0    0  0.00000000000E+00  0.00000000000E+00  0.85277051561E+03  0.31199990025E+04  0.30011957989E+04 0.  0.
        1    1    3    3  502    0  0.30362031003E+03  0.99306719856E+03 -0.69974346243E+03  0.12522015280E+04  0.50400001928E-02 0.  1.
       -1    1    3    3    0  502 -0.30362031003E+03 -0.99306719856E+03  0.15525139780E+04  0.18677974744E+04  0.50400001928E-02 0. -1.
</event>
<event>
 5   0  0.5916703E-07  0.2994065E+04  0.7818609E-02  0.8245428E-01
       -1   -1    0    0    0  501  0.00000000000E+00  0.00000000000E+00  0.10915778978E+04  0.10915778978E+04  0.50400001928E-02 0.  1.
        1   -1    0    0  501    0  0.00000000000E+00  0.00000000000E+00 -0.20530884523E+04  0.20530884523E+04  0.50400001928E-02 0. -1.
    10030    2    1    2    0    0  0.00000000000E+00  0.00000000000E+00 -0.96151055444E+03  0.31446663501E+04  0.29940647801E+04 0.  0.
        5    1    3    3  502    0 -0.80323149614E+03  0.41702673190E+03 -0.17332096693E+04  0.19552825830E+04  0.46999998093E+01 0. -1.
       -5    1    3    3    0  502  0.80323149614E+03 -0.41702673190E+03  0.77169911489E+03  0.11893837671E+04  0.46999998093E+01 0.  1.
</event>
<event>
 5   0  0.5916703E-07  0.3003262E+04  0.7818609E-02  0.8242800E-01
        1   -1    0    0  501    0  0.00000000000E+00  0.00000000000E+00  0.21908138788E+04  0.21908138788E+04  0.50400001928E-02 0.  1.
       -1   -1    0    0    0  501  0.00000000000E+00  0.00000000000E+00 -0.10292504804E+04  0.10292504804E+04  0.50400001928E-02 0. -1.
    10030    2    1    2    0    0  0.00000000000E+00  0.00000000000E+00  0.11615633984E+04  0.32200643592E+04  0.30032623843E+04 0.  0.
        5    1    3    3  502    0  0.39300685461E+03  0.12024031787E+04 -0.28672862605E+03  0.12970979866E+04  0.46999998093E+01 0. -1.
       -5    1    3    3    0  502 -0.39300685461E+03 -0.12024031787E+04  0.14482920245E+04  0.19229663726E+04  0.46999998093E+01 0.  1.
</event>
<event>
 5   0  0.1674806E-06  0.2995955E+04  0.7818609E-02  0.8244887E-01
        2   -1    0    0  501    0  0.00000000000E+00  0.00000000000E+00  0.14022010122E+04  0.14022010122E+04  0.25500000920E-02 0.  1.
       -2   -1    0    0    0  501  0.00000000000E+00  0.00000000000E+00 -0.16002961985E+04  0.16002961985E+04  0.25500000920E-02 0. -1.
    10030    2    1    2    0    0  0.00000000000E+00  0.00000000000E+00 -0.19809518630E+03  0.30024972106E+04  0.29959552395E+04 0.  0.
        2    1    3    3  502    0  0.35687439809E+03  0.13831885490E+04 -0.55099467616E+03  0.15310666319E+04  0.25500000920E-02 0. -1.
       -2    1    3    3    0  502 -0.35687439809E+03 -0.13831885490E+04  0.35289948986E+03  0.14714305787E+04  0.25500000920E-02 0.  1.
</event>
<event>
 5   0  0.5887179E-07  0.2997317E+04  0.7818609E-02  0.8244498E-01
        1   -1    0    0  501    0  0.00000000000E+00  0.00000000000E+00  0.21445923920E+04  0.21445923920E+04  0.50400001928E-02 0.  1.
       -1   -1    0    0    0  501  0.00000000000E+00  0.00000000000E+00 -0.10472744028E+04  0.10472744028E+04  0.50400001928E-02 0. -1.
    10030    2    1    2    0    0  0.00000000000E+00  0.00000000000E+00  0.10973179892E+04  0.31918667948E+04  0.29973166109E+04 0.  0.
        3    1    3    3  502    0 -0.34089642279E+03 -0.16185916318E+03 -0.99584988879E+03  0.10649534126E+04  0.10100000352E+00 0. -1.
       -3    1    3    3    0  502  0.34089642279E+03  0.16185916318E+03  0.20931678780E+04  0.21269133822E+04  0.10100000352E+00 0.  1.
</event>
<event>
 5   0  0.5916703E-07  0.3014465E+04  0.7818609E-02  0.8239612E-01
       -1   -1    0    0    0  501  0.00000000000E+00  0.00000000000E+00  0.10772165901E+04  0.10772165901E+04  0.50400001928E-02 0.  1.
        1   -1    0    0  501    0  0.00000000000E+00  0.00000000000E+00 -0.21089068439E+04  0.21089068439E+04  0.50400001928E-02 0. -1.
    10030    2    1    2    0    0  0.00000000000E+00  0.00000000000E+00 -0.10316902538E+04  0.31861234340E+04  0.30144647546E+04 0.  0.
        5    1    3    3  502    0 -0.96099051380E+02  0.32329424750E+03  0.10368114416E+04  0.10903000750E+04  0.46999998093E+01 0.  1.
       -5    1    3    3    0  502  0.96099051380E+02 -0.32329424750E+03 -0.20685016954E+04  0.20958233590E+04  0.46999998093E+01 0. -1.
</event>
<event>
 5   0  0.1560174E-06  0.3013502E+04  0.7818609E-02  0.8239886E-01
       -2   -1    0    0    0  501  0.00000000000E+00  0.00000000000E+00  0.10105366312E+04  0.10105366312E+04  0.25500000920E-02 0.  1.
        2   -1    0    0  501    0  0.00000000000E+00  0.00000000000E+00 -0.22466260749E+04  0.22466260749E+04  0.25500000920E-02 0. -1.
    10030    2    1    2    0    0  0.00000000000E+00  0.00000000000E+00 -0.12360894437E+04  0.32571627061E+04  0.30135015815E+04 0.  0.
        5    1    3    3  502    0 -0.54556929307E+03  0.12837559124E+04 -0.12338491329E+04  0.18622784080E+04  0.46999998093E+01 0.  1.
       -5    1    3    3    0  502  0.54556929307E+03 -0.12837559124E+04 -0.22403107828E+01  0.13948842981E+04  0.46999998093E+01 0. -1.
</event>
<event>
 5   0  0.1635086E-06  0.2998632E+04  0.7818609E-02  0.8244122E-01
       -2   -1    0    0    0  501  0.00000000000E+00  0.00000000000E+00  0.14973996188E+04  0.14973996188E+04  0.25500000920E-02 0. -1.
        2   -1    0    0  501    0  0.00000000000E+00  0.00000000000E+00 -0.15012346243E+04  0.15012346243E+04  0.25500000920E-02 0.  1.
    10030    2    1    2    0    0  0.00000000000E+00  0.00000000000E+00 -0.38350054801E+01  0.29986342431E+04  0.29986317907E+04 0.  0.
        3    1    3    3  502    0  0.12132245591E+04  0.27574013956E+02  0.87857966069E+03  0.14981910384E+04  0.10100000352E+00 0. -1.
       -3    1    3    3    0  502 -0.12132245591E+04 -0.27574013956E+02 -0.88241466617E+03  0.15004432047E+04  0.10100000352E+00 0.  1.
</event>
<event>
 5   0  0.5916703E-07  0.2980836E+04  0.7818609E-02  0.8249225E-01
       -1   -1    0    0    0  501  0.00000000000E+00  0.00000000000E+00  0.11615329756E+04  0.11615329756E+04  0.50400001928E-02 0. -1.
        1   -1    0    0  501    0  0.00000000000E+00  0.00000000000E+00 -0.19124256677E+04  0.19124256677E+04  0.50400001928E-02 0.  1.
    10030    2    1    2    0    0  0.00000000000E+00  0.00000000000E+00 -0.75089269211E+03  0.30739586434E+04  0.29808357731E+04 0.  0.
        5    1    3    3  502    0 -0.83086039282E+03 -0.24159458597E+03 -0.16268755021E+04  0.18426727669E+04  0.46999998093E+01 0.  1.
       -5    1    3    3    0  502  0.83086039282E+03  0.24159458597E+03  0.87598281001E+03  0.12312858765E+04  0.46999998093E+01 0. -1.
</event>
<event>
 5   0  0.1674806E-06  0.3004956E+04  0.7818609E-02  0.8242317E-01
       -2   -1    0    0    0  501  0.00000000000E+00  0.00000000000E+00  0.15729243218E+04  0.15729243218E+04  0.25500000920E-02 0.  1.
        2   -1    0    0  501    0  0.00000000000E+00  0.00000000000E+00 -0.14351864783E+04  0.14351864783E+04  0.25500000920E-02 0. -1.
    10030    2    1    2    0    0  0.00000000000E+00  0.00000000000E+00  0.13773784344E+03  0.30081108001E+04  0.30049557189E+04 0.  0.
        2    1    3    3  502    0  0.14670363798E+04  0.18197143484E+02  0.39311152604E+03  0.15189020863E+04  0.25500000920E-02 0. -1.
       -2    1    3    3    0  502 -0.14670363798E+04 -0.18197143484E+02 -0.25537368259E+03  0.14892087139E+04  0.25500000920E-02 0.  1.
</event>
<event>
 5   0  0.6291798E-07  0.2988190E+04  0.7818609E-02  0.8247111E-01
       -1   -1    0    0    0  501  0.00000000000E+00  0.00000000000E+00  0.79598395179E+03  0.79598395181E+03  0.50400001928E-02 0.  1.
        1   -1    0    0  501    0  0.00000000000E+00  0.00000000000E+00 -0.28044793225E+04  0.28044793225E+04  0.50400001928E-02 0. -1.
    10030    2    1    2    0    0  0.00000000000E+00  0.00000000000E+00 -0.20084953707E+04  0.36004632743E+04  0.29881904450E+04 0.  0.
        1    1    3    3  502    0 -0.43941931084E+03 -0.14280065605E+04 -0.99781909833E+03  0.17966454911E+04  0.50400001928E-02 0. -1.
       -1    1    3    3    0  502  0.43941931084E+03  0.14280065605E+04 -0.10106762724E+04  0.18038177833E+04  0.50400001928E-02 0.  1.
</event>
<event>
 5   0  0.1635086E-06  0.2996473E+04  0.7818609E-02  0.8244739E-01
        2   -1    0    0  501    0  0.00000000000E+00  0.00000000000E+00  0.29102037078E+04  0.29102037078E+04  0.25500000920E-02 0. -1.
       -2   -1    0    0    0  501  0.00000000000E+00  0.00000000000E+00 -0.77132488636E+03  0.77132488636E+03  0.25500000920E-02 0.  1.
    10030    2    1    2    0    0  0.00000000000E+00  0.00000000000E+00  0.21388788215E+04  0.36815285942E+04  0.29964729561E+04 0.  0.
        3    1    3    3  502    0  0.13528239420E+04  0.60834264985E+03  0.13286147084E+04  0.19913388590E+04  0.10100000352E+00 0. -1.
       -3    1    3    3    0  502 -0.13528239420E+04 -0.60834264985E+03  0.81026411311E+03  0.16901897352E+04  0.10100000352E+00 0.  1.
</event>
<event>
 5   0  0.5931588E-07  0.2986339E+04  0.7818609E-02  0.8247643E-01
       -1   -1    0    0    0  501  0.00000000000E+00  0.00000000000E+00  0.16239692880E+04  0.16239692880E+04  0.50400001928E-02 0.  1.
        1   -1    0    0  501    0  0.00000000000E+00  0.00000000000E+00 -0.13729047813E+04  0.13729047814E+04  0.50400001928E-02 0. -1.
    10030    2    1    2    0    0  0.00000000000E+00  0.00000000000E+00  0.25106450664E+03  0.29968740694E+04  0.29863390298E+04 0.  0.
        2    1    3    3  502    0 -0.28323454483E+03 -0.76735356299E+03 -0.11280751115E+04  0.13934154998E+04  0.25500000920E-02 0. -1.
       -2    1    3    3    0  502  0.28323454483E+03  0.76735356299E+03  0.13791396181E+04  0.16034585695E+04  0.25500000920E-02 0.  1.
</event>
<event>
 5   0  0.5887179E-07  0.3008768E+04  0.7818609E-02  0.8241231E-01
        1   -1    0    0  501    0  0.00000000000E+00  0.00000000000E+00  0.77568978251E+03  0.77568978253E+03  0.50400001928E-02 0.  1.
       -1   -1    0    0    0  501  0.00000000000E+00  0.00000000000E+00 -0.29176247404E+04  0.29176247404E+04  0.50400001928E-02 0. -1.
    10030    2    1    2    0    0  0.00000000000E+00  0.00000000000E+00 -0.21419349579E+04  0.36933145230E+04  0.30087683197E+04 0.  0.
        3    1    3    3  502    0 -0.65157999725E+02  0.91411756714E+03  0.39349446234E+03  0.99734366874E+03  0.10100000352E+00 0.  1.
       -3    1    3    3    0  502  0.65157999725E+02 -0.91411756714E+03 -0.25354294203E+04  0.26959708542E+04  0.10100000352E+00 0. -1.
</event>
<event>
 5   0  0.5916703E-07  0.3001120E+04  0.7818609E-02  0.8243411E-01
       -1   -1    0    0    0  501  0.00000000000E+00  0.00000000000E+00  0.96367345472E+03  0.96367345473E+03  0.50400001928E-02 0.  1.
        1   -1    0    0  501    0  0.00000000000E+00  0.00000000000E+00 -0.23365601103E+04  0.23365601103E+04  0.50400001928E-02 0. -1.
    10030    2    1    2    0    0  0.00000000000E+00  0.00000000000E+00 -0.13728866556E+04  0.33002335650E+04  0.30011204266E+04 0.  0.
        5    1    3    3  502    0 -0.10908820448E+04 -0.63823580781E+03  0.20305777118E+03  0.12800871574E+04  0.46999998093E+01 0. -1.
       -5    1    3    3    0  502  0.10908820448E+04  0.63823580781E+03 -0.15759444268E+04  0.20201464076E+04  0.46999998093E+01 0.  1.
</event>
<event>
 5   0  0.5931588E-07  0.3008850E+04  0.7818609E-02  0.8241208E-01
       -1   -1    0    0    0  501  0.00000000000E+00  0.00000000000E+00  0.84777588856E+03  0.84777588857E+03  0.50400001928E-02 0. -1.
        1   -1    0    0  501    0  0.00000000000E+00  0.00000000000E+00 -0.26696848134E+04  0.26696848134E+04  0.50400001928E-02 0.  1.
    10030    2    1    2    0    0  0.00000000000E+00  0.00000000000E+00 -0.18219089248E+04  0.35174607019E+04  0.30088498898E+04 0.  0.
        2    1    3    3  502    0 -0.13927915051E+04 -0.14969656298E+02 -0.24634602351E+03  0.14144888231E+04  0.25500000920E-02 0. -1.
       -2    1    3    3    0  502  0.13927915051E+04  0.14969656298E+02 -0.15755629013E+04  0.21029718789E+04  0.25500000920E-02 0.  1.
</event>
<event>
 5   0  0.1625212E-06  0.2998391E+04  0.7818609E-02  0.8244190E-01
        2   -1    0    0  501    0  0.00000000000E+00  0.00000000000E+00  0.20269515949E+04  0.20269515949E+04  0.25500000920E-02 0. -1.
       -2   -1    0    0    0  501  0.00000000000E+00  0.00000000000E+00 -0.11088510377E+04  0.11088510377E+04  0.25500000920E-02 0.  1.
    10030    2    1    2    0    0  0.00000000000E+00  0.00000000000E+00  0.91810055714E+03  0.31358026326E+04  0.29983911549E+04 0.  0.
        4    1    3    3  502    0 -0.10631481320E+04 -0.99585945373E+03  0.82964229116E+03  0.16764032768E+04  0.12699999809E+01 0. -1.
       -4    1    3    3    0  502  0.10631481320E+04  0.99585945373E+03  0.88458265973E+02  0.14593993559E+04  0.12699999809E+01 0.  1.
</event>
<event>
 5   0  0.5874741E-07  0.2997720E+04  0.7818609E-02  0.8244382E-01
       -1   -1    0    0    0  501  0.00000000000E+00  0.00000000000E+00  0.12747749921E+04  0.12747749922E+04  0.50400001928E-02 0. -1.
        1   -1    0    0  501    0  0.00000000000E+00  0.00000000000E+00 -0.17623353846E+04  0.17623353846E+04  0.50400001928E-02 0.  1.
    10030    2    1    2    0    0  0.00000000000E+00  0.00000000000E+00 -0.48756039245E+03  0.30371103768E+04  0.29977198509E+04 0.  0.
        4    1    3    3  502    0  0.56500103725E+03  0.73198629651E+03  0.95135995968E+03  0.13266941984E+04  0.12699999809E+01 0. -1.
       -4    1    3    3    0  502 -0.56500103725E+03 -0.73198629651E+03 -0.14389203521E+04  0.17104161783E+04  0.12699999809E+01 0.  1.
</event>
<event>
 5   0  0.5916703E-07  0.2985896E+04  0.7818609E-02  0.8247770E-01
       -1   -1    0    0    0  501  0.00000000000E+00  0.00000000000E+00  0.13458303651E+04  0.13458303652E+04  0.50400001928E-02 0. -1.
        1   -1    0    0  501    0  0.00000000000E+00  0.00000000000E+00 -0.16561479976E+04  0.16561479976E+04  0.50400001928E-02 0.  1.
    10030    2    1    2    0    0  0.00000000000E+00  0.00000000000E+00 -0.31031763247E+03  0.30019783628E+04  0.29858963575E+04 0.  0.
        5    1    3    3  502    0  0.62950354276E+03  0.57117811667E+03  0.10787873425E+04  0.13734348808E+04  0.46999998093E+01 0. -1.
       -5    1    3    3    0  502 -0.62950354276E+03 -0.57117811667E+03 -0.13891049750E+04  0.16285434820E+04  0.46999998093E+01 0.  1.
</event>
<event>
 5   0  0.5931588E-07  0.2976199E+04  0.7818609E-02  0.8250560E-01
        1   -1    0    0  501    0  0.00000000000E+00  0.00000000000E+00  0.21007713459E+04  0.21007713459E+04  0.50400001928E-02 0.  1.
       -1   -1    0    0    0  501  0.00000000000E+00  0.00000000000E+00 -0.10541082871E+04  0.10541082871E+04  0.50400001928E-02 0. -1.
    10030    2    1    2    0    0  0.00000000000E+00  0.00000000000E+00  0.10466630588E+04  0.31548796330E+04  0.29761992440E+04 0.  0.
        2    1    3    3  502    0 -0.10202411198E+04  0.10763413002E+04  0.39333999230E+03  0.15343138163E+04  0.25500000920E-02 0.  1.
       -2    1    3    3    0  502  0.10202411198E+04 -0.10763413002E+04  0.65332306651E+03  0.16205658168E+04  0.25500000920E-02 0. -1.
</event>
<event>
 5   0  0.1723916E-06  0.3012735E+04  0.7818609E-02  0.8240104E-01
       -2   -1    0    0    0  501  0.00000000000E+00  0.00000000000E+00  0.15748280497E+04  0.15748280497E+04  0.25500000920E-02 0. -1.
        2   -1    0    0  501    0  0.00000000000E+00  0.00000000000E+00 -0.14408828901E+04  0.14408828901E+04  0.25500000920E-02 0.  1.
    10030    2    1    2    0    0  0.00000000000E+00  0.00000000000E+00  0.13394515964E+03  0.30157109398E+04  0.30127348318E+04 0.  0.
        1    1    3    3  502    0  0.35475118966E+03  0.11884824940E+04  0.92268765971E+03  0.15458627243E+04  0.50400001928E-02 0. -1.
       -1    1    3    3    0  502 -0.35475118966E+03 -0.11884824940E+04 -0.78874250006E+03  0.14698482155E+04  0.50400001928E-02 0.  1.
</event>
<event>
 5   0  0.1635086E-06  0.2979200E+04  0.7818609E-02  0.8249696E-01
        2   -1    0    0  501    0  0.00000000000E+00  0.00000000000E+00  0.12087924715E+04  0.12087924715E+04  0.25500000920E-02 0.  1.
       -2   -1    0    0    0  501  0.00000000000E+00  0.00000000000E+00 -0.18356402470E+04  0.18356402470E+04  0.25500000920E-02 0. -1.
    10030    2    1    2    0    0  0.00000000000E+00  0.00000000000E+00 -0.62684777548E+03  0.30444327185E+04  0.29791999671E+04 0.  0.
        3    1    3    3  502    0 -0.26227069265E+02  0.14359759804E+04  0.90442604753E+02  0.14390603707E+04  0.10100000352E+00 0.  1.
       -3    1    3    3    0  502  0.26227069265E+02 -0.14359759804E+04 -0.71729038023E+03  0.16053723478E+04  0.10100000352E+00 0. -1.
</event>
<event>
 5   0  0.1635086E-06  0.2910619E+04  0.7818609E-02  0.8269725E-01
       -2   -1    0    0    0  501  0.00000000000E+00  0.00000000000E+00  0.10529960202E+04  0.10529960202E+04  0.25500000920E-02 0. -1.
        2   -1    0    0  501    0  0.00000000000E+00  0.00000000000E+00 -0.20113336952E+04  0.20113336952E+04  0.25500000920E-02 0.  1.
    10030    2    1    2    0    0  0.00000000000E+00  0.00000000000E+00 -0.95833767501E+03  0.30643297154E+04  0.29106194367E+04 0.  0.
        3    1    3    3  502    0  0.38946461690E+03 -0.13892421977E+04 -0.67961735176E+03  0.15948530737E+04  0.10100000352E+00 0. -1.
       -3    1    3    3    0  502 -0.38946461690E+03  0.13892421977E+04 -0.27872032325E+03  0.14694766417E+04  0.10100000352E+00 0.  1.
</event>
<event>
 5   0  0.5874741E-07  0.3007721E+04  0.7818609E-02  0.8241530E-01
       -1   -1    0    0    0  501  0.00000000000E+00  0.00000000000E+00  0.20343630039E+04  0.20343630039E+04  0.50400001928E-02 0.  1.
        1   -1    0    0  501    0  0.00000000000E+00  0.00000000000E+00 -0.11116972410E+04  0.11116972410E+04  0.50400001928E-02 0. -1.
    10030    2    1    2    0    0  0.00000000000E+00  0.00000000000E+00  0.92266576284E+03  0.31460602449E+04  0.30077205580E+04 0.  0.
        4    1    3    3  502    0  0.40274181193E+03  0.11994510753E+04 -0.38889448878E+03  0.13236783542E+04  0.12699999809E+01 0. -1.
       -4    1    3    3    0  502 -0.40274181193E+03 -0.11994510753E+04  0.13115602516E+04  0.18223818907E+04  0.12699999809E+01 0.  1.
</event>
<event>
 5   0  0.1723916E-06  0.3001316E+04  0.7818609E-02  0.8243355E-01
       -2   -1    0    0    0  501  0.00000000000E+00  0.00000000000E+00  0.12140840980E+04  0.12140840980E+04  0.25500000920E-02 0.  1.
        2   -1    0    0  501    0  0.00000000000E+00  0.00000000000E+00 -0.18548753674E+04  0.18548753674E+04  0.25500000920E-02 0. -1.
    10030    2    1    2    0    0  0.00000000000E+00  0.00000000000E+00 -0.64079126939E+03  0.30689594654E+04  0.30013161695E+04 0.  0.
        1    1    3    3  502    0  0.74756730586E+03  0.12742888207E+04 -0.58958892600E+03  0.15906866369E+04  0.50400001928E-02 0. -1.
       -1    1    3    3    0  502 -0.74756730586E+03 -0.12742888207E+04 -0.51202343391E+02  0.14782728284E+04  0.50400001928E-02 0.  1.
</event>
<event>
 5   0  0.5931588E-07  0.3005566E+04  0.7818609E-02  0.8242143E-01
        1   -1    0    0  501    0  0.00000000000E+00  0.00000000000E+00  0.11956022238E+04  0.11956022238E+04  0.50400001928E-02 0. -1.
       -1   -1    0    0    0  501  0.00000000000E+00  0.00000000000E+00 -0.18888861879E+04  0.18888861879E+04  0.50400001928E-02 0.  1.
    10030    2    1    2    0    0  0.00000000000E+00  0.00000000000E+00 -0.69328396411E+03  0.30844884118E+04  0.30055658548E+04 0.  0.
        2    1    3    3  502    0 -0.97518356927E+03  0.86763214291E+03  0.41761977413E+03  0.13704651783E+04  0.25500000920E-02 0. -1.
       -2    1    3    3    0  502  0.97518356927E+03 -0.86763214291E+03 -0.11109037382E+04  0.17140232335E+04  0.25500000920E-02 0.  1.
</event>
<event>
 5   0  0.6291798E-07  0.3005887E+04  0.7818609E-02  0.8242052E-01
       -1   -1    0    0    0  501  0.00000000000E+00  0.00000000000E+00  0.17066766094E+04  0.17066766094E+04  0.50400001928E-02 0. -1.
        1   -1    0    0  501    0  0.00000000000E+00  0.00000000000E+00 -0.13235307972E+04  0.13235307972E+04  0.50400001928E-02 0.  1.
    10030    2    1    2    0    0  0.00000000000E+00  0.00000000000E+00  0.38314581218E+03  0.30302074066E+04  0.30058869263E+04 0.  0.
        1    1    3    3  502    0  0.11158644737E+04 -0.75339288835E+03  0.86487253128E+03  0.16002371272E+04  0.50400001928E-02 0. -1.
       -1    1    3    3    0  502 -0.11158644737E+04  0.75339288835E+03 -0.48172671910E+03  0.14299702794E+04  0.50400001928E-02 0.  1.
</event>
<event>
 5   0  0.5916703E-07  0.2997275E+04  0.7818609E-02  0.8244510E-01
       -1   -1    0    0    0  501  0.00000000000E+00  0.00000000000E+00  0.11223367655E+04  0.11223367655E+04  0.50400001928E-02 0. -1.
        1   -1    0    0  501    0  0.00000000000E+00  0.00000000000E+00 -0.20011052437E+04  0.20011052437E+04  0.50400001928E-02 0.  1.
    10030    2    1    2    0    0  0.00000000000E+00  0.00000000000E+00 -0.87876847824E+03  0.31234420093E+04  0.29972747533E+04 0.  0.
        5    1    3    3  502    0 -0.29119345644E+03 -0.74504986701E+03 -0.17600092618E+04  0.19332738102E+04  0.46999998093E+01 0.  1.
       -5    1    3    3    0  502  0.29119345644E+03  0.74504986701E+03  0.88124078360E+03  0.11901681991E+04  0.46999998093E+01 0. -1.
</event>
<event>
 5   0  0.1674806E-06  0.2990701E+04  0.7818609E-02  0.8246391E-01
       -2   -1    0    0    0  501  0.00000000000E+00  0.00000000000E+00  0.13759661678E+04  0.13759661678E+04  0.25500000920E-02 0.  1.
        2   -1    0    0  501    0  0.00000000000E+00  0.00000000000E+00 -0.16250928461E+04  0.16250928461E+04  0.25500000920E-02 0. -1.
    10030    2    1    2    0    0  0.00000000000E+00  0.00000000000E+00 -0.24912667827E+03  0.30010590139E+04  0.29907007713E+04 0.  0.
        2    1    3    3  502    0 -0.62752517808E+03  0.16854374733E+03  0.12269041459E+04  0.13883402418E+04  0.25500000920E-02 0.  1.
       -2    1    3    3    0  502  0.62752517808E+03 -0.16854374733E+03 -0.14760308242E+04  0.16127187721E+04  0.25500000920E-02 0. -1.
</event>
<event>
 5   0  0.1723916E-06  0.2999594E+04  0.7818609E-02  0.8243847E-01
        2   -1    0    0  501    0  0.00000000000E+00  0.00000000000E+00  0.19519739197E+04  0.19519739197E+04  0.25500000920E-02 0. -1.
       -2   -1    0    0    0  501  0.00000000000E+00  0.00000000000E+00 -0.11523674524E+04  0.11523674524E+04  0.25500000920E-02 0.  1.
    10030    2    1    2    0    0  0.00000000000E+00  0.00000000000E+00  0.79960646728E+03  0.31043413721E+04  0.29995941145E+04 0.  0.
        1    1    3    3  502    0  0.35441469557E+03 -0.14121307538E+04  0.27133886813E+02  0.14561796902E+04  0.50400001928E-02 0. -1.
       -1    1    3    3    0  502 -0.35441469557E+03  0.14121307538E+04  0.77247258047E+03  0.16481616819E+04  0.50400001928E-02 0.  1.
</event>
<event>
 5   0  0.1560174E-06  0.2973604E+04  0.7818609E-02  0.8251309E-01
       -2   -1    0    0    0  501  0.00000000000E+00  0.00000000000E+00  0.85621108228E+03  0.85621108229E+03  0.25500000920E-02 0.  1.
        2   -1    0    0  501    0  0.00000000000E+00  0.00000000000E+00 -0.25818168916E+04  0.25818168916E+04  0.25500000920E-02 0. -1.
    10030    2    1    2    0    0  0.00000000000E+00  0.00000000000E+00 -0.17256058093E+04  0.34380279739E+04  0.29736040322E+04 0.  0.
        5    1    3    3  502    0 -0.14326691384E+04  0.15388446296E+03 -0.43903909875E+03  0.15063195904E+04  0.46999998093E+01 0. -1.
       -5    1    3    3    0  502  0.14326691384E+04 -0.15388446296E+03 -0.12865667106E+04  0.19317083835E+04  0.46999998093E+01 0.  1.
</event>
<event>
 5   0  0.5431625E-07  0.3010420E+04  0.7818609E-02  0.8240762E-01
        3   -1    0    0  501    0  0.00000000000E+00  0.00000000000E+00  0.13970911359E+04  0.13970911395E+04  0.10100000352E+00 0.  1.
       -3   -1    0    0    0  501  0.00000000000E+00  0.00000000000E+00 -0.16216958002E+04  0.16216958034E+04  0.10100000352E+00 0. -1.
    10030    2    1    2    0    0  0.00000000000E+00  0.00000000000E+00 -0.22460466437E+03  0.30187869429E+04  0.30104197965E+04 0.  0.
        3    1    3    3  502    0 -0.59609697695E+03  0.12850555854E+04  0.39799057822E+03  0.14714265099E+04  0.10100000352E+00 0.  1.
       -3    1    3    3    0  502  0.59609697695E+03 -0.12850555854E+04 -0.62259524259E+03  0.15473604330E+04  0.10100000352E+00 0. -1.
</event>
<event>
 5   0  0.5431625E-07  0.2992026E+04  0.7818609E-02  0.8246012E-01
       -4   -1    0    0    0  501  0.00000000000E+00  0.00000000000E+00  0.17107945729E+04  0.17107950443E+04  0.12699999809E+01 0. -1.
        4   -1    0    0  501    0  0.00000000000E+00  0.00000000000E+00 -0.13081952150E+04  0.13081958315E+04  0.12699999809E+01 0.  1.
    10030    2    1    2    0    0  0.00000000000E+00  0.00000000000E+00  0.40259935785E+03  0.30189908757E+04  0.29920260134E+04 0.  0.
        5    1    3    3  502    0 -0.87545225439E+03  0.11582700727E+04  0.56514145582E+03  0.15580157785E+04  0.46999998093E+01 0. -1.
       -5    1    3    3    0  502  0.87545225439E+03 -0.11582700727E+04 -0.16254209797E+03  0.14609750972E+04  0.46999998093E+01 0.  1.
</event>
<event>
 5   0  0.1625212E-06  0.2996597E+04  0.7818609E-02  0.8244703E-01
       -2   -1    0    0    0  501  0.00000000000E+00  0.00000000000E+00  0.16111727881E+04  0.16111727881E+04  0.25500000920E-02 0.  1.
        2   -1    0    0  501    0  0.00000000000E+00  0.00000000000E+00 -0.13933322452E+04  0.13933322452E+04  0.25500000920E-02 0. -1.
    10030    2    1    2    0    0  0.00000000000E+00  0.00000000000E+00  0.21784054287E+03  0.30045050334E+04  0.29965974026E+04 0.  0.
        4    1    3    3  502    0  0.27076764686E+03  0.95461187353E+03 -0.10166723464E+04  0.14206418340E+04  0.12699999809E+01 0. -1.
       -4    1    3    3    0  502 -0.27076764686E+03 -0.95461187353E+03  0.12345128893E+04  0.15838631994E+04  0.12699999809E+01 0.  1.
</event>
<event>
 5   0  0.1723916E-06  0.3000407E+04  0.7818609E-02  0.8243615E-01
       -2   -1    0    0    0  501  0.00000000000E+00  0.00000000000E+00  0.15583210793E+04  0.15583210793E+04  0.25500000920E-02 0.  1.
        2   -1    0    0  501    0  0.00000000000E+00  0.00000000000E+00 -0.14442538287E+04  0.14442538287E+04  0.25500000920E-02 0. -1.
    10030    2    1    2    0    0  0.00000000000E+00  0.00000000000E+00  0.11406725056E+03  0.30025749080E+04  0.30004074291E+04 0.  0.
        1    1    3    3  502    0  0.46415496844E+02  0.33672199057E+03  0.15192787951E+04  0.15568378703E+04  0.50400001928E-02 0.  1.
       -1    1    3    3    0  502 -0.46415496844E+02 -0.33672199057E+03 -0.14052115445E+04  0.14457370377E+04  0.50400001928E-02 0. -1.
</event>
<event>
 5   0  0.6291798E-07  0.3003897E+04  0.7818609E-02  0.8242619E-01
       -1   -1    0    0    0  501  0.00000000000E+00  0.00000000000E+00  0.31550778661E+04  0.31550778661E+04  0.50400001928E-02 0.  1.
        1   -1    0    0  501    0  0.00000000000E+00  0.00000000000E+00 -0.71499023243E+03  0.71499023244E+03  0.50400001928E-02 0. -1.
    10030    2    1    2    0    0  0.00000000000E+00  0.00000000000E+00  0.24400876337E+04  0.38700680985E+04  0.30038973730E+04 0.  0.
        1    1    3    3  502    0 -0.13407686887E+04  0.67093019907E+03  0.13355782543E+04  0.20078788016E+04  0.50400001928E-02 0.  1.
       -1    1    3    3    0  502  0.13407686887E+04 -0.67093019907E+03  0.11045093793E+04  0.18621892969E+04  0.50400001928E-02 0. -1.
</event>
<event>
 5   0  0.5916703E-07  0.3011054E+04  0.7818609E-02  0.8240581E-01
       -1   -1    0    0    0  501  0.00000000000E+00  0.00000000000E+00  0.22948689742E+04  0.22948689743E+04  0.50400001928E-02 0. -1.
        1   -1    0    0  501    0  0.00000000000E+00  0.00000000000E+00 -0.98768655342E+03  0.98768655343E+03  0.50400001928E-02 0.  1.
    10030    2    1    2    0    0  0.00000000000E+00  0.00000000000E+00  0.13071824208E+04  0.32825555277E+04  0.30110537875E+04 0.  0.
        5    1    3    3  502    0  0.55427815760E+03 -0.10484724467E+04 -0.35743069656E+03  0.12386676472E+04  0.46999998093E+01 0.  1.
       -5    1    3    3    0  502 -0.55427815760E+03  0.10484724467E+04  0.16646131174E+04  0.20438878805E+04  0.46999998093E+01 0. -1.
</event>
<event>
 5   0  0.1560174E-06  0.3003221E+04  0.7818609E-02  0.8242812E-01
       -2   -1    0    0    0  501  0.00000000000E+00  0.00000000000E+00  0.93062506703E+03  0.93062506703E+03  0.25500000920E-02 0.  1.
        2   -1    0    0  501    0  0.00000000000E+00  0.00000000000E+00 -0.24229245167E+04  0.24229245167E+04  0.25500000920E-02 0. -1.
    10030    2    1    2    0    0  0.00000000000E+00  0.00000000000E+00 -0.14922994497E+04  0.33535495838E+04  0.30032211312E+04 0.  0.
        5    1    3    3  502    0 -0.85279677635E+02 -0.71658939182E+03 -0.22165882717E+04  0.23311067406E+04  0.46999998093E+01 0. -1.
       -5    1    3    3    0  502  0.85279677635E+02  0.71658939182E+03  0.72428882199E+03  0.10224428432E+04  0.46999998093E+01 0.  1.
</event>
<event>
 5   0  0.1560174E-06  0.2934193E+04  0.7818609E-02  0.8262776E-01
        2   -1    0    0  501    0  0.00000000000E+00  0.00000000000E+00  0.13879190593E+04  0.13879190593E+04  0.25500000920E-02 0. -1.
       -2   -1    0    0    0  501  0.00000000000E+00  0.00000000000E+00 -0.15507908747E+04  0.15507908747E+04  0.25500000920E-02 0.  1.
    10030    2    1    2    0    0  0.00000000000E+00  0.00000000000E+00 -0.16287181533E+03  0.29387099340E+04  0.29341930489E+04 0.  0.
        5    1    3    3  502    0  0.89551153067E+03 -0.16095907057E+02 -0.12451842367E+04  0.15338532697E+04  0.46999998093E+01 0.  1.
       -5    1    3    3    0  502 -0.89551153067E+03  0.16095907057E+02  0.10823124214E+04  0.14048566643E+04  0.46999998093E+01 0. -1.
</event>
<event>
 5   0  0.1560174E-06  0.3006686E+04  0.7818609E-02  0.8241824E-01
       -2   -1    0    0    0  501  0.00000000000E+00  0.00000000000E+00  0.10239775327E+04  0.10239775327E+04  0.25500000920E-02 0. -1.
        2   -1    0    0  501    0  0.00000000000E+00  0.00000000000E+00 -0.22071192681E+04  0.22071192681E+04  0.25500000920E-02 0.  1.
    10030    2    1    2    0    0  0.00000000000E+00  0.00000000000E+00 -0.11831417354E+04  0.32310968008E+04  0.30066862440E+04 0.  0.
        5    1    3    3  502    0 -0.12834257133E+04  0.35698693877E+03  0.15713372893E+03  0.13413926848E+04  0.46999998093E+01 0. -1.
       -5    1    3    3    0  502  0.12834257133E+04 -0.35698693877E+03 -0.13402754643E+04  0.18897041160E+04  0.46999998093E+01 0.  1.
</event>
<event>
 5   0  0.1625212E-06  0.3031121E+04  0.7818609E-02  0.8234899E-01
        2   -1    0    0  501    0  0.00000000000E+00  0.00000000000E+00  0.16221938010E+04  0.16221938010E+04  0.25500000920E-02 0. -1.
       -2   -1    0    0    0  501  0.00000000000E+00  0.00000000000E+00 -0.14159370591E+04  0.14159370591E+04  0.25500000920E-02 0.  1.
    10030    2    1    2    0    0  0.00000000000E+00  0.00000000000E+00  0.20625674185E+03  0.30381308601E+04  0.30311214557E+04 0.  0.
        4    1    3    3  502    0  0.13037547558E+03 -0.11374231564E+04 -0.89224084832E+03  0.14514904566E+04  0.12699999809E+01 0.  1.
       -4    1    3    3    0  502 -0.13037547558E+03  0.11374231564E+04  0.10984975902E+04  0.15866404035E+04  0.12699999809E+01 0. -1.
</event>
<event>
 5   0  0.1625212E-06  0.3000998E+04  0.7818609E-02  0.8243446E-01
       -2   -1    0    0    0  501  0.00000000000E+00  0.00000000000E+00  0.20657799135E+04  0.20657799135E+04  0.25500000920E-02 0. -1.
        2   -1    0    0  501    0  0.00000000000E+00  0.00000000000E+00 -0.10899019674E+04  0.10899019674E+04  0.25500000920E-02 0.  1.
    10030    2    1    2    0    0  0.00000000000E+00  0.00000000000E+00  0.97587794606E+03  0.31556818809E+04  0.30009982286E+04 0.  0.
        4    1    3    3  502    0  0.73834225021E+03 -0.12516397977E+04  0.88103157134E+03  0.16994027493E+04  0.12699999809E+01 0. -1.
       -4    1    3    3    0  502 -0.73834225021E+03  0.12516397977E+04  0.94846374719E+02  0.14562791317E+04  0.12699999809E+01 0.  1.
</event>
<event>
 5   0  0.5916703E-07  0.3021591E+04  0.7818609E-02  0.8237592E-01
        1   -1    0    0  501    0  0.00000000000E+00  0.00000000000E+00  0.16108540974E+04  0.16108540974E+04  0.50400001928E-02 0. -1.
       -1   -1    0    0    0  501  0.00000000000E+00  0.00000000000E+00 -0.14169521333E+04  0.14169521333E+04  0.50400001928E-02 0.  1.
    10030    2    1    2    0    0  0.00000000000E+00  0.00000000000E+00  0.19390196410E+03  0.30278062308E+04  0.30215910709E+04 0.  0.
        5    1    3    3  502    0  0.10821274647E+04 -0.10519515630E+04  0.16694535052E+03  0.15183855837E+04  0.46999998093E+01 0.  1.
       -5    1    3    3    0  502 -0.10821274647E+04  0.10519515630E+04  0.26956613578E+02  0.15094206471E+04  0.46999998093E+01 0. -1.
</event>
<event>
 5   0  0.1635086E-06  0.2997725E+04  0.7818609E-02  0.8244381E-01
        2   -1    0    0  501    0  0.00000000000E+00  0.00000000000E+00  0.16939551958E+04  0.16939551958E+04  0.25500000920E-02 0.  1.
       -2   -1    0    0    0  501  0.00000000000E+00  0.00000000000E+00 -0.13262387404E+04  0.13262387405E+04  0.25500000920E-02 0. -1.
    10030    2    1    2    0    0  0.00000000000E+00  0.00000000000E+00  0.36771645532E+03  0.30201939362E+04  0.29977251410E+04 0.  0.
        3    1    3    3  502    0  0.10288841582E+04 -0.91004977172E+03 -0.42046747254E+03  0.14365187446E+04  0.10100000352E+00 0.  1.
       -3    1    3    3    0  502 -0.10288841582E+04  0.91004977172E+03  0.78818392786E+03  0.15836751916E+04  0.10100000352E+00 0. -1.
</event>
<event>
 5   0  0.1674806E-06  0.3002004E+04  0.7818609E-02  0.8243159E-01
       -2   -1    0    0    0  501  0.00000000000E+00  0.00000000000E+00  0.98145120848E+03  0.98145120849E+03  0.25500000920E-02 0.  1.
        2   -1    0    0  501    0  0.00000000000E+00  0.00000000000E+00 -0.22955868674E+04  0.22955868674E+04  0.25500000920E-02 0. -1.
    10030    2    1    2    0    0  0.00000000000E+00  0.00000000000E+00 -0.13141356589E+04  0.32770380759E+04  0.30020036677E+04 0.  0.
        2    1    3    3  502    0  0.13165138447E+04  0.70974334869E+03 -0.79541571504E+03  0.16939983719E+04  0.25500000920E-02 0. -1.
       -2    1    3    3    0  502 -0.13165138447E+04 -0.70974334869E+03 -0.51871994389E+03  0.15830397040E+04  0.25500000920E-02 0.  1.
</event>
<event>
 5   0  0.5887179E-07  0.3007294E+04  0.7818609E-02  0.8241651E-01
        1   -1    0    0  501    0  0.00000000000E+00  0.00000000000E+00  0.16417955886E+04  0.16417955886E+04  0.50400001928E-02 0.  1.
       -1   -1    0    0    0  501  0.00000000000E+00  0.00000000000E+00 -0.13771233196E+04  0.13771233196E+04  0.50400001928E-02 0. -1.
    10030    2    1    2    0    0  0.00000000000E+00  0.00000000000E+00  0.26467226899E+03  0.30189189082E+04  0.30072944592E+04 0.  0.
        3    1    3    3  502    0  0.75231001757E+03 -0.56422191276E+03  0.13101737226E+04  0.16127218989E+04  0.10100000352E+00 0.  1.
       -3    1    3    3    0  502 -0.75231001757E+03  0.56422191276E+03 -0.10455014537E+04  0.14061970094E+04  0.10100000352E+00 0. -1.
</event>
<event>
 5   0  0.1560174E-06  0.3007967E+04  0.7818609E-02  0.8241460E-01
       -2   -1    0    0    0  501  0.00000000000E+00  0.00000000000E+00  0.13803105485E+04  0.13803105485E+04  0.25500000920E-02 0. -1.
        2   -1    0    0  501    0  0.00000000000E+00  0.00000000000E+00 -0.16387370852E+04  0.16387370852E+04  0.25500000920E-02 0.  1.
    10030    2    1    2    0    0  0.00000000000E+00  0.00000000000E+00 -0.25842653678E+03  0.30190476337E+04  0.30079668116E+04 0.  0.
        5    1    3    3  502    0 -0.11690824418E+04  0.66320106388E+03 -0.80649877718E+03  0.15674985724E+04  0.46999998093E+01 0.  1.
       -5    1    3    3    0  502  0.11690824418E+04 -0.66320106388E+03  0.54807224039E+03  0.14515490613E+04  0.46999998093E+01 0. -1.
</event>
<event>
 5   0  0.1674806E-06  0.3000609E+04  0.7818609E-02  0.8243557E-01
        2   -1    0    0  501    0  0.00000000000E+00  0.00000000000E+00  0.25019251469E+04  0.25019251469E+04  0.25500000920E-02 0. -1.
       -2   -1    0    0    0  501  0.00000000000E+00  0.00000000000E+00 -0.89967245948E+03  0.89967245948E+03  0.25500000920E-02 0.  1.
    10030    2    1    2    0    0  0.00000000000E+00  0.00000000000E+00  0.16022526875E+04  0.34015976064E+04  0.30006087052E+04 0.  0.
        2    1    3    3  502    0 -0.69600237298E+03  0.10008105331E+04 -0.19031720001E+03  0.12337996851E+04  0.25500000920E-02 0. -1.
       -2    1    3    3    0  502  0.69600237298E+03 -0.10008105331E+04  0.17925698875E+04  0.21677979213E+04  0.25500000920E-02 0.  1.
</event>
<event>
 5   0  0.6291798E-07  0.3001946E+04  0.7818609E-02  0.8243175E-01
       -1   -1    0    0    0  501  0.00000000000E+00  0.00000000000E+00  0.21941576313E+04  0.21941576313E+04  0.50400001928E-02 0. -1.
        1   -1    0    0  501    0  0.00000000000E+00  0.00000000000E+00 -0.10267814837E+04  0.10267814837E+04  0.50400001928E-02 0.  1.
    10030    2    1    2    0    0  0.00000000000E+00  0.00000000000E+00  0.11673761476E+04  0.32209391150E+04  0.30019463208E+04 0.  0.
        1    1    3    3  502    0 -0.56249099060E+03 -0.11440715683E+04  0.14337088843E+04  0.19185455514E+04  0.50400001928E-02 0. -1.
       -1    1    3    3    0  502  0.56249099060E+03  0.11440715683E+04 -0.26633273675E+03  0.13023935636E+04  0.50400001928E-02 0.  1.
</event>
<event>
 5   0  0.1560174E-06  0.2995101E+04  0.7818609E-02  0.8245131E-01
       -2   -1    0    0    0  501  0.00000000000E+00  0.00000000000E+00  0.11352286497E+04  0.11352286497E+04  0.25500000920E-02 0.  1.
        2   -1    0    0  501    0  0.00000000000E+00  0.00000000000E+00 -0.19755113294E+04  0.19755113294E+04  0.25500000920E-02 0. -1.
    10030    2    1    2    0    0  0.00000000000E+00  0.00000000000E+00 -0.84028267971E+03  0.31107399791E+04  0.29951007055E+04 0.  0.
        5    1    3    3  502    0 -0.35990751694E+03  0.49823974476E+03  0.99818199258E+03  0.11722481155E+04  0.46999998093E+01 0.  1.
       -5    1    3    3    0  502  0.35990751694E+03 -0.49823974476E+03 -0.18384646723E+04  0.19384918636E+04  0.46999998093E+01 0. -1.
</event>
<event>
 5   0  0.1560174E-06  0.2996665E+04  0.7818609E-02  0.8244684E-01
       -2   -1    0    0    0  501  0.00000000000E+00  0.00000000000E+00  0.19573835327E+04  0.19573835327E+04  0.25500000920E-02 0.  1.
        2   -1    0    0  501    0  0.00000000000E+00  0.00000000000E+00 -0.11469390759E+04  0.11469390759E+04  0.25500000920E-02 0. -1.
    10030    2    1    2    0    0  0.00000000000E+00  0.00000000000E+00  0.81044445682E+03  0.31043226086E+04  0.29966645859E+04 0.  0.
        5    1    3    3  502    0 -0.22899795356E+03 -0.12570019508E+04 -0.40550721510E+03  0.13405044418E+04  0.46999998093E+01 0. -1.
       -5    1    3    3    0  502  0.22899795356E+03  0.12570019508E+04  0.12159516719E+04  0.17638181668E+04  0.46999998093E+01 0.  1.
</event>
<event>
 5   0  0.1635086E-06  0.3011367E+04  0.7818609E-02  0.8240492E-01
        2   -1    0    0  501    0  0.00000000000E+00  0.00000000000E+00  0.23543070294E+04  0.23543070294E+04  0.25500000920E-02 0. -1.
       -2   -1    0    0    0  501  0.00000000000E+00  0.00000000000E+00 -0.96295124460E+03  0.96295124461E+03  0.25500000920E-02 0.  1.
    10030    2    1    2    0    0  0.00000000000E+00  0.00000000000E+00  0.13913557848E+04  0.33172582740E+04  0.30113670544E+04 0.  0.
        3    1    3    3  502    0 -0.80497360660E+03  0.50512153213E+03 -0.59083822371E+03  0.11190264011E+04  0.10100000352E+00 0.  1.
       -3    1    3    3    0  502  0.80497360660E+03 -0.50512153213E+03  0.19821940085E+04  0.21982318729E+04  0.10100000352E+00 0. -1.
</event>
<event>
 5   0  0.5931588E-07  0.2998245E+04  0.7818609E-02  0.8244232E-01
       -1   -1    0    0    0  501  0.00000000000E+00  0.00000000000E+00  0.14358885556E+04  0.14358885556E+04  0.50400001928E-02 0. -1.
        1   -1    0    0  501    0  0.00000000000E+00  0.00000000000E+00 -0.15651409083E+04  0.15651409083E+04  0.50400001928E-02 0.  1.
    10030    2    1    2    0    0  0.00000000000E+00  0.00000000000E+00 -0.12925235274E+03  0.30010294639E+04  0.29982447653E+04 0.  0.
        2    1    3    3  502    0  0.23305934469E+03 -0.54140715486E+03 -0.14442857034E+04  0.15599357546E+04  0.25500000920E-02 0.  1.
       -2    1    3    3    0  502 -0.23305934469E+03  0.54140715486E+03  0.13150333507E+04  0.14410937093E+04  0.25500000920E-02 0. -1.
</event>
<event>
 5   0  0.5916703E-07  0.3004976E+04  0.7818609E-02  0.8242311E-01
        1   -1    0    0  501    0  0.00000000000E+00  0.00000000000E+00  0.17067464231E+04  0.17067464231E+04  0.50400001928E-02 0. -1.
       -1   -1    0    0    0  501  0.00000000000E+00  0.00000000000E+00 -0.13226745809E+04  0.13226745809E+04  0.50400001928E-02 0.  1.
    10030    2    1    2    0    0  0.00000000000E+00  0.00000000000E+00  0.38407184216E+03  0.30294210040E+04  0.30049759466E+04 0.  0.
        5    1    3    3  502    0 -0.28212813305E+03 -0.56854020780E+03 -0.11808845226E+04  0.13406508110E+04  0.46999998093E+01 0.  1.
       -5    1    3    3    0  502  0.28212813305E+03  0.56854020780E+03  0.15649563647E+04  0.16887701930E+04  0.46999998093E+01 0. -1.
</event>
<event>
 5   0  0.1674806E-06  0.2983769E+04  0.7818609E-02  0.8248381E-01
       -2   -1    0    0    0  501  0.00000000000E+00  0.00000000000E+00  0.14422494445E+04  0.14422494445E+04  0.25500000920E-02 0.  1.
        2   -1    0    0  501    0  0.00000000000E+00  0.00000000000E+00 -0.15432281634E+04  0.15432281634E+04  0.25500000920E-02 0. -1.
    10030    2    1    2    0    0  0.00000000000E+00  0.00000000000E+00 -0.10097871884E+03  0.29854776079E+04  0.29837694022E+04 0.  0.
        2    1    3    3  502    0 -0.30007674816E+03 -0.87093805969E+03 -0.12246776230E+04  0.15324537314E+04  0.25500000920E-02 0. -1.
       -2    1    3    3    0  502  0.30007674816E+03  0.87093805969E+03  0.11236989041E+04  0.14530238765E+04  0.25500000920E-02 0.  1.
</event>
<event>
 5   0  0.1723916E-06  0.3128220E+04  0.7818609E-02  0.8208036E-01
       -2   -1    0    0    0  501  0.00000000000E+00  0.00000000000E+00  0.11437956261E+04  0.11437956261E+04  0.25500000920E-02 0.  1.
        2   -1    0    0  501    0  0.00000000000E+00  0.00000000000E+00 -0.21388790221E+04  0.21388790221E+04  0.25500000920E-02 0. -1.
    10030    2    1    2    0    0  0.00000000000E+00  0.00000000000E+00 -0.99508339605E+03  0.32826746482E+04  0.31282202418E+04 0.  0.
        1    1    3    3  502    0 -0.12280739021E+04  0.68815096984E+03  0.21782331853E+03  0.14244873690E+04  0.50400001928E-02 0.  1.
       -1    1    3    3    0  502  0.12280739021E+04 -0.68815096984E+03 -0.12129067146E+04  0.18581872792E+04  0.50400001928E-02 0. -1.
</event>
<event>
 5   0  0.5931588E-07  0.2972761E+04  0.7818609E-02  0.8251552E-01
       -1   -1    0    0    0  501  0.00000000000E+00  0.00000000000E+00  0.10986652931E+04  0.10986652931E+04  0.50400001928E-02 0.  1.
        1   -1    0    0  501    0  0.00000000000E+00  0.00000000000E+00 -0.20109184249E+04  0.20109184250E+04  0.50400001928E-02 0. -1.
    10030    2    1    2    0    0  0.00000000000E+00  0.00000000000E+00 -0.91225313182E+03  0.31095837181E+04  0.29727605224E+04 0.  0.
        2    1    3    3  502    0  0.46803958057E+03  0.10733888604E+04  0.50148781615E+03  0.12738582042E+04  0.25500000920E-02 0.  1.
       -2    1    3    3    0  502 -0.46803958057E+03 -0.10733888604E+04 -0.14137409480E+04  0.18357255139E+04  0.25500000920E-02 0. -1.
</event>
<event>
 5   0  0.5887179E-07  0.2996236E+04  0.7818609E-02  0.8244807E-01
        1   -1    0    0  501    0  0.00000000000E+00  0.00000000000E+00  0.13229066715E+04  0.13229066715E+04  0.50400001928E-02 0.  1.
       -1   -1    0    0    0  501  0.00000000000E+00  0.00000000000E+00 -0.16965349976E+04  0.16965349976E+04  0.50400001928E-02 0. -1.
    10030    2    1    2    0    0  0.00000000000E+00  0.00000000000E+00 -0.37362832613E+03  0.30194416691E+04  0.29962359498E+04 0.  0.
        3    1    3    3  502    0  0.55038221176E+03 -0.13784606561E+04  0.17941899575E+02  0.14843841421E+04  0.10100000352E+00 0.  1.
       -3    1    3    3    0  502 -0.55038221176E+03  0.13784606561E+04 -0.39157022571E+03  0.15350575270E+04  0.10100000352E+00 0. -1.
</event>
<event>
 5   0  0.1674806E-06  0.2993148E+04  0.7818609E-02  0.8245690E-01
        2   -1    0    0  501    0  0.00000000000E+00  0.00000000000E+00  0.17683549039E+04  0.17683549039E+04  0.25500000920E-02 0. -1.
       -2   -1    0    0    0  501  0.00000000000E+00  0.00000000000E+00 -0.12665630988E+04  0.12665630988E+04  0.25500000920E-02 0.  1.
    10030    2    1    2    0    0  0.00000000000E+00  0.00000000000E+00  0.50179180512E+03  0.30349180027E+04  0.29931475519E+04 0.  0.
        2    1    3    3  502    0  0.48779206020E+03  0.79437271244E+03  0.14380310820E+04  0.17137393305E+04  0.25500000920E-02 0. -1.
       -2    1    3    3    0  502 -0.48779206020E+03 -0.79437271244E+03 -0.93623927688E+03  0.13211786722E+04  0.25500000920E-02 0.  1.
</event>
<event>
 5   0  0.6291798E-07  0.2987810E+04  0.7818609E-02  0.8247220E-01
        1   -1    0    0  501    0  0.00000000000E+00  0.00000000000E+00  0.10646377909E+04  0.10646377909E+04  0.50400001928E-02 0.  1.
       -1   -1    0    0    0  501  0.00000000000E+00  0.00000000000E+00 -0.20962552992E+04  0.20962552992E+04  0.50400001928E-02 0. -1.
    10030    2    1    2    0    0  0.00000000000E+00  0.00000000000E+00 -0.10316175083E+04  0.31608930901E+04  0.29878103092E+04 0.  0.
        1    1    3    3  502    0 -0.36710141874E+03 -0.74462562768E+03 -0.18297394107E+04  0.20092727759E+04  0.50400001928E-02 0. -1.
       -1    1    3    3    0  502  0.36710141874E+03  0.74462562768E+03  0.79812190236E+03  0.11516203142E+04  0.50400001928E-02 0.  1.
</event>
<event>
 5   0  0.6291798E-07  0.2991968E+04  0.7818609E-02  0.8246028E-01
        1   -1    0    0  501    0  0.00000000000E+00  0.00000000000E+00  0.13615607875E+04  0.13615607875E+04  0.50400001928E-02 0.  1.
       -1   -1    0    0    0  501  0.00000000000E+00  0.00000000000E+00 -0.16436779937E+04  0.16436779937E+04  0.50400001928E-02 0. -1.
    10030    2    1    2    0    0  0.00000000000E+00  0.00000000000E+00 -0.28211720622E+03  0.30052387813E+04  0.29919675824E+04 0.  0.
        1    1    3    3  502    0 -0.10646520868E+03 -0.79562347764E+03 -0.14090430721E+04  0.16216516080E+04  0.50400001928E-02 0. -1.
       -1    1    3    3    0  502  0.10646520868E+03  0.79562347764E+03  0.11269258658E+04  0.13835871732E+04  0.50400001928E-02 0.  1.
</event>
<event>
 5   0  0.5931588E-07  0.2989801E+04  0.7818609E-02  0.8246649E-01
        1   -1    0    0  501    0  0.00000000000E+00  0.00000000000E+00  0.12234510620E+04  0.12234510620E+04  0.50400001928E-02 0.  1.
       -1   -1    0    0    0  501  0.00000000000E+00  0.00000000000E+00 -0.18265775163E+04  0.18265775163E+04  0.50400001928E-02 0. -1.
    10030    2    1    2    0    0  0.00000000000E+00  0.00000000000E+00 -0.60312645431E+03  0.30500285783E+04  0.29898014664E+04 0.  0.
        2    1    3    3  502    0  0.12083428756E+04  0.77783096341E+03 -0.72170250903E+03  0.16080945321E+04  0.25500000920E-02 0. -1.
       -2    1    3    3    0  502 -0.12083428756E+04 -0.77783096341E+03  0.11857605472E+03  0.14419340462E+04  0.25500000920E-02 0.  1.
</event>
<event>
 5   0  0.1625212E-06  0.3002464E+04  0.7818609E-02  0.8243027E-01
        2   -1    0    0  501    0  0.00000000000E+00  0.00000000000E+00  0.16583137946E+04  0.16583137946E+04  0.25500000920E-02 0.  1.
       -2   -1    0    0    0  501  0.00000000000E+00  0.00000000000E+00 -0.13590300094E+04  0.13590300094E+04  0.25500000920E-02 0. -1.
    10030    2    1    2    0    0  0.00000000000E+00  0.00000000000E+00  0.29928378518E+03  0.30173438040E+04  0.30024644623E+04 0.  0.
        4    1    3    3  502    0 -0.13321743171E+04 -0.36645617944E+03  0.73967847401E+03  0.15671963503E+04  0.12699999809E+01 0.  1.
       -4    1    3    3    0  502  0.13321743171E+04  0.36645617944E+03 -0.44039468884E+03  0.14501474537E+04  0.12699999809E+01 0. -1.
</event>
<event>
 5   0  0.1560174E-06  0.2997895E+04  0.7818609E-02  0.8244332E-01
        2   -1    0    0  501    0  0.00000000000E+00  0.00000000000E+00  0.21247672648E+04  0.21247672648E+04  0.25500000920E-02 0.  1.
       -2   -1    0    0    0  501  0.00000000000E+00  0.00000000000E+00 -0.10574542172E+04  0.10574542172E+04  0.25500000920E-02 0. -1.
    10030    2    1    2    0    0  0.00000000000E+00  0.00000000000E+00  0.10673130476E+04  0.31822214820E+04  0.29978953315E+04 0.  0.
        5    1    3    3  502    0  0.36187705875E+03 -0.35584517473E+03  0.20307801442E+04  0.20932441038E+04  0.46999998093E+01 0.  1.
       -5    1    3    3    0  502 -0.36187705875E+03  0.35584517473E+03 -0.96346709658E+03  0.10889773782E+04  0.46999998093E+01 0. -1.
</event>
<event>
 5   0  0.1625212E-06  0.3029484E+04  0.7818609E-02  0.8235361E-01
        2   -1    0    0  501    0  0.00000000000E+00  0.00000000000E+00  0.12638978226E+04  0.12638978226E+04  0.25500000920E-02 0.  1.
       -2   -1    0    0    0  501  0.00000000000E+00  0.00000000000E+00 -0.18153713557E+04  0.18153713557E+04  0.25500000920E-02 0. -1.
    10030    2    1    2    0    0  0.00000000000E+00  0.00000000000E+00 -0.55147353311E+03  0.30792691784E+04  0.30294843811E+04 0.  0.
        4    1    3    3  502    0  0.28919203488E+03  0.14329038869E+04 -0.67924510068E+03  0.16118998423E+04  0.12699999809E+01 0. -1.
       -4    1    3    3    0  502 -0.28919203488E+03 -0.14329038869E+04  0.12777156757E+03  0.14673693360E+04  0.12699999809E+01 0.  1.
</event>
<event>
 5   0  0.1723916E-06  0.2996199E+04  0.7818609E-02  0.8244817E-01
        2   -1    0    0  501    0  0.00000000000E+00  0.00000000000E+00  0.72955760964E+03  0.72955760964E+03  0.25500000920E-02 0.  1.
       -2   -1    0    0    0  501  0.00000000000E+00  0.00000000000E+00 -0.30762500741E+04  0.30762500741E+04  0.25500000920E-02 0. -1.
    10030    2    1    2    0    0  0.00000000000E+00  0.00000000000E+00 -0.23466924645E+04  0.38058076837E+04  0.29961986922E+04 0.  0.
        1    1    3    3  502    0  0.12783138080E+04 -0.52473999287E+03 -0.43830776301E+03  0.14496730483E+04  0.50400001928E-02 0.  1.
       -1    1    3    3    0  502 -0.12783138080E+04  0.52473999287E+03 -0.19083847015E+04  0.23561346355E+04  0.50400001928E-02 0. -1.
</event>
<event>
 5   0  0.1560174E-06  0.3002883E+04  0.7818609E-02  0.8242908E-01
        2   -1    0    0  501    0  0.00000000000E+00  0.00000000000E+00  0.94160426515E+03  0.94160426515E+03  0.25500000920E-02 0. -1.
       -2   -1    0    0    0  501  0.00000000000E+00  0.00000000000E+00 -0.23941341235E+04  0.23941341235E+04  0.25500000920E-02 0.  1.
    10030    2    1    2    0    0  0.00000000000E+00  0.00000000000E+00 -0.14525298584E+04  0.33357383887E+04  0.30028832159E+04 0.  0.
        5    1    3    3  502    0  0.93161724359E+03 -0.93088710995E+03 -0.15271860952E+04  0.20166261328E+04  0.46999998093E+01 0.  1.
       -5    1    3    3    0  502 -0.93161724359E+03  0.93088710995E+03  0.74656236804E+02  0.13191122559E+04  0.46999998093E+01 0. -1.
</event>
<event>
 5   0  0.1635086E-06  0.3005531E+04  0.7818609E-02  0.8242153E-01
       -2   -1    0    0    0  501  0.00000000000E+00  0.00000000000E+00  0.77401592652E+03  0.77401592653E+03  0.25500000920E-02 0.  1.
        2   -1    0    0  501    0  0.00000000000E+00  0.00000000000E+00 -0.29176449475E+04  0.29176449475E+04  0.25500000920E-02 0. -1.
    10030    2    1    2    0    0  0.00000000000E+00  0.00000000000E+00 -0.21436290210E+04  0.36916608740E+04  0.30055306735E+04 0.  0.
        3    1    3    3  502    0 -0.18892024771E+03 -0.19418876906E+03  0.74377123857E+03  0.79157804641E+03  0.10100000352E+00 0.  1.
       -3    1    3    3    0  502  0.18892024771E+03  0.19418876906E+03 -0.28874002596E+04  0.29000828276E+04  0.10100000352E+00 0. -1.
</event>
<event>
 5   0  0.1625212E-06  0.3012728E+04  0.7818609E-02  0.8240106E-01
        2   -1    0    0  501    0  0.00000000000E+00  0.00000000000E+00  0.15836948451E+04  0.15836948451E+04  0.25500000920E-02 0.  1.
       -2   -1    0    0    0  501  0.00000000000E+00  0.00000000000E+00 -0.14328094152E+04  0.14328094152E+04  0.25500000920E-02 0. -1.
    10030    2    1    2    0    0  0.00000000000E+00  0.00000000000E+00  0.15088542989E+03  0.30165042603E+04  0.30127282551E+04 0.  0.
        4    1    3    3  502    0  0.92059244953E+03 -0.11880032078E+04 -0.26120074368E+02  0.15031719632E+04  0.12699999809E+01 0.  1.
       -4    1    3    3    0  502 -0.92059244953E+03  0.11880032078E+04  0.17700550426E+03  0.15133322971E+04  0.12699999809E+01 0. -1.
</event>
<event>
 5   0  0.5887179E-07  0.2980092E+04  0.7818609E-02  0.8249439E-01
       -1   -1    0    0    0  501  0.00000000000E+00  0.00000000000E+00  0.99652827173E+03  0.99652827174E+03  0.50400001928E-02 0.  1.
        1   -1    0    0  501    0  0.00000000000E+00  0.00000000000E+00 -0.22279714779E+04  0.22279714779E+04  0.50400001928E-02 0. -1.
    10030    2    1    2    0    0  0.00000000000E+00  0.00000000000E+00 -0.12314432061E+04  0.32244997496E+04  0.29800916538E+04 0.  0.
        3    1    3    3  502    0  0.10629618925E+04 -0.10149779687E+04 -0.88113117160E+03  0.17136103448E+04  0.10100000352E+00 0. -1.
       -3    1    3    3    0  502 -0.10629618925E+04  0.10149779687E+04 -0.35031203453E+03  0.15108894048E+04  0.10100000352E+00 0.  1.
</event>
<event>
 5   0  0.5931588E-07  0.2994727E+04  0.7818609E-02  0.8245238E-01
        1   -1    0    0  501    0  0.00000000000E+00  0.00000000000E+00  0.23310099806E+04  0.23310099806E+04  0.50400001928E-02 0.  1.
       -1   -1    0    0    0  501  0.00000000000E+00  0.00000000000E+00 -0.96185640582E+03  0.96185640583E+03  0.50400001928E-02 0. -1.
    10030    2    1    2    0    0  0.00000000000E+00  0.00000000000E+00  0.13691535748E+04  0.32928663864E+04  0.29947266198E+04 0.  0.
        2    1    3    3  502    0 -0.11950422274E+04  0.85406298248E+03  0.10042947221E+04  0.17793699425E+04  0.25500000920E-02 0.  1.
       -2    1    3    3    0  502  0.11950422274E+04 -0.85406298248E+03  0.36485885262E+03  0.15134964439E+04  0.25500000920E-02 0. -1.
</event>
<event>
 5   0  0.5916703E-07  0.3000205E+04  0.7818609E-02  0.8243672E-01
       -1   -1    0    0    0  501  0.00000000000E+00  0.00000000000E+00  0.67494731158E+03  0.67494731160E+03  0.50400001928E-02 0. -1.
        1   -1    0    0  501    0  0.00000000000E+00  0.00000000000E+00 -0.33340493694E+04  0.33340493694E+04  0.50400001928E-02 0.  1.
    10030    2    1    2    0    0  0.00000000000E+00  0.00000000000E+00 -0.26591020578E+04  0.40089966810E+04  0.30002050987E+04 0.  0.
        5    1    3    3  502    0 -0.96877383879E+03 -0.60197433042E+03 -0.26315391297E+04  0.28680857948E+04  0.46999998093E+01 0.  1.
       -5    1    3    3    0  502  0.96877383879E+03  0.60197433042E+03 -0.27562928101E+02  0.11409108862E+04  0.46999998093E+01 0. -1.
</event>
<event>
 5   0  0.1625212E-06  0.2991960E+04  0.7818609E-02  0.8246030E-01
       -2   -1    0    0    0  501  0.00000000000E+00  0.00000000000E+00  0.14189463359E+04  0.14189463359E+04  0.25500000920E-02 0. -1.
        2   -1    0    0  501    0  0.00000000000E+00  0.00000000000E+00 -0.15771961444E+04  0.15771961444E+04  0.25500000920E-02 0.  1.
    10030    2    1    2    0    0  0.00000000000E+00  0.00000000000E+00 -0.15824980842E+03  0.29961424803E+04  0.29919603541E+04 0.  0.
        4    1    3    3  502    0  0.40467242982E+03 -0.98555506640E+03  0.97252230029E+03  0.14425254943E+04  0.12699999809E+01 0.  1.
       -4    1    3    3    0  502 -0.40467242982E+03  0.98555506640E+03 -0.11307721087E+04  0.15536169860E+04  0.12699999809E+01 0. -1.
</event>
<event>
 5   0  0.6291798E-07  0.3067095E+04  0.7818609E-02  0.8224827E-01
       -1   -1    0    0    0  501  0.00000000000E+00  0.00000000000E+00  0.10141179957E+04  0.10141179957E+04  0.50400001928E-02 0.  1.
        1   -1    0    0  501    0  0.00000000000E+00  0.00000000000E+00 -0.23190277864E+04  0.23190277864E+04  0.50400001928E-02 0. -1.
    10030    2    1    2    0    0  0.00000000000E+00  0.00000000000E+00 -0.13049097907E+04  0.33331457821E+04  0.30670949191E+04 0.  0.
        1    1    3    3  502    0  0.62704724936E+03 -0.91865527132E+03  0.49489730246E+03  0.12173902827E+04  0.50400001928E-02 0.  1.
       -1    1    3    3    0  502 -0.62704724936E+03  0.91865527132E+03 -0.17998070931E+04  0.21157554993E+04  0.50400001928E-02 0. -1.
</event>
<event>
 5   0  0.5916703E-07  0.2993008E+04  0.7818609E-02  0.8245730E-01
        1   -1    0    0  501    0  0.00000000000E+00  0.00000000000E+00  0.15090891407E+04  0.15090891407E+04  0.50400001928E-02 0. -1.
       -1   -1    0    0    0  501  0.00000000000E+00  0.00000000000E+00 -0.14840234465E+04  0.14840234465E+04  0.50400001928E-02 0.  1.
    10030    2    1    2    0    0  0.00000000000E+00  0.00000000000E+00  0.25065694136E+02  0.29931125872E+04  0.29930076296E+04 0.  0.
        5    1    3    3  502    0 -0.21507386869E+03  0.55892970172E+03  0.13840190165E+04  0.15080417462E+04  0.46999998093E+01 0. -1.
       -5    1    3    3    0  502  0.21507386869E+03 -0.55892970172E+03 -0.13589533223E+04  0.14850708410E+04  0.46999998093E+01 0.  1.
</event>
<event>
 5   0  0.6291798E-07  0.2999441E+04  0.7818609E-02  0.8243890E-01
       -1   -1    0    0    0  501  0.00000000000E+00  0.00000000000E+00  0.13683465681E+04  0.13683465681E+04  0.50400001928E-02 0. -1.
        1   -1    0    0  501    0  0.00000000000E+00  0.00000000000E+00 -0.16437079386E+04  0.16437079386E+04  0.50400001928E-02 0.  1.
    10030    2    1    2    0    0  0.00000000000E+00  0.00000000000E+00 -0.27536137046E+03  0.30120545067E+04  0.29994413591E+04 0.  0.
        1    1    3    3  502    0  0.11613650280E+03  0.93783078648E+03 -0.13071153688E+04  0.16129367188E+04  0.50400001928E-02 0.  1.
       -1    1    3    3    0  502 -0.11613650280E+03 -0.93783078648E+03  0.10317539983E+04  0.13991177879E+04  0.50400001928E-02 0. -1.
</event>
<event>
 5   0  0.5931588E-07  0.3001980E+04  0.7818609E-02  0.8243166E-01
        1   -1    0    0  501    0  0.00000000000E+00  0.00000000000E+00  0.12184556496E+04  0.12184556496E+04  0.50400001928E-02 0. -1.
       -1   -1    0    0    0  501  0.00000000000E+00  0.00000000000E+00 -0.18490381485E+04  0.18490381485E+04  0.50400001928E-02 0.  1.
    10030    2    1    2    0    0  0.00000000000E+00  0.00000000000E+00 -0.63058249892E+03  0.30674937980E+04  0.30019799988E+04 0.  0.
        2    1    3    3  502    0  0.22851066827E+03  0.17443566363E+03 -0.18206443824E+04  0.18432012624E+04  0.25500000920E-02 0.  1.
       -2    1    3    3    0  502 -0.22851066827E+03 -0.17443566363E+03  0.11900618835E+04  0.12242925357E+04  0.25500000920E-02 0. -1.
</event>
<event>
 5   0  0.1560174E-06  0.2994883E+04  0.7818609E-02  0.8245194E-01
        2   -1    0    0  501    0  0.00000000000E+00  0.00000000000E+00  0.18503634127E+04  0.18503634127E+04  0.25500000920E-02 0.  1.
       -2   -1    0    0    0  501  0.00000000000E+00  0.00000000000E+00 -0.12118326517E+04  0.12118326517E+04  0.25500000920E-02 0. -1.
    10030    2    1    2    0    0  0.00000000000E+00  0.00000000000E+00  0.63853076103E+03  0.30621960644E+04  0.29948828365E+04 0.  0.
        5    1    3    3  502    0 -0.43045493647E+03  0.78887242739E+03 -0.90544482185E+03  0.12757208058E+04  0.46999998093E+01 0. -1.
       -5    1    3    3    0  502  0.43045493647E+03 -0.78887242739E+03  0.15439755829E+04  0.17864752586E+04  0.46999998093E+01 0.  1.
</event>
<event>
 5   0  0.1625212E-06  0.2989849E+04  0.7818609E-02  0.8246635E-01
       -2   -1    0    0    0  501  0.00000000000E+00  0.00000000000E+00  0.13910103296E+04  0.13910103296E+04  0.25500000920E-02 0.  1.
        2   -1    0    0  501    0  0.00000000000E+00  0.00000000000E+00 -0.16066017997E+04  0.16066017997E+04  0.25500000920E-02 0. -1.
    10030    2    1    2    0    0  0.00000000000E+00  0.00000000000E+00 -0.21559147017E+03  0.29976121293E+04  0.29898492931E+04 0.  0.
        4    1    3    3  502    0 -0.47106547643E+03  0.19599802985E+03 -0.15166060683E+04  0.16001292105E+04  0.12699999809E+01 0. -1.
       -4    1    3    3    0  502  0.47106547643E+03 -0.19599802985E+03  0.13010145982E+04  0.13974829188E+04  0.12699999809E+01 0.  1.
</event>
<event>
 5   0  0.5887179E-07  0.3003424E+04  0.7818609E-02  0.8242754E-01
       -1   -1    0    0    0  501  0.00000000000E+00  0.00000000000E+00  0.10846696859E+04  0.10846696859E+04  0.50400001928E-02 0.  1.
        1   -1    0    0  501    0  0.00000000000E+00  0.00000000000E+00 -0.20791018914E+04  0.20791018914E+04  0.50400001928E-02 0. -1.
    10030    2    1    2    0    0  0.00000000000E+00  0.00000000000E+00 -0.99443220556E+03  0.31637715773E+04  0.30034239098E+04 0.  0.
        3    1    3    3  502    0 -0.10420539722E+03  0.49134849144E+02  0.10800075850E+04  0.10861350708E+04  0.10100000352E+00 0.  1.
       -3    1    3    3    0  502  0.10420539722E+03 -0.49134849144E+02 -0.20744397906E+04  0.20776365065E+04  0.10100000352E+00 0. -1.
</event>
<event>
 5   0  0.5931588E-07  0.2996150E+04  0.7818609E-02  0.8244831E-01
       -1   -1    0    0    0  501  0.00000000000E+00  0.00000000000E+00  0.95154295534E+03  0.95154295536E+03  0.50400001928E-02 0. -1.
        1   -1    0    0  501    0  0.00000000000E+00  0.00000000000E+00 -0.23585158485E+04  0.23585158485E+04  0.50400001928E-02 0.  1.
    10030    2    1    2    0    0  0.00000000000E+00  0.00000000000E+00 -0.14069728931E+04  0.33100588038E+04  0.29961502904E+04 0.  0.
        2    1    3    3  502    0  0.88800305209E+03 -0.10999698873E+04 -0.15582103346E+03  0.14222388576E+04  0.25500000920E-02 0. -1.
       -2    1    3    3    0  502 -0.88800305209E+03  0.10999698873E+04 -0.12511518596E+04  0.18878199462E+04  0.25500000920E-02 0.  1.
</event>
<event>
 5   0  0.1625212E-06  0.3052393E+04  0.7818609E-02  0.8228926E-01
        2   -1    0    0  501    0  0.00000000000E+00  0.00000000000E+00  0.13491794849E+04  0.13491794849E+04  0.25500000920E-02 0.  1.
       -2   -1    0    0    0  501  0.00000000000E+00  0.00000000000E+00 -0.17264392705E+04  0.17264392705E+04  0.25500000920E-02 0. -1.
    10030    2    1    2    0    0  0.00000000000E+00  0.00000000000E+00 -0.37725978559E+03  0.30756187555E+04  0.30523934516E+04 0.  0.
        4    1    3    3  502    0 -0.16777990524E+03  0.14300635613E+04  0.32122711873E+03  0.14752695891E+04  0.12699999809E+01 0.  1.
       -4    1    3    3    0  502  0.16777990524E+03 -0.14300635613E+04 -0.69848690433E+03  0.16003491664E+04  0.12699999809E+01 0. -1.
</event>
<event>
 5   0  0.6291798E-07  0.2994095E+04  0.7818609E-02  0.8245419E-01
       -1   -1    0    0    0  501  0.00000000000E+00  0.00000000000E+00  0.12412202290E+04  0.12412202291E+04  0.50400001928E-02 0. -1.
        1   -1    0    0  501    0  0.00000000000E+00  0.00000000000E+00 -0.18056033053E+04  0.18056033053E+04  0.50400001928E-02 0.  1.
    10030    2    1    2    0    0  0.00000000000E+00  0.00000000000E+00 -0.56438307626E+03  0.30468235344E+04  0.29940950875E+04 0.  0.
        1    1    3    3  502    0  0.14040529958E+04  0.50770465468E+03 -0.17061332348E+03  0.15027434038E+04  0.50400001928E-02 0. -1.
       -1    1    3    3    0  502 -0.14040529958E+04 -0.50770465468E+03 -0.39376975278E+03  0.15440801306E+04  0.50400001928E-02 0.  1.
</event>
<event>
 5   0  0.1723916E-06  0.3008968E+04  0.7818609E-02  0.8241175E-01
        2   -1    0    0  501    0  0.00000000000E+00  0.00000000000E+00  0.17566012074E+04  0.17566012074E+04  0.25500000920E-02 0. -1.
       -2   -1    0    0    0  501  0.00000000000E+00  0.00000000000E+00 -0.12885519393E+04  0.12885519393E+04  0.25500000920E-02 0.  1.
    10030    2    1    2    0    0  0.00000000000E+00  0.00000000000E+00  0.46804926805E+03  0.30451531467E+04  0.30089678578E+04 0.  0.
        1    1    3    3  502    0 -0.60697274437E+03  0.12532430182E+04 -0.34241972398E+03  0.14339753284E+04  0.50400001928E-02 0.  1.
       -1    1    3    3    0  502  0.60697274437E+03 -0.12532430182E+04  0.81046899203E+03  0.16111778183E+04  0.50400001928E-02 0. -1.
</event>
<event>
 5   0  0.6291798E-07  0.3000348E+04  0.7818609E-02  0.8243632E-01
       -1   -1    0    0    0  501  0.00000000000E+00  0.00000000000E+00  0.82748127317E+03  0.82748127319E+03  0.50400001928E-02 0. -1.
        1   -1    0    0  501    0  0.00000000000E+00  0.00000000000E+00 -0.27197256522E+04  0.27197256522E+04  0.50400001928E-02 0.  1.
    10030    2    1    2    0    0  0.00000000000E+00  0.00000000000E+00 -0.18922443790E+04  0.35472069254E+04  0.30003480101E+04 0.  0.
        1    1    3    3  502    0 -0.14814116775E+04 -0.15341704083E+03 -0.73329902966E+03  0.16600737374E+04  0.50400001928E-02 0.  1.
       -1    1    3    3    0  502  0.14814116775E+04  0.15341704083E+03 -0.11589453494E+04  0.18871331880E+04  0.50400001928E-02 0. -1.
</event>
<event>
 5   0  0.6291798E-07  0.2990297E+04  0.7818609E-02  0.8246507E-01
        1   -1    0    0  501    0  0.00000000000E+00  0.00000000000E+00  0.14373717584E+04  0.14373717584E+04  0.50400001928E-02 0. -1.
       -1   -1    0    0    0  501  0.00000000000E+00  0.00000000000E+00 -0.15552481431E+04  0.15552481431E+04  0.50400001928E-02 0.  1.
    10030    2    1    2    0    0  0.00000000000E+00  0.00000000000E+00 -0.11787638469E+03  0.29926199016E+04  0.29902974824E+04 0.  0.
        1    1    3    3  502    0  0.59238470941E+02  0.94227857430E+03  0.11013032531E+04  0.14506091697E+04  0.50400001928E-02 0. -1.
       -1    1    3    3    0  502 -0.59238470941E+02 -0.94227857430E+03 -0.12191796377E+04  0.15420107319E+04  0.50400001928E-02 0.  1.
</event>
<event>
 5   0  0.1635086E-06  0.3001319E+04  0.7818609E-02  0.8243354E-01
       -2   -1    0    0    0  501  0.00000000000E+00  0.00000000000E+00  0.14683466733E+04  0.14683466733E+04  0.25500000920E-02 0. -1.
        2   -1    0    0  501    0  0.00000000000E+00  0.00000000000E+00 -0.15336837811E+04  0.15336837811E+04  0.25500000920E-02 0.  1.
    10030    2    1    2    0    0  0.00000000000E+00  0.00000000000E+00 -0.65337107827E+02  0.30020304544E+04  0.30013193617E+04 0.  0.
        3    1    3    3  502    0 -0.98423368999E+03 -0.10757423296E+04  0.32243943509E+03  0.14932865484E+04  0.10100000352E+00 0. -1.
       -3    1    3    3    0  502  0.98423368999E+03  0.10757423296E+04 -0.38777654292E+03  0.15087439059E+04  0.10100000352E+00 0.  1.
</event>
<event>
 5   0  0.5916703E-07  0.3004688E+04  0.7818609E-02  0.8242393E-01
       -1   -1    0    0    0  501  0.00000000000E+00  0.00000000000E+00  0.84801923365E+03  0.84801923366E+03  0.50400001928E-02 0. -1.
        1   -1    0    0  501    0  0.00000000000E+00  0.00000000000E+00 -0.26615412612E+04  0.26615412612E+04  0.50400001928E-02 0.  1.
    10030    2    1    2    0    0  0.00000000000E+00  0.00000000000E+00 -0.18135220276E+04  0.35095604949E+04  0.30046884569E+04 0.  0.
        5    1    3    3  502    0  0.87024634494E+02  0.13309704918E+04 -0.99248574366E+02  0.13375081706E+04  0.46999998093E+01 0. -1.
       -5    1    3    3    0  502 -0.87024634494E+02 -0.13309704918E+04 -0.17142734532E+04  0.21720523243E+04  0.46999998093E+01 0.  1.
</event>
<event>
 5   0  0.1635086E-06  0.2999178E+04  0.7818609E-02  0.8243966E-01
       -2   -1    0    0    0  501  0.00000000000E+00  0.00000000000E+00  0.28558004836E+04  0.28558004836E+04  0.25500000920E-02 0.  1.
        2   -1    0    0  501    0  0.00000000000E+00  0.00000000000E+00 -0.78743869433E+03  0.78743869434E+03  0.25500000920E-02 0. -1.
    10030    2    1    2    0    0  0.00000000000E+00  0.00000000000E+00  0.20683617892E+04  0.36432391779E+04  0.29991784235E+04 0.  0.
        3    1    3    3  502    0 -0.89415197624E+03  0.22198254715E+03 -0.40311731109E+03  0.10056279553E+04  0.10100000352E+00 0. -1.
       -3    1    3    3    0  502  0.89415197624E+03 -0.22198254715E+03  0.24714791003E+04  0.26376112226E+04  0.10100000352E+00 0.  1.
</event>
<event>
 5   0  0.1625212E-06  0.3006045E+04  0.7818609E-02  0.8242007E-01
       -2   -1    0    0    0  501  0.00000000000E+00  0.00000000000E+00  0.19050615747E+04  0.19050615747E+04  0.25500000920E-02 0. -1.
        2   -1    0    0  501    0  0.00000000000E+00  0.00000000000E+00 -0.11858288011E+04  0.11858288011E+04  0.25500000920E-02 0.  1.
    10030    2    1    2    0    0  0.00000000000E+00  0.00000000000E+00  0.71923277356E+03  0.30908903758E+04  0.30060451648E+04 0.  0.
        4    1    3    3  502    0 -0.11368821924E+04 -0.98296401344E+03  0.34021862778E+03  0.15409314387E+04  0.12699999809E+01 0. -1.
       -4    1    3    3    0  502  0.11368821924E+04  0.98296401344E+03  0.37901414577E+03  0.15499589371E+04  0.12699999809E+01 0.  1.
</event>
<event>
 5   0  0.1635086E-06  0.2999663E+04  0.7818609E-02  0.8243827E-01
       -2   -1    0    0    0  501  0.00000000000E+00  0.00000000000E+00  0.11876276628E+04  0.11876276628E+04  0.25500000920E-02 0. -1.
        2   -1    0    0  501    0  0.00000000000E+00  0.00000000000E+00 -0.18941079951E+04  0.18941079951E+04  0.25500000920E-02 0.  1.
    10030    2    1    2    0    0  0.00000000000E+00  0.00000000000E+00 -0.70648033234E+03  0.30817356579E+04  0.29996633486E+04 0.  0.
        3    1    3    3  502    0 -0.32202004484E+03  0.14577840938E+04 -0.20555850460E+03  0.15070121707E+04  0.10100000352E+00 0. -1.
       -3    1    3    3    0  502  0.32202004484E+03 -0.14577840938E+04 -0.50092182774E+03  0.15747234872E+04  0.10100000352E+00 0.  1.
</event>
<event>
 5   0  0.1723916E-06  0.2994351E+04  0.7818609E-02  0.8245346E-01
        2   -1    0    0  501    0  0.00000000000E+00  0.00000000000E+00  0.10031698966E+04  0.10031698966E+04  0.25500000920E-02 0.  1.
       -2   -1    0    0    0  501  0.00000000000E+00  0.00000000000E+00 -0.22344513102E+04  0.22344513102E+04  0.25500000920E-02 0. -1.
    10030    2    1    2    0    0  0.00000000000E+00  0.00000000000E+00 -0.12312814136E+04  0.32376212069E+04  0.29943508745E+04 0.  0.
        1    1    3    3  502    0 -0.12178298292E+04  0.70169600369E+03 -0.57937745174E+02  0.14067137437E+04  0.50400001928E-02 0.  1.
       -1    1    3    3    0  502  0.12178298292E+04 -0.70169600369E+03 -0.11733436684E+04  0.18309074632E+04  0.50400001928E-02 0. -1.
</event>
<event>
 5   0  0.5931588E-07  0.3043746E+04  0.7818609E-02  0.8231348E-01
       -1   -1    0    0    0  501  0.00000000000E+00  0.00000000000E+00  0.15751250028E+04  0.15751250028E+04  0.50400001928E-02 0. -1.
        1   -1    0    0  501    0  0.00000000000E+00  0.00000000000E+00 -0.14704215287E+04  0.14704215287E+04  0.50400001928E-02 0.  1.
    10030    2    1    2    0    0  0.00000000000E+00  0.00000000000E+00  0.10470347410E+03  0.30455465315E+04  0.30437461882E+04 0.  0.
        2    1    3    3  502    0  0.33208802589E+03 -0.18121925150E+03  0.15273250193E+04  0.15734816773E+04  0.25500000920E-02 0. -1.
       -2    1    3    3    0  502 -0.33208802589E+03  0.18121925150E+03 -0.14226215452E+04  0.14720648542E+04  0.25500000920E-02 0.  1.
</event>
<event>
 5   0  0.5874741E-07  0.2982771E+04  0.7818609E-02  0.8248668E-01
       -1   -1    0    0    0  501  0.00000000000E+00  0.00000000000E+00  0.23636204190E+04  0.23636204190E+04  0.50400001928E-02 0. -1.
        1   -1    0    0  501    0  0.00000000000E+00  0.00000000000E+00 -0.94102694246E+03  0.94102694247E+03  0.50400001928E-02 0.  1.
    10030    2    1    2    0    0  0.00000000000E+00  0.00000000000E+00  0.14225934766E+04  0.33046473615E+04  0.29827708568E+04 0.  0.
        4    1    3    3  502    0 -0.86775537174E+03 -0.64095874088E+03 -0.42958433620E+03  0.11611941300E+04  0.12699999809E+01 0.  1.
       -4    1    3    3    0  502  0.86775537174E+03  0.64095874088E+03  0.18521778128E+04  0.21434532315E+04  0.12699999809E+01 0. -1.
</event>
<event>
 5   0  0.1560174E-06  0.3008029E+04  0.7818609E-02  0.8241442E-01
       -2   -1    0    0    0  501  0.00000000000E+00  0.00000000000E+00  0.82839254308E+03  0.82839254309E+03  0.25500000920E-02 0.  1.
        2   -1    0    0  501    0  0.00000000000E+00  0.00000000000E+00 -0.27306621407E+04  0.27306621407E+04  0.25500000920E-02 0. -1.
    10030    2    1    2    0    0  0.00000000000E+00  0.00000000000E+00 -0.19022695976E+04  0.35590546838E+04  0.30080293583E+04 0.  0.
        5    1    3    3  502    0  0.10346115601E+04  0.59517661591E+03 -0.20338502735E+04  0.23582250336E+04  0.46999998093E+01 0. -1.
       -5    1    3    3    0  502 -0.10346115601E+04 -0.59517661591E+03  0.13158067587E+03  0.12008296501E+04  0.46999998093E+01 0.  1.
</event>
<event>
 5   0  0.6291798E-07  0.3014903E+04  0.7818609E-02  0.8239488E-01
        1   -1    0    0  501    0  0.00000000000E+00  0.00000000000E+00  0.22555504803E+04  0.22555504803E+04  0.50400001928E-02 0. -1.
       -1   -1    0    0    0  501  0.00000000000E+00  0.00000000000E+00 -0.10074748090E+04  0.10074748090E+04  0.50400001928E-02 0.  1.
    10030    2    1    2    0    0  0.00000000000E+00  0.00000000000E+00  0.12480756714E+04  0.32630252893E+04  0.30149031754E+04 0.  0.
        1    1    3    3  502    0  0.28393045959E+03 -0.76087962151E+03 -0.75046254850E+03  0.11057795174E+04  0.50400001928E-02 0.  1.
       -1    1    3    3    0  502 -0.28393045959E+03  0.76087962151E+03  0.19985382199E+04  0.21572457719E+04  0.50400001928E-02 0. -1.
</event>
<event>
 5   0  0.5874741E-07  0.2991888E+04  0.7818609E-02  0.8246051E-01
        1   -1    0    0  501    0  0.00000000000E+00  0.00000000000E+00  0.26492770031E+04  0.26492770031E+04  0.50400001928E-02 0.  1.
       -1   -1    0    0    0  501  0.00000000000E+00  0.00000000000E+00 -0.84470149937E+03  0.84470149939E+03  0.50400001928E-02 0. -1.
    10030    2    1    2    0    0  0.00000000000E+00  0.00000000000E+00  0.18045755037E+04  0.34939785025E+04  0.29918878701E+04 0.  0.
        4    1    3    3  502    0 -0.21162180139E+03 -0.95685802962E+03  0.22222238821E+04  0.24287119366E+04  0.12699999809E+01 0.  1.
       -4    1    3    3    0  502  0.21162180139E+03  0.95685802962E+03 -0.41764837837E+03  0.10652665659E+04  0.12699999809E+01 0. -1.
</event>
<event>
 5   0  0.5916703E-07  0.3006112E+04  0.7818609E-02  0.8241988E-01
        1   -1    0    0  501    0  0.00000000000E+00  0.00000000000E+00  0.15469548151E+04  0.15469548151E+04  0.50400001928E-02 0.  1.
       -1   -1    0    0    0  501  0.00000000000E+00  0.00000000000E+00 -0.14604025975E+04  0.14604025976E+04  0.50400001928E-02 0. -1.
    10030    2    1    2    0    0  0.00000000000E+00  0.00000000000E+00  0.86552217556E+02  0.30073574127E+04  0.30061116615E+04 0.  0.
        5    1    3    3  502    0 -0.13598959465E+04  0.14889330752E+02 -0.59700166522E+03  0.14852514117E+04  0.46999998093E+01 0. -1.
       -5    1    3    3    0  502  0.13598959465E+04 -0.14889330752E+02  0.68355388278E+03  0.15221060010E+04  0.46999998093E+01 0.  1.
</event>
<event>
 5   0  0.1625212E-06  0.2966393E+04  0.7818609E-02  0.8253393E-01
       -2   -1    0    0    0  501  0.00000000000E+00  0.00000000000E+00  0.17952479136E+04  0.17952479136E+04  0.25500000920E-02 0.  1.
        2   -1    0    0  501    0  0.00000000000E+00  0.00000000000E+00 -0.12253862902E+04  0.12253862902E+04  0.25500000920E-02 0. -1.
    10030    2    1    2    0    0  0.00000000000E+00  0.00000000000E+00  0.56986162341E+03  0.30206342038E+04  0.29663932179E+04 0.  0.
        4    1    3    3  502    0  0.10975159587E+04 -0.70131985285E+03  0.10074683601E+04  0.16466283506E+04  0.12699999809E+01 0.  1.
       -4    1    3    3    0  502 -0.10975159587E+04  0.70131985285E+03 -0.43760673667E+03  0.13740058532E+04  0.12699999809E+01 0. -1.
</event>
<event>
 5   0  0.6291798E-07  0.3004880E+04  0.7818609E-02  0.8242339E-01
        1   -1    0    0  501    0  0.00000000000E+00  0.00000000000E+00  0.24256723882E+04  0.24256723882E+04  0.50400001928E-02 0.  1.
       -1   -1    0    0    0  501  0.00000000000E+00  0.00000000000E+00 -0.93059774574E+03  0.93059774576E+03  0.50400001928E-02 0. -1.
    10030    2    1    2    0    0  0.00000000000E+00  0.00000000000E+00  0.14950746424E+04  0.33562701339E+04  0.30048795359E+04 0.  0.
        1    1    3    3  502    0 -0.67852738927E+03 -0.36513760826E+03  0.21881735955E+04  0.23198768448E+04  0.50400001928E-02 0.  1.
       -1    1    3    3    0  502  0.67852738927E+03  0.36513760826E+03 -0.69309895308E+03  0.10363932891E+04  0.50400001928E-02 0. -1.
</event>
<event>
 5   0  0.1674806E-06  0.3004318E+04  0.7818609E-02  0.8242499E-01
        2   -1    0    0  501    0  0.00000000000E+00  0.00000000000E+00  0.27661202730E+04  0.27661202730E+04  0.25500000920E-02 0.  1.
       -2   -1    0    0    0  501  0.00000000000E+00  0.00000000000E+00 -0.81575684402E+03  0.81575684402E+03  0.25500000920E-02 0. -1.
    10030    2    1    2    0    0  0.00000000000E+00  0.00000000000E+00  0.19503634290E+04  0.35818771171E+04  0.30043179220E+04 0.  0.
        2    1    3    3  502    0  0.40301329318E+03  0.12975131663E+04  0.21128841359E+03  0.13749919727E+04  0.25500000920E-02 0. -1.
       -2    1    3    3    0  502 -0.40301329318E+03 -0.12975131663E+04  0.17390750154E+04  0.22068851444E+04  0.25500000920E-02 0.  1.
</event>
<event>
 5   0  0.1560174E-06  0.3007265E+04  0.7818609E-02  0.8241659E-01
        2   -1    0    0  501    0  0.00000000000E+00  0.00000000000E+00  0.24364454518E+04  0.24364454518E+04  0.25500000920E-02 0.  1.
       -2   -1    0    0    0  501  0.00000000000E+00  0.00000000000E+00 -0.92795475736E+03  0.92795475736E+03  0.25500000920E-02 0. -1.
    10030    2    1    2    0    0  0.00000000000E+00  0.00000000000E+00  0.15084906944E+04  0.33644002091E+04  0.30072653012E+04 0.  0.
        5    1    3    3  502    0 -0.13668649193E+03 -0.14962163449E+04  0.82083265647E+03  0.17120557490E+04  0.46999998093E+01 0.  1.
       -5    1    3    3    0  502  0.13668649193E+03  0.14962163449E+04  0.68765803793E+03  0.16523444601E+04  0.46999998093E+01 0. -1.
</event>
<event>
 5   0  0.5887179E-07  0.3006726E+04  0.7818609E-02  0.8241813E-01
       -1   -1    0    0    0  501  0.00000000000E+00  0.00000000000E+00  0.12956329696E+04  0.12956329696E+04  0.50400001928E-02 0. -1.
        1   -1    0    0  501    0  0.00000000000E+00  0.00000000000E+00 -0.17443984670E+04  0.17443984670E+04  0.50400001928E-02 0.  1.
    10030    2    1    2    0    0  0.00000000000E+00  0.00000000000E+00 -0.44876549738E+03  0.30400314366E+04  0.30067259044E+04 0.  0.
        3    1    3    3  502    0 -0.13897616064E+04  0.92468920878E+02  0.34766915857E+03  0.14355701578E+04  0.10100000352E+00 0.  1.
       -3    1    3    3    0  502  0.13897616064E+04 -0.92468920878E+02 -0.79643465595E+03  0.16044612788E+04  0.10100000352E+00 0. -1.
</event>
<event>
 5   0  0.5916703E-07  0.2933160E+04  0.7818609E-02  0.8263079E-01
        1   -1    0    0  501    0  0.00000000000E+00  0.00000000000E+00  0.20637119773E+04  0.20637119773E+04  0.50400001928E-02 0. -1.
       -1   -1    0    0    0  501  0.00000000000E+00  0.00000000000E+00 -0.10422270639E+04  0.10422270639E+04  0.50400001928E-02 0.  1.
    10030    2    1    2    0    0  0.00000000000E+00  0.00000000000E+00  0.10214849133E+04  0.31059390412E+04  0.29331597126E+04 0.  0.
        5    1    3    3  502    0 -0.89119482743E+03  0.38342479410E+02 -0.72193274992E+03  0.11475658376E+04  0.46999998093E+01 0.  1.
       -5    1    3    3    0  502  0.89119482743E+03 -0.38342479410E+02  0.17434176632E+04  0.19583732036E+04  0.46999998093E+01 0. -1.
</event>
<event>
 5   0  0.1674806E-06  0.3003149E+04  0.7818609E-02  0.8242832E-01
       -2   -1    0    0    0  501  0.00000000000E+00  0.00000000000E+00  0.11201062079E+04  0.11201062079E+04  0.25500000920E-02 0.  1.
        2   -1    0    0  501    0  0.00000000000E+00  0.00000000000E+00 -0.20129572100E+04  0.20129572100E+04  0.25500000920E-02 0. -1.
    10030    2    1    2    0    0  0.00000000000E+00  0.00000000000E+00 -0.89285100211E+03  0.31330634178E+04  0.30031489254E+04 0.  0.
        2    1    3    3  502    0  0.78381441417E+03  0.10503482481E+04  0.31817006311E+03  0.13486395616E+04  0.25500000920E-02 0. -1.
       -2    1    3    3    0  502 -0.78381441417E+03 -0.10503482481E+04 -0.12110210652E+04  0.17844238562E+04  0.25500000920E-02 0.  1.
</event>
<event>
 5   0  0.5874741E-07  0.2989222E+04  0.7818609E-02  0.8246815E-01
       -1   -1    0    0    0  501  0.00000000000E+00  0.00000000000E+00  0.16398936905E+04  0.16398936905E+04  0.50400001928E-02 0.  1.
        1   -1    0    0  501    0  0.00000000000E+00  0.00000000000E+00 -0.13621993028E+04  0.13621993028E+04  0.50400001928E-02 0. -1.
    10030    2    1    2    0    0  0.00000000000E+00  0.00000000000E+00  0.27769438773E+03  0.30020929933E+04  0.29892220004E+04 0.  0.
        4    1    3    3  502    0 -0.16907067556E+03 -0.41603844980E+03 -0.12928390874E+04  0.13686151409E+04  0.12699999809E+01 0. -1.
       -4    1    3    3    0  502  0.16907067556E+03  0.41603844980E+03  0.15705334751E+04  0.16334778525E+04  0.12699999809E+01 0.  1.
</event>
<event>
 5   0  0.1635086E-06  0.3017764E+04  0.7818609E-02  0.8238676E-01
        2   -1    0    0  501    0  0.00000000000E+00  0.00000000000E+00  0.19652290355E+04  0.19652290355E+04  0.25500000920E-02 0. -1.
       -2   -1    0    0    0  501  0.00000000000E+00  0.00000000000E+00 -0.11585035152E+04  0.11585035152E+04  0.25500000920E-02 0.  1.
    10030    2    1    2    0    0  0.00000000000E+00  0.00000000000E+00  0.80672552023E+03  0.31237325507E+04  0.30177639045E+04 0.  0.
        3    1    3    3  502    0  0.67161921138E+02  0.14501672007E+04 -0.22457291805E+02  0.14518953040E+04  0.10100000352E+00 0.  1.
       -3    1    3    3    0  502 -0.67161921138E+02 -0.14501672007E+04  0.82918281204E+03  0.16718372467E+04  0.10100000352E+00 0. -1.
</event>
<event>
 5   0  0.1560174E-06  0.3007664E+04  0.7818609E-02  0.8241546E-01
       -2   -1    0    0    0  501  0.00000000000E+00  0.00000000000E+00  0.12030737659E+04  0.12030737660E+04  0.25500000920E-02 0.  1.
        2   -1    0    0  501    0  0.00000000000E+00  0.00000000000E+00 -0.18797776540E+04  0.18797776540E+04  0.25500000920E-02 0. -1.
    10030    2    1    2    0    0  0.00000000000E+00  0.00000000000E+00 -0.67670388805E+03  0.30828514199E+04  0.30076643306E+04 0.  0.
        5    1    3    3  502    0  0.12823917869E+03 -0.92236288453E+03 -0.15486709831E+04  0.18070978063E+04  0.46999998093E+01 0. -1.
       -5    1    3    3    0  502 -0.12823917869E+03  0.92236288453E+03  0.87196709509E+03  0.12757536136E+04  0.46999998093E+01 0.  1.
</event>
<event>
 5   0  0.1723916E-06  0.2975926E+04  0.7818609E-02  0.8250639E-01
        2   -1    0    0  501    0  0.00000000000E+00  0.00000000000E+00  0.21167587063E+04  0.21167587063E+04  0.25500000920E-02 0.  1.
       -2   -1    0    0    0  501  0.00000000000E+00  0.00000000000E+00 -0.10459545812E+04  0.10459545812E+04  0.25500000920E-02 0. -1.
    10030    2    1    2    0    0  0.00000000000E+00  0.00000000000E+00  0.10708041251E+04  0.31627132874E+04  0.29759257155E+04 0.  0.
        1    1    3    3  502    0  0.67661766115E+03  0.37652722450E+03  0.18857632180E+04  0.20385502507E+04  0.50400001928E-02 0.  1.
       -1    1    3    3    0  502 -0.67661766115E+03 -0.37652722450E+03 -0.81495909287E+03  0.11241630368E+04  0.50400001928E-02 0. -1.
</event>
<event>
 5   0  0.5874741E-07  0.2985781E+04  0.7818609E-02  0.8247803E-01
       -1   -1    0    0    0  501  0.00000000000E+00  0.00000000000E+00  0.16235920423E+04  0.16235920423E+04  0.50400001928E-02 0. -1.
        1   -1    0    0  501    0  0.00000000000E+00  0.00000000000E+00 -0.13727102064E+04  0.13727102064E+04  0.50400001928E-02 0.  1.
    10030    2    1    2    0    0  0.00000000000E+00  0.00000000000E+00  0.25088183587E+03  0.29963022487E+04  0.29857805462E+04 0.  0.
        4    1    3    3  502    0  0.56129542796E+03 -0.43211117226E+03  0.14442054470E+04  0.16085719159E+04  0.12699999809E+01 0. -1.
       -4    1    3    3    0  502 -0.56129542796E+03  0.43211117226E+03 -0.11933236111E+04  0.13877303328E+04  0.12699999809E+01 0.  1.
</event>
<event>
 5   0  0.1723916E-06  0.3025827E+04  0.7818609E-02  0.8236394E-01
       -2   -1    0    0    0  501  0.00000000000E+00  0.00000000000E+00  0.92752459448E+03  0.92752459449E+03  0.25500000920E-02 0.  1.
        2   -1    0    0  501    0  0.00000000000E+00  0.00000000000E+00 -0.24677585219E+04  0.24677585219E+04  0.25500000920E-02 0. -1.
    10030    2    1    2    0    0  0.00000000000E+00  0.00000000000E+00 -0.15402339274E+04  0.33952831164E+04  0.30258266456E+04 0.  0.
        1    1    3    3  502    0 -0.32373057100E+03  0.66753100626E+03  0.70940101543E+03  0.10264740268E+04  0.50400001928E-02 0.  1.
       -1    1    3    3    0  502  0.32373057100E+03 -0.66753100626E+03 -0.22496349429E+04  0.23688090896E+04  0.50400001928E-02 0. -1.
</event>
<event>
 5   0  0.5874741E-07  0.3004773E+04  0.7818609E-02  0.8242369E-01
       -1   -1    0    0    0  501  0.00000000000E+00  0.00000000000E+00  0.16932265231E+04  0.16932265231E+04  0.50400001928E-02 0. -1.
        1   -1    0    0  501    0  0.00000000000E+00  0.00000000000E+00 -0.13330557170E+04  0.13330557170E+04  0.50400001928E-02 0.  1.
    10030    2    1    2    0    0  0.00000000000E+00  0.00000000000E+00  0.36017080607E+03  0.30262822401E+04  0.30047730675E+04 0.  0.
        4    1    3    3  502    0 -0.66973223423E+03 -0.22061949846E+03 -0.11560419315E+04  0.13541228855E+04  0.12699999809E+01 0.  1.
       -4    1    3    3    0  502  0.66973223423E+03  0.22061949846E+03  0.15162127376E+04  0.16721593546E+04  0.12699999809E+01 0. -1.
</event>
<event>
 5   0  0.1625212E-06  0.3023943E+04  0.7818609E-02  0.8236927E-01
       -2   -1    0    0    0  501  0.00000000000E+00  0.00000000000E+00  0.12321213496E+04  0.12321213496E+04  0.25500000920E-02 0.  1.
        2   -1    0    0  501    0  0.00000000000E+00  0.00000000000E+00 -0.18553830502E+04  0.18553830502E+04  0.25500000920E-02 0. -1.
    10030    2    1    2    0    0  0.00000000000E+00  0.00000000000E+00 -0.62326170056E+03  0.30875043998E+04  0.30239425046E+04 0.  0.
        4    1    3    3  502    0  0.43863035559E+03 -0.43966742617E+02 -0.17883109811E+04  0.18418434899E+04  0.12699999809E+01 0. -1.
       -4    1    3    3    0  502 -0.43863035559E+03  0.43966742617E+02  0.11650492806E+04  0.12456609099E+04  0.12699999809E+01 0.  1.
</event>
<event>
 5   0  0.6291798E-07  0.2998452E+04  0.7818609E-02  0.8244173E-01
       -1   -1    0    0    0  501  0.00000000000E+00  0.00000000000E+00  0.29823916993E+04  0.29823916993E+04  0.50400001928E-02 0. -1.
        1   -1    0    0  501    0  0.00000000000E+00  0.00000000000E+00 -0.75364950269E+03  0.75364950271E+03  0.50400001928E-02 0.  1.
    10030    2    1    2    0    0  0.00000000000E+00  0.00000000000E+00  0.22287421966E+04  0.37360412021E+04  0.29984516145E+04 0.  0.
        1    1    3    3  502    0  0.11515117262E+04  0.35003198938E+03  0.49745009552E+00  0.12035372436E+04  0.50400001928E-02 0.  1.
       -1    1    3    3    0  502 -0.11515117262E+04 -0.35003198938E+03  0.22282447465E+04  0.25325039585E+04  0.50400001928E-02 0. -1.
</event>
<event>
 5   0  0.1560174E-06  0.3018802E+04  0.7818609E-02  0.8238382E-01
        2   -1    0    0  501    0  0.00000000000E+00  0.00000000000E+00  0.13336371307E+04  0.13336371307E+04  0.25500000920E-02 0. -1.
       -2   -1    0    0    0  501  0.00000000000E+00  0.00000000000E+00 -0.17083287633E+04  0.17083287633E+04  0.25500000920E-02 0.  1.
    10030    2    1    2    0    0  0.00000000000E+00  0.00000000000E+00 -0.37469163254E+03  0.30419658940E+04  0.30188015305E+04 0.  0.
        5    1    3    3  502    0  0.32037344341E+03  0.10621815489E+04 -0.12186244525E+04  0.16480098399E+04  0.46999998093E+01 0.  1.
       -5    1    3    3    0  502 -0.32037344341E+03 -0.10621815489E+04  0.84393281999E+03  0.13939560541E+04  0.46999998093E+01 0. -1.
</event>
<event>
 5   0  0.1560174E-06  0.3005096E+04  0.7818609E-02  0.8242277E-01
       -2   -1    0    0    0  501  0.00000000000E+00  0.00000000000E+00  0.13750656175E+04  0.13750656175E+04  0.25500000920E-02 0.  1.
        2   -1    0    0  501    0  0.00000000000E+00  0.00000000000E+00 -0.16418496382E+04  0.16418496382E+04  0.25500000920E-02 0. -1.
    10030    2    1    2    0    0  0.00000000000E+00  0.00000000000E+00 -0.26678402071E+03  0.30169152557E+04  0.30050963290E+04 0.  0.
        5    1    3    3  502    0 -0.11008865494E+04 -0.10159229095E+04 -0.25037645432E+03  0.15188024926E+04  0.46999998093E+01 0.  1.
       -5    1    3    3    0  502  0.11008865494E+04  0.10159229095E+04 -0.16407566399E+02  0.14981127631E+04  0.46999998093E+01 0. -1.
</event>
<event>
 5   0  0.1674806E-06  0.3003493E+04  0.7818609E-02  0.8242734E-01
        2   -1    0    0  501    0  0.00000000000E+00  0.00000000000E+00  0.91830835151E+03  0.91830835151E+03  0.25500000920E-02 0.  1.
       -2   -1    0    0    0  501  0.00000000000E+00  0.00000000000E+00 -0.24558663233E+04  0.24558663233E+04  0.25500000920E-02 0. -1.
    10030    2    1    2    0    0  0.00000000000E+00  0.00000000000E+00 -0.15375579718E+04  0.33741746748E+04  0.30034930031E+04 0.  0.
        2    1    3    3  502    0 -0.34498263732E+03  0.12429863895E+04 -0.16325794395E+04  0.20807075265E+04  0.25500000920E-02 0. -1.
       -2    1    3    3    0  502  0.34498263732E+03 -0.12429863895E+04  0.95021467714E+02  0.12934671483E+04  0.25500000920E-02 0.  1.
</event>
<event>
 5   0  0.1674806E-06  0.2937966E+04  0.7818609E-02  0.8261670E-01
        2   -1    0    0  501    0  0.00000000000E+00  0.00000000000E+00  0.17595233640E+04  0.17595233640E+04  0.25500000920E-02 0.  1.
       -2   -1    0    0    0  501  0.00000000000E+00  0.00000000000E+00 -0.12264181763E+04  0.12264181763E+04  0.25500000920E-02 0. -1.
    10030    2    1    2    0    0  0.00000000000E+00  0.00000000000E+00  0.53310518768E+03  0.29859415402E+04  0.29379662593E+04 0.  0.
        2    1    3    3  502    0  0.17712317050E+03  0.14550769546E+04  0.36451048018E+03  0.15104600132E+04  0.25500000920E-02 0.  1.
       -2    1    3    3    0  502 -0.17712317050E+03 -0.14550769546E+04  0.16859470750E+03  0.14754815270E+04  0.25500000920E-02 0. -1.
</event>
<event>
 5   0  0.1723916E-06  0.3005269E+04  0.7818609E-02  0.8242228E-01
       -2   -1    0    0    0  501  0.00000000000E+00  0.00000000000E+00  0.22159327463E+04  0.22159327463E+04  0.25500000920E-02 0.  1.
        2   -1    0    0  501    0  0.00000000000E+00  0.00000000000E+00 -0.10189436800E+04  0.10189436800E+04  0.25500000920E-02 0. -1.
    10030    2    1    2    0    0  0.00000000000E+00  0.00000000000E+00  0.11969890663E+04  0.32348764263E+04  0.30052691507E+04 0.  0.
        1    1    3    3  502    0  0.68302813942E+03 -0.12349862418E+04  0.11538512042E+04  0.18229347378E+04  0.50400001928E-02 0. -1.
       -1    1    3    3    0  502 -0.68302813942E+03  0.12349862418E+04  0.43137862036E+02  0.14119416885E+04  0.50400001928E-02 0.  1.
</event>
<event>
 5   0  0.5916703E-07  0.3023992E+04  0.7818609E-02  0.8236913E-01
        1   -1    0    0  501    0  0.00000000000E+00  0.00000000000E+00  0.15794321709E+04  0.15794321709E+04  0.50400001928E-02 0.  1.
       -1   -1    0    0    0  501  0.00000000000E+00  0.00000000000E+00 -0.14474390434E+04  0.14474390434E+04  0.50400001928E-02 0. -1.
    10030    2    1    2    0    0  0.00000000000E+00  0.00000000000E+00  0.13199312748E+03  0.30268712142E+04  0.30239919249E+04 0.  0.
        5    1    3    3  502    0 -0.76257474082E+03 -0.11115492140E+04  0.75151931430E+03  0.15433292780E+04  0.46999998093E+01 0.  1.
       -5    1    3    3    0  502  0.76257474082E+03  0.11115492140E+04 -0.61952618681E+03  0.14835419363E+04  0.46999998093E+01 0. -1.
</event>
<event>
 5   0  0.5887179E-07  0.3009833E+04  0.7818609E-02  0.8240929E-01
        1   -1    0    0  501    0  0.00000000000E+00  0.00000000000E+00  0.18540738029E+04  0.18540738030E+04  0.50400001928E-02 0.  1.
       -1   -1    0    0    0  501  0.00000000000E+00  0.00000000000E+00 -0.12215120111E+04  0.12215120111E+04  0.50400001928E-02 0. -1.
    10030    2    1    2    0    0  0.00000000000E+00  0.00000000000E+00  0.63256179188E+03  0.30755858140E+04  0.30098328324E+04 0.  0.
        3    1    3    3  502    0  0.92076362847E+03  0.49625197528E+03  0.14219078129E+04  0.17651893726E+04  0.10100000352E+00 0.  1.
       -3    1    3    3    0  502 -0.92076362847E+03 -0.49625197528E+03 -0.78934602107E+03  0.13103964414E+04  0.10100000352E+00 0. -1.
</event>
<event>
 5   0  0.1635086E-06  0.2970877E+04  0.7818609E-02  0.8252096E-01
        2   -1    0    0  501    0  0.00000000000E+00  0.00000000000E+00  0.25466800750E+04  0.25466800750E+04  0.25500000920E-02 0. -1.
       -2   -1    0    0    0  501  0.00000000000E+00  0.00000000000E+00 -0.86643301285E+03  0.86643301286E+03  0.25500000920E-02 0.  1.
    10030    2    1    2    0    0  0.00000000000E+00  0.00000000000E+00  0.16802470621E+04  0.34131130878E+04  0.29708771029E+04 0.  0.
        3    1    3    3  502    0  0.54684495510E+02  0.21974645057E+03 -0.84648656563E+03  0.87625248221E+03  0.10100000352E+00 0.  1.
       -3    1    3    3    0  502 -0.54684495510E+02 -0.21974645057E+03  0.25267336278E+04  0.25368606056E+04  0.10100000352E+00 0. -1.
</event>
<event>
 5   0  0.6291798E-07  0.2997583E+04  0.7818609E-02  0.8244421E-01
       -1   -1    0    0    0  501  0.00000000000E+00  0.00000000000E+00  0.12870407375E+04  0.12870407375E+04  0.50400001928E-02 0. -1.
        1   -1    0    0  501    0  0.00000000000E+00  0.00000000000E+00 -0.17453802567E+04  0.17453802567E+04  0.50400001928E-02 0.  1.
    10030    2    1    2    0    0  0.00000000000E+00  0.00000000000E+00 -0.45833951928E+03  0.30324209942E+04  0.29975826880E+04 0.  0.
        1    1    3    3  502    0  0.33168874241E+03  0.12431649723E+04 -0.10068031887E+04  0.16337469911E+04  0.50400001928E-02 0.  1.
       -1    1    3    3    0  502 -0.33168874241E+03 -0.12431649723E+04  0.54846366940E+03  0.13986740031E+04  0.50400001928E-02 0. -1.
</event>
<event>
 5   0  0.1674806E-06  0.3003356E+04  0.7818609E-02  0.8242773E-01
        2   -1    0    0  501    0  0.00000000000E+00  0.00000000000E+00  0.25790979060E+04  0.25790979060E+04  0.25500000920E-02 0. -1.
       -2   -1    0    0    0  501  0.00000000000E+00  0.00000000000E+00 -0.87435087001E+03  0.87435087001E+03  0.25500000920E-02 0.  1.
    10030    2    1    2    0    0  0.00000000000E+00  0.00000000000E+00  0.17047470360E+04  0.34534487760E+04  0.30033557884E+04 0.  0.
        2    1    3    3  502    0  0.12851331246E+04  0.64400848389E+03  0.35284764562E+03  0.14801403772E+04  0.25500000920E-02 0. -1.
       -2    1    3    3    0  502 -0.12851331246E+04 -0.64400848389E+03  0.13518993904E+04  0.19733083988E+04  0.25500000920E-02 0.  1.
</event>
<event>
 5   0  0.5874741E-07  0.2975836E+04  0.7818609E-02  0.8250665E-01
        1   -1    0    0  501    0  0.00000000000E+00  0.00000000000E+00  0.24147344678E+04  0.24147344678E+04  0.50400001928E-02 0.  1.
       -1   -1    0    0    0  501  0.00000000000E+00  0.00000000000E+00 -0.91682982593E+03  0.91682982595E+03  0.50400001928E-02 0. -1.
    10030    2    1    2    0    0  0.00000000000E+00  0.00000000000E+00  0.14979046419E+04  0.33315642938E+04  0.29758364080E+04 0.  0.
        4    1    3    3  502    0  0.98194376399E+03 -0.37283918606E+03  0.19288189262E+04  0.21962619783E+04  0.12699999809E+01 0.  1.
       -4    1    3    3    0  502 -0.98194376399E+03  0.37283918606E+03 -0.43091428428E+03  0.11353023155E+04  0.12699999809E+01 0. -1.
</event>
<event>
 5   0  0.6291798E-07  0.3003007E+04  0.7818609E-02  0.8242873E-01
        1   -1    0    0  501    0  0.00000000000E+00  0.00000000000E+00  0.14266858102E+04  0.14266858103E+04  0.50400001928E-02 0.  1.
       -1   -1    0    0    0  501  0.00000000000E+00  0.00000000000E+00 -0.15802447891E+04  0.15802447891E+04  0.50400001928E-02 0. -1.
    10030    2    1    2    0    0  0.00000000000E+00  0.00000000000E+00 -0.15355897882E+03  0.30069305993E+04  0.30030070378E+04 0.  0.
        1    1    3    3  502    0 -0.13057076404E+03  0.13971915433E+04  0.45807183337E+03  0.14761513261E+04  0.50400001928E-02 0.  1.
       -1    1    3    3    0  502  0.13057076404E+03 -0.13971915433E+04 -0.61163081219E+03  0.15307792732E+04  0.50400001928E-02 0. -1.
</event>
<event>
 5   0  0.5931588E-07  0.3004801E+04  0.7818609E-02  0.8242361E-01
       -1   -1    0    0    0  501  0.00000000000E+00  0.00000000000E+00  0.17282439710E+04  0.17282439710E+04  0.50400001928E-02 0.  1.
        1   -1    0    0  501    0  0.00000000000E+00  0.00000000000E+00 -0.13060699957E+04  0.13060699957E+04  0.50400001928E-02 0. -1.
    10030    2    1    2    0    0  0.00000000000E+00  0.00000000000E+00  0.42217397527E+03  0.30343139667E+04  0.30048012219E+04 0.  0.
        2    1    3    3  502    0  0.13251645973E+04 -0.23017276219E+03  0.88711493577E+03  0.16112149514E+04  0.25500000920E-02 0.  1.
       -2    1    3    3    0  502 -0.13251645973E+04  0.23017276219E+03 -0.46494096050E+03  0.14230990152E+04  0.25500000920E-02 0. -1.
</event>
<event>
 5   0  0.5887179E-07  0.2998365E+04  0.7818609E-02  0.8244198E-01
        1   -1    0    0  501    0  0.00000000000E+00  0.00000000000E+00  0.20030292915E+04  0.20030292915E+04  0.50400001928E-02 0. -1.
       -1   -1    0    0    0  501  0.00000000000E+00  0.00000000000E+00 -0.11220741901E+04  0.11220741901E+04  0.50400001928E-02 0.  1.
    10030    2    1    2    0    0  0.00000000000E+00  0.00000000000E+00  0.88095510143E+03  0.31251034816E+04  0.29983645342E+04 0.  0.
        3    1    3    3  502    0  0.14680298877E+04 -0.11522741043E+03  0.14723408460E+03  0.14798874934E+04  0.10100000352E+00 0.  1.
       -3    1    3    3    0  502 -0.14680298877E+04  0.11522741043E+03  0.73372101683E+03  0.16452159882E+04  0.10100000352E+00 0. -1.
</event>
<event>
 5   0  0.1625212E-06  0.2995106E+04  0.7818609E-02  0.8245130E-01
        2   -1    0    0  501    0  0.00000000000E+00  0.00000000000E+00  0.15603735447E+04  0.15603735447E+04  0.25500000920E-02 0.  1.
       -2   -1    0    0    0  501  0.00000000000E+00  0.00000000000E+00 -0.14372617008E+04  0.14372617008E+04  0.25500000920E-02 0. -1.
    10030    2    1    2    0    0  0.00000000000E+00  0.00000000000E+00  0.12311184386E+03  0.29976352455E+04  0.29951060981E+04 0.  0.
        4    1    3    3  502    0  0.13105635958E+04 -0.48473251594E+03  0.60063954245E+03  0.15209576008E+04  0.12699999809E+01 0.  1.
       -4    1    3    3    0  502 -0.13105635958E+04  0.48473251594E+03 -0.47752769860E+03  0.14766776447E+04  0.12699999809E+01 0. -1.
</event>
<event>
 5   0  0.1625212E-06  0.3004079E+04  0.7818609E-02  0.8242567E-01
       -2   -1    0    0    0  501  0.00000000000E+00  0.00000000000E+00  0.90959793827E+03  0.90959793827E+03  0.25500000920E-02 0.  1.
        2   -1    0    0  501    0  0.00000000000E+00  0.00000000000E+00 -0.24803508881E+04  0.24803508881E+04  0.25500000920E-02 0. -1.
    10030    2    1    2    0    0  0.00000000000E+00  0.00000000000E+00 -0.15707529498E+04  0.33899488264E+04  0.30040785968E+04 0.  0.
        4    1    3    3  502    0 -0.59099536528E+03 -0.13840468026E+03  0.76503538217E+03  0.97658185840E+03  0.12699999809E+01 0.  1.
       -4    1    3    3    0  502  0.59099536528E+03  0.13840468026E+03 -0.23357883320E+04  0.24133669680E+04  0.12699999809E+01 0. -1.
</event>
<event>
 5   0  0.5931588E-07  0.2990842E+04  0.7818609E-02  0.8246351E-01
       -1   -1    0    0    0  501  0.00000000000E+00  0.00000000000E+00  0.12420639696E+04  0.12420639697E+04  0.50400001928E-02 0. -1.
        1   -1    0    0  501    0  0.00000000000E+00  0.00000000000E+00 -0.18004574810E+04  0.18004574810E+04  0.50400001928E-02 0.  1.
    10030    2    1    2    0    0  0.00000000000E+00  0.00000000000E+00 -0.55839351138E+03  0.30425214507E+04  0.29908415980E+04 0.  0.
        2    1    3    3  502    0 -0.26676504695E+03  0.13846842104E+04  0.22716871414E+03  0.14283275456E+04  0.25500000920E-02 0. -1.
       -2    1    3    3    0  502  0.26676504695E+03 -0.13846842104E+04 -0.78556222553E+03  0.16141939051E+04  0.25500000920E-02 0.  1.
</event>
<event>
 5   0  0.1625212E-06  0.2989030E+04  0.7818609E-02  0.8246870E-01
       -2   -1    0    0    0  501  0.00000000000E+00  0.00000000000E+00  0.88924068550E+03  0.88924068550E+03  0.25500000920E-02 0. -1.
        2   -1    0    0  501    0  0.00000000000E+00  0.00000000000E+00 -0.25117773826E+04  0.25117773826E+04  0.25500000920E-02 0.  1.
    10030    2    1    2    0    0  0.00000000000E+00  0.00000000000E+00 -0.16225366971E+04  0.34010180681E+04  0.29890297031E+04 0.  0.
        4    1    3    3  502    0 -0.95585145518E+03  0.60805314635E+03  0.29786683883E+03  0.11713696683E+04  0.12699999809E+01 0. -1.
       -4    1    3    3    0  502  0.95585145518E+03 -0.60805314635E+03 -0.19204035359E+04  0.22296483998E+04  0.12699999809E+01 0.  1.
</event>
<event>
 5   0  0.1723916E-06  0.3001301E+04  0.7818609E-02  0.8243360E-01
        2   -1    0    0  501    0  0.00000000000E+00  0.00000000000E+00  0.32475814300E+04  0.32475814300E+04  0.25500000920E-02 0.  1.
       -2   -1    0    0    0  501  0.00000000000E+00  0.00000000000E+00 -0.69342418498E+03  0.69342418498E+03  0.25500000920E-02 0. -1.
    10030    2    1    2    0    0  0.00000000000E+00  0.00000000000E+00  0.25541572450E+04  0.39410056150E+04  0.30013007222E+04 0.  0.
        1    1    3    3  502    0 -0.11925985746E+04  0.81555532079E+03  0.74445595238E+03  0.16253112029E+04  0.50400001928E-02 0. -1.
       -1    1    3    3    0  502  0.11925985746E+04 -0.81555532079E+03  0.18097012926E+04  0.23156944120E+04  0.50400001928E-02 0.  1.
</event>
<event>
 5   0  0.1625212E-06  0.3038468E+04  0.7818609E-02  0.8232831E-01
       -2   -1    0    0    0  501  0.00000000000E+00  0.00000000000E+00  0.11154596099E+04  0.11154596099E+04  0.25500000920E-02 0.  1.
        2   -1    0    0  501    0  0.00000000000E+00  0.00000000000E+00 -0.20691666237E+04  0.20691666237E+04  0.25500000920E-02 0. -1.
    10030    2    1    2    0    0  0.00000000000E+00  0.00000000000E+00 -0.95370701379E+03  0.31846262336E+04  0.30384679000E+04 0.  0.
        4    1    3    3  502    0  0.98602430262E+03 -0.50230804674E+03 -0.15678437218E+04  0.19190343530E+04  0.12699999809E+01 0. -1.
       -4    1    3    3    0  502 -0.98602430262E+03  0.50230804674E+03  0.61413670798E+03  0.12655918806E+04  0.12699999809E+01 0.  1.
</event>
<event>
 5   0  0.5916703E-07  0.3011180E+04  0.7818609E-02  0.8240546E-01
        1   -1    0    0  501    0  0.00000000000E+00  0.00000000000E+00  0.17093836404E+04  0.17093836404E+04  0.50400001928E-02 0. -1.
       -1   -1    0    0    0  501  0.00000000000E+00  0.00000000000E+00 -0.13260924635E+04  0.13260924635E+04  0.50400001928E-02 0.  1.
    10030    2    1    2    0    0  0.00000000000E+00  0.00000000000E+00  0.38329117694E+03  0.30354761039E+04  0.30111796776E+04 0.  0.
        5    1    3    3  502    0 -0.21812421216E+03  0.35879236132E+03 -0.12658658304E+04  0.13336973124E+04  0.46999998093E+01 0.  1.
       -5    1    3    3    0  502  0.21812421216E+03 -0.35879236132E+03  0.16491570073E+04  0.17017787915E+04  0.46999998093E+01 0. -1.
</event>
<event>
 5   0  0.1560174E-06  0.2976475E+04  0.7818609E-02  0.8250481E-01
       -2   -1    0    0    0  501  0.00000000000E+00  0.00000000000E+00  0.67633544448E+03  0.67633544448E+03  0.25500000920E-02 0.  1.
        2   -1    0    0  501    0  0.00000000000E+00  0.00000000000E+00 -0.32747819935E+04  0.32747819935E+04  0.25500000920E-02 0. -1.
    10030    2    1    2    0    0  0.00000000000E+00  0.00000000000E+00 -0.25984465490E+04  0.39511174380E+04  0.29764751873E+04 0.  0.
        5    1    3    3  502    0 -0.93852501956E+02  0.64397323879E+03 -0.30758826201E+04  0.31439761143E+04  0.46999998093E+01 0. -1.
       -5    1    3    3    0  502  0.93852501956E+02 -0.64397323879E+03  0.47743607111E+03  0.80714132369E+03  0.46999998093E+01 0.  1.
</event>
<event>
 5   0  0.5916703E-07  0.2995121E+04  0.7818609E-02  0.8245126E-01
        1   -1    0    0  501    0  0.00000000000E+00  0.00000000000E+00  0.10217106138E+04  0.10217106139E+04  0.50400001928E-02 0.  1.
       -1   -1    0    0    0  501  0.00000000000E+00  0.00000000000E+00 -0.21950316356E+04  0.21950316356E+04  0.50400001928E-02 0. -1.
    10030    2    1    2    0    0  0.00000000000E+00  0.00000000000E+00 -0.11733210218E+04  0.32167422495E+04  0.29951207788E+04 0.  0.
        5    1    3    3  502    0 -0.92473394363E+03  0.95662338135E+03 -0.13248343443E+04  0.18776233089E+04  0.46999998093E+01 0. -1.
       -5    1    3    3    0  502  0.92473394363E+03 -0.95662338135E+03  0.15151332248E+03  0.13391189406E+04  0.46999998093E+01 0.  1.
</event>
<event>
 5   0  0.5887179E-07  0.2995982E+04  0.7818609E-02  0.8244879E-01
       -1   -1    0    0    0  501  0.00000000000E+00  0.00000000000E+00  0.16999877104E+04  0.16999877104E+04  0.50400001928E-02 0. -1.
        1   -1    0    0  501    0  0.00000000000E+00  0.00000000000E+00 -0.13199964469E+04  0.13199964469E+04  0.50400001928E-02 0.  1.
    10030    2    1    2    0    0  0.00000000000E+00  0.00000000000E+00  0.37999126351E+03  0.30199841574E+04  0.29959824683E+04 0.  0.
        3    1    3    3  502    0 -0.66185069733E+03 -0.13170151305E+04  0.45934886371E+03  0.15438836058E+04  0.10100000352E+00 0.  1.
       -3    1    3    3    0  502  0.66185069733E+03  0.13170151305E+04 -0.79357600200E+02  0.14761005516E+04  0.10100000352E+00 0. -1.
</event>
<event>
 5   0  0.1635086E-06  0.2996863E+04  0.7818609E-02  0.8244627E-01
        2   -1    0    0  501    0  0.00000000000E+00  0.00000000000E+00  0.30267272255E+04  0.30267272255E+04  0.25500000920E-02 0.  1.
       -2   -1    0    0    0  501  0.00000000000E+00  0.00000000000E+00 -0.74182358530E+03  0.74182358531E+03  0.25500000920E-02 0. -1.
    10030    2    1    2    0    0  0.00000000000E+00  0.00000000000E+00  0.22849036402E+04  0.37685508108E+04  0.29968634551E+04 0.  0.
        3    1    3    3  502    0  0.12259768837E+04  0.60377570149E+03  0.19153103542E+04  0.23528659503E+04  0.10100000352E+00 0.  1.
       -3    1    3    3    0  502 -0.12259768837E+04 -0.60377570149E+03  0.36959328600E+03  0.14156848605E+04  0.10100000352E+00 0. -1.
</event>
<event>
 5   0  0.6291798E-07  0.3002606E+04  0.7818609E-02  0.8242987E-01
       -1   -1    0    0    0  501  0.00000000000E+00  0.00000000000E+00  0.22953025829E+04  0.22953025829E+04  0.50400001928E-02 0. -1.
        1   -1    0    0  501    0  0.00000000000E+00  0.00000000000E+00 -0.98196681248E+03  0.98196681249E+03  0.50400001928E-02 0.  1.
    10030    2    1    2    0    0  0.00000000000E+00  0.00000000000E+00  0.13133357704E+04  0.32772693954E+04  0.30026061753E+04 0.  0.
        1    1    3    3  502    0 -0.86321918682E+03 -0.63259839649E+03 -0.49253802208E+03  0.11781009290E+04  0.50400001928E-02 0.  1.
       -1    1    3    3    0  502  0.86321918682E+03  0.63259839649E+03  0.18058737925E+04  0.20991684664E+04  0.50400001928E-02 0. -1.
</event>
<event>
 5   0  0.5874741E-07  0.3007224E+04  0.7818609E-02  0.8241671E-01
        1   -1    0    0  501    0  0.00000000000E+00  0.00000000000E+00  0.71981471632E+03  0.71981471634E+03  0.50400001928E-02 0.  1.
       -1   -1    0    0    0  501  0.00000000000E+00  0.00000000000E+00 -0.31408753573E+04  0.31408753573E+04  0.50400001928E-02 0. -1.
    10030    2    1    2    0    0  0.00000000000E+00  0.00000000000E+00 -0.24210606410E+04  0.38606900737E+04  0.30072235064E+04 0.  0.
        4    1    3    3  502    0 -0.17001626736E+03 -0.12387041619E+04 -0.13830048734E+03  0.12579436273E+04  0.12699999809E+01 0.  1.
       -4    1    3    3    0  502  0.17001626736E+03  0.12387041619E+04 -0.22827601537E+04  0.26027464463E+04  0.12699999809E+01 0. -1.
</event>
<event>
 5   0  0.5916703E-07  0.3034358E+04  0.7818609E-02  0.8233987E-01
       -1   -1    0    0    0  501  0.00000000000E+00  0.00000000000E+00  0.29325436969E+04  0.29325436969E+04  0.50400001928E-02 0. -1.
        1   -1    0    0  501    0  0.00000000000E+00  0.00000000000E+00 -0.78492668694E+03  0.78492668696E+03  0.50400001928E-02 0.  1.
    10030    2    1    2    0    0  0.00000000000E+00  0.00000000000E+00  0.21476170100E+04  0.37174703839E+04  0.30343577959E+04 0.  0.
        5    1    3    3  502    0 -0.16499368026E+03  0.28601075713E+03  0.28879815893E+04  0.29067997553E+04  0.46999998093E+01 0. -1.
       -5    1    3    3    0  502  0.16499368026E+03 -0.28601075713E+03 -0.74036457928E+03  0.81067062854E+03  0.46999998093E+01 0.  1.
</event>
<event>
 5   0  0.5874741E-07  0.2987796E+04  0.7818609E-02  0.8247224E-01
       -1   -1    0    0    0  501  0.00000000000E+00  0.00000000000E+00  0.69890519432E+03  0.69890519433E+03  0.50400001928E-02 0. -1.
        1   -1    0    0  501    0  0.00000000000E+00  0.00000000000E+00 -0.31931823949E+04  0.31931823949E+04  0.50400001928E-02 0.  1.
    10030    2    1    2    0    0  0.00000000000E+00  0.00000000000E+00 -0.24942772006E+04  0.38920875892E+04  0.29877963533E+04 0.  0.
        4    1    3    3  502    0  0.30336810365E+03  0.15417845843E+03  0.64774242546E+03  0.73169328683E+03  0.12699999809E+01 0. -1.
       -4    1    3    3    0  502 -0.30336810365E+03 -0.15417845843E+03 -0.31420196260E+04  0.31603943024E+04  0.12699999809E+01 0.  1.
</event>
<event>
 5   0  0.6291798E-07  0.2988645E+04  0.7818609E-02  0.8246981E-01
       -1   -1    0    0    0  501  0.00000000000E+00  0.00000000000E+00  0.90637253388E+03  0.90637253389E+03  0.50400001928E-02 0.  1.
        1   -1    0    0  501    0  0.00000000000E+00  0.00000000000E+00 -0.24636661841E+04  0.24636661841E+04  0.50400001928E-02 0. -1.
    10030    2    1    2    0    0  0.00000000000E+00  0.00000000000E+00 -0.15572936502E+04  0.33700387180E+04  0.29886447510E+04 0.  0.
        1    1    3    3  502    0  0.14788240528E+04  0.21311341864E+03 -0.74964600175E+03  0.16716180892E+04  0.50400001928E-02 0.  1.
       -1    1    3    3    0  502 -0.14788240528E+04 -0.21311341864E+03 -0.80764764849E+03  0.16984206288E+04  0.50400001928E-02 0. -1.
</event>
<event>
 5   0  0.1625212E-06  0.2985333E+04  0.7818609E-02  0.8247931E-01
        2   -1    0    0  501    0  0.00000000000E+00  0.00000000000E+00  0.30568474619E+04  0.30568474619E+04  0.25500000920E-02 0.  1.
       -2   -1    0    0    0  501  0.00000000000E+00  0.00000000000E+00 -0.72887313262E+03  0.72887313263E+03  0.25500000920E-02 0. -1.
    10030    2    1    2    0    0  0.00000000000E+00  0.00000000000E+00  0.23279743292E+04  0.37857205945E+04  0.29853334725E+04 0.  0.
        4    1    3    3  502    0 -0.81510749342E+03  0.12238249681E+04  0.83844027317E+03  0.16926699273E+04  0.12699999809E+01 0.  1.
       -4    1    3    3    0  502  0.81510749342E+03 -0.12238249681E+04  0.14895340561E+04  0.20930506672E+04  0.12699999809E+01 0. -1.
</event>
<event>
 5   0  0.5874741E-07  0.3009388E+04  0.7818609E-02  0.8241055E-01
       -1   -1    0    0    0  501  0.00000000000E+00  0.00000000000E+00  0.14061202426E+04  0.14061202426E+04  0.50400001928E-02 0.  1.
        1   -1    0    0  501    0  0.00000000000E+00  0.00000000000E+00 -0.16101779081E+04  0.16101779082E+04  0.50400001928E-02 0. -1.
    10030    2    1    2    0    0  0.00000000000E+00  0.00000000000E+00 -0.20405766555E+03  0.30162981508E+04  0.30093878121E+04 0.  0.
        4    1    3    3  502    0 -0.47334127089E+03  0.12485102168E+04  0.59330217426E+03  0.14611087581E+04  0.12699999809E+01 0.  1.
       -4    1    3    3    0  502  0.47334127089E+03 -0.12485102168E+04 -0.79735983981E+03  0.15551893927E+04  0.12699999809E+01 0. -1.
</event>
<event>
 5   0  0.6291798E-07  0.2999610E+04  0.7818609E-02  0.8243842E-01
        1   -1    0    0  501    0  0.00000000000E+00  0.00000000000E+00  0.11716471845E+04  0.11716471845E+04  0.50400001928E-02 0. -1.
       -1   -1    0    0    0  501  0.00000000000E+00  0.00000000000E+00 -0.19198745647E+04  0.19198745647E+04  0.50400001928E-02 0.  1.
    10030    2    1    2    0    0  0.00000000000E+00  0.00000000000E+00 -0.74822738025E+03  0.30915217492E+04  0.29996103936E+04 0.  0.
        1    1    3    3  502    0  0.12440755469E+04 -0.54683239038E+03  0.27988960418E+03  0.13874753404E+04  0.50400001928E-02 0. -1.
       -1    1    3    3    0  502 -0.12440755469E+04  0.54683239038E+03 -0.10281169844E+04  0.17040464088E+04  0.50400001928E-02 0.  1.
</event>
<event>
 5   0  0.5887179E-07  0.3001121E+04  0.7818609E-02  0.8243411E-01
        1   -1    0    0  501    0  0.00000000000E+00  0.00000000000E+00  0.24476894610E+04  0.24476894610E+04  0.50400001928E-02 0.  1.
       -1   -1    0    0    0  501  0.00000000000E+00  0.00000000000E+00 -0.91992157686E+03  0.91992157688E+03  0.50400001928E-02 0. -1.
    10030    2    1    2    0    0  0.00000000000E+00  0.00000000000E+00  0.15277678841E+04  0.33676110379E+04  0.30011213562E+04 0.  0.
        3    1    3    3  502    0  0.85265756949E+03  0.57015300766E+02  0.21479634030E+04  0.23117141835E+04  0.10100000352E+00 0.  1.
       -3    1    3    3    0  502 -0.85265756949E+03 -0.57015300766E+02 -0.62019551885E+03  0.10558968544E+04  0.10100000352E+00 0. -1.
</event>
<event>
 5   0  0.5887179E-07  0.3005176E+04  0.7818609E-02  0.8242254E-01
        1   -1    0    0  501    0  0.00000000000E+00  0.00000000000E+00  0.21837457406E+04  0.21837457406E+04  0.50400001928E-02 0.  1.
       -1   -1    0    0    0  501  0.00000000000E+00  0.00000000000E+00 -0.10338983553E+04  0.10338983553E+04  0.50400001928E-02 0. -1.
    10030    2    1    2    0    0  0.00000000000E+00  0.00000000000E+00  0.11498473853E+04  0.32176440960E+04  0.30051762875E+04 0.  0.
        3    1    3    3  502    0 -0.65541217764E+01 -0.13532198944E+04  0.12741855339E+04  0.18587081062E+04  0.10100000352E+00 0. -1.
       -3    1    3    3    0  502  0.65541217764E+01  0.13532198944E+04 -0.12433814859E+03  0.13589359898E+04  0.10100000352E+00 0.  1.
</event>
<event>
 5   0  0.1625212E-06  0.3008024E+04  0.7818609E-02  0.8241443E-01
        2   -1    0    0  501    0  0.00000000000E+00  0.00000000000E+00  0.21476993100E+04  0.21476993100E+04  0.25500000920E-02 0. -1.
       -2   -1    0    0    0  501  0.00000000000E+00  0.00000000000E+00 -0.10532441466E+04  0.10532441466E+04  0.25500000920E-02 0.  1.
    10030    2    1    2    0    0  0.00000000000E+00  0.00000000000E+00  0.10944551634E+04  0.32009434566E+04  0.30080237545E+04 0.  0.
        4    1    3    3  502    0 -0.45120911548E+03 -0.89066543473E+03  0.17441668990E+04  0.20097249481E+04  0.12699999809E+01 0. -1.
       -4    1    3    3    0  502  0.45120911548E+03  0.89066543473E+03 -0.64971173568E+03  0.11912185085E+04  0.12699999809E+01 0.  1.
</event>
<event>
 5   0  0.5931588E-07  0.2997343E+04  0.7818609E-02  0.8244490E-01
       -1   -1    0    0    0  501  0.00000000000E+00  0.00000000000E+00  0.10274198642E+04  0.10274198642E+04  0.50400001928E-02 0.  1.
        1   -1    0    0  501    0  0.00000000000E+00  0.00000000000E+00 -0.21860741354E+04  0.21860741354E+04  0.50400001928E-02 0. -1.
    10030    2    1    2    0    0  0.00000000000E+00  0.00000000000E+00 -0.11586542713E+04  0.32134939996E+04  0.29973428174E+04 0.  0.
        2    1    3    3  502    0  0.76517425048E+02 -0.11827860573E+04  0.40397070324E+03  0.12522100873E+04  0.25500000920E-02 0.  1.
       -2    1    3    3    0  502 -0.76517425048E+02  0.11827860573E+04 -0.15626249745E+04  0.19612839123E+04  0.25500000920E-02 0. -1.
</event>
<event>
 5   0  0.5874741E-07  0.3003180E+04  0.7818609E-02  0.8242823E-01
        1   -1    0    0  501    0  0.00000000000E+00  0.00000000000E+00  0.19221950430E+04  0.19221950430E+04  0.50400001928E-02 0. -1.
       -1   -1    0    0    0  501  0.00000000000E+00  0.00000000000E+00 -0.11730197812E+04  0.11730197812E+04  0.50400001928E-02 0.  1.
    10030    2    1    2    0    0  0.00000000000E+00  0.00000000000E+00  0.74917526183E+03  0.30952148242E+04  0.30031801869E+04 0.  0.
        4    1    3    3  502    0  0.11071048154E+04  0.57515471743E+03 -0.48665682529E+03  0.13391491701E+04  0.12699999809E+01 0.  1.
       -4    1    3    3    0  502 -0.11071048154E+04 -0.57515471743E+03  0.12358320871E+04  0.17560656541E+04  0.12699999809E+01 0. -1.
</event>
<event>
 5   0  0.1625212E-06  0.2995340E+04  0.7818609E-02  0.8245063E-01
        2   -1    0    0  501    0  0.00000000000E+00  0.00000000000E+00  0.27236526959E+04  0.27236526959E+04  0.25500000920E-02 0. -1.
       -2   -1    0    0    0  501  0.00000000000E+00  0.00000000000E+00 -0.82353229992E+03  0.82353229992E+03  0.25500000920E-02 0.  1.
    10030    2    1    2    0    0  0.00000000000E+00  0.00000000000E+00  0.19001203960E+04  0.35471849958E+04  0.29953403605E+04 0.  0.
        4    1    3    3  502    0  0.85654503197E+03  0.95028218297E+03  0.27946287556E+02  0.12796437891E+04  0.12699999809E+01 0.  1.
       -4    1    3    3    0  502 -0.85654503197E+03 -0.95028218297E+03  0.18721741084E+04  0.22675412067E+04  0.12699999809E+01 0. -1.
</event>
<event>
 5   0  0.1560174E-06  0.2996378E+04  0.7818609E-02  0.8244766E-01
        2   -1    0    0  501    0  0.00000000000E+00  0.00000000000E+00  0.15835134029E+04  0.15835134029E+04  0.25500000920E-02 0. -1.
       -2   -1    0    0    0  501  0.00000000000E+00  0.00000000000E+00 -0.14174616903E+04  0.14174616903E+04  0.25500000920E-02 0.  1.
    10030    2    1    2    0    0  0.00000000000E+00  0.00000000000E+00  0.16605171264E+03  0.30009750932E+04  0.29963775361E+04 0.  0.
        5    1    3    3  502    0 -0.78061930042E+03 -0.11913747100E+04 -0.38223758323E+03  0.14747433173E+04  0.46999998093E+01 0.  1.
       -5    1    3    3    0  502  0.78061930042E+03  0.11913747100E+04  0.54828929587E+03  0.15262317759E+04  0.46999998093E+01 0. -1.
</event>
<event>
 5   0  0.5874741E-07  0.2990773E+04  0.7818609E-02  0.8246371E-01
       -1   -1    0    0    0  501  0.00000000000E+00  0.00000000000E+00  0.12435059507E+04  0.12435059507E+04  0.50400001928E-02 0.  1.
        1   -1    0    0  501    0  0.00000000000E+00  0.00000000000E+00 -0.17982872375E+04  0.17982872375E+04  0.50400001928E-02 0. -1.
    10030    2    1    2    0    0  0.00000000000E+00  0.00000000000E+00 -0.55478128682E+03  0.30417931882E+04  0.29907730645E+04 0.  0.
        4    1    3    3  502    0 -0.12492637919E+04  0.46103168026E+03  0.41463501181E+03  0.13946806222E+04  0.12699999809E+01 0.  1.
       -4    1    3    3    0  502  0.12492637919E+04 -0.46103168026E+03 -0.96941629863E+03  0.16471125660E+04  0.12699999809E+01 0. -1.
</event>
<event>
 5   0  0.1625212E-06  0.3003909E+04  0.7818609E-02  0.8242615E-01
        2   -1    0    0  501    0  0.00000000000E+00  0.00000000000E+00  0.16786629322E+04  0.16786629322E+04  0.25500000920E-02 0. -1.
       -2   -1    0    0    0  501  0.00000000000E+00  0.00000000000E+00 -0.13438478540E+04  0.13438478540E+04  0.25500000920E-02 0.  1.
    10030    2    1    2    0    0  0.00000000000E+00  0.00000000000E+00  0.33481507820E+03  0.30225107862E+04  0.30039091724E+04 0.  0.
        4    1    3    3  502    0 -0.22127406863E+03  0.13436910808E+04  0.80489064776E+03  0.15818718348E+04  0.12699999809E+01 0. -1.
       -4    1    3    3    0  502  0.22127406863E+03 -0.13436910808E+04 -0.47007556956E+03  0.14406389513E+04  0.12699999809E+01 0.  1.
</event>
<event>
 5   0  0.1635086E-06  0.3010227E+04  0.7818609E-02  0.8240816E-01
        2   -1    0    0  501    0  0.00000000000E+00  0.00000000000E+00  0.17603450279E+04  0.17603450279E+04  0.25500000920E-02 0.  1.
       -2   -1    0    0    0  501  0.00000000000E+00  0.00000000000E+00 -0.12868882634E+04  0.12868882634E+04  0.25500000920E-02 0. -1.
    10030    2    1    2    0    0  0.00000000000E+00  0.00000000000E+00  0.47345676440E+03  0.30472332913E+04  0.30102274705E+04 0.  0.
        3    1    3    3  502    0 -0.23273376896E+03 -0.14553879353E+04  0.54551651582E+03  0.15715938816E+04  0.10100000352E+00 0.  1.
       -3    1    3    3    0  502  0.23273376896E+03  0.14553879353E+04 -0.72059751412E+02  0.14756394097E+04  0.10100000352E+00 0. -1.
</event>
<event>
 5   0  0.5916703E-07  0.2998628E+04  0.7818609E-02  0.8244123E-01
       -1   -1    0    0    0  501  0.00000000000E+00  0.00000000000E+00  0.98911182673E+03  0.98911182674E+03  0.50400001928E-02 0.  1.
        1   -1    0    0  501    0  0.00000000000E+00  0.00000000000E+00 -0.22726883919E+04  0.22726883919E+04  0.50400001928E-02 0. -1.
    10030    2    1    2    0    0  0.00000000000E+00  0.00000000000E+00 -0.12835765652E+04  0.32618002187E+04  0.29986283311E+04 0.  0.
        5    1    3    3  502    0  0.36185336065E+03 -0.10363764171E+02  0.94085262727E+03  0.10081026825E+04  0.46999998093E+01 0.  1.
       -5    1    3    3    0  502 -0.36185336065E+03  0.10363764171E+02 -0.22244291925E+04  0.22536975362E+04  0.46999998093E+01 0. -1.
</event>
<event>
 5   0  0.1674806E-06  0.3008871E+04  0.7818609E-02  0.8241202E-01
        2   -1    0    0  501    0  0.00000000000E+00  0.00000000000E+00  0.14713948110E+04  0.14713948110E+04  0.25500000920E-02 0.  1.
       -2   -1    0    0    0  501  0.00000000000E+00  0.00000000000E+00 -0.15382184460E+04  0.15382184460E+04  0.25500000920E-02 0. -1.
    10030    2    1    2    0    0  0.00000000000E+00  0.00000000000E+00 -0.66823635035E+02  0.30096132570E+04  0.30088713097E+04 0.  0.
        2    1    3    3  502    0  0.48747732421E+03  0.13986096296E+04  0.23044026799E+03  0.14989482162E+04  0.25500000920E-02 0. -1.
       -2    1    3    3    0  502 -0.48747732421E+03 -0.13986096296E+04 -0.29726390302E+03  0.15106650408E+04  0.25500000920E-02 0.  1.
</event>
<event>
 5   0  0.5916703E-07  0.3006990E+04  0.7818609E-02  0.8241738E-01
        1   -1    0    0  501    0  0.00000000000E+00  0.00000000000E+00  0.16352127696E+04  0.16352127696E+04  0.50400001928E-02 0. -1.
       -1   -1    0    0    0  501  0.00000000000E+00  0.00000000000E+00 -0.13823869343E+04  0.13823869343E+04  0.50400001928E-02 0.  1.
    10030    2    1    2    0    0  0.00000000000E+00  0.00000000000E+00  0.25282583526E+03  0.30175997039E+04  0.30069897024E+04 0.  0.
        5    1    3    3  502    0  0.23957268109E+03 -0.53408003419E+03  0.15161596498E+04  0.16252380521E+04  0.46999998093E+01 0. -1.
       -5    1    3    3    0  502 -0.23957268109E+03  0.53408003419E+03 -0.12633338145E+04  0.13923616518E+04  0.46999998093E+01 0.  1.
</event>
<event>
 5   0  0.1674806E-06  0.3003092E+04  0.7818609E-02  0.8242849E-01
       -2   -1    0    0    0  501  0.00000000000E+00  0.00000000000E+00  0.90748142978E+03  0.90748142979E+03  0.25500000920E-02 0.  1.
        2   -1    0    0  501    0  0.00000000000E+00  0.00000000000E+00 -0.24845026135E+04  0.24845026136E+04  0.25500000920E-02 0. -1.
    10030    2    1    2    0    0  0.00000000000E+00  0.00000000000E+00 -0.15770211838E+04  0.33919840433E+04  0.30030917296E+04 0.  0.
        2    1    3    3  502    0 -0.83480561111E+03 -0.11034410193E+04 -0.12975362171E+03  0.13897188542E+04  0.25500000920E-02 0.  1.
       -2    1    3    3    0  502  0.83480561111E+03  0.11034410193E+04 -0.14472675621E+04  0.20022651891E+04  0.25500000920E-02 0. -1.
</event>
<event>
 5   0  0.5887179E-07  0.3000134E+04  0.7818609E-02  0.8243693E-01
        1   -1    0    0  501    0  0.00000000000E+00  0.00000000000E+00  0.85703037286E+03  0.85703037287E+03  0.50400001928E-02 0. -1.
       -1   -1    0    0    0  501  0.00000000000E+00  0.00000000000E+00 -0.26255782734E+04  0.26255782734E+04  0.50400001928E-02 0.  1.
    10030    2    1    2    0    0  0.00000000000E+00  0.00000000000E+00 -0.17685479005E+04  0.34826086463E+04  0.30001335481E+04 0.  0.
        3    1    3    3  502    0 -0.50363796662E+03 -0.40269143172E+03 -0.24564811213E+04  0.25397068926E+04  0.10100000352E+00 0.  1.
       -3    1    3    3    0  502  0.50363796662E+03  0.40269143172E+03  0.68793322080E+03  0.94290175368E+03  0.10100000352E+00 0. -1.
</event>
<event>
 5   0  0.1635086E-06  0.2976873E+04  0.7818609E-02  0.8250366E-01
       -2   -1    0    0    0  501  0.00000000000E+00  0.00000000000E+00  0.84069389169E+03  0.84069389170E+03  0.25500000920E-02 0.  1.
        2   -1    0    0  501    0  0.00000000000E+00  0.00000000000E+00 -0.26352555626E+04  0.26352555626E+04  0.25500000920E-02 0. -1.
    10030    2    1    2    0    0  0.00000000000E+00  0.00000000000E+00 -0.17945616709E+04  0.34759494543E+04  0.29768730269E+04 0.  0.
        3    1    3    3  502    0 -0.13906851993E+04  0.53050521087E+03 -0.89898972040E+03  0.17388569895E+04  0.10100000352E+00 0. -1.
       -3    1    3    3    0  502  0.13906851993E+04 -0.53050521087E+03 -0.89557195048E+03  0.17370924648E+04  0.10100000352E+00 0.  1.
</event>
<event>
 5   0  0.5874741E-07  0.2992006E+04  0.7818609E-02  0.8246017E-01
       -1   -1    0    0    0  501  0.00000000000E+00  0.00000000000E+00  0.19159136544E+04  0.19159136544E+04  0.50400001928E-02 0. -1.
        1   -1    0    0  501    0  0.00000000000E+00  0.00000000000E+00 -0.11681242273E+04  0.11681242273E+04  0.50400001928E-02 0.  1.
    10030    2    1    2    0    0  0.00000000000E+00  0.00000000000E+00  0.74778942719E+03  0.30840378817E+04  0.29920061210E+04 0.  0.
        4    1    3    3  502    0  0.47177918782E+03  0.11517188294E+04  0.12294817883E+04  0.17494739051E+04  0.12699999809E+01 0. -1.
       -4    1    3    3    0  502 -0.47177918782E+03 -0.11517188294E+04 -0.48169236111E+03  0.13345639766E+04  0.12699999809E+01 0.  1.
</event>
<event>
 5   0  0.6291798E-07  0.3051579E+04  0.7818609E-02  0.8229154E-01
       -1   -1    0    0    0  501  0.00000000000E+00  0.00000000000E+00  0.72394117669E+03  0.72394117671E+03  0.50400001928E-02 0.  1.
        1   -1    0    0  501    0  0.00000000000E+00  0.00000000000E+00 -0.32157773174E+04  0.32157773174E+04  0.50400001928E-02 0. -1.
    10030    2    1    2    0    0  0.00000000000E+00  0.00000000000E+00 -0.24918361407E+04  0.39397184942E+04  0.30515790111E+04 0.  0.
        1    1    3    3  502    0  0.13525320181E+04  0.22064882169E+03 -0.21119804431E+04  0.25176358265E+04  0.50400001928E-02 0. -1.
       -1    1    3    3    0  502 -0.13525320181E+04 -0.22064882169E+03 -0.37985569762E+03  0.14220826677E+04  0.50400001928E-02 0.  1.
</event>
<event>
 5   0  0.1674806E-06  0.2987019E+04  0.7818609E-02  0.8247447E-01
        2   -1    0    0  501    0  0.00000000000E+00  0.00000000000E+00  0.22141951519E+04  0.22141951519E+04  0.25500000920E-02 0.  1.
       -2   -1    0    0    0  501  0.00000000000E+00  0.00000000000E+00 -0.10073958277E+04  0.10073958277E+04  0.25500000920E-02 0. -1.
    10030    2    1    2    0    0  0.00000000000E+00  0.00000000000E+00  0.12067993242E+04  0.32215909796E+04  0.29870192217E+04 0.  0.
        2    1    3    3  502    0 -0.87588621752E+03 -0.97679939552E+03 -0.16626400575E+03  0.13224815480E+04  0.25500000920E-02 0. -1.
       -2    1    3    3    0  502  0.87588621752E+03  0.97679939552E+03  0.13730633300E+04  0.18991094316E+04  0.25500000920E-02 0.  1.
</event>
<event>
 5   0  0.5887179E-07  0.2999941E+04  0.7818609E-02  0.8243748E-01
       -1   -1    0    0    0  501  0.00000000000E+00  0.00000000000E+00  0.13390614690E+04  0.13390614690E+04  0.50400001928E-02 0.  1.
        1   -1    0    0  501    0  0.00000000000E+00  0.00000000000E+00 -0.16802156938E+04  0.16802156938E+04  0.50400001928E-02 0. -1.
    10030    2    1    2    0    0  0.00000000000E+00  0.00000000000E+00 -0.34115422479E+03  0.30192771629E+04  0.29999413963E+04 0.  0.
        3    1    3    3  502    0 -0.71737922269E+03 -0.52335145161E+03  0.10460910585E+04  0.13721647875E+04  0.10100000352E+00 0.  1.
       -3    1    3    3    0  502  0.71737922269E+03  0.52335145161E+03 -0.13872452833E+04  0.16471123754E+04  0.10100000352E+00 0. -1.
</event>
<event>
 5   0  0.1625212E-06  0.2997615E+04  0.7818609E-02  0.8244412E-01
        2   -1    0    0  501    0  0.00000000000E+00  0.00000000000E+00  0.15478622818E+04  0.15478622818E+04  0.25500000920E-02 0. -1.
       -2   -1    0    0    0  501  0.00000000000E+00  0.00000000000E+00 -0.14513077966E+04  0.14513077966E+04  0.25500000920E-02 0.  1.
    10030    2    1    2    0    0  0.00000000000E+00  0.00000000000E+00  0.96554485250E+02  0.29991700784E+04  0.29976154508E+04 0.  0.
        4    1    3    3  502    0  0.25446337161E+03 -0.15170826807E+03  0.15182757494E+04  0.15469097809E+04  0.12699999809E+01 0. -1.
       -4    1    3    3    0  502 -0.25446337161E+03  0.15170826807E+03 -0.14217212641E+04  0.14522602976E+04  0.12699999809E+01 0.  1.
</event>
<event>
 5   0  0.1635086E-06  0.3005117E+04  0.7818609E-02  0.8242271E-01
        2   -1    0    0  501    0  0.00000000000E+00  0.00000000000E+00  0.19880324722E+04  0.19880324722E+04  0.25500000920E-02 0.  1.
       -2   -1    0    0    0  501  0.00000000000E+00  0.00000000000E+00 -0.11356366547E+04  0.11356366547E+04  0.25500000920E-02 0. -1.
    10030    2    1    2    0    0  0.00000000000E+00  0.00000000000E+00  0.85239581747E+03  0.31236691270E+04  0.30051173330E+04 0.  0.
        3    1    3    3  502    0 -0.11331916154E+04  0.59618317748E+03 -0.39102722960E+03  0.13388278168E+04  0.10100000352E+00 0. -1.
       -3    1    3    3    0  502  0.11331916154E+04 -0.59618317748E+03  0.12434230471E+04  0.17848413102E+04  0.10100000352E+00 0.  1.
</event>
<event>
 5   0  0.1560174E-06  0.3005717E+04  0.7818609E-02  0.8242100E-01
       -2   -1    0    0    0  501  0.00000000000E+00  0.00000000000E+00  0.26289470047E+04  0.26289470047E+04  0.25500000920E-02 0.  1.
        2   -1    0    0  501    0  0.00000000000E+00  0.00000000000E+00 -0.85912097214E+03  0.85912097214E+03  0.25500000920E-02 0. -1.
    10030    2    1    2    0    0  0.00000000000E+00  0.00000000000E+00  0.17698260326E+04  0.34880679769E+04  0.30057168905E+04 0.  0.
        5    1    3    3  502    0  0.56929737969E+03 -0.12667250621E+04  0.15514250073E+04  0.20822184162E+04  0.46999998093E+01 0.  1.
       -5    1    3    3    0  502 -0.56929737969E+03  0.12667250621E+04  0.21840102534E+03  0.14058495607E+04  0.46999998093E+01 0. -1.
</event>
<event>
 5   0  0.5874741E-07  0.3012112E+04  0.7818609E-02  0.8240281E-01
        1   -1    0    0  501    0  0.00000000000E+00  0.00000000000E+00  0.75388664912E+03  0.75388664914E+03  0.50400001928E-02 0.  1.
       -1   -1    0    0    0  501  0.00000000000E+00  0.00000000000E+00 -0.30086810055E+04  0.30086810055E+04  0.50400001928E-02 0. -1.
    10030    2    1    2    0    0  0.00000000000E+00  0.00000000000E+00 -0.22547943564E+04  0.37625676546E+04  0.30121118449E+04 0.  0.
        4    1    3    3  502    0  0.13696700194E+04  0.42470160621E+03 -0.17023239140E+04  0.22258202392E+04  0.12699999809E+01 0. -1.
       -4    1    3    3    0  502 -0.13696700194E+04 -0.42470160621E+03 -0.55247044239E+03  0.15367474154E+04  0.12699999809E+01 0.  1.
</event>
<event>
 5   0  0.5887179E-07  0.2996811E+04  0.7818609E-02  0.8244642E-01
        1   -1    0    0  501    0  0.00000000000E+00  0.00000000000E+00  0.19240647556E+04  0.19240647556E+04  0.50400001928E-02 0.  1.
       -1   -1    0    0    0  501  0.00000000000E+00  0.00000000000E+00 -0.11669145187E+04  0.11669145187E+04  0.50400001928E-02 0. -1.
    10030    2    1    2    0    0  0.00000000000E+00  0.00000000000E+00  0.75715023693E+03  0.30909792743E+04  0.29968110372E+04 0.  0.
        3    1    3    3  502    0  0.41265750938E+03 -0.54891792302E+03 -0.99504696672E+03  0.12090143020E+04  0.10100000352E+00 0. -1.
       -3    1    3    3    0  502 -0.41265750938E+03  0.54891792302E+03  0.17521972037E+04  0.18819649723E+04  0.10100000352E+00 0.  1.
</event>
<event>
 5   0  0.5916703E-07  0.2992544E+04  0.7818609E-02  0.8245863E-01
       -1   -1    0    0    0  501  0.00000000000E+00  0.00000000000E+00  0.13107327859E+04  0.13107327859E+04  0.50400001928E-02 0.  1.
        1   -1    0    0  501    0  0.00000000000E+00  0.00000000000E+00 -0.17080751161E+04  0.17080751161E+04  0.50400001928E-02 0. -1.
    10030    2    1    2    0    0  0.00000000000E+00  0.00000000000E+00 -0.39734233026E+03  0.30188079020E+04  0.29925441052E+04 0.  0.
        5    1    3    3  502    0  0.11932770827E+03 -0.92741872771E+03 -0.13770253766E+04  0.16645016000E+04  0.46999998093E+01 0. -1.
       -5    1    3    3    0  502 -0.11932770827E+03  0.92741872771E+03  0.97968304634E+03  0.13543063020E+04  0.46999998093E+01 0.  1.
</event>
<event>
 5   0  0.1625212E-06  0.2986294E+04  0.7818609E-02  0.8247656E-01
        2   -1    0    0  501    0  0.00000000000E+00  0.00000000000E+00  0.24890207391E+04  0.24890207391E+04  0.25500000920E-02 0.  1.
       -2   -1    0    0    0  501  0.00000000000E+00  0.00000000000E+00 -0.89572901414E+03  0.89572901414E+03  0.25500000920E-02 0. -1.
    10030    2    1    2    0    0  0.00000000000E+00  0.00000000000E+00  0.15932917250E+04  0.33847497533E+04  0.29862940865E+04 0.  0.
        4    1    3    3  502    0 -0.14292866930E+04 -0.31877622518E+03  0.46618255504E+03  0.15368170093E+04  0.12699999809E+01 0. -1.
       -4    1    3    3    0  502  0.14292866930E+04  0.31877622518E+03  0.11271091700E+04  0.18479327440E+04  0.12699999809E+01 0.  1.
</event>
<event>
 5   0  0.1723916E-06  0.2979883E+04  0.7818609E-02  0.8249499E-01
       -2   -1    0    0    0  501  0.00000000000E+00  0.00000000000E+00  0.18589542809E+04  0.18589542809E+04  0.25500000920E-02 0. -1.
        2   -1    0    0  501    0  0.00000000000E+00  0.00000000000E+00 -0.11941801919E+04  0.11941801919E+04  0.25500000920E-02 0.  1.
    10030    2    1    2    0    0  0.00000000000E+00  0.00000000000E+00  0.66477408893E+03  0.30531344728E+04  0.29798834742E+04 0.  0.
        1    1    3    3  502    0  0.19748474989E+03 -0.78838982589E+03 -0.94705585769E+03  0.12479877971E+04  0.50400001928E-02 0.  1.
       -1    1    3    3    0  502 -0.19748474989E+03  0.78838982589E+03  0.16118299466E+04  0.18051466757E+04  0.50400001928E-02 0. -1.
</event>
<event>
 5   0  0.1560174E-06  0.2999704E+04  0.7818609E-02  0.8243815E-01
       -2   -1    0    0    0  501  0.00000000000E+00  0.00000000000E+00  0.13743282733E+04  0.13743282733E+04  0.25500000920E-02 0.  1.
        2   -1    0    0  501    0  0.00000000000E+00  0.00000000000E+00 -0.16368407473E+04  0.16368407473E+04  0.25500000920E-02 0. -1.
    10030    2    1    2    0    0  0.00000000000E+00  0.00000000000E+00 -0.26251247405E+03  0.30111690206E+04  0.29997043307E+04 0.  0.
        5    1    3    3  502    0 -0.11894396904E+04 -0.64654451805E+03 -0.77928362462E+03  0.15620792709E+04  0.46999998093E+01 0.  1.
       -5    1    3    3    0  502  0.11894396904E+04  0.64654451805E+03  0.51677115057E+03  0.14490897498E+04  0.46999998093E+01 0. -1.
</event>
<event>
 5   0  0.1625212E-06  0.2987105E+04  0.7818609E-02  0.8247423E-01
       -2   -1    0    0    0  501  0.00000000000E+00  0.00000000000E+00  0.12189552336E+04  0.12189552336E+04  0.25500000920E-02 0.  1.
        2   -1    0    0  501    0  0.00000000000E+00  0.00000000000E+00 -0.18300084080E+04  0.18300084080E+04  0.25500000920E-02 0. -1.
    10030    2    1    2    0    0  0.00000000000E+00  0.00000000000E+00 -0.61105317440E+03  0.30489636416E+04  0.29871045020E+04 0.  0.
        4    1    3    3  502    0 -0.16689141565E+03  0.11947441895E+04  0.59329441137E+03  0.13443460471E+04  0.12699999809E+01 0.  1.
       -4    1    3    3    0  502  0.16689141565E+03 -0.11947441895E+04 -0.12043475858E+04  0.17046175944E+04  0.12699999809E+01 0. -1.
</event>
<event>
 5   0  0.1674806E-06  0.3006294E+04  0.7818609E-02  0.8241936E-01
        2   -1    0    0  501    0  0.00000000000E+00  0.00000000000E+00  0.15903712076E+04  0.15903712076E+04  0.25500000920E-02 0.  1.
       -2   -1    0    0    0  501  0.00000000000E+00  0.00000000000E+00 -0.14207064788E+04  0.14207064788E+04  0.25500000920E-02 0. -1.
    10030    2    1    2    0    0  0.00000000000E+00  0.00000000000E+00  0.16966472882E+03  0.30110776865E+04  0.30062938502E+04 0.  0.
        2    1    3    3  502    0 -0.80481347659E+03 -0.48449896095E+03  0.12601504130E+04  0.15717643076E+04  0.25500000920E-02 0.  1.
       -2    1    3    3    0  502  0.80481347659E+03  0.48449896095E+03 -0.10904856842E+04  0.14393133789E+04  0.25500000920E-02 0. -1.
</event>
<event>
 5   0  0.1560174E-06  0.3013196E+04  0.7818609E-02  0.8239973E-01
        2   -1    0    0  501    0  0.00000000000E+00  0.00000000000E+00  0.19312004547E+04  0.19312004547E+04  0.25500000920E-02 0.  1.
       -2   -1    0    0    0  501  0.00000000000E+00  0.00000000000E+00 -0.11753504531E+04  0.11753504531E+04  0.25500000920E-02 0. -1.
    10030    2    1    2    0    0  0.00000000000E+00  0.00000000000E+00  0.75585000165E+03  0.31065509078E+04  0.30131958645E+04 0.  0.
        5    1    3    3  502    0 -0.11695157239E+04  0.32004599140E+03  0.12998436567E+04  0.17775860280E+04  0.46999998093E+01 0.  1.
       -5    1    3    3    0  502  0.11695157239E+04 -0.32004599140E+03 -0.54399365504E+03  0.13289648798E+04  0.46999998093E+01 0. -1.
</event>
<event>
 5   0  0.1560174E-06  0.2972078E+04  0.7818609E-02  0.8251749E-01
        2   -1    0    0  501    0  0.00000000000E+00  0.00000000000E+00  0.25325080106E+04  0.25325080106E+04  0.25500000920E-02 0. -1.
       -2   -1    0    0    0  501  0.00000000000E+00  0.00000000000E+00 -0.87198631209E+03  0.87198631209E+03  0.25500000920E-02 0.  1.
    10030    2    1    2    0    0  0.00000000000E+00  0.00000000000E+00  0.16605216985E+04  0.34044943227E+04  0.29720782766E+04 0.  0.
        5    1    3    3  502    0 -0.19173444029E+03  0.68648508007E+03  0.23239177626E+04  0.24307693675E+04  0.46999998093E+01 0. -1.
       -5    1    3    3    0  502  0.19173444029E+03 -0.68648508007E+03 -0.66339606401E+03  0.97372495525E+03  0.46999998093E+01 0.  1.
</event>
<event>
 5   0  0.5931588E-07  0.2997250E+04  0.7818609E-02  0.8244517E-01
        1   -1    0    0  501    0  0.00000000000E+00  0.00000000000E+00  0.16604749355E+04  0.16604749355E+04  0.50400001928E-02 0. -1.
       -1   -1    0    0    0  501  0.00000000000E+00  0.00000000000E+00 -0.13525509315E+04  0.13525509316E+04  0.50400001928E-02 0.  1.
    10030    2    1    2    0    0  0.00000000000E+00  0.00000000000E+00  0.30792400393E+03  0.30130258670E+04  0.29972500201E+04 0.  0.
        2    1    3    3  502    0 -0.13414489763E+04 -0.93684531816E+01  0.82553802011E+03  0.15751463889E+04  0.25500000920E-02 0.  1.
       -2    1    3    3    0  502  0.13414489763E+04  0.93684531816E+01 -0.51761401617E+03  0.14378794781E+04  0.25500000920E-02 0. -1.
</event>
<event>
 5   0  0.5931588E-07  0.2990065E+04  0.7818609E-02  0.8246573E-01
        1   -1    0    0  501    0  0.00000000000E+00  0.00000000000E+00  0.80761806161E+03  0.80761806163E+03  0.50400001928E-02 0.  1.
       -1   -1    0    0    0  501  0.00000000000E+00  0.00000000000E+00 -0.27675492469E+04  0.27675492469E+04  0.50400001928E-02 0. -1.
    10030    2    1    2    0    0  0.00000000000E+00  0.00000000000E+00 -0.19599311853E+04  0.35751673085E+04  0.29900653894E+04 0.  0.
        2    1    3    3  502    0 -0.83649699405E+02 -0.44196496462E+03 -0.26847215024E+04  0.27221425105E+04  0.25500000920E-02 0. -1.
       -2    1    3    3    0  502  0.83649699405E+02  0.44196496462E+03  0.72479031713E+03  0.85302479799E+03  0.25500000920E-02 0.  1.
</event>
<event>
 5   0  0.5931588E-07  0.3001563E+04  0.7818609E-02  0.8243285E-01
        1   -1    0    0  501    0  0.00000000000E+00  0.00000000000E+00  0.15130801234E+04  0.15130801234E+04  0.50400001928E-02 0.  1.
       -1   -1    0    0    0  501  0.00000000000E+00  0.00000000000E+00 -0.14885827578E+04  0.14885827578E+04  0.50400001928E-02 0. -1.
    10030    2    1    2    0    0  0.00000000000E+00  0.00000000000E+00  0.24497365575E+02  0.30016628812E+04  0.30015629148E+04 0.  0.
        2    1    3    3  502    0  0.39358474236E+03  0.80741029983E+03  0.12145884553E+04  0.15106440539E+04  0.25500000920E-02 0. -1.
       -2    1    3    3    0  502 -0.39358474236E+03 -0.80741029983E+03 -0.11900910897E+04  0.14910188274E+04  0.25500000920E-02 0.  1.
</event>
<event>
 5   0  0.5916703E-07  0.3001524E+04  0.7818609E-02  0.8243296E-01
       -1   -1    0    0    0  501  0.00000000000E+00  0.00000000000E+00  0.83040559795E+03  0.83040559796E+03  0.50400001928E-02 0. -1.
        1   -1    0    0  501    0  0.00000000000E+00  0.00000000000E+00 -0.27122726319E+04  0.27122726320E+04  0.50400001928E-02 0.  1.
    10030    2    1    2    0    0  0.00000000000E+00  0.00000000000E+00 -0.18818670340E+04  0.35426782299E+04  0.30015238641E+04 0.  0.
        5    1    3    3  502    0  0.13351234094E+04 -0.54601966511E+03 -0.45204089107E+03  0.15116398546E+04  0.46999998093E+01 0.  1.
       -5    1    3    3    0  502 -0.13351234094E+04  0.54601966511E+03 -0.14298261429E+04  0.20310383753E+04  0.46999998093E+01 0. -1.
</event>
<event>
 5   0  0.1635086E-06  0.2991468E+04  0.7818609E-02  0.8246171E-01
        2   -1    0    0  501    0  0.00000000000E+00  0.00000000000E+00  0.15114185468E+04  0.15114185468E+04  0.25500000920E-02 0. -1.
       -2   -1    0    0    0  501  0.00000000000E+00  0.00000000000E+00 -0.14802122275E+04  0.14802122275E+04  0.25500000920E-02 0.  1.
    10030    2    1    2    0    0  0.00000000000E+00  0.00000000000E+00  0.31206319310E+02  0.29916307743E+04  0.29914680101E+04 0.  0.
        3    1    3    3  502    0  0.25839193652E+03  0.36584702901E+03 -0.14115728596E+04  0.14809282189E+04  0.10100000352E+00 0.  1.
       -3    1    3    3    0  502 -0.25839193652E+03 -0.36584702901E+03  0.14427791789E+04  0.15107025554E+04  0.10100000352E+00 0. -1.
</event>
<event>
 5   0  0.6291798E-07  0.3025116E+04  0.7818609E-02  0.8236595E-01
       -1   -1    0    0    0  501  0.00000000000E+00  0.00000000000E+00  0.98111311456E+03  0.98111311457E+03  0.50400001928E-02 0. -1.
        1   -1    0    0  501    0  0.00000000000E+00  0.00000000000E+00 -0.23318728952E+04  0.23318728952E+04  0.50400001928E-02 0.  1.
    10030    2    1    2    0    0  0.00000000000E+00  0.00000000000E+00 -0.13507597807E+04  0.33129860098E+04  0.30251155872E+04 0.  0.
        1    1    3    3  502    0  0.19801065280E+03  0.91321050672E+03  0.62720223154E+03  0.11254084980E+04  0.50400001928E-02 0. -1.
       -1    1    3    3    0  502 -0.19801065280E+03 -0.91321050672E+03 -0.19779620122E+04  0.21875775117E+04  0.50400001928E-02 0.  1.
</event>
<event>
 5   0  0.5931588E-07  0.3014653E+04  0.7818609E-02  0.8239559E-01
       -1   -1    0    0    0  501  0.00000000000E+00  0.00000000000E+00  0.11172944447E+04  0.11172944447E+04  0.50400001928E-02 0.  1.
        1   -1    0    0  501    0  0.00000000000E+00  0.00000000000E+00 -0.20335137514E+04  0.20335137514E+04  0.50400001928E-02 0. -1.
    10030    2    1    2    0    0  0.00000000000E+00  0.00000000000E+00 -0.91621930668E+03  0.31508081962E+04  0.30146532920E+04 0.  0.
        2    1    3    3  502    0  0.96531464033E+03  0.11397205312E+04 -0.67035362247E+03  0.16371222384E+04  0.25500000920E-02 0. -1.
       -2    1    3    3    0  502 -0.96531464033E+03 -0.11397205312E+04 -0.24586568422E+03  0.15136859578E+04  0.25500000920E-02 0.  1.
</event>
<event>
 5   0  0.5916703E-07  0.3002526E+04  0.7818609E-02  0.8243010E-01
        1   -1    0    0  501    0  0.00000000000E+00  0.00000000000E+00  0.14775449647E+04  0.14775449647E+04  0.50400001928E-02 0.  1.
       -1   -1    0    0    0  501  0.00000000000E+00  0.00000000000E+00 -0.15253617639E+04  0.15253617640E+04  0.50400001928E-02 0. -1.
    10030    2    1    2    0    0  0.00000000000E+00  0.00000000000E+00 -0.47816799284E+02  0.30029067286E+04  0.30025259990E+04 0.  0.
        5    1    3    3  502    0 -0.68019943542E+02  0.41826934903E+03 -0.14642967515E+04  0.15243893949E+04  0.46999998093E+01 0. -1.
       -5    1    3    3    0  502  0.68019943542E+02 -0.41826934903E+03  0.14164799522E+04  0.14785173337E+04  0.46999998093E+01 0.  1.
</event>
<event>
 5   0  0.1674806E-06  0.2992200E+04  0.7818609E-02  0.8245962E-01
        2   -1    0    0  501    0  0.00000000000E+00  0.00000000000E+00  0.15889933811E+04  0.15889933811E+04  0.25500000920E-02 0. -1.
       -2   -1    0    0    0  501  0.00000000000E+00  0.00000000000E+00 -0.14086370588E+04  0.14086370588E+04  0.25500000920E-02 0.  1.
    10030    2    1    2    0    0  0.00000000000E+00  0.00000000000E+00  0.18035632232E+03  0.29976304399E+04  0.29921998348E+04 0.  0.
        2    1    3    3  502    0 -0.43052671132E+03  0.69293858099E+03  0.13465666456E+04  0.15744074622E+04  0.25500000920E-02 0. -1.
       -2    1    3    3    0  502  0.43052671132E+03 -0.69293858099E+03 -0.11662103232E+04  0.14232229777E+04  0.25500000920E-02 0.  1.
</event>
<event>
 5   0  0.1625212E-06  0.3002618E+04  0.7818609E-02  0.8242984E-01
        2   -1    0    0  501    0  0.00000000000E+00  0.00000000000E+00  0.97328540316E+03  0.97328540316E+03  0.25500000920E-02 0.  1.
       -2   -1    0    0    0  501  0.00000000000E+00  0.00000000000E+00 -0.23157940242E+04  0.23157940242E+04  0.25500000920E-02 0. -1.
    10030    2    1    2    0    0  0.00000000000E+00  0.00000000000E+00 -0.13425086210E+04  0.32890794274E+04  0.30026178714E+04 0.  0.
        4    1    3    3  502    0  0.39347790177E+02 -0.63590628419E+03 -0.21603599136E+04  0.22523502436E+04  0.12699999809E+01 0. -1.
       -4    1    3    3    0  502 -0.39347790177E+02  0.63590628419E+03  0.81785129252E+03  0.10367291838E+04  0.12699999809E+01 0.  1.
</event>
<event>
 5   0  0.5887179E-07  0.2997432E+04  0.7818609E-02  0.8244465E-01
        1   -1    0    0  501    0  0.00000000000E+00  0.00000000000E+00  0.19286934244E+04  0.19286934244E+04  0.50400001928E-02 0.  1.
       -1   -1    0    0    0  501  0.00000000000E+00  0.00000000000E+00 -0.11645966423E+04  0.11645966423E+04  0.50400001928E-02 0. -1.
    10030    2    1    2    0    0  0.00000000000E+00  0.00000000000E+00  0.76409678211E+03  0.30932900667E+04  0.29974321584E+04 0.  0.
        3    1    3    3  502    0  0.28782456462E+03 -0.10300452335E+03  0.18961768896E+04  0.19206612712E+04  0.10100000352E+00 0.  1.
       -3    1    3    3    0  502 -0.28782456462E+03  0.10300452335E+03 -0.11320801075E+04  0.11726287954E+04  0.10100000352E+00 0. -1.
</event>
<event>
 5   0  0.1674806E-06  0.3068538E+04  0.7818609E-02  0.8224426E-01
       -2   -1    0    0    0  501  0.00000000000E+00  0.00000000000E+00  0.13833984070E+04  0.13833984070E+04  0.25500000920E-02 0. -1.
        2   -1    0    0  501    0  0.00000000000E+00  0.00000000000E+00 -0.17015931267E+04  0.17015931267E+04  0.25500000920E-02 0.  1.
    10030    2    1    2    0    0  0.00000000000E+00  0.00000000000E+00 -0.31819471972E+03  0.30849915337E+04  0.30685379065E+04 0.  0.
        2    1    3    3  502    0  0.15322703324E+04  0.11102808344E+02 -0.81186166966E+02  0.15344597869E+04  0.25500000920E-02 0.  1.
       -2    1    3    3    0  502 -0.15322703324E+04 -0.11102808344E+02 -0.23700855275E+03  0.15505317468E+04  0.25500000920E-02 0. -1.
</event>
<event>
 5   0  0.5916703E-07  0.3089703E+04  0.7818609E-02  0.8218570E-01
        1   -1    0    0  501    0  0.00000000000E+00  0.00000000000E+00  0.14509777588E+04  0.14509777589E+04  0.50400001928E-02 0.  1.
       -1   -1    0    0    0  501  0.00000000000E+00  0.00000000000E+00 -0.16447980824E+04  0.16447980824E+04  0.50400001928E-02 0. -1.
    10030    2    1    2    0    0  0.00000000000E+00  0.00000000000E+00 -0.19382032357E+03  0.30957758413E+04  0.30897025329E+04 0.  0.
        5    1    3    3  502    0  0.10702118136E+04  0.89508257507E+03 -0.76155198478E+03  0.15894998137E+04  0.46999998093E+01 0. -1.
       -5    1    3    3    0  502 -0.10702118136E+04 -0.89508257507E+03  0.56773166121E+03  0.15062760276E+04  0.46999998093E+01 0.  1.
</event>
<event>
 5   0  0.5874741E-07  0.3003894E+04  0.7818609E-02  0.8242620E-01
        1   -1    0    0  501    0  0.00000000000E+00  0.00000000000E+00  0.15105052224E+04  0.15105052224E+04  0.50400001928E-02 0. -1.
       -1   -1    0    0    0  501  0.00000000000E+00  0.00000000000E+00 -0.14934377250E+04  0.14934377251E+04  0.50400001928E-02 0.  1.
    10030    2    1    2    0    0  0.00000000000E+00  0.00000000000E+00  0.17067497323E+02  0.30039429474E+04  0.30038944609E+04 0.  0.
        4    1    3    3  502    0  0.10462530961E+04  0.55912608563E+03  0.92973065692E+03  0.15072054366E+04  0.12699999809E+01 0. -1.
       -4    1    3    3    0  502 -0.10462530961E+04 -0.55912608563E+03 -0.91266315960E+03  0.14967375109E+04  0.12699999809E+01 0.  1.
</event>
<event>
 5   0  0.5931588E-07  0.2992162E+04  0.7818609E-02  0.8245973E-01
        1   -1    0    0  501    0  0.00000000000E+00  0.00000000000E+00  0.10570300595E+04  0.10570300595E+04  0.50400001928E-02 0.  1.
       -1   -1    0    0    0  501  0.00000000000E+00  0.00000000000E+00 -0.21174971966E+04  0.21174971966E+04  0.50400001928E-02 0. -1.
    10030    2    1    2    0    0  0.00000000000E+00  0.00000000000E+00 -0.10604671371E+04  0.31745272561E+04  0.29921618858E+04 0.  0.
        2    1    3    3  502    0  0.10650072346E+04 -0.68827221658E+03  0.31206745569E+03  0.13058886441E+04  0.25500000920E-02 0. -1.
       -2    1    3    3    0  502 -0.10650072346E+04  0.68827221658E+03 -0.13725345928E+04  0.18686386120E+04  0.25500000920E-02 0.  1.
</event>
<event>
 5   0  0.5916703E-07  0.2979180E+04  0.7818609E-02  0.8249701E-01
       -1   -1    0    0    0  501  0.00000000000E+00  0.00000000000E+00  0.87171133777E+03  0.87171133779E+03  0.50400001928E-02 0.  1.
        1   -1    0    0  501    0  0.00000000000E+00  0.00000000000E+00 -0.25454273594E+04  0.25454273594E+04  0.50400001928E-02 0. -1.
    10030    2    1    2    0    0  0.00000000000E+00  0.00000000000E+00 -0.16737160217E+04  0.34171386972E+04  0.29791796782E+04 0.  0.
        5    1    3    3  502    0  0.75387886953E+03 -0.69436434865E+02 -0.23082940211E+04  0.24292793471E+04  0.46999998093E+01 0. -1.
       -5    1    3    3    0  502 -0.75387886953E+03  0.69436434865E+02  0.63457799939E+03  0.98785935017E+03  0.46999998093E+01 0.  1.
</event>
<event>
 5   0  0.6291798E-07  0.2998009E+04  0.7818609E-02  0.8244300E-01
       -1   -1    0    0    0  501  0.00000000000E+00  0.00000000000E+00  0.24561380454E+04  0.24561380454E+04  0.50400001928E-02 0.  1.
        1   -1    0    0  501    0  0.00000000000E+00  0.00000000000E+00 -0.91485689860E+03  0.91485689861E+03  0.50400001928E-02 0. -1.
    10030    2    1    2    0    0  0.00000000000E+00  0.00000000000E+00  0.15412811468E+04  0.33709949441E+04  0.29980092293E+04 0.  0.
        1    1    3    3  502    0  0.47423244229E+03 -0.12539196922E+04  0.16527081760E+02  0.13407028560E+04  0.50400001928E-02 0. -1.
       -1    1    3    3    0  502 -0.47423244229E+03  0.12539196922E+04  0.15247540651E+04  0.20302920880E+04  0.50400001928E-02 0.  1.
</event>
<event>
 5   0  0.1635086E-06  0.2973821E+04  0.7818609E-02  0.8251246E-01
       -2   -1    0    0    0  501  0.00000000000E+00  0.00000000000E+00  0.12644745649E+04  0.12644745649E+04  0.25500000920E-02 0. -1.
        2   -1    0    0  501    0  0.00000000000E+00  0.00000000000E+00 -0.17484753938E+04  0.17484753938E+04  0.25500000920E-02 0.  1.
    10030    2    1    2    0    0  0.00000000000E+00  0.00000000000E+00 -0.48400082891E+03  0.30129499587E+04  0.29738208842E+04 0.  0.
        3    1    3    3  502    0  0.87456896776E+03 -0.11721988396E+04 -0.51382455362E+03  0.15501408585E+04  0.10100000352E+00 0.  1.
       -3    1    3    3    0  502 -0.87456896776E+03  0.11721988396E+04  0.29823724708E+02  0.14628091003E+04  0.10100000352E+00 0. -1.
</event>
<event>
 5   0  0.1635086E-06  0.3003176E+04  0.7818609E-02  0.8242824E-01
       -2   -1    0    0    0  501  0.00000000000E+00  0.00000000000E+00  0.10761821381E+04  0.10761821381E+04  0.25500000920E-02 0.  1.
        2   -1    0    0  501    0  0.00000000000E+00  0.00000000000E+00 -0.20951535458E+04  0.20951535458E+04  0.25500000920E-02 0. -1.
    10030    2    1    2    0    0  0.00000000000E+00  0.00000000000E+00 -0.10189714077E+04  0.31713356839E+04  0.30031762003E+04 0.  0.
        3    1    3    3  502    0  0.55116990775E+03  0.97902064960E+03  0.54253921459E+03  0.12476451856E+04  0.10100000352E+00 0.  1.
       -3    1    3    3    0  502 -0.55116990775E+03 -0.97902064960E+03 -0.15615106223E+04  0.19236904983E+04  0.10100000352E+00 0. -1.
</event>
<event>
 5   0  0.5916703E-07  0.3013260E+04  0.7818609E-02  0.8239954E-01
       -1   -1    0    0    0  501  0.00000000000E+00  0.00000000000E+00  0.10304796000E+04  0.10304796001E+04  0.50400001928E-02 0. -1.
        1   -1    0    0  501    0  0.00000000000E+00  0.00000000000E+00 -0.22027940052E+04  0.22027940052E+04  0.50400001928E-02 0.  1.
    10030    2    1    2    0    0  0.00000000000E+00  0.00000000000E+00 -0.11723144052E+04  0.32332736053E+04  0.30132602181E+04 0.  0.
        5    1    3    3  502    0 -0.89833418389E+03  0.87327241916E+03 -0.14841004018E+04  0.19422113985E+04  0.46999998093E+01 0.  1.
       -5    1    3    3    0  502  0.89833418389E+03 -0.87327241916E+03  0.31178599662E+03  0.12910622067E+04  0.46999998093E+01 0. -1.
</event>
<event>
 5   0  0.5887179E-07  0.3020871E+04  0.7818609E-02  0.8237796E-01
       -1   -1    0    0    0  501  0.00000000000E+00  0.00000000000E+00  0.99719542062E+03  0.99719542063E+03  0.50400001928E-02 0. -1.
        1   -1    0    0  501    0  0.00000000000E+00  0.00000000000E+00 -0.22878317252E+04  0.22878317252E+04  0.50400001928E-02 0.  1.
    10030    2    1    2    0    0  0.00000000000E+00  0.00000000000E+00 -0.12906363046E+04  0.32850271458E+04  0.30208709470E+04 0.  0.
        3    1    3    3  502    0 -0.27738254708E+03  0.86388651484E+03 -0.19584596114E+04  0.21584265213E+04  0.10100000352E+00 0.  1.
       -3    1    3    3    0  502  0.27738254708E+03 -0.86388651484E+03  0.66782330683E+03  0.11266006246E+04  0.10100000352E+00 0. -1.
</event>
<event>
 5   0  0.5887179E-07  0.3000127E+04  0.7818609E-02  0.8243695E-01
       -1   -1    0    0    0  501  0.00000000000E+00  0.00000000000E+00  0.20578268844E+04  0.20578268844E+04  0.50400001928E-02 0.  1.
        1   -1    0    0  501    0  0.00000000000E+00  0.00000000000E+00 -0.10934788150E+04  0.10934788151E+04  0.50400001928E-02 0. -1.
    10030    2    1    2    0    0  0.00000000000E+00  0.00000000000E+00  0.96434806940E+03  0.31513056995E+04  0.30001267328E+04 0.  0.
        3    1    3    3  502    0 -0.26856875205E+03 -0.43681346385E+03  0.19629103381E+04  0.20287809597E+04  0.10100000352E+00 0.  1.
       -3    1    3    3    0  502  0.26856875205E+03  0.43681346385E+03 -0.99856226871E+03  0.11225247398E+04  0.10100000352E+00 0. -1.
</event>
<event>
 5   0  0.1674806E-06  0.2992660E+04  0.7818609E-02  0.8245830E-01
       -2   -1    0    0    0  501  0.00000000000E+00  0.00000000000E+00  0.90603635729E+03  0.90603635729E+03  0.25500000920E-02 0. -1.
        2   -1    0    0  501    0  0.00000000000E+00  0.00000000000E+00 -0.24712071907E+04  0.24712071907E+04  0.25500000920E-02 0.  1.
    10030    2    1    2    0    0  0.00000000000E+00  0.00000000000E+00 -0.15651708335E+04  0.33772435480E+04  0.29926600617E+04 0.  0.
        2    1    3    3  502    0  0.14124713730E+04 -0.29997312706E+03 -0.33980663000E+03  0.14834176089E+04  0.25500000920E-02 0. -1.
       -2    1    3    3    0  502 -0.14124713730E+04  0.29997312706E+03 -0.12253642035E+04  0.18938259391E+04  0.25500000920E-02 0.  1.
</event>
<event>
 5   0  0.1674806E-06  0.2991481E+04  0.7818609E-02  0.8246168E-01
        2   -1    0    0  501    0  0.00000000000E+00  0.00000000000E+00  0.16478980454E+04  0.16478980454E+04  0.25500000920E-02 0.  1.
       -2   -1    0    0    0  501  0.00000000000E+00  0.00000000000E+00 -0.13576326321E+04  0.13576326321E+04  0.25500000920E-02 0. -1.
    10030    2    1    2    0    0  0.00000000000E+00  0.00000000000E+00  0.29026541325E+03  0.30055306775E+04  0.29914813460E+04 0.  0.
        2    1    3    3  502    0  0.30265794912E+03 -0.62905806690E+03 -0.11839270074E+04  0.13744086163E+04  0.25500000920E-02 0. -1.
       -2    1    3    3    0  502 -0.30265794912E+03  0.62905806690E+03  0.14741924206E+04  0.16311220613E+04  0.25500000920E-02 0.  1.
</event>
<event>
 5   0  0.5874741E-07  0.2995971E+04  0.7818609E-02  0.8244882E-01
        1   -1    0    0  501    0  0.00000000000E+00  0.00000000000E+00  0.13995115226E+04  0.13995115226E+04  0.50400001928E-02 0. -1.
       -1   -1    0    0    0  501  0.00000000000E+00  0.00000000000E+00 -0.16033886052E+04  0.16033886052E+04  0.50400001928E-02 0.  1.
    10030    2    1    2    0    0  0.00000000000E+00  0.00000000000E+00 -0.20387708260E+03  0.30029001278E+04  0.29959711802E+04 0.  0.
        4    1    3    3  502    0  0.60453900361E+03  0.19802120253E+03  0.12573983762E+04  0.14091600665E+04  0.12699999809E+01 0. -1.
       -4    1    3    3    0  502 -0.60453900361E+03 -0.19802120253E+03 -0.14612754588E+04  0.15937400613E+04  0.12699999809E+01 0.  1.
</event>
<event>
 5   0  0.1723916E-06  0.2997778E+04  0.7818609E-02  0.8244366E-01
       -2   -1    0    0    0  501  0.00000000000E+00  0.00000000000E+00  0.12250419149E+04  0.12250419149E+04  0.25500000920E-02 0.  1.
        2   -1    0    0  501    0  0.00000000000E+00  0.00000000000E+00 -0.18339522863E+04  0.18339522863E+04  0.25500000920E-02 0. -1.
    10030    2    1    2    0    0  0.00000000000E+00  0.00000000000E+00 -0.60891037138E+03  0.30589942012E+04  0.29977781243E+04 0.  0.
        1    1    3    3  502    0  0.20103051898E+03 -0.10723059503E+04  0.74435396469E+03  0.13207256132E+04  0.50400001928E-02 0.  1.
       -1    1    3    3    0  502 -0.20103051898E+03  0.10723059503E+04 -0.13532643361E+04  0.17382685880E+04  0.50400001928E-02 0. -1.
</event>
<event>
 5   0  0.1560174E-06  0.3006892E+04  0.7818609E-02  0.8241766E-01
        2   -1    0    0  501    0  0.00000000000E+00  0.00000000000E+00  0.21957858383E+04  0.21957858383E+04  0.25500000920E-02 0.  1.
       -2   -1    0    0    0  501  0.00000000000E+00  0.00000000000E+00 -0.10294037307E+04  0.10294037307E+04  0.25500000920E-02 0. -1.
    10030    2    1    2    0    0  0.00000000000E+00  0.00000000000E+00  0.11663821076E+04  0.32251895691E+04  0.30068921722E+04 0.  0.
        5    1    3    3  502    0  0.21576735469E+03  0.88335522266E+03  0.18673819357E+04  0.20770193510E+04  0.46999998093E+01 0.  1.
       -5    1    3    3    0  502 -0.21576735469E+03 -0.88335522266E+03 -0.70099982806E+03  0.11481702181E+04  0.46999998093E+01 0. -1.
</event>
<event>
 5   0  0.1560174E-06  0.2989953E+04  0.7818609E-02  0.8246606E-01
        2   -1    0    0  501    0  0.00000000000E+00  0.00000000000E+00  0.10999024510E+04  0.10999024510E+04  0.25500000920E-02 0. -1.
       -2   -1    0    0    0  501  0.00000000000E+00  0.00000000000E+00 -0.20319575726E+04  0.20319575726E+04  0.25500000920E-02 0.  1.
    10030    2    1    2    0    0  0.00000000000E+00  0.00000000000E+00 -0.93205512156E+03  0.31318600236E+04  0.29899532534E+04 0.  0.
        5    1    3    3  502    0 -0.18077252716E+03 -0.71064271584E+03  0.89858616075E+03  0.11598150518E+04  0.46999998093E+01 0. -1.
       -5    1    3    3    0  502  0.18077252716E+03  0.71064271584E+03 -0.18306412823E+04  0.19720449718E+04  0.46999998093E+01 0.  1.
</event>
<event>
 5   0  0.1674806E-06  0.2999595E+04  0.7818609E-02  0.8243846E-01
       -2   -1    0    0    0  501  0.00000000000E+00  0.00000000000E+00  0.13517823417E+04  0.13517823418E+04  0.25500000920E-02 0. -1.
        2   -1    0    0  501    0  0.00000000000E+00  0.00000000000E+00 -0.16640201630E+04  0.16640201630E+04  0.25500000920E-02 0.  1.
    10030    2    1    2    0    0  0.00000000000E+00  0.00000000000E+00 -0.31223782124E+03  0.30158025047E+04  0.29995953545E+04 0.  0.
        2    1    3    3  502    0  0.34031538553E+03 -0.13917081981E+04 -0.60205435389E+03  0.15540706918E+04  0.25500000920E-02 0.  1.
       -2    1    3    3    0  502 -0.34031538553E+03  0.13917081981E+04  0.28981653265E+03  0.14617318129E+04  0.25500000920E-02 0. -1.
</event>
<event>
 5   0  0.5916703E-07  0.2993726E+04  0.7818609E-02  0.8245525E-01
       -1   -1    0    0    0  501  0.00000000000E+00  0.00000000000E+00  0.16500353932E+04  0.16500353933E+04  0.50400001928E-02 0. -1.
        1   -1    0    0  501    0  0.00000000000E+00  0.00000000000E+00 -0.13579094898E+04  0.13579094898E+04  0.50400001928E-02 0.  1.
    10030    2    1    2    0    0  0.00000000000E+00  0.00000000000E+00  0.29212590348E+03  0.30079448830E+04  0.29937259186E+04 0.  0.
        5    1    3    3  502    0  0.38273227808E+03 -0.41384039036E+03 -0.12471841291E+04  0.13686629269E+04  0.46999998093E+01 0.  1.
       -5    1    3    3    0  502 -0.38273227808E+03  0.41384039036E+03  0.15393100326E+04  0.16392819562E+04  0.46999998093E+01 0. -1.
</event>
<event>
 5   0  0.1635086E-06  0.2950430E+04  0.7818609E-02  0.8258029E-01
       -2   -1    0    0    0  501  0.00000000000E+00  0.00000000000E+00  0.14884501313E+04  0.14884501313E+04  0.25500000920E-02 0. -1.
        2   -1    0    0  501    0  0.00000000000E+00  0.00000000000E+00 -0.14620976996E+04  0.14620976996E+04  0.25500000920E-02 0.  1.
    10030    2    1    2    0    0  0.00000000000E+00  0.00000000000E+00  0.26352431682E+02  0.29505478309E+04  0.29504301469E+04 0.  0.
        3    1    3    3  502    0  0.14244256078E+04  0.33403501779E+03 -0.17575404843E+03  0.14735865095E+04  0.10100000352E+00 0. -1.
       -3    1    3    3    0  502 -0.14244256078E+04 -0.33403501779E+03  0.20210648012E+03  0.14769613213E+04  0.10100000352E+00 0.  1.
</event>
<event>
 5   0  0.5887179E-07  0.2970307E+04  0.7818609E-02  0.8252261E-01
        1   -1    0    0  501    0  0.00000000000E+00  0.00000000000E+00  0.19318562136E+04  0.19318562136E+04  0.50400001928E-02 0.  1.
       -1   -1    0    0    0  501  0.00000000000E+00  0.00000000000E+00 -0.11417420820E+04  0.11417420820E+04  0.50400001928E-02 0. -1.
    10030    2    1    2    0    0  0.00000000000E+00  0.00000000000E+00  0.79011413153E+03  0.30735982956E+04  0.29703074154E+04 0.  0.
        3    1    3    3  502    0 -0.14015272459E+04 -0.49098710799E+03  0.37612991154E+03  0.15319336415E+04  0.10100000352E+00 0. -1.
       -3    1    3    3    0  502  0.14015272459E+04  0.49098710799E+03  0.41398421999E+03  0.15416646542E+04  0.10100000352E+00 0.  1.
</event>
<event>
 5   0  0.1625212E-06  0.2997480E+04  0.7818609E-02  0.8244451E-01
        2   -1    0    0  501    0  0.00000000000E+00  0.00000000000E+00  0.21631764048E+04  0.21631764048E+04  0.25500000920E-02 0. -1.
       -2   -1    0    0    0  501  0.00000000000E+00  0.00000000000E+00 -0.10383905036E+04  0.10383905036E+04  0.25500000920E-02 0.  1.
    10030    2    1    2    0    0  0.00000000000E+00  0.00000000000E+00  0.11247859012E+04  0.32015669083E+04  0.29974801659E+04 0.  0.
        4    1    3    3  502    0  0.13393786403E+04 -0.46991621850E+02 -0.15416218171E+03  0.13490407502E+04  0.12699999809E+01 0.  1.
       -4    1    3    3    0  502 -0.13393786403E+04  0.46991621850E+02  0.12789480829E+04  0.18525261581E+04  0.12699999809E+01 0. -1.
</event>
<event>
 5   0  0.5931588E-07  0.2996853E+04  0.7818609E-02  0.8244630E-01
        1   -1    0    0  501    0  0.00000000000E+00  0.00000000000E+00  0.16756743167E+04  0.16756743167E+04  0.50400001928E-02 0. -1.
       -1   -1    0    0    0  501  0.00000000000E+00  0.00000000000E+00 -0.13399272637E+04  0.13399272637E+04  0.50400001928E-02 0.  1.
    10030    2    1    2    0    0  0.00000000000E+00  0.00000000000E+00  0.33574705304E+03  0.30156015804E+04  0.29968528172E+04 0.  0.
        2    1    3    3  502    0 -0.10256020236E+04 -0.43467130817E+03 -0.84063564790E+03  0.13955167320E+04  0.25500000920E-02 0.  1.
       -2    1    3    3    0  502  0.10256020236E+04  0.43467130817E+03  0.11763827009E+04  0.16200848484E+04  0.25500000920E-02 0. -1.
</event>
<event>
 5   0  0.6291798E-07  0.2976436E+04  0.7818609E-02  0.8250492E-01
        1   -1    0    0  501    0  0.00000000000E+00  0.00000000000E+00  0.30953782871E+04  0.30953782871E+04  0.50400001928E-02 0. -1.
       -1   -1    0    0    0  501  0.00000000000E+00  0.00000000000E+00 -0.71551617205E+03  0.71551617206E+03  0.50400001928E-02 0.  1.
    10030    2    1    2    0    0  0.00000000000E+00  0.00000000000E+00  0.23798621150E+04  0.38108944592E+04  0.29764362738E+04 0.  0.
        1    1    3    3  502    0  0.30101849067E+03 -0.43140114290E+03 -0.59251143376E+03  0.79233129244E+03  0.50400001928E-02 0.  1.
       -1    1    3    3    0  502 -0.30101849067E+03  0.43140114290E+03  0.29723735488E+04  0.30185631667E+04  0.50400001928E-02 0. -1.
</event>
<event>
 5   0  0.1560174E-06  0.2996893E+04  0.7818609E-02  0.8244619E-01
       -2   -1    0    0    0  501  0.00000000000E+00  0.00000000000E+00  0.13168960333E+04  0.13168960333E+04  0.25500000920E-02 0. -1.
        2   -1    0    0  501    0  0.00000000000E+00  0.00000000000E+00 -0.17050262079E+04  0.17050262079E+04  0.25500000920E-02 0.  1.
    10030    2    1    2    0    0  0.00000000000E+00  0.00000000000E+00 -0.38813017459E+03  0.30219222412E+04  0.29968932246E+04 0.  0.
        5    1    3    3  502    0  0.87810087443E+03 -0.45165020998E+03  0.94241079640E+03  0.13649942333E+04  0.46999998093E+01 0. -1.
       -5    1    3    3    0  502 -0.87810087443E+03  0.45165020998E+03 -0.13305409710E+04  0.16569280079E+04  0.46999998093E+01 0.  1.
</event>
<event>
 5   0  0.5916703E-07  0.3000556E+04  0.7818609E-02  0.8243572E-01
       -1   -1    0    0    0  501  0.00000000000E+00  0.00000000000E+00  0.17149437542E+04  0.17149437543E+04  0.50400001928E-02 0. -1.
        1   -1    0    0  501    0  0.00000000000E+00  0.00000000000E+00 -0.13124826005E+04  0.13124826005E+04  0.50400001928E-02 0.  1.
    10030    2    1    2    0    0  0.00000000000E+00  0.00000000000E+00  0.40246115373E+03  0.30274263548E+04  0.30005558407E+04 0.  0.
        5    1    3    3  502    0 -0.62773877055E+03 -0.11658654887E+04 -0.51043225654E+03  0.14191058736E+04  0.46999998093E+01 0.  1.
       -5    1    3    3    0  502  0.62773877055E+03  0.11658654887E+04  0.91289341028E+03  0.16083204812E+04  0.46999998093E+01 0. -1.
</event>
<event>
 5   0  0.1635086E-06  0.2994653E+04  0.7818609E-02  0.8245259E-01
       -2   -1    0    0    0  501  0.00000000000E+00  0.00000000000E+00  0.10928271789E+04  0.10928271789E+04  0.25500000920E-02 0. -1.
        2   -1    0    0  501    0  0.00000000000E+00  0.00000000000E+00 -0.20515475792E+04  0.20515475792E+04  0.25500000920E-02 0.  1.
    10030    2    1    2    0    0  0.00000000000E+00  0.00000000000E+00 -0.95872040037E+03  0.31443747581E+04  0.29946532042E+04 0.  0.
        3    1    3    3  502    0  0.11138224510E+03 -0.30236102497E+03 -0.20147114201E+04  0.20403162280E+04  0.10100000352E+00 0.  1.
       -3    1    3    3    0  502 -0.11138224510E+03  0.30236102497E+03  0.10559910197E+04  0.11040585301E+04  0.10100000352E+00 0. -1.
</event>
<event>
 5   0  0.1723916E-06  0.2983440E+04  0.7818609E-02  0.8248476E-01
       -2   -1    0    0    0  501  0.00000000000E+00  0.00000000000E+00  0.14413586978E+04  0.14413586978E+04  0.25500000920E-02 0. -1.
        2   -1    0    0  501    0  0.00000000000E+00  0.00000000000E+00 -0.15438405554E+04  0.15438405554E+04  0.25500000920E-02 0.  1.
    10030    2    1    2    0    0  0.00000000000E+00  0.00000000000E+00 -0.10248185760E+03  0.29851992532E+04  0.29834396340E+04 0.  0.
        1    1    3    3  502    0 -0.58523521103E+03  0.50679270566E+03  0.12246146128E+04  0.14487995198E+04  0.50400001928E-02 0. -1.
       -1    1    3    3    0  502  0.58523521103E+03 -0.50679270566E+03 -0.13270964704E+04  0.15363997333E+04  0.50400001928E-02 0.  1.
</event>
<event>
 5   0  0.5931588E-07  0.2990837E+04  0.7818609E-02  0.8246352E-01
       -1   -1    0    0    0  501  0.00000000000E+00  0.00000000000E+00  0.15369051084E+04  0.15369051084E+04  0.50400001928E-02 0. -1.
        1   -1    0    0  501    0  0.00000000000E+00  0.00000000000E+00 -0.14550513459E+04  0.14550513459E+04  0.50400001928E-02 0.  1.
    10030    2    1    2    0    0  0.00000000000E+00  0.00000000000E+00  0.81853762483E+02  0.29919564543E+04  0.29908365696E+04 0.  0.
        2    1    3    3  502    0 -0.11554463311E+04 -0.10664791337E+03  0.98459650298E+03  0.15217950832E+04  0.25500000920E-02 0. -1.
       -2    1    3    3    0  502  0.11554463311E+04  0.10664791337E+03 -0.90274274049E+03  0.14701613711E+04  0.25500000920E-02 0.  1.
</event>
<event>
 5   0  0.5931588E-07  0.2996380E+04  0.7818609E-02  0.8244765E-01
       -1   -1    0    0    0  501  0.00000000000E+00  0.00000000000E+00  0.15135718577E+04  0.15135718577E+04  0.50400001928E-02 0. -1.
        1   -1    0    0  501    0  0.00000000000E+00  0.00000000000E+00 -0.14829647177E+04  0.14829647177E+04  0.50400001928E-02 0.  1.
    10030    2    1    2    0    0  0.00000000000E+00  0.00000000000E+00  0.30607139962E+02  0.29965365754E+04  0.29963802580E+04 0.  0.
        2    1    3    3  502    0 -0.30650851636E+03  0.69876502866E+02 -0.14496084935E+04  0.14833054239E+04  0.25500000920E-02 0.  1.
       -2    1    3    3    0  502  0.30650851636E+03 -0.69876502866E+02  0.14802156334E+04  0.15132311515E+04  0.25500000920E-02 0. -1.
</event>
<event>
 5   0  0.1635086E-06  0.3008471E+04  0.7818609E-02  0.8241316E-01
        2   -1    0    0  501    0  0.00000000000E+00  0.00000000000E+00  0.17763757588E+04  0.17763757588E+04  0.25500000920E-02 0. -1.
       -2   -1    0    0    0  501  0.00000000000E+00  0.00000000000E+00 -0.12737866441E+04  0.12737866441E+04  0.25500000920E-02 0.  1.
    10030    2    1    2    0    0  0.00000000000E+00  0.00000000000E+00  0.50258911468E+03  0.30501624030E+04  0.30084705194E+04 0.  0.
        3    1    3    3  502    0  0.67989355376E+03  0.11458844297E+04  0.95912247717E+03  0.16417132232E+04  0.10100000352E+00 0. -1.
       -3    1    3    3    0  502 -0.67989355376E+03 -0.11458844297E+04 -0.45653336249E+03  0.14084491798E+04  0.10100000352E+00 0.  1.
</event>
<event>
 5   0  0.1635086E-06  0.2998208E+04  0.7818609E-02  0.8244243E-01
       -2   -1    0    0    0  501  0.00000000000E+00  0.00000000000E+00  0.17668476011E+04  0.17668476011E+04  0.25500000920E-02 0. -1.
        2   -1    0    0  501    0  0.00000000000E+00  0.00000000000E+00 -0.12719336834E+04  0.12719336834E+04  0.25500000920E-02 0.  1.
    10030    2    1    2    0    0  0.00000000000E+00  0.00000000000E+00  0.49491391764E+03  0.30387812845E+04  0.29982081164E+04 0.  0.
        3    1    3    3  502    0 -0.17100966478E+03  0.13590077582E+04 -0.37002190590E+03  0.14188243772E+04  0.10100000352E+00 0.  1.
       -3    1    3    3    0  502  0.17100966478E+03 -0.13590077582E+04  0.86493582354E+03  0.16199569073E+04  0.10100000352E+00 0. -1.
</event>
<event>
 5   0  0.5874741E-07  0.3000161E+04  0.7818609E-02  0.8243685E-01
        1   -1    0    0  501    0  0.00000000000E+00  0.00000000000E+00  0.16410666595E+04  0.16410666595E+04  0.50400001928E-02 0.  1.
       -1   -1    0    0    0  501  0.00000000000E+00  0.00000000000E+00 -0.13712063770E+04  0.13712063770E+04  0.50400001928E-02 0. -1.
    10030    2    1    2    0    0  0.00000000000E+00  0.00000000000E+00  0.26986028248E+03  0.30122730365E+04  0.30001607081E+04 0.  0.
        4    1    3    3  502    0 -0.17523909890E+03  0.13946645983E+04  0.66091665190E+03  0.15532580330E+04  0.12699999809E+01 0. -1.
       -4    1    3    3    0  502  0.17523909890E+03 -0.13946645983E+04 -0.39105636942E+03  0.14590150035E+04  0.12699999809E+01 0.  1.
</event>
<event>
 5   0  0.5874741E-07  0.3012129E+04  0.7818609E-02  0.8240276E-01
       -1   -1    0    0    0  501  0.00000000000E+00  0.00000000000E+00  0.14534361029E+04  0.14534361029E+04  0.50400001928E-02 0. -1.
        1   -1    0    0  501    0  0.00000000000E+00  0.00000000000E+00 -0.15605986550E+04  0.15605986551E+04  0.50400001928E-02 0.  1.
    10030    2    1    2    0    0  0.00000000000E+00  0.00000000000E+00 -0.10716255220E+03  0.30140347579E+04  0.30121290990E+04 0.  0.
        4    1    3    3  502    0 -0.13203082629E+04  0.56805615876E+03  0.39651115452E+03  0.14910145597E+04  0.12699999809E+01 0.  1.
       -4    1    3    3    0  502  0.13203082629E+04 -0.56805615876E+03 -0.50367370671E+03  0.15230201983E+04  0.12699999809E+01 0. -1.
</event>
<event>
 5   0  0.6291798E-07  0.3006389E+04  0.7818609E-02  0.8241909E-01
       -1   -1    0    0    0  501  0.00000000000E+00  0.00000000000E+00  0.20666840770E+04  0.20666840770E+04  0.50400001928E-02 0. -1.
        1   -1    0    0  501    0  0.00000000000E+00  0.00000000000E+00 -0.10933426956E+04  0.10933426956E+04  0.50400001928E-02 0.  1.
    10030    2    1    2    0    0  0.00000000000E+00  0.00000000000E+00  0.97334138143E+03  0.31600267726E+04  0.30063891562E+04 0.  0.
        1    1    3    3  502    0  0.14624732637E+04  0.34370934117E+03  0.54057275310E+03  0.15966161279E+04  0.50400001928E-02 0. -1.
       -1    1    3    3    0  502 -0.14624732637E+04 -0.34370934117E+03  0.43276862833E+03  0.15634106447E+04  0.50400001928E-02 0.  1.
</event>
<event>
 5   0  0.6291798E-07  0.3014193E+04  0.7818609E-02  0.8239690E-01
        1   -1    0    0  501    0  0.00000000000E+00  0.00000000000E+00  0.24641198507E+04  0.24641198507E+04  0.50400001928E-02 0. -1.
       -1   -1    0    0    0  501  0.00000000000E+00  0.00000000000E+00 -0.92176526006E+03  0.92176526008E+03  0.50400001928E-02 0.  1.
    10030    2    1    2    0    0  0.00000000000E+00  0.00000000000E+00  0.15423545906E+04  0.33858851107E+04  0.30141931424E+04 0.  0.
        1    1    3    3  502    0 -0.11621176519E+04 -0.24869851237E+03  0.18122727849E+04  0.21671873555E+04  0.50400001928E-02 0. -1.
       -1    1    3    3    0  502  0.11621176519E+04  0.24869851237E+03 -0.26991819432E+03  0.12186977552E+04  0.50400001928E-02 0.  1.
</event>
<event>
 5   0  0.5931588E-07  0.2991830E+04  0.7818609E-02  0.8246068E-01
        1   -1    0    0  501    0  0.00000000000E+00  0.00000000000E+00  0.11736363045E+04  0.11736363045E+04  0.50400001928E-02 0.  1.
       -1   -1    0    0    0  501  0.00000000000E+00  0.00000000000E+00 -0.19066913093E+04  0.19066913093E+04  0.50400001928E-02 0. -1.
    10030    2    1    2    0    0  0.00000000000E+00  0.00000000000E+00 -0.73305500481E+03  0.30803276138E+04  0.29918303041E+04 0.  0.
        2    1    3    3  502    0 -0.12196240683E+04 -0.76701015420E+03  0.47837952011E+02  0.14415532991E+04  0.25500000920E-02 0.  1.
       -2    1    3    3    0  502  0.12196240683E+04  0.76701015420E+03 -0.78089295682E+03  0.16387743147E+04  0.25500000920E-02 0. -1.
</event>
<event>
 5   0  0.5916703E-07  0.3014925E+04  0.7818609E-02  0.8239482E-01
        1   -1    0    0  501    0  0.00000000000E+00  0.00000000000E+00  0.23636804513E+04  0.23636804513E+04  0.50400001928E-02 0. -1.
       -1   -1    0    0    0  501  0.00000000000E+00  0.00000000000E+00 -0.96140019136E+03  0.96140019138E+03  0.50400001928E-02 0.  1.
    10030    2    1    2    0    0  0.00000000000E+00  0.00000000000E+00  0.14022802600E+04  0.33250806427E+04  0.30149247674E+04 0.  0.
        5    1    3    3  502    0 -0.12098125207E+04 -0.68822583721E+03  0.13395882671E+04  0.19317919023E+04  0.46999998093E+01 0. -1.
       -5    1    3    3    0  502  0.12098125207E+04  0.68822583721E+03  0.62691992872E+02  0.13932887405E+04  0.46999998093E+01 0.  1.
</event>
<event>
 5   0  0.5931588E-07  0.2991983E+04  0.7818609E-02  0.8246024E-01
       -1   -1    0    0    0  501  0.00000000000E+00  0.00000000000E+00  0.99500484737E+03  0.99500484738E+03  0.50400001928E-02 0.  1.
        1   -1    0    0  501    0  0.00000000000E+00  0.00000000000E+00 -0.22492258259E+04  0.22492258260E+04  0.50400001928E-02 0. -1.
    10030    2    1    2    0    0  0.00000000000E+00  0.00000000000E+00 -0.12542209786E+04  0.32442306733E+04  0.29919830211E+04 0.  0.
        2    1    3    3  502    0  0.43124421430E+03  0.25416869593E+03 -0.21557220316E+04  0.22130772187E+04  0.25500000920E-02 0. -1.
       -2    1    3    3    0  502 -0.43124421430E+03 -0.25416869593E+03  0.90150105303E+03  0.10311534546E+04  0.25500000920E-02 0.  1.
</event>
<event>
 5   0  0.1723916E-06  0.2952494E+04  0.7818609E-02  0.8257428E-01
       -2   -1    0    0    0  501  0.00000000000E+00  0.00000000000E+00  0.13517476765E+04  0.13517476765E+04  0.25500000920E-02 0. -1.
        2   -1    0    0  501    0  0.00000000000E+00  0.00000000000E+00 -0.16122128038E+04  0.16122128038E+04  0.25500000920E-02 0.  1.
    10030    2    1    2    0    0  0.00000000000E+00  0.00000000000E+00 -0.26046512727E+03  0.29639604803E+04  0.29524938013E+04 0.  0.
        1    1    3    3  502    0 -0.56003596869E+03  0.10491067586E+04 -0.10082949666E+04  0.15591420772E+04  0.50400001928E-02 0.  1.
       -1    1    3    3    0  502  0.56003596869E+03 -0.10491067586E+04  0.74782983936E+03  0.14048184031E+04  0.50400001928E-02 0. -1.
</event>
<event>
 5   0  0.1723916E-06  0.3006769E+04  0.7818609E-02  0.8241801E-01
       -2   -1    0    0    0  501  0.00000000000E+00  0.00000000000E+00  0.15435279176E+04  0.15435279176E+04  0.25500000920E-02 0.  1.
        2   -1    0    0  501    0  0.00000000000E+00  0.00000000000E+00 -0.14642848703E+04  0.14642848703E+04  0.25500000920E-02 0. -1.
    10030    2    1    2    0    0  0.00000000000E+00  0.00000000000E+00  0.79243047335E+02  0.30078127879E+04  0.30067687485E+04 0.  0.
        1    1    3    3  502    0  0.42365970186E+03  0.91068098714E+02  0.14796989769E+04  0.15418462971E+04  0.50400001928E-02 0.  1.
       -1    1    3    3    0  502 -0.42365970186E+03 -0.91068098714E+02 -0.14004559296E+04  0.14659664908E+04  0.50400001928E-02 0. -1.
</event>
<event>
 5   0  0.1674806E-06  0.2991478E+04  0.7818609E-02  0.8246169E-01
       -2   -1    0    0    0  501  0.00000000000E+00  0.00000000000E+00  0.11803501113E+04  0.11803501113E+04  0.25500000920E-02 0. -1.
        2   -1    0    0  501    0  0.00000000000E+00  0.00000000000E+00 -0.18953994005E+04  0.18953994005E+04  0.25500000920E-02 0.  1.
    10030    2    1    2    0    0  0.00000000000E+00  0.00000000000E+00 -0.71504928924E+03  0.30757495118E+04  0.29914778243E+04 0.  0.
        2    1    3    3  502    0  0.90565039153E+02  0.38212276291E+03  0.11263984059E+04  0.11928927870E+04  0.25500000920E-02 0. -1.
       -2    1    3    3    0  502 -0.90565039153E+02 -0.38212276291E+03 -0.18414476952E+04  0.18828567249E+04  0.25500000920E-02 0.  1.
</event>
<event>
 5   0  0.5874741E-07  0.2997770E+04  0.7818609E-02  0.8244368E-01
        1   -1    0    0  501    0  0.00000000000E+00  0.00000000000E+00  0.22437558449E+04  0.22437558449E+04  0.50400001928E-02 0. -1.
       -1   -1    0    0    0  501  0.00000000000E+00  0.00000000000E+00 -0.10012924296E+04  0.10012924296E+04  0.50400001928E-02 0.  1.
    10030    2    1    2    0    0  0.00000000000E+00  0.00000000000E+00  0.12424634153E+04  0.32450482745E+04  0.29977696652E+04 0.  0.
        4    1    3    3  502    0  0.65852274270E+03  0.12938261568E+04  0.21762815019E+03  0.14679924903E+04  0.12699999809E+01 0. -1.
       -4    1    3    3    0  502 -0.65852274270E+03 -0.12938261568E+04  0.10248352651E+04  0.17770557843E+04  0.12699999809E+01 0.  1.
</event>
<event>
 5   0  0.5874741E-07  0.3009310E+04  0.7818609E-02  0.8241077E-01
        1   -1    0    0  501    0  0.00000000000E+00  0.00000000000E+00  0.25223232086E+04  0.25223232086E+04  0.50400001928E-02 0. -1.
       -1   -1    0    0    0  501  0.00000000000E+00  0.00000000000E+00 -0.89757976982E+03  0.89757976983E+03  0.50400001928E-02 0.  1.
    10030    2    1    2    0    0  0.00000000000E+00  0.00000000000E+00  0.16247434388E+04  0.34199029785E+04  0.30093097448E+04 0.  0.
        4    1    3    3  502    0 -0.75475429593E+03 -0.10352488565E+04 -0.84330230901E+02  0.12839421493E+04  0.12699999809E+01 0.  1.
       -4    1    3    3    0  502  0.75475429593E+03  0.10352488565E+04  0.17090736697E+04  0.21359608291E+04  0.12699999809E+01 0. -1.
</event>
<event>
 5   0  0.6291798E-07  0.2883453E+04  0.7818609E-02  0.8277818E-01
       -1   -1    0    0    0  501  0.00000000000E+00  0.00000000000E+00  0.15565454389E+04  0.15565454389E+04  0.50400001928E-02 0. -1.
        1   -1    0    0  501    0  0.00000000000E+00  0.00000000000E+00 -0.13353773390E+04  0.13353773390E+04  0.50400001928E-02 0.  1.
    10030    2    1    2    0    0  0.00000000000E+00  0.00000000000E+00  0.22116809992E+03  0.28919227779E+04  0.28834531425E+04 0.  0.
        1    1    3    3  502    0 -0.84862165872E+03  0.99187643360E+03 -0.50325777806E+03  0.13990160722E+04  0.50400001928E-02 0. -1.
       -1    1    3    3    0  502  0.84862165872E+03 -0.99187643360E+03  0.72442587798E+03  0.14929067057E+04  0.50400001928E-02 0.  1.
</event>
<event>
 5   0  0.5931588E-07  0.3006121E+04  0.7818609E-02  0.8241985E-01
        1   -1    0    0  501    0  0.00000000000E+00  0.00000000000E+00  0.15108821633E+04  0.15108821633E+04  0.50400001928E-02 0. -1.
       -1   -1    0    0    0  501  0.00000000000E+00  0.00000000000E+00 -0.14952789962E+04  0.14952789962E+04  0.50400001928E-02 0.  1.
    10030    2    1    2    0    0  0.00000000000E+00  0.00000000000E+00  0.15603167079E+02  0.30061611595E+04  0.30061206660E+04 0.  0.
        2    1    3    3  502    0  0.55591625509E+03  0.15063019940E+03 -0.13805463384E+04  0.14958745042E+04  0.25500000920E-02 0.  1.
       -2    1    3    3    0  502 -0.55591625509E+03 -0.15063019940E+03  0.13961495055E+04  0.15102866554E+04  0.25500000920E-02 0. -1.
</event>
<event>
 5   0  0.5931588E-07  0.2988205E+04  0.7818609E-02  0.8247107E-01
        1   -1    0    0  501    0  0.00000000000E+00  0.00000000000E+00  0.15777447910E+04  0.15777447911E+04  0.50400001928E-02 0.  1.
       -1   -1    0    0    0  501  0.00000000000E+00  0.00000000000E+00 -0.14148941192E+04  0.14148941192E+04  0.50400001928E-02 0. -1.
    10030    2    1    2    0    0  0.00000000000E+00  0.00000000000E+00  0.16285067183E+03  0.29926389103E+04  0.29882046961E+04 0.  0.
        2    1    3    3  502    0 -0.34645594278E+03  0.46390254127E+03 -0.12979727083E+04  0.14212566410E+04  0.25500000920E-02 0. -1.
       -2    1    3    3    0  502  0.34645594278E+03 -0.46390254127E+03  0.14608233802E+04  0.15713822692E+04  0.25500000920E-02 0.  1.
</event>
<event>
 5   0  0.1635086E-06  0.3012645E+04  0.7818609E-02  0.8240129E-01
       -2   -1    0    0    0  501  0.00000000000E+00  0.00000000000E+00  0.11854588621E+04  0.11854588621E+04  0.25500000920E-02 0.  1.
        2   -1    0    0  501    0  0.00000000000E+00  0.00000000000E+00 -0.19140334926E+04  0.19140334926E+04  0.25500000920E-02 0. -1.
    10030    2    1    2    0    0  0.00000000000E+00  0.00000000000E+00 -0.72857463043E+03  0.30994923547E+04  0.30126453267E+04 0.  0.
        3    1    3    3  502    0 -0.66236604217E+03  0.13342979872E+04 -0.59417458617E+03  0.16037840695E+04  0.10100000352E+00 0. -1.
       -3    1    3    3    0  502  0.66236604217E+03 -0.13342979872E+04 -0.13440004425E+03  0.14957082852E+04  0.10100000352E+00 0.  1.
</event>
<event>
 5   0  0.1723916E-06  0.3006007E+04  0.7818609E-02  0.8242018E-01
       -2   -1    0    0    0  501  0.00000000000E+00  0.00000000000E+00  0.12153348137E+04  0.12153348137E+04  0.25500000920E-02 0.  1.
        2   -1    0    0  501    0  0.00000000000E+00  0.00000000000E+00 -0.18587625966E+04  0.18587625966E+04  0.25500000920E-02 0. -1.
    10030    2    1    2    0    0  0.00000000000E+00  0.00000000000E+00 -0.64342778289E+03  0.30740974104E+04  0.30060065829E+04 0.  0.
        1    1    3    3  502    0  0.22556008846E+03 -0.12760148230E+04  0.45706582004E+03  0.13740452488E+04  0.50400001928E-02 0.  1.
       -1    1    3    3    0  502 -0.22556008846E+03  0.12760148230E+04 -0.11004936029E+04  0.17000521616E+04  0.50400001928E-02 0. -1.
</event>
<event>
 5   0  0.1635086E-06  0.2997957E+04  0.7818609E-02  0.8244314E-01
       -2   -1    0    0    0  501  0.00000000000E+00  0.00000000000E+00  0.14290492541E+04  0.14290492541E+04  0.25500000920E-02 0. -1.
        2   -1    0    0  501    0  0.00000000000E+00  0.00000000000E+00 -0.15723297542E+04  0.15723297542E+04  0.25500000920E-02 0.  1.
    10030    2    1    2    0    0  0.00000000000E+00  0.00000000000E+00 -0.14328050010E+03  0.30013790084E+04  0.29979570794E+04 0.  0.
        3    1    3    3  502    0 -0.14312740706E+04  0.35083709219E+03  0.20308966879E+03  0.14875743861E+04  0.10100000352E+00 0. -1.
       -3    1    3    3    0  502  0.14312740706E+04 -0.35083709219E+03 -0.34637016890E+03  0.15138046223E+04  0.10100000352E+00 0.  1.
</event>
<event>
 5   0  0.6291798E-07  0.3003735E+04  0.7818609E-02  0.8242665E-01
        1   -1    0    0  501    0  0.00000000000E+00  0.00000000000E+00  0.14644366051E+04  0.14644366051E+04  0.50400001928E-02 0.  1.
       -1   -1    0    0    0  501  0.00000000000E+00  0.00000000000E+00 -0.15402554038E+04  0.15402554038E+04  0.50400001928E-02 0. -1.
    10030    2    1    2    0    0  0.00000000000E+00  0.00000000000E+00 -0.75818798697E+02  0.30046920089E+04  0.30037352710E+04 0.  0.
        1    1    3    3  502    0 -0.17436582009E+03  0.11090609352E+04  0.95999884504E+03  0.14771653190E+04  0.50400001928E-02 0.  1.
       -1    1    3    3    0  502  0.17436582009E+03 -0.11090609352E+04 -0.10358176437E+04  0.15275266899E+04  0.50400001928E-02 0. -1.
</event>
<event>
 5   0  0.1674806E-06  0.2986713E+04  0.7818609E-02  0.8247535E-01
       -2   -1    0    0    0  501  0.00000000000E+00  0.00000000000E+00  0.92407857927E+03  0.92407857927E+03  0.25500000920E-02 0.  1.
        2   -1    0    0  501    0  0.00000000000E+00  0.00000000000E+00 -0.24133370334E+04  0.24133370334E+04  0.25500000920E-02 0. -1.
    10030    2    1    2    0    0  0.00000000000E+00  0.00000000000E+00 -0.14892584541E+04  0.33374156126E+04  0.29867126123E+04 0.  0.
        2    1    3    3  502    0  0.99061842926E+03  0.52079759398E+03 -0.18494405988E+04  0.21617089385E+04  0.25500000920E-02 0. -1.
       -2    1    3    3    0  502 -0.99061842926E+03 -0.52079759398E+03  0.36018214469E+03  0.11757066742E+04  0.25500000920E-02 0.  1.
</event>
<event>
 5   0  0.1674806E-06  0.2999187E+04  0.7818609E-02  0.8243963E-01
        2   -1    0    0  501    0  0.00000000000E+00  0.00000000000E+00  0.19023181496E+04  0.19023181496E+04  0.25500000920E-02 0.  1.
       -2   -1    0    0    0  501  0.00000000000E+00  0.00000000000E+00 -0.11821266244E+04  0.11821266244E+04  0.25500000920E-02 0. -1.
    10030    2    1    2    0    0  0.00000000000E+00  0.00000000000E+00  0.72019152525E+03  0.30844447740E+04  0.29991871783E+04 0.  0.
        2    1    3    3  502    0  0.10733066694E+04  0.65250207030E+03  0.12025492673E+04  0.17389280890E+04  0.25500000920E-02 0.  1.
       -2    1    3    3    0  502 -0.10733066694E+04 -0.65250207030E+03 -0.48235774205E+03  0.13455166850E+04  0.25500000920E-02 0. -1.
</event>
<event>
 5   0  0.6291798E-07  0.2998074E+04  0.7818609E-02  0.8244281E-01
        1   -1    0    0  501    0  0.00000000000E+00  0.00000000000E+00  0.13671661342E+04  0.13671661342E+04  0.50400001928E-02 0. -1.
       -1   -1    0    0    0  501  0.00000000000E+00  0.00000000000E+00 -0.16436272590E+04  0.16436272590E+04  0.50400001928E-02 0.  1.
    10030    2    1    2    0    0  0.00000000000E+00  0.00000000000E+00 -0.27646112478E+03  0.30107933932E+04  0.29980737320E+04 0.  0.
        1    1    3    3  502    0 -0.11163394541E+04 -0.98970962958E+03 -0.28504450587E+03  0.15188776442E+04  0.50400001928E-02 0.  1.
       -1    1    3    3    0  502  0.11163394541E+04  0.98970962958E+03  0.85833810927E+01  0.14919157490E+04  0.50400001928E-02 0. -1.
</event>
<event>
 5   0  0.5874741E-07  0.2994756E+04  0.7818609E-02  0.8245230E-01
        1   -1    0    0  501    0  0.00000000000E+00  0.00000000000E+00  0.18089380583E+04  0.18089380583E+04  0.50400001928E-02 0.  1.
       -1   -1    0    0    0  501  0.00000000000E+00  0.00000000000E+00 -0.12394791809E+04  0.12394791809E+04  0.50400001928E-02 0. -1.
    10030    2    1    2    0    0  0.00000000000E+00  0.00000000000E+00  0.56945887734E+03  0.30484172392E+04  0.29947561255E+04 0.  0.
        4    1    3    3  502    0  0.41467208745E+03 -0.41885468375E+02  0.17487041789E+04  0.17976860824E+04  0.12699999809E+01 0.  1.
       -4    1    3    3    0  502 -0.41467208745E+03  0.41885468375E+02 -0.11792453016E+04  0.12507311569E+04  0.12699999809E+01 0. -1.
</event>
<event>
 5   0  0.5916703E-07  0.2993230E+04  0.7818609E-02  0.8245667E-01
        1   -1    0    0  501    0  0.00000000000E+00  0.00000000000E+00  0.93145250961E+03  0.93145250963E+03  0.50400001928E-02 0. -1.
       -1   -1    0    0    0  501  0.00000000000E+00  0.00000000000E+00 -0.24046918976E+04  0.24046918976E+04  0.50400001928E-02 0.  1.
    10030    2    1    2    0    0  0.00000000000E+00  0.00000000000E+00 -0.14732393880E+04  0.33361444072E+04  0.29932298962E+04 0.  0.
        5    1    3    3  502    0 -0.73746770652E+03  0.72527266165E+03  0.46894182100E+03  0.11356969549E+04  0.46999998093E+01 0. -1.
       -5    1    3    3    0  502  0.73746770652E+03 -0.72527266165E+03 -0.19421812090E+04  0.22004474523E+04  0.46999998093E+01 0.  1.
</event>
<event>
 5   0  0.1625212E-06  0.2997145E+04  0.7818609E-02  0.8244547E-01
       -2   -1    0    0    0  501  0.00000000000E+00  0.00000000000E+00  0.72171156835E+03  0.72171156835E+03  0.25500000920E-02 0.  1.
        2   -1    0    0  501    0  0.00000000000E+00  0.00000000000E+00 -0.31116569570E+04  0.31116569570E+04  0.25500000920E-02 0. -1.
    10030    2    1    2    0    0  0.00000000000E+00  0.00000000000E+00 -0.23899453886E+04  0.38333685254E+04  0.29971445228E+04 0.  0.
        4    1    3    3  502    0 -0.11183872287E+04  0.99053412093E+03 -0.10448902315E+04  0.18231141069E+04  0.12699999809E+01 0.  1.
       -4    1    3    3    0  502  0.11183872287E+04 -0.99053412093E+03 -0.13450551572E+04  0.20102544184E+04  0.12699999809E+01 0. -1.
</event>
<event>
 5   0  0.5916703E-07  0.3002771E+04  0.7818609E-02  0.8242940E-01
       -1   -1    0    0    0  501  0.00000000000E+00  0.00000000000E+00  0.13003998916E+04  0.13003998917E+04  0.50400001928E-02 0.  1.
        1   -1    0    0  501    0  0.00000000000E+00  0.00000000000E+00 -0.17334348671E+04  0.17334348671E+04  0.50400001928E-02 0. -1.
    10030    2    1    2    0    0  0.00000000000E+00  0.00000000000E+00 -0.43303497542E+03  0.30338347587E+04  0.30027710624E+04 0.  0.
        5    1    3    3  502    0  0.37302079529E+03  0.11974689101E+04  0.61728353945E+03  0.13979046328E+04  0.46999998093E+01 0.  1.
       -5    1    3    3    0  502 -0.37302079529E+03 -0.11974689101E+04 -0.10503185149E+04  0.16359301259E+04  0.46999998093E+01 0. -1.
</event>
<event>
 5   0  0.1723916E-06  0.3004719E+04  0.7818609E-02  0.8242385E-01
        2   -1    0    0  501    0  0.00000000000E+00  0.00000000000E+00  0.16991621886E+04  0.16991621886E+04  0.25500000920E-02 0.  1.
       -2   -1    0    0    0  501  0.00000000000E+00  0.00000000000E+00 -0.13283508330E+04  0.13283508330E+04  0.25500000920E-02 0. -1.
    10030    2    1    2    0    0  0.00000000000E+00  0.00000000000E+00  0.37081135559E+03  0.30275130215E+04  0.30047186281E+04 0.  0.
        1    1    3    3  502    0  0.76711991774E+03  0.71165033261E+03 -0.90080979226E+03  0.13807162800E+04  0.50400001928E-02 0. -1.
       -1    1    3    3    0  502 -0.76711991774E+03 -0.71165033261E+03  0.12716211478E+04  0.16467967415E+04  0.50400001928E-02 0.  1.
</event>
<event>
 5   0  0.5916703E-07  0.3010145E+04  0.7818609E-02  0.8240840E-01
       -1   -1    0    0    0  501  0.00000000000E+00  0.00000000000E+00  0.85108895884E+03  0.85108895885E+03  0.50400001928E-02 0.  1.
        1   -1    0    0  501    0  0.00000000000E+00  0.00000000000E+00 -0.26615813976E+04  0.26615813976E+04  0.50400001928E-02 0. -1.
    10030    2    1    2    0    0  0.00000000000E+00  0.00000000000E+00 -0.18104924387E+04  0.35126703564E+04  0.30101445417E+04 0.  0.
        5    1    3    3  502    0 -0.10433112252E+03 -0.88880015778E+03  0.50688618706E+03  0.10284971562E+04  0.46999998093E+01 0.  1.
       -5    1    3    3    0  502  0.10433112252E+03  0.88880015778E+03 -0.23173786258E+04  0.24841732003E+04  0.46999998093E+01 0. -1.
</event>
<event>
 5   0  0.5887179E-07  0.2882896E+04  0.7818609E-02  0.8277985E-01
       -1   -1    0    0    0  501  0.00000000000E+00  0.00000000000E+00  0.14093493825E+04  0.14093493826E+04  0.50400001928E-02 0. -1.
        1   -1    0    0  501    0  0.00000000000E+00  0.00000000000E+00 -0.14742774059E+04  0.14742774059E+04  0.50400001928E-02 0.  1.
    10030    2    1    2    0    0  0.00000000000E+00  0.00000000000E+00 -0.64928023399E+02  0.28836267885E+04  0.28828957330E+04 0.  0.
        3    1    3    3  502    0 -0.27694778743E+03  0.73865248595E+03  0.11742681986E+04  0.14146424935E+04  0.10100000352E+00 0.  1.
       -3    1    3    3    0  502  0.27694778743E+03 -0.73865248595E+03 -0.12391962220E+04  0.14689842950E+04  0.10100000352E+00 0. -1.
</event>
<event>
 5   0  0.5887179E-07  0.2997160E+04  0.7818609E-02  0.8244542E-01
        1   -1    0    0  501    0  0.00000000000E+00  0.00000000000E+00  0.13370484549E+04  0.13370484549E+04  0.50400001928E-02 0.  1.
       -1   -1    0    0    0  501  0.00000000000E+00  0.00000000000E+00 -0.16796264139E+04  0.16796264139E+04  0.50400001928E-02 0. -1.
    10030    2    1    2    0    0  0.00000000000E+00  0.00000000000E+00 -0.34257795900E+03  0.30166748688E+04  0.29971599234E+04 0.  0.
        3    1    3    3  502    0  0.13739412264E+04 -0.24260618168E+02  0.43046566011E+03  0.14400013077E+04  0.10100000352E+00 0.  1.
       -3    1    3    3    0  502 -0.13739412264E+04  0.24260618168E+02 -0.77304361911E+03  0.15766735612E+04  0.10100000352E+00 0. -1.
</event>
<event>
 5   0  0.5916703E-07  0.2995021E+04  0.7818609E-02  0.8245154E-01
        1   -1    0    0  501    0  0.00000000000E+00  0.00000000000E+00  0.20952247221E+04  0.20952247222E+04  0.50400001928E-02 0. -1.
       -1   -1    0    0    0  501  0.00000000000E+00  0.00000000000E+00 -0.10703089348E+04  0.10703089348E+04  0.50400001928E-02 0.  1.
    10030    2    1    2    0    0  0.00000000000E+00  0.00000000000E+00  0.10249157874E+04  0.31655336570E+04  0.29950210287E+04 0.  0.
        5    1    3    3  502    0 -0.11079697573E+04  0.10004797926E+04  0.63733186054E+03  0.16231977049E+04  0.46999998093E+01 0. -1.
       -5    1    3    3    0  502  0.11079697573E+04 -0.10004797926E+04  0.38758392683E+03  0.15423359521E+04  0.46999998093E+01 0.  1.
</event>
<event>
 5   0  0.1625212E-06  0.3005207E+04  0.7818609E-02  0.8242246E-01
       -2   -1    0    0    0  501  0.00000000000E+00  0.00000000000E+00  0.22031350356E+04  0.22031350356E+04  0.25500000920E-02 0.  1.
        2   -1    0    0  501    0  0.00000000000E+00  0.00000000000E+00 -0.10248200979E+04  0.10248200979E+04  0.25500000920E-02 0. -1.
    10030    2    1    2    0    0  0.00000000000E+00  0.00000000000E+00  0.11783149377E+04  0.32279551336E+04  0.30052068568E+04 0.  0.
        4    1    3    3  502    0  0.22884544827E+03  0.10888357015E+04  0.16739035445E+04  0.20099472912E+04  0.12699999809E+01 0.  1.
       -4    1    3    3    0  502 -0.22884544827E+03 -0.10888357015E+04 -0.49558860687E+03  0.12180078424E+04  0.12699999809E+01 0. -1.
</event>
<event>
 5   0  0.1635086E-06  0.3000525E+04  0.7818609E-02  0.8243581E-01
        2   -1    0    0  501    0  0.00000000000E+00  0.00000000000E+00  0.21861335099E+04  0.21861335099E+04  0.25500000920E-02 0.  1.
       -2   -1    0    0    0  501  0.00000000000E+00  0.00000000000E+00 -0.10295745673E+04  0.10295745673E+04  0.25500000920E-02 0. -1.
    10030    2    1    2    0    0  0.00000000000E+00  0.00000000000E+00  0.11565589426E+04  0.32157080772E+04  0.30005249291E+04 0.  0.
        3    1    3    3  502    0 -0.56419525280E+03  0.27627719043E+03  0.20383874893E+04  0.21329952967E+04  0.10100000352E+00 0.  1.
       -3    1    3    3    0  502  0.56419525280E+03 -0.27627719043E+03 -0.88182854663E+03  0.10827127805E+04  0.10100000352E+00 0. -1.
</event>
<event>
 5   0  0.1674806E-06  0.3010837E+04  0.7818609E-02  0.8240643E-01
       -2   -1    0    0    0  501  0.00000000000E+00  0.00000000000E+00  0.12067880132E+04  0.12067880132E+04  0.25500000920E-02 0.  1.
        2   -1    0    0  501    0  0.00000000000E+00  0.00000000000E+00 -0.18779481400E+04  0.18779481400E+04  0.25500000920E-02 0. -1.
    10030    2    1    2    0    0  0.00000000000E+00  0.00000000000E+00 -0.67116012678E+03  0.30847361532E+04  0.30108372954E+04 0.  0.
        2    1    3    3  502    0  0.11559387090E+03  0.13034352076E+04 -0.10981466779E+04  0.17082831761E+04  0.25500000920E-02 0. -1.
       -2    1    3    3    0  502 -0.11559387090E+03 -0.13034352076E+04  0.42698655111E+03  0.13764529772E+04  0.25500000920E-02 0.  1.
</event>
<event>
 5   0  0.1723916E-06  0.2994480E+04  0.7818609E-02  0.8245309E-01
       -2   -1    0    0    0  501  0.00000000000E+00  0.00000000000E+00  0.26174246650E+04  0.26174246650E+04  0.25500000920E-02 0. -1.
        2   -1    0    0  501    0  0.00000000000E+00  0.00000000000E+00 -0.85646336425E+03  0.85646336425E+03  0.25500000920E-02 0.  1.
    10030    2    1    2    0    0  0.00000000000E+00  0.00000000000E+00  0.17609613008E+04  0.34738880293E+04  0.29944804787E+04 0.  0.
        1    1    3    3  502    0  0.23080570602E+03 -0.30107673545E+03 -0.79978284040E+03  0.88519549614E+03  0.50400001928E-02 0.  1.
       -1    1    3    3    0  502 -0.23080570602E+03  0.30107673545E+03  0.25607441412E+04  0.25886925332E+04  0.50400001928E-02 0. -1.
</event>
<event>
 5   0  0.1560174E-06  0.3004244E+04  0.7818609E-02  0.8242520E-01
       -2   -1    0    0    0  501  0.00000000000E+00  0.00000000000E+00  0.98127542878E+03  0.98127542878E+03  0.25500000920E-02 0. -1.
        2   -1    0    0  501    0  0.00000000000E+00  0.00000000000E+00 -0.22994264423E+04  0.22994264423E+04  0.25500000920E-02 0.  1.
    10030    2    1    2    0    0  0.00000000000E+00  0.00000000000E+00 -0.13181510135E+04  0.32807018711E+04  0.30042441100E+04 0.  0.
        5    1    3    3  502    0  0.14402585570E+04 -0.40982657135E+03 -0.78849766286E+03  0.16923513772E+04  0.46999998093E+01 0. -1.
       -5    1    3    3    0  502 -0.14402585570E+04  0.40982657135E+03 -0.52965335067E+03  0.15883504939E+04  0.46999998093E+01 0.  1.
</event>
<event>
 5   0  0.1635086E-06  0.3003977E+04  0.7818609E-02  0.8242596E-01
       -2   -1    0    0    0  501  0.00000000000E+00  0.00000000000E+00  0.16863639676E+04  0.16863639676E+04  0.25500000920E-02 0. -1.
        2   -1    0    0  501    0  0.00000000000E+00  0.00000000000E+00 -0.13377713786E+04  0.13377713786E+04  0.25500000920E-02 0.  1.
    10030    2    1    2    0    0  0.00000000000E+00  0.00000000000E+00  0.34859258897E+03  0.30241353462E+04  0.30039769970E+04 0.  0.
        3    1    3    3  502    0  0.63421491837E+03  0.83230070976E+03 -0.91043907125E+03  0.13870300454E+04  0.10100000352E+00 0.  1.
       -3    1    3    3    0  502 -0.63421491837E+03 -0.83230070976E+03  0.12590316602E+04  0.16371053008E+04  0.10100000352E+00 0. -1.
</event>
<event>
 5   0  0.6291798E-07  0.3006944E+04  0.7818609E-02  0.8241751E-01
       -1   -1    0    0    0  501  0.00000000000E+00  0.00000000000E+00  0.17904519919E+04  0.17904519919E+04  0.50400001928E-02 0. -1.
        1   -1    0    0  501    0  0.00000000000E+00  0.00000000000E+00 -0.12624899252E+04  0.12624899252E+04  0.50400001928E-02 0.  1.
    10030    2    1    2    0    0  0.00000000000E+00  0.00000000000E+00  0.52796206667E+03  0.30529419171E+04  0.30069436984E+04 0.  0.
        1    1    3    3  502    0  0.14253628072E+04 -0.31427431961E+03  0.63005186345E+03  0.15897776042E+04  0.50400001928E-02 0.  1.
       -1    1    3    3    0  502 -0.14253628072E+04  0.31427431961E+03 -0.10208979678E+03  0.14631643130E+04  0.50400001928E-02 0. -1.
</event>
<event>
 5   0  0.5887179E-07  0.2990477E+04  0.7818609E-02  0.8246456E-01
       -1   -1    0    0    0  501  0.00000000000E+00  0.00000000000E+00  0.15687812080E+04  0.15687812080E+04  0.50400001928E-02 0.  1.
        1   -1    0    0  501    0  0.00000000000E+00  0.00000000000E+00 -0.14251432254E+04  0.14251432254E+04  0.50400001928E-02 0. -1.
    10030    2    1    2    0    0  0.00000000000E+00  0.00000000000E+00  0.14363798260E+03  0.29939244335E+04  0.29904768254E+04 0.  0.
        3    1    3    3  502    0 -0.46450405762E+03  0.63011412407E+03 -0.12035924163E+04  0.14357724554E+04  0.10100000352E+00 0. -1.
       -3    1    3    3    0  502  0.46450405762E+03 -0.63011412407E+03  0.13472303989E+04  0.15581519781E+04  0.10100000352E+00 0.  1.
</event>
<event>
 5   0  0.5916703E-07  0.2990425E+04  0.7818609E-02  0.8246470E-01
       -1   -1    0    0    0  501  0.00000000000E+00  0.00000000000E+00  0.12069089126E+04  0.12069089126E+04  0.50400001928E-02 0. -1.
        1   -1    0    0  501    0  0.00000000000E+00  0.00000000000E+00 -0.18523853629E+04  0.18523853629E+04  0.50400001928E-02 0.  1.
    10030    2    1    2    0    0  0.00000000000E+00  0.00000000000E+00 -0.64547645024E+03  0.30592942755E+04  0.29904249893E+04 0.  0.
        5    1    3    3  502    0  0.45853092828E+02 -0.39392603927E+02  0.12056507010E+04  0.12071743810E+04  0.46999998093E+01 0. -1.
       -5    1    3    3    0  502 -0.45853092828E+02  0.39392603927E+02 -0.18511271513E+04  0.18521198945E+04  0.46999998093E+01 0.  1.
</event>
<event>
 5   0  0.5887179E-07  0.2947048E+04  0.7818609E-02  0.8259015E-01
       -1   -1    0    0    0  501  0.00000000000E+00  0.00000000000E+00  0.21492925970E+04  0.21492925970E+04  0.50400001928E-02 0.  1.
        1   -1    0    0  501    0  0.00000000000E+00  0.00000000000E+00 -0.10102266841E+04  0.10102266841E+04  0.50400001928E-02 0. -1.
    10030    2    1    2    0    0  0.00000000000E+00  0.00000000000E+00  0.11390659129E+04  0.31595192811E+04  0.29470478336E+04 0.  0.
        3    1    3    3  502    0  0.11213350112E+03  0.34120781125E+03  0.21016468299E+04  0.21321154050E+04  0.10100000352E+00 0.  1.
       -3    1    3    3    0  502 -0.11213350112E+03 -0.34120781125E+03 -0.96258091700E+03  0.10274038760E+04  0.10100000352E+00 0. -1.
</event>
<event>
 5   0  0.1674806E-06  0.2974743E+04  0.7818609E-02  0.8250980E-01
        2   -1    0    0  501    0  0.00000000000E+00  0.00000000000E+00  0.16397505368E+04  0.16397505368E+04  0.25500000920E-02 0.  1.
       -2   -1    0    0    0  501  0.00000000000E+00  0.00000000000E+00 -0.13491530274E+04  0.13491530274E+04  0.25500000920E-02 0. -1.
    10030    2    1    2    0    0  0.00000000000E+00  0.00000000000E+00  0.29059750937E+03  0.29889035642E+04  0.29747432837E+04 0.  0.
        2    1    3    3  502    0  0.13450236309E+04  0.13027283351E+03 -0.47912135149E+03  0.14337422531E+04  0.25500000920E-02 0. -1.
       -2    1    3    3    0  502 -0.13450236309E+04 -0.13027283351E+03  0.76971886086E+03  0.15551613111E+04  0.25500000920E-02 0.  1.
</event>
<event>
 5   0  0.1635086E-06  0.3016717E+04  0.7818609E-02  0.8238973E-01
       -2   -1    0    0    0  501  0.00000000000E+00  0.00000000000E+00  0.13894103549E+04  0.13894103549E+04  0.25500000920E-02 0. -1.
        2   -1    0    0  501    0  0.00000000000E+00  0.00000000000E+00 -0.16374899028E+04  0.16374899028E+04  0.25500000920E-02 0.  1.
    10030    2    1    2    0    0  0.00000000000E+00  0.00000000000E+00 -0.24807954797E+03  0.30269002577E+04  0.30167170414E+04 0.  0.
        3    1    3    3  502    0  0.96984105419E+03 -0.84059684859E+03  0.67106855498E+03  0.14482844154E+04  0.10100000352E+00 0. -1.
       -3    1    3    3    0  502 -0.96984105419E+03  0.84059684859E+03 -0.91914810295E+03  0.15786158423E+04  0.10100000352E+00 0.  1.
</event>
<event>
 5   0  0.5887179E-07  0.3041129E+04  0.7818609E-02  0.8232083E-01
        1   -1    0    0  501    0  0.00000000000E+00  0.00000000000E+00  0.21161494285E+04  0.21161494285E+04  0.50400001928E-02 0. -1.
       -1   -1    0    0    0  501  0.00000000000E+00  0.00000000000E+00 -0.10926052243E+04  0.10926052243E+04  0.50400001928E-02 0.  1.
    10030    2    1    2    0    0  0.00000000000E+00  0.00000000000E+00  0.10235442042E+04  0.32087546528E+04  0.30411286859E+04 0.  0.
        3    1    3    3  502    0  0.38666974232E+03 -0.12010156497E+04 -0.38362846768E+03  0.13187580869E+04  0.10100000352E+00 0.  1.
       -3    1    3    3    0  502 -0.38666974232E+03  0.12010156497E+04  0.14071726719E+04  0.18899965659E+04  0.10100000352E+00 0. -1.
</event>
<event>
 5   0  0.5931588E-07  0.3005801E+04  0.7818609E-02  0.8242076E-01
       -1   -1    0    0    0  501  0.00000000000E+00  0.00000000000E+00  0.13383130858E+04  0.13383130858E+04  0.50400001928E-02 0.  1.
        1   -1    0    0  501    0  0.00000000000E+00  0.00000000000E+00 -0.16877295364E+04  0.16877295364E+04  0.50400001928E-02 0. -1.
    10030    2    1    2    0    0  0.00000000000E+00  0.00000000000E+00 -0.34941645060E+03  0.30260426222E+04  0.30058014065E+04 0.  0.
        2    1    3    3  502    0 -0.92040477776E+02  0.14940703815E+04 -0.30974864014E+03  0.15286143970E+04  0.25500000920E-02 0.  1.
       -2    1    3    3    0  502  0.92040477776E+02 -0.14940703815E+04 -0.39667810468E+02  0.14974282252E+04  0.25500000920E-02 0. -1.
</event>
<event>
 5   0  0.1674806E-06  0.2964102E+04  0.7818609E-02  0.8254057E-01
       -2   -1    0    0    0  501  0.00000000000E+00  0.00000000000E+00  0.10863133239E+04  0.10863133239E+04  0.25500000920E-02 0.  1.
        2   -1    0    0  501    0  0.00000000000E+00  0.00000000000E+00 -0.20219539789E+04  0.20219539789E+04  0.25500000920E-02 0. -1.
    10030    2    1    2    0    0  0.00000000000E+00  0.00000000000E+00 -0.93564065500E+03  0.31082673028E+04  0.29641022571E+04 0.  0.
        2    1    3    3  502    0 -0.76900725897E+03 -0.51404200268E+03  0.74645613318E+03  0.11886160455E+04  0.25500000920E-02 0.  1.
       -2    1    3    3    0  502  0.76900725897E+03  0.51404200268E+03 -0.16820967882E+04  0.19196512573E+04  0.25500000920E-02 0. -1.
</event>
<event>
 5   0  0.5874741E-07  0.2989532E+04  0.7818609E-02  0.8246726E-01
       -1   -1    0    0    0  501  0.00000000000E+00  0.00000000000E+00  0.20239031281E+04  0.20239031281E+04  0.50400001928E-02 0.  1.
        1   -1    0    0  501    0  0.00000000000E+00  0.00000000000E+00 -0.11039686935E+04  0.11039686935E+04  0.50400001928E-02 0. -1.
    10030    2    1    2    0    0  0.00000000000E+00  0.00000000000E+00  0.91993443458E+03  0.31278718217E+04  0.29895321990E+04 0.  0.
        4    1    3    3  502    0 -0.37426230758E+03 -0.51885450697E+03  0.18734226543E+04  0.19796455059E+04  0.12699999809E+01 0.  1.
       -4    1    3    3    0  502  0.37426230758E+03  0.51885450697E+03 -0.95348821972E+03  0.11482263158E+04  0.12699999809E+01 0. -1.
</event>
<event>
 5   0  0.1723916E-06  0.2999205E+04  0.7818609E-02  0.8243958E-01
       -2   -1    0    0    0  501  0.00000000000E+00  0.00000000000E+00  0.11750042872E+04  0.11750042872E+04  0.25500000920E-02 0.  1.
        2   -1    0    0  501    0  0.00000000000E+00  0.00000000000E+00 -0.19138716457E+04  0.19138716457E+04  0.25500000920E-02 0. -1.
    10030    2    1    2    0    0  0.00000000000E+00  0.00000000000E+00 -0.73886735849E+03  0.30888759330E+04  0.29992048206E+04 0.  0.
        1    1    3    3  502    0  0.11045415050E+04 -0.59327445023E+03  0.47785462860E+03  0.13417643443E+04  0.50400001928E-02 0.  1.
       -1    1    3    3    0  502 -0.11045415050E+04  0.59327445023E+03 -0.12167219871E+04  0.17471115887E+04  0.50400001928E-02 0. -1.
</event>
<event>
 5   0  0.5874741E-07  0.3003807E+04  0.7818609E-02  0.8242645E-01
        1   -1    0    0  501    0  0.00000000000E+00  0.00000000000E+00  0.21011725933E+04  0.21011725933E+04  0.50400001928E-02 0. -1.
       -1   -1    0    0    0  501  0.00000000000E+00  0.00000000000E+00 -0.10735502985E+04  0.10735502985E+04  0.50400001928E-02 0.  1.
    10030    2    1    2    0    0  0.00000000000E+00  0.00000000000E+00  0.10276222948E+04  0.31747228918E+04  0.30038072274E+04 0.  0.
        4    1    3    3  502    0 -0.88538340156E+03  0.67925105587E+03 -0.54858443390E+03  0.12434758778E+04  0.12699999809E+01 0.  1.
       -4    1    3    3    0  502  0.88538340156E+03 -0.67925105587E+03  0.15762067287E+04  0.19312470140E+04  0.12699999809E+01 0. -1.
</event>
<event>
 5   0  0.5887179E-07  0.2999099E+04  0.7818609E-02  0.8243988E-01
       -1   -1    0    0    0  501  0.00000000000E+00  0.00000000000E+00  0.97363751723E+03  0.97363751724E+03  0.50400001928E-02 0.  1.
        1   -1    0    0  501    0  0.00000000000E+00  0.00000000000E+00 -0.23095340860E+04  0.23095340860E+04  0.50400001928E-02 0. -1.
    10030    2    1    2    0    0  0.00000000000E+00  0.00000000000E+00 -0.13358965688E+04  0.32831716032E+04  0.29990992204E+04 0.  0.
        3    1    3    3  502    0  0.12211004912E+04  0.84100977621E+03 -0.42251337955E+03  0.15417202792E+04  0.10100000352E+00 0.  1.
       -3    1    3    3    0  502 -0.12211004912E+04 -0.84100977621E+03 -0.91338318922E+03  0.17414513240E+04  0.10100000352E+00 0. -1.
</event>
<event>
 5   0  0.5931588E-07  0.3004012E+04  0.7818609E-02  0.8242586E-01
        1   -1    0    0  501    0  0.00000000000E+00  0.00000000000E+00  0.13455579921E+04  0.13455579921E+04  0.50400001928E-02 0. -1.
       -1   -1    0    0    0  501  0.00000000000E+00  0.00000000000E+00 -0.16766437385E+04  0.16766437385E+04  0.50400001928E-02 0.  1.
    10030    2    1    2    0    0  0.00000000000E+00  0.00000000000E+00 -0.33108574649E+03  0.30222017306E+04  0.30040115727E+04 0.  0.
        2    1    3    3  502    0 -0.10278054930E+04  0.14371067373E+03 -0.12579282932E+04  0.16307729701E+04  0.25500000920E-02 0.  1.
       -2    1    3    3    0  502  0.10278054930E+04 -0.14371067373E+03  0.92684254667E+03  0.13914287605E+04  0.25500000920E-02 0. -1.
</event>
<event>
 5   0  0.1723916E-06  0.3003643E+04  0.7818609E-02  0.8242691E-01
       -2   -1    0    0    0  501  0.00000000000E+00  0.00000000000E+00  0.19854735069E+04  0.19854735069E+04  0.25500000920E-02 0. -1.
        2   -1    0    0  501    0  0.00000000000E+00  0.00000000000E+00 -0.11359849364E+04  0.11359849364E+04  0.25500000920E-02 0.  1.
    10030    2    1    2    0    0  0.00000000000E+00  0.00000000000E+00  0.84948857055E+03  0.31214584433E+04  0.30036431182E+04 0.  0.
        1    1    3    3  502    0  0.52710929090E+03  0.40066305251E+03 -0.97612558336E+03  0.11794898222E+04  0.50400001928E-02 0.  1.
       -1    1    3    3    0  502 -0.52710929090E+03 -0.40066305251E+03  0.18256141539E+04  0.19419686211E+04  0.50400001928E-02 0. -1.
</event>
<event>
 5   0  0.1560174E-06  0.3005772E+04  0.7818609E-02  0.8242085E-01
       -2   -1    0    0    0  501  0.00000000000E+00  0.00000000000E+00  0.85417402758E+03  0.85417402758E+03  0.25500000920E-02 0.  1.
        2   -1    0    0  501    0  0.00000000000E+00  0.00000000000E+00 -0.26442699051E+04  0.26442699051E+04  0.25500000920E-02 0. -1.
    10030    2    1    2    0    0  0.00000000000E+00  0.00000000000E+00 -0.17900958776E+04  0.34984439327E+04  0.30057722302E+04 0.  0.
        5    1    3    3  502    0  0.12796322889E+03 -0.20268170261E+02  0.84765360872E+03  0.85751041804E+03  0.46999998093E+01 0.  1.
       -5    1    3    3    0  502 -0.12796322889E+03  0.20268170261E+02 -0.26377494863E+04  0.26409335147E+04  0.46999998093E+01 0. -1.
</event>
<event>
 5   0  0.5916703E-07  0.2998889E+04  0.7818609E-02  0.8244048E-01
       -1   -1    0    0    0  501  0.00000000000E+00  0.00000000000E+00  0.15180153759E+04  0.15180153759E+04  0.50400001928E-02 0.  1.
        1   -1    0    0  501    0  0.00000000000E+00  0.00000000000E+00 -0.14811010084E+04  0.14811010084E+04  0.50400001928E-02 0. -1.
    10030    2    1    2    0    0  0.00000000000E+00  0.00000000000E+00  0.36914367522E+02  0.29991163843E+04  0.29988891970E+04 0.  0.
        5    1    3    3  502    0  0.76484815875E+03 -0.11430163694E+04  0.61585734663E+03  0.15069112410E+04  0.46999998093E+01 0.  1.
       -5    1    3    3    0  502 -0.76484815875E+03  0.11430163694E+04 -0.57894297910E+03  0.14922051433E+04  0.46999998093E+01 0. -1.
</event>
<event>
 5   0  0.1625212E-06  0.3002375E+04  0.7818609E-02  0.8243053E-01
       -2   -1    0    0    0  501  0.00000000000E+00  0.00000000000E+00  0.15264450868E+04  0.15264450868E+04  0.25500000920E-02 0.  1.
        2   -1    0    0  501    0  0.00000000000E+00  0.00000000000E+00 -0.14763479451E+04  0.14763479451E+04  0.25500000920E-02 0. -1.
    10030    2    1    2    0    0  0.00000000000E+00  0.00000000000E+00  0.50097141665E+02  0.30027930319E+04  0.30023751046E+04 0.  0.
        4    1    3    3  502    0  0.15828888158E+02 -0.10517255238E+04 -0.10461678962E+04  0.14835248603E+04  0.12699999809E+01 0. -1.
       -4    1    3    3    0  502 -0.15828888158E+02  0.10517255238E+04  0.10962650379E+04  0.15192681716E+04  0.12699999809E+01 0.  1.
</event>
<event>
 5   0  0.6291798E-07  0.3000835E+04  0.7818609E-02  0.8243493E-01
       -1   -1    0    0    0  501  0.00000000000E+00  0.00000000000E+00  0.99869269788E+03  0.99869269789E+03  0.50400001928E-02 0.  1.
        1   -1    0    0  501    0  0.00000000000E+00  0.00000000000E+00 -0.22541994712E+04  0.22541994712E+04  0.50400001928E-02 0. -1.
    10030    2    1    2    0    0  0.00000000000E+00  0.00000000000E+00 -0.12555067733E+04  0.32528921691E+04  0.30008349181E+04 0.  0.
        1    1    3    3  502    0 -0.11976475564E+04 -0.87900362104E+03 -0.85576774496E+03  0.17144519441E+04  0.50400001928E-02 0.  1.
       -1    1    3    3    0  502  0.11976475564E+04  0.87900362104E+03 -0.39973902836E+03  0.15384402250E+04  0.50400001928E-02 0. -1.
</event>
<event>
 5   0  0.5916703E-07  0.3003393E+04  0.7818609E-02  0.8242763E-01
        1   -1    0    0  501    0  0.00000000000E+00  0.00000000000E+00  0.13859278272E+04  0.13859278272E+04  0.50400001928E-02 0.  1.
       -1   -1    0    0    0  501  0.00000000000E+00  0.00000000000E+00 -0.16271354664E+04  0.16271354664E+04  0.50400001928E-02 0. -1.
    10030    2    1    2    0    0  0.00000000000E+00  0.00000000000E+00 -0.24120763917E+03  0.30130632937E+04  0.30033929624E+04 0.  0.
        5    1    3    3  502    0  0.17587440019E+03 -0.11913933078E+04  0.77934664402E+03  0.14344870512E+04  0.46999998093E+01 0.  1.
       -5    1    3    3    0  502 -0.17587440019E+03  0.11913933078E+04 -0.10205542832E+04  0.15785762425E+04  0.46999998093E+01 0. -1.
</event>
<event>
 5   0  0.5931588E-07  0.3002582E+04  0.7818609E-02  0.8242994E-01
        1   -1    0    0  501    0  0.00000000000E+00  0.00000000000E+00  0.18973901012E+04  0.18973901012E+04  0.50400001928E-02 0.  1.
       -1   -1    0    0    0  501  0.00000000000E+00  0.00000000000E+00 -0.11878815881E+04  0.11878815881E+04  0.50400001928E-02 0. -1.
    10030    2    1    2    0    0  0.00000000000E+00  0.00000000000E+00  0.70950851307E+03  0.30852716893E+04  0.30025820666E+04 0.  0.
        2    1    3    3  502    0 -0.14474181769E+04 -0.44634972368E+02  0.76172101247E+03  0.16362244835E+04  0.25500000920E-02 0.  1.
       -2    1    3    3    0  502  0.14474181769E+04  0.44634972368E+02 -0.52212499396E+02  0.14490472058E+04  0.25500000920E-02 0. -1.
</event>
<event>
 5   0  0.5931588E-07  0.3002897E+04  0.7818609E-02  0.8242904E-01
        1   -1    0    0  501    0  0.00000000000E+00  0.00000000000E+00  0.12894996894E+04  0.12894996894E+04  0.50400001928E-02 0. -1.
       -1   -1    0    0    0  501  0.00000000000E+00  0.00000000000E+00 -0.17482338091E+04  0.17482338091E+04  0.50400001928E-02 0.  1.
    10030    2    1    2    0    0  0.00000000000E+00  0.00000000000E+00 -0.45873411968E+03  0.30377334986E+04  0.30028965709E+04 0.  0.
        2    1    3    3  502    0 -0.66016819018E+03 -0.91076151814E+03 -0.12354084925E+04  0.16707910478E+04  0.25500000920E-02 0.  1.
       -2    1    3    3    0  502  0.66016819018E+03  0.91076151814E+03  0.77667437279E+03  0.13669424507E+04  0.25500000920E-02 0. -1.
</event>
<event>
 5   0  0.5916703E-07  0.3042424E+04  0.7818609E-02  0.8231719E-01
       -1   -1    0    0    0  501  0.00000000000E+00  0.00000000000E+00  0.13113860355E+04  0.13113860355E+04  0.50400001928E-02 0. -1.
        1   -1    0    0  501    0  0.00000000000E+00  0.00000000000E+00 -0.17646102831E+04  0.17646102831E+04  0.50400001928E-02 0.  1.
    10030    2    1    2    0    0  0.00000000000E+00  0.00000000000E+00 -0.45322424762E+03  0.30759963186E+04  0.30424235625E+04 0.  0.
        5    1    3    3  502    0  0.26067507898E+03 -0.14874026162E+04 -0.41233775478E+03  0.15653633934E+04  0.46999998093E+01 0.  1.
       -5    1    3    3    0  502 -0.26067507898E+03  0.14874026162E+04 -0.40886492836E+02  0.15106329252E+04  0.46999998093E+01 0. -1.
</event>
<event>
 5   0  0.5916703E-07  0.2884403E+04  0.7818609E-02  0.8277533E-01
       -1   -1    0    0    0  501  0.00000000000E+00  0.00000000000E+00  0.81622215547E+03  0.81622215549E+03  0.50400001928E-02 0.  1.
        1   -1    0    0  501    0  0.00000000000E+00  0.00000000000E+00 -0.25482581825E+04  0.25482581825E+04  0.50400001928E-02 0. -1.
    10030    2    1    2    0    0  0.00000000000E+00  0.00000000000E+00 -0.17320360271E+04  0.33644803380E+04  0.28844027364E+04 0.  0.
        5    1    3    3  502    0 -0.76867193686E+03 -0.21679525078E+03 -0.22667487541E+04  0.24033369992E+04  0.46999998093E+01 0. -1.
       -5    1    3    3    0  502  0.76867193686E+03  0.21679525078E+03  0.53471272709E+03  0.96114333883E+03  0.46999998093E+01 0.  1.
</event>
<event>
 5   0  0.5931588E-07  0.3010827E+04  0.7818609E-02  0.8240646E-01
        1   -1    0    0  501    0  0.00000000000E+00  0.00000000000E+00  0.17851072366E+04  0.17851072366E+04  0.50400001928E-02 0. -1.
       -1   -1    0    0    0  501  0.00000000000E+00  0.00000000000E+00 -0.12695424375E+04  0.12695424375E+04  0.50400001928E-02 0.  1.
    10030    2    1    2    0    0  0.00000000000E+00  0.00000000000E+00  0.51556479908E+03  0.30546496741E+04  0.30108267253E+04 0.  0.
        2    1    3    3  502    0 -0.47547282534E+03 -0.36184691758E+03 -0.11440896873E+04  0.12907163949E+04  0.25500000920E-02 0.  1.
       -2    1    3    3    0  502  0.47547282534E+03  0.36184691758E+03  0.16596544864E+04  0.17639332792E+04  0.25500000920E-02 0. -1.
</event>
<event>
 5   0  0.5931588E-07  0.3002712E+04  0.7818609E-02  0.8242957E-01
       -1   -1    0    0    0  501  0.00000000000E+00  0.00000000000E+00  0.11263653836E+04  0.11263653836E+04  0.50400001928E-02 0. -1.
        1   -1    0    0  501    0  0.00000000000E+00  0.00000000000E+00 -0.20011891929E+04  0.20011891929E+04  0.50400001928E-02 0.  1.
    10030    2    1    2    0    0  0.00000000000E+00  0.00000000000E+00 -0.87482380935E+03  0.31275545765E+04  0.30027122626E+04 0.  0.
        2    1    3    3  502    0 -0.11819649294E+04 -0.91950417172E+03 -0.54930852717E+03  0.15950764478E+04  0.25500000920E-02 0.  1.
       -2    1    3    3    0  502  0.11819649294E+04  0.91950417172E+03 -0.32551528218E+03  0.15324781288E+04  0.25500000920E-02 0. -1.
</event>
<event>
 5   0  0.5931588E-07  0.2996221E+04  0.7818609E-02  0.8244811E-01
        1   -1    0    0  501    0  0.00000000000E+00  0.00000000000E+00  0.12775578184E+04  0.12775578184E+04  0.50400001928E-02 0. -1.
       -1   -1    0    0    0  501  0.00000000000E+00  0.00000000000E+00 -0.17567384438E+04  0.17567384438E+04  0.50400001928E-02 0.  1.
    10030    2    1    2    0    0  0.00000000000E+00  0.00000000000E+00 -0.47918062536E+03  0.30342962622E+04  0.29962209090E+04 0.  0.
        2    1    3    3  502    0  0.40087946738E+03 -0.11599936975E+04  0.63042247122E+03  0.13797544049E+04  0.25500000920E-02 0. -1.
       -2    1    3    3    0  502 -0.40087946738E+03  0.11599936975E+04 -0.11096030966E+04  0.16545418573E+04  0.25500000920E-02 0.  1.
</event>
<event>
 5   0  0.1723916E-06  0.3006090E+04  0.7818609E-02  0.8241994E-01
        2   -1    0    0  501    0  0.00000000000E+00  0.00000000000E+00  0.17812778002E+04  0.17812778002E+04  0.25500000920E-02 0.  1.
       -2   -1    0    0    0  501  0.00000000000E+00  0.00000000000E+00 -0.12682713429E+04  0.12682713429E+04  0.25500000920E-02 0. -1.
    10030    2    1    2    0    0  0.00000000000E+00  0.00000000000E+00  0.51300645735E+03  0.30495491431E+04  0.30060895448E+04 0.  0.
        1    1    3    3  502    0 -0.14608364397E+04 -0.35216482824E+03  0.28984814258E+03  0.15303839766E+04  0.50400001928E-02 0. -1.
       -1    1    3    3    0  502  0.14608364397E+04  0.35216482824E+03  0.22315831476E+03  0.15191651666E+04  0.50400001928E-02 0.  1.
</event>
<event>
 5   0  0.5916703E-07  0.3013154E+04  0.7818609E-02  0.8239985E-01
        1   -1    0    0  501    0  0.00000000000E+00  0.00000000000E+00  0.15586233825E+04  0.15586233825E+04  0.50400001928E-02 0. -1.
       -1   -1    0    0    0  501  0.00000000000E+00  0.00000000000E+00 -0.14562687484E+04  0.14562687484E+04  0.50400001928E-02 0.  1.
    10030    2    1    2    0    0  0.00000000000E+00  0.00000000000E+00  0.10235463413E+03  0.30148921309E+04  0.30131541763E+04 0.  0.
        5    1    3    3  502    0  0.77897221091E+03  0.88927269457E+02 -0.12360508851E+04  0.14637450752E+04  0.46999998093E+01 0.  1.
       -5    1    3    3    0  502 -0.77897221091E+03 -0.88927269457E+02  0.13384055192E+04  0.15511470557E+04  0.46999998093E+01 0. -1.
</event>
<event>
 5   0  0.5931588E-07  0.2983086E+04  0.7818609E-02  0.8248577E-01
        1   -1    0    0  501    0  0.00000000000E+00  0.00000000000E+00  0.15736634211E+04  0.15736634211E+04  0.50400001928E-02 0.  1.
       -1   -1    0    0    0  501  0.00000000000E+00  0.00000000000E+00 -0.14137079419E+04  0.14137079419E+04  0.50400001928E-02 0. -1.
    10030    2    1    2    0    0  0.00000000000E+00  0.00000000000E+00  0.15995547928E+03  0.29873713630E+04  0.29830859701E+04 0.  0.
        2    1    3    3  502    0  0.31477687428E+03 -0.10262902218E+04 -0.95705050073E+03  0.14381591570E+04  0.25500000920E-02 0. -1.
       -2    1    3    3    0  502 -0.31477687428E+03  0.10262902218E+04  0.11170059800E+04  0.15492122060E+04  0.25500000920E-02 0.  1.
</event>
<event>
 5   0  0.6291798E-07  0.2994306E+04  0.7818609E-02  0.8245359E-01
       -1   -1    0    0    0  501  0.00000000000E+00  0.00000000000E+00  0.11943525125E+04  0.11943525125E+04  0.50400001928E-02 0. -1.
        1   -1    0    0  501    0  0.00000000000E+00  0.00000000000E+00 -0.18767210380E+04  0.18767210381E+04  0.50400001928E-02 0.  1.
    10030    2    1    2    0    0  0.00000000000E+00  0.00000000000E+00 -0.68236852553E+03  0.30710735506E+04  0.29943055870E+04 0.  0.
        1    1    3    3  502    0  0.13232497035E+04 -0.23176043355E+03 -0.10190090093E+04  0.16861441330E+04  0.50400001928E-02 0.  1.
       -1    1    3    3    0  502 -0.13232497035E+04  0.23176043355E+03  0.33664048375E+03  0.13849294176E+04  0.50400001928E-02 0. -1.
</event>
<event>
 5   0  0.1560174E-06  0.2994531E+04  0.7818609E-02  0.8245294E-01
       -2   -1    0    0    0  501  0.00000000000E+00  0.00000000000E+00  0.11405586797E+04  0.11405586798E+04  0.25500000920E-02 0.  1.
        2   -1    0    0  501    0  0.00000000000E+00  0.00000000000E+00 -0.19655317641E+04  0.19655317641E+04  0.25500000920E-02 0. -1.
    10030    2    1    2    0    0  0.00000000000E+00  0.00000000000E+00 -0.82497308440E+03  0.31060904439E+04  0.29945312247E+04 0.  0.
        5    1    3    3  502    0 -0.53301416590E+03 -0.28162692541E+03  0.10091061281E+04  0.11754722854E+04  0.46999998093E+01 0.  1.
       -5    1    3    3    0  502  0.53301416590E+03  0.28162692541E+03 -0.18340792125E+04  0.19306181585E+04  0.46999998093E+01 0. -1.
</event>
<event>
 5   0  0.1560174E-06  0.3001471E+04  0.7818609E-02  0.8243311E-01
       -2   -1    0    0    0  501  0.00000000000E+00  0.00000000000E+00  0.10877095025E+04  0.10877095025E+04  0.25500000920E-02 0.  1.
        2   -1    0    0  501    0  0.00000000000E+00  0.00000000000E+00 -0.20705961253E+04  0.20705961253E+04  0.25500000920E-02 0. -1.
    10030    2    1    2    0    0  0.00000000000E+00  0.00000000000E+00 -0.98288662272E+03  0.31583056278E+04  0.30014710269E+04 0.  0.
        5    1    3    3  502    0  0.12176468845E+04  0.87241978013E+03 -0.58791130720E+03  0.16091743235E+04  0.46999998093E+01 0. -1.
       -5    1    3    3    0  502 -0.12176468845E+04 -0.87241978013E+03 -0.39497531552E+03  0.15491313043E+04  0.46999998093E+01 0.  1.
</event>
<event>
 5   0  0.1625212E-06  0.2994722E+04  0.7818609E-02  0.8245240E-01
       -2   -1    0    0    0  501  0.00000000000E+00  0.00000000000E+00  0.96986618617E+03  0.96986618617E+03  0.25500000920E-02 0.  1.
        2   -1    0    0  501    0  0.00000000000E+00  0.00000000000E+00 -0.23117511674E+04  0.23117511674E+04  0.25500000920E-02 0. -1.
    10030    2    1    2    0    0  0.00000000000E+00  0.00000000000E+00 -0.13418849812E+04  0.32816173535E+04  0.29947215484E+04 0.  0.
        4    1    3    3  502    0  0.14870069417E+04  0.12036193152E+03 -0.81132063232E+03  0.16982106526E+04  0.12699999809E+01 0. -1.
       -4    1    3    3    0  502 -0.14870069417E+04 -0.12036193152E+03 -0.53056434887E+03  0.15834067009E+04  0.12699999809E+01 0.  1.
</event>
<event>
 5   0  0.5916703E-07  0.2974871E+04  0.7818609E-02  0.8250943E-01
        1   -1    0    0  501    0  0.00000000000E+00  0.00000000000E+00  0.14103505719E+04  0.14103505719E+04  0.50400001928E-02 0. -1.
       -1   -1    0    0    0  501  0.00000000000E+00  0.00000000000E+00 -0.15687335213E+04  0.15687335214E+04  0.50400001928E-02 0.  1.
    10030    2    1    2    0    0  0.00000000000E+00  0.00000000000E+00 -0.15838294943E+03  0.29790840933E+04  0.29748709008E+04 0.  0.
        5    1    3    3  502    0  0.81994768989E+03  0.11674633299E+04  0.34230519819E+03  0.14671331840E+04  0.46999998093E+01 0. -1.
       -5    1    3    3    0  502 -0.81994768989E+03 -0.11674633299E+04 -0.50068814761E+03  0.15119509093E+04  0.46999998093E+01 0.  1.
</event>
<event>
 5   0  0.1674806E-06  0.3011901E+04  0.7818609E-02  0.8240341E-01
       -2   -1    0    0    0  501  0.00000000000E+00  0.00000000000E+00  0.76629234609E+03  0.76629234609E+03  0.25500000920E-02 0. -1.
        2   -1    0    0  501    0  0.00000000000E+00  0.00000000000E+00 -0.29595590320E+04  0.29595590320E+04  0.25500000920E-02 0.  1.
    10030    2    1    2    0    0  0.00000000000E+00  0.00000000000E+00 -0.21932666859E+04  0.37258513781E+04  0.30119013490E+04 0.  0.
        2    1    3    3  502    0  0.14450778489E+04  0.40310976717E+03 -0.12585866014E+04  0.19582613990E+04  0.25500000920E-02 0.  1.
       -2    1    3    3    0  502 -0.14450778489E+04 -0.40310976717E+03 -0.93468008458E+03  0.17675899791E+04  0.25500000920E-02 0. -1.
</event>
<event>
 5   0  0.5931588E-07  0.2997561E+04  0.7818609E-02  0.8244428E-01
        1   -1    0    0  501    0  0.00000000000E+00  0.00000000000E+00  0.27528154289E+04  0.27528154289E+04  0.50400001928E-02 0. -1.
       -1   -1    0    0    0  501  0.00000000000E+00  0.00000000000E+00 -0.81601670293E+03  0.81601670294E+03  0.50400001928E-02 0.  1.
    10030    2    1    2    0    0  0.00000000000E+00  0.00000000000E+00  0.19367987260E+04  0.35688321319E+04  0.29975612555E+04 0.  0.
        2    1    3    3  502    0  0.39853570529E+03 -0.87573401799E+03 -0.39978343653E+03  0.10419057418E+04  0.25500000920E-02 0.  1.
       -2    1    3    3    0  502 -0.39853570529E+03  0.87573401799E+03  0.23365821625E+04  0.25269263901E+04  0.25500000920E-02 0. -1.
</event>
<event>
 5   0  0.1674806E-06  0.3006121E+04  0.7818609E-02  0.8241985E-01
       -2   -1    0    0    0  501  0.00000000000E+00  0.00000000000E+00  0.92088099882E+03  0.92088099882E+03  0.25500000920E-02 0.  1.
        2   -1    0    0  501    0  0.00000000000E+00  0.00000000000E+00 -0.24532926995E+04  0.24532926995E+04  0.25500000920E-02 0. -1.
    10030    2    1    2    0    0  0.00000000000E+00  0.00000000000E+00 -0.15324117007E+04  0.33741736983E+04  0.30061208435E+04 0.  0.
        2    1    3    3  502    0  0.85367659121E+01 -0.41035261497E+03  0.85676163493E+03  0.95000139162E+03  0.25500000920E-02 0.  1.
       -2    1    3    3    0  502 -0.85367659121E+01  0.41035261497E+03 -0.23891733356E+04  0.24241723067E+04  0.25500000920E-02 0. -1.
</event>
<event>
 5   0  0.5916703E-07  0.2992556E+04  0.7818609E-02  0.8245860E-01
       -1   -1    0    0    0  501  0.00000000000E+00  0.00000000000E+00  0.82262014678E+03  0.82262014680E+03  0.50400001928E-02 0.  1.
        1   -1    0    0  501    0  0.00000000000E+00  0.00000000000E+00 -0.27216055385E+04  0.27216055385E+04  0.50400001928E-02 0. -1.
    10030    2    1    2    0    0  0.00000000000E+00  0.00000000000E+00 -0.18989853917E+04  0.35442256853E+04  0.29925557957E+04 0.  0.
        5    1    3    3  502    0 -0.40055475927E+03  0.59534958930E+03 -0.25045278511E+04  0.26052959708E+04  0.46999998093E+01 0. -1.
       -5    1    3    3    0  502  0.40055475927E+03 -0.59534958930E+03  0.60554245937E+03  0.93892971449E+03  0.46999998093E+01 0.  1.
</event>
<event>
 5   0  0.1625212E-06  0.3015682E+04  0.7818609E-02  0.8239267E-01
        2   -1    0    0  501    0  0.00000000000E+00  0.00000000000E+00  0.15930671388E+04  0.15930671388E+04  0.25500000920E-02 0.  1.
       -2   -1    0    0    0  501  0.00000000000E+00  0.00000000000E+00 -0.14271741040E+04  0.14271741040E+04  0.25500000920E-02 0. -1.
    10030    2    1    2    0    0  0.00000000000E+00  0.00000000000E+00  0.16589303488E+03  0.30202412428E+04  0.30156817912E+04 0.  0.
        4    1    3    3  502    0 -0.14132945465E+04 -0.14211155556E+03  0.58966145211E+03  0.15379529936E+04  0.12699999809E+01 0. -1.
       -4    1    3    3    0  502  0.14132945465E+04  0.14211155556E+03 -0.42376841723E+03  0.14822882492E+04  0.12699999809E+01 0.  1.
</event>
<event>
 5   0  0.6291798E-07  0.2998232E+04  0.7818609E-02  0.8244236E-01
       -1   -1    0    0    0  501  0.00000000000E+00  0.00000000000E+00  0.13601182985E+04  0.13601182985E+04  0.50400001928E-02 0.  1.
        1   -1    0    0  501    0  0.00000000000E+00  0.00000000000E+00 -0.16523188642E+04  0.16523188642E+04  0.50400001928E-02 0. -1.
    10030    2    1    2    0    0  0.00000000000E+00  0.00000000000E+00 -0.29220056572E+03  0.30124371627E+04  0.29982322273E+04 0.  0.
        1    1    3    3  502    0  0.54276946199E+03 -0.95836097801E+03  0.87572082986E+03  0.14071039140E+04  0.50400001928E-02 0.  1.
       -1    1    3    3    0  502 -0.54276946199E+03  0.95836097801E+03 -0.11679213956E+04  0.16053332487E+04  0.50400001928E-02 0. -1.
</event>
<event>
 5   0  0.5916703E-07  0.2996306E+04  0.7818609E-02  0.8244787E-01
       -1   -1    0    0    0  501  0.00000000000E+00  0.00000000000E+00  0.97630835015E+03  0.97630835016E+03  0.50400001928E-02 0. -1.
        1   -1    0    0  501    0  0.00000000000E+00  0.00000000000E+00 -0.22989275961E+04  0.22989275961E+04  0.50400001928E-02 0.  1.
    10030    2    1    2    0    0  0.00000000000E+00  0.00000000000E+00 -0.13226192460E+04  0.32752359463E+04  0.29963058646E+04 0.  0.
        5    1    3    3  502    0 -0.13473279686E+04 -0.78251700057E+02  0.49640314833E+02  0.13505192462E+04  0.46999998093E+01 0. -1.
       -5    1    3    3    0  502  0.13473279686E+04  0.78251700057E+02 -0.13722595608E+04  0.19247167001E+04  0.46999998093E+01 0.  1.
</event>
<event>
 5   0  0.6291798E-07  0.3030810E+04  0.7818609E-02  0.8234987E-01
        1   -1    0    0  501    0  0.00000000000E+00  0.00000000000E+00  0.14729999880E+04  0.14729999880E+04  0.50400001928E-02 0. -1.
       -1   -1    0    0    0  501  0.00000000000E+00  0.00000000000E+00 -0.15590303910E+04  0.15590303910E+04  0.50400001928E-02 0.  1.
    10030    2    1    2    0    0  0.00000000000E+00  0.00000000000E+00 -0.86030403066E+02  0.30320303790E+04  0.30308096260E+04 0.  0.
        1    1    3    3  502    0  0.85626764597E+02 -0.11541906564E+04 -0.10216544518E+04  0.15437829618E+04  0.50400001928E-02 0.  1.
       -1    1    3    3    0  502 -0.85626764597E+02  0.11541906564E+04  0.93562404873E+03  0.14882474172E+04  0.50400001928E-02 0. -1.
</event>
<event>
 5   0  0.1674806E-06  0.3013847E+04  0.7818609E-02  0.8239788E-01
       -2   -1    0    0    0  501  0.00000000000E+00  0.00000000000E+00  0.13748496686E+04  0.13748496686E+04  0.25500000920E-02 0. -1.
        2   -1    0    0  501    0  0.00000000000E+00  0.00000000000E+00 -0.16516848402E+04  0.16516848402E+04  0.25500000920E-02 0.  1.
    10030    2    1    2    0    0  0.00000000000E+00  0.00000000000E+00 -0.27683517160E+03  0.30265345088E+04  0.30138469471E+04 0.  0.
        2    1    3    3  502    0 -0.12913942752E+04  0.30294595472E+03  0.57967520072E+03  0.14475837675E+04  0.25500000920E-02 0. -1.
       -2    1    3    3    0  502  0.12913942752E+04 -0.30294595472E+03 -0.85651037232E+03  0.15789507413E+04  0.25500000920E-02 0.  1.
</event>
<event>
 5   0  0.1635086E-06  0.2986123E+04  0.7818609E-02  0.8247705E-01
       -2   -1    0    0    0  501  0.00000000000E+00  0.00000000000E+00  0.15859710426E+04  0.15859710426E+04  0.25500000920E-02 0. -1.
        2   -1    0    0  501    0  0.00000000000E+00  0.00000000000E+00 -0.14055951582E+04  0.14055951582E+04  0.25500000920E-02 0.  1.
    10030    2    1    2    0    0  0.00000000000E+00  0.00000000000E+00  0.18037588449E+03  0.29915662008E+04  0.29861233856E+04 0.  0.
        3    1    3    3  502    0  0.94590452873E+03 -0.49301340268E+03  0.11368101123E+04  0.15588889744E+04  0.10100000352E+00 0. -1.
       -3    1    3    3    0  502 -0.94590452873E+03  0.49301340268E+03 -0.95643422785E+03  0.14326772264E+04  0.10100000352E+00 0.  1.
</event>
<event>
 5   0  0.5916703E-07  0.2983838E+04  0.7818609E-02  0.8248361E-01
       -1   -1    0    0    0  501  0.00000000000E+00  0.00000000000E+00  0.16656528866E+04  0.16656528866E+04  0.50400001928E-02 0.  1.
        1   -1    0    0  501    0  0.00000000000E+00  0.00000000000E+00 -0.13363060746E+04  0.13363060746E+04  0.50400001928E-02 0. -1.
    10030    2    1    2    0    0  0.00000000000E+00  0.00000000000E+00  0.32934681202E+03  0.30019589613E+04  0.29838378445E+04 0.  0.
        5    1    3    3  502    0  0.40312287550E+03  0.86430805502E+03 -0.98957944120E+03  0.13743456724E+04  0.46999998093E+01 0. -1.
       -5    1    3    3    0  502 -0.40312287550E+03 -0.86430805502E+03  0.13189262532E+04  0.16276132889E+04  0.46999998093E+01 0.  1.
</event>
<event>
 5   0  0.1560174E-06  0.3004633E+04  0.7818609E-02  0.8242409E-01
       -2   -1    0    0    0  501  0.00000000000E+00  0.00000000000E+00  0.12392526261E+04  0.12392526261E+04  0.25500000920E-02 0. -1.
        2   -1    0    0  501    0  0.00000000000E+00  0.00000000000E+00 -0.18212223508E+04  0.18212223508E+04  0.25500000920E-02 0.  1.
    10030    2    1    2    0    0  0.00000000000E+00  0.00000000000E+00 -0.58196972465E+03  0.30604749769E+04  0.30046328102E+04 0.  0.
        5    1    3    3  502    0  0.11933720685E+04  0.71936897010E+03 -0.86294015942E+03  0.16389986021E+04  0.46999998093E+01 0. -1.
       -5    1    3    3    0  502 -0.11933720685E+04 -0.71936897010E+03  0.28097043477E+03  0.14214763748E+04  0.46999998093E+01 0.  1.
</event>
<event>
 5   0  0.1560174E-06  0.3004065E+04  0.7818609E-02  0.8242571E-01
        2   -1    0    0  501    0  0.00000000000E+00  0.00000000000E+00  0.24081888137E+04  0.24081888137E+04  0.25500000920E-02 0. -1.
       -2   -1    0    0    0  501  0.00000000000E+00  0.00000000000E+00 -0.93684604408E+03  0.93684604409E+03  0.25500000920E-02 0.  1.
    10030    2    1    2    0    0  0.00000000000E+00  0.00000000000E+00  0.14713427697E+04  0.33450348578E+04  0.30040653545E+04 0.  0.
        5    1    3    3  502    0 -0.14321326819E+04  0.43221006181E+03  0.88618184869E+03  0.17387207697E+04  0.46999998093E+01 0. -1.
       -5    1    3    3    0  502  0.14321326819E+04 -0.43221006181E+03  0.58516092097E+03  0.16063140881E+04  0.46999998093E+01 0.  1.
</event>
<event>
 5   0  0.1560174E-06  0.3007535E+04  0.7818609E-02  0.8241582E-01
        2   -1    0    0  501    0  0.00000000000E+00  0.00000000000E+00  0.21265547001E+04  0.21265547001E+04  0.25500000920E-02 0. -1.
       -2   -1    0    0    0  501  0.00000000000E+00  0.00000000000E+00 -0.10633712953E+04  0.10633712953E+04  0.25500000920E-02 0.  1.
    10030    2    1    2    0    0  0.00000000000E+00  0.00000000000E+00  0.10631834048E+04  0.31899259954E+04  0.30075353538E+04 0.  0.
        5    1    3    3  502    0  0.13403544110E+04  0.80361247253E+02 -0.18643196265E+03  0.13556499710E+04  0.46999998093E+01 0.  1.
       -5    1    3    3    0  502 -0.13403544110E+04 -0.80361247253E+02  0.12496153675E+04  0.18342760244E+04  0.46999998093E+01 0. -1.
</event>
<event>
 5   0  0.6291798E-07  0.3000236E+04  0.7818609E-02  0.8243663E-01
       -1   -1    0    0    0  501  0.00000000000E+00  0.00000000000E+00  0.12054295760E+04  0.12054295761E+04  0.50400001928E-02 0. -1.
        1   -1    0    0  501    0  0.00000000000E+00  0.00000000000E+00 -0.18668487473E+04  0.18668487473E+04  0.50400001928E-02 0.  1.
    10030    2    1    2    0    0  0.00000000000E+00  0.00000000000E+00 -0.66141917124E+03  0.30722783233E+04  0.30002364534E+04 0.  0.
        1    1    3    3  502    0 -0.35285671104E+03 -0.14549339466E+04 -0.42793168007E+03  0.15570697384E+04  0.50400001928E-02 0.  1.
       -1    1    3    3    0  502  0.35285671104E+03  0.14549339466E+04 -0.23348749116E+03  0.15152085850E+04  0.50400001928E-02 0. -1.
</event>
<event>
 5   0  0.1625212E-06  0.3002709E+04  0.7818609E-02  0.8242958E-01
       -2   -1    0    0    0  501  0.00000000000E+00  0.00000000000E+00  0.13946544198E+04  0.13946544198E+04  0.25500000920E-02 0.  1.
        2   -1    0    0  501    0  0.00000000000E+00  0.00000000000E+00 -0.16162181222E+04  0.16162181222E+04  0.25500000920E-02 0. -1.
    10030    2    1    2    0    0  0.00000000000E+00  0.00000000000E+00 -0.22156370235E+03  0.30108725420E+04  0.30027092750E+04 0.  0.
        4    1    3    3  502    0  0.57212246141E+03  0.13486341653E+04 -0.44019577281E+03  0.15296771404E+04  0.12699999809E+01 0. -1.
       -4    1    3    3    0  502 -0.57212246141E+03 -0.13486341653E+04  0.21863207046E+03  0.14811954016E+04  0.12699999809E+01 0.  1.
</event>
<event>
 5   0  0.6291798E-07  0.2989656E+04  0.7818609E-02  0.8246691E-01
        1   -1    0    0  501    0  0.00000000000E+00  0.00000000000E+00  0.24321748498E+04  0.24321748498E+04  0.50400001928E-02 0. -1.
       -1   -1    0    0    0  501  0.00000000000E+00  0.00000000000E+00 -0.91872951635E+03  0.91872951637E+03  0.50400001928E-02 0.  1.
    10030    2    1    2    0    0  0.00000000000E+00  0.00000000000E+00  0.15134453335E+04  0.33509043662E+04  0.29896560494E+04 0.  0.
        1    1    3    3  502    0  0.94747978488E+03 -0.75192983860E+03 -0.22769420154E+03  0.12308375500E+04  0.50400001928E-02 0.  1.
       -1    1    3    3    0  502 -0.94747978488E+03  0.75192983860E+03  0.17411395350E+04  0.21200668162E+04  0.50400001928E-02 0. -1.
</event>
<event>
 5   0  0.5887179E-07  0.3003242E+04  0.7818609E-02  0.8242806E-01
       -1   -1    0    0    0  501  0.00000000000E+00  0.00000000000E+00  0.89097343887E+03  0.89097343888E+03  0.50400001928E-02 0.  1.
        1   -1    0    0  501    0  0.00000000000E+00  0.00000000000E+00 -0.25307890259E+04  0.25307890259E+04  0.50400001928E-02 0. -1.
    10030    2    1    2    0    0  0.00000000000E+00  0.00000000000E+00 -0.16398155870E+04  0.34217624648E+04  0.30032421158E+04 0.  0.
        3    1    3    3  502    0  0.53727783971E+03 -0.58886009296E+03 -0.22698217346E+04  0.24057253383E+04  0.10100000352E+00 0. -1.
       -3    1    3    3    0  502 -0.53727783971E+03  0.58886009296E+03  0.63000614762E+03  0.10160371265E+04  0.10100000352E+00 0.  1.
</event>
<event>
 5   0  0.5931588E-07  0.2998083E+04  0.7818609E-02  0.8244278E-01
       -1   -1    0    0    0  501  0.00000000000E+00  0.00000000000E+00  0.23049982273E+04  0.23049982273E+04  0.50400001928E-02 0. -1.
        1   -1    0    0  501    0  0.00000000000E+00  0.00000000000E+00 -0.97489265753E+03  0.97489265754E+03  0.50400001928E-02 0.  1.
    10030    2    1    2    0    0  0.00000000000E+00  0.00000000000E+00  0.13301055697E+04  0.32798908848E+04  0.29980832860E+04 0.  0.
        2    1    3    3  502    0 -0.20076631115E+03 -0.21834028367E+03  0.22725740747E+04  0.22918491478E+04  0.25500000920E-02 0. -1.
       -2    1    3    3    0  502  0.20076631115E+03  0.21834028367E+03 -0.94246850499E+03  0.98804173701E+03  0.25500000920E-02 0.  1.
</event>
<event>
 5   0  0.1625212E-06  0.2977981E+04  0.7818609E-02  0.8250047E-01
        2   -1    0    0  501    0  0.00000000000E+00  0.00000000000E+00  0.17652497250E+04  0.17652497251E+04  0.25500000920E-02 0. -1.
       -2   -1    0    0    0  501  0.00000000000E+00  0.00000000000E+00 -0.12559656418E+04  0.12559656418E+04  0.25500000920E-02 0.  1.
    10030    2    1    2    0    0  0.00000000000E+00  0.00000000000E+00  0.50928408327E+03  0.30212153668E+04  0.29779811979E+04 0.  0.
        4    1    3    3  502    0  0.13975082964E+04  0.32352812586E+03  0.65967682243E+03  0.15788841027E+04  0.12699999809E+01 0. -1.
       -4    1    3    3    0  502 -0.13975082964E+04 -0.32352812586E+03 -0.15039273916E+03  0.14423312642E+04  0.12699999809E+01 0.  1.
</event>
<event>
 5   0  0.5874741E-07  0.2990539E+04  0.7818609E-02  0.8246438E-01
        1   -1    0    0  501    0  0.00000000000E+00  0.00000000000E+00  0.16568748618E+04  0.16568748618E+04  0.50400001928E-02 0. -1.
       -1   -1    0    0    0  501  0.00000000000E+00  0.00000000000E+00 -0.13494263646E+04  0.13494263646E+04  0.50400001928E-02 0.  1.
    10030    2    1    2    0    0  0.00000000000E+00  0.00000000000E+00  0.30744849726E+03  0.30063012264E+04  0.29905388286E+04 0.  0.
        4    1    3    3  502    0  0.29780859585E+03  0.90457985245E+03 -0.10051198301E+04  0.13846379148E+04  0.12699999809E+01 0.  1.
       -4    1    3    3    0  502 -0.29780859585E+03 -0.90457985245E+03  0.13125683274E+04  0.16216633116E+04  0.12699999809E+01 0. -1.
</event>
<event>
 5   0  0.5887179E-07  0.3108433E+04  0.7818609E-02  0.8213427E-01
        1   -1    0    0  501    0  0.00000000000E+00  0.00000000000E+00  0.33869418873E+04  0.33869418873E+04  0.50400001928E-02 0.  1.
       -1   -1    0    0    0  501  0.00000000000E+00  0.00000000000E+00 -0.71320642559E+03  0.71320642561E+03  0.50400001928E-02 0. -1.
    10030    2    1    2    0    0  0.00000000000E+00  0.00000000000E+00  0.26737354617E+04  0.41001483129E+04  0.31084328638E+04 0.  0.
        3    1    3    3  502    0  0.43768631230E+02  0.23063657663E+02 -0.71216752644E+03  0.71388389903E+03  0.10100000352E+00 0. -1.
       -3    1    3    3    0  502 -0.43768631230E+02 -0.23063657663E+02  0.33859029882E+04  0.33862644139E+04  0.10100000352E+00 0.  1.
</event>
<event>
 5   0  0.1723916E-06  0.2989012E+04  0.7818609E-02  0.8246876E-01
       -2   -1    0    0    0  501  0.00000000000E+00  0.00000000000E+00  0.13611441964E+04  0.13611441964E+04  0.25500000920E-02 0. -1.
        2   -1    0    0  501    0  0.00000000000E+00  0.00000000000E+00 -0.16409341380E+04  0.16409341380E+04  0.25500000920E-02 0.  1.
    10030    2    1    2    0    0  0.00000000000E+00  0.00000000000E+00 -0.27978994163E+03  0.30020783344E+04  0.29890118626E+04 0.  0.
        1    1    3    3  502    0 -0.11669769069E+04 -0.30777266699E+03 -0.10252180351E+04  0.15835501682E+04  0.50400001928E-02 0.  1.
       -1    1    3    3    0  502  0.11669769069E+04  0.30777266699E+03  0.74542809350E+03  0.14185281662E+04  0.50400001928E-02 0. -1.
</event>
<event>
 5   0  0.1560174E-06  0.2986393E+04  0.7818609E-02  0.8247627E-01
        2   -1    0    0  501    0  0.00000000000E+00  0.00000000000E+00  0.25778619563E+04  0.25778619563E+04  0.25500000920E-02 0. -1.
       -2   -1    0    0    0  501  0.00000000000E+00  0.00000000000E+00 -0.86491644569E+03  0.86491644570E+03  0.25500000920E-02 0.  1.
    10030    2    1    2    0    0  0.00000000000E+00  0.00000000000E+00  0.17129455106E+04  0.34427784020E+04  0.29863926070E+04 0.  0.
        5    1    3    3  502    0 -0.29686916728E+03 -0.67001505619E+03 -0.64333092165E+03  0.97516575143E+03  0.46999998093E+01 0.  1.
       -5    1    3    3    0  502  0.29686916728E+03  0.67001505619E+03  0.23562764323E+04  0.24676126506E+04  0.46999998093E+01 0. -1.
</event>
<event>
 5   0  0.5874741E-07  0.2995595E+04  0.7818609E-02  0.8244990E-01
       -1   -1    0    0    0  501  0.00000000000E+00  0.00000000000E+00  0.17041414089E+04  0.17041414089E+04  0.50400001928E-02 0.  1.
        1   -1    0    0  501    0  0.00000000000E+00  0.00000000000E+00 -0.13164388130E+04  0.13164388130E+04  0.50400001928E-02 0. -1.
    10030    2    1    2    0    0  0.00000000000E+00  0.00000000000E+00  0.38770259587E+03  0.30205802219E+04  0.29955953622E+04 0.  0.
        4    1    3    3  502    0 -0.91191295867E+03  0.11593562827E+04 -0.68518920849E+02  0.14766139271E+04  0.12699999809E+01 0. -1.
       -4    1    3    3    0  502  0.91191295867E+03 -0.11593562827E+04  0.45622151672E+03  0.15439662948E+04  0.12699999809E+01 0.  1.
</event>
<event>
 5   0  0.1625212E-06  0.2991189E+04  0.7818609E-02  0.8246251E-01
        2   -1    0    0  501    0  0.00000000000E+00  0.00000000000E+00  0.21015293039E+04  0.21015293039E+04  0.25500000920E-02 0.  1.
       -2   -1    0    0    0  501  0.00000000000E+00  0.00000000000E+00 -0.10643691563E+04  0.10643691563E+04  0.25500000920E-02 0. -1.
    10030    2    1    2    0    0  0.00000000000E+00  0.00000000000E+00  0.10371601476E+04  0.31658984601E+04  0.29911890425E+04 0.  0.
        4    1    3    3  502    0  0.17705749279E+03 -0.13276054656E+04  0.12229708706E+04  0.18137102832E+04  0.12699999809E+01 0.  1.
       -4    1    3    3    0  502 -0.17705749279E+03  0.13276054656E+04 -0.18581072304E+03  0.13521881769E+04  0.12699999809E+01 0. -1.
</event>
<event>
 5   0  0.1674806E-06  0.2995440E+04  0.7818609E-02  0.8245034E-01
       -2   -1    0    0    0  501  0.00000000000E+00  0.00000000000E+00  0.16816134319E+04  0.16816134319E+04  0.25500000920E-02 0. -1.
        2   -1    0    0  501    0  0.00000000000E+00  0.00000000000E+00 -0.13339363341E+04  0.13339363341E+04  0.25500000920E-02 0.  1.
    10030    2    1    2    0    0  0.00000000000E+00  0.00000000000E+00  0.34767709779E+03  0.30155497659E+04  0.29954400389E+04 0.  0.
        2    1    3    3  502    0  0.13360379971E+04 -0.63234323651E+03  0.41693380839E+03  0.15358024935E+04  0.25500000920E-02 0. -1.
       -2    1    3    3    0  502 -0.13360379971E+04  0.63234323651E+03 -0.69256710602E+02  0.14797472725E+04  0.25500000920E-02 0.  1.
</event>
<event>
 5   0  0.6291798E-07  0.2906138E+04  0.7818609E-02  0.8271054E-01
        1   -1    0    0  501    0  0.00000000000E+00  0.00000000000E+00  0.15805506544E+04  0.15805506545E+04  0.50400001928E-02 0. -1.
       -1   -1    0    0    0  501  0.00000000000E+00  0.00000000000E+00 -0.13358694178E+04  0.13358694178E+04  0.50400001928E-02 0.  1.
    10030    2    1    2    0    0  0.00000000000E+00  0.00000000000E+00  0.24468123664E+03  0.29164200723E+04  0.29061378375E+04 0.  0.
        1    1    3    3  502    0  0.75050469382E+03 -0.12208227252E+04 -0.11880911050E+03  0.14379781037E+04  0.50400001928E-02 0. -1.
       -1    1    3    3    0  502 -0.75050469382E+03  0.12208227252E+04  0.36349034714E+03  0.14784419686E+04  0.50400001928E-02 0.  1.
</event>
<event>
 5   0  0.1674806E-06  0.3085085E+04  0.7818609E-02  0.8219843E-01
       -2   -1    0    0    0  501  0.00000000000E+00  0.00000000000E+00  0.14887184019E+04  0.14887184020E+04  0.25500000920E-02 0. -1.
        2   -1    0    0  501    0  0.00000000000E+00  0.00000000000E+00 -0.15983121116E+04  0.15983121116E+04  0.25500000920E-02 0.  1.
    10030    2    1    2    0    0  0.00000000000E+00  0.00000000000E+00 -0.10959370964E+03  0.30870305135E+04  0.30850845386E+04 0.  0.
        2    1    3    3  502    0 -0.75217861684E+03 -0.10688996455E+04  0.76493751418E+03  0.15144135909E+04  0.25500000920E-02 0.  1.
       -2    1    3    3    0  502  0.75217861684E+03  0.10688996455E+04 -0.87453122382E+03  0.15726169226E+04  0.25500000920E-02 0. -1.
</event>
<event>
 5   0  0.5931588E-07  0.3011740E+04  0.7818609E-02  0.8240386E-01
        1   -1    0    0  501    0  0.00000000000E+00  0.00000000000E+00  0.14720493158E+04  0.14720493158E+04  0.50400001928E-02 0.  1.
       -1   -1    0    0    0  501  0.00000000000E+00  0.00000000000E+00 -0.15404681217E+04  0.15404681217E+04  0.50400001928E-02 0. -1.
    10030    2    1    2    0    0  0.00000000000E+00  0.00000000000E+00 -0.68418805902E+02  0.30125174376E+04  0.30117403903E+04 0.  0.
        2    1    3    3  502    0  0.62853364029E+03 -0.13041546623E+04 -0.44876913555E+03  0.15156739944E+04  0.25500000920E-02 0. -1.
       -2    1    3    3    0  502 -0.62853364029E+03  0.13041546623E+04  0.38035032964E+03  0.14968434432E+04  0.25500000920E-02 0.  1.
</event>
<event>
 5   0  0.5874741E-07  0.3012030E+04  0.7818609E-02  0.8240304E-01
        1   -1    0    0  501    0  0.00000000000E+00  0.00000000000E+00  0.11080748115E+04  0.11080748115E+04  0.50400001928E-02 0. -1.
       -1   -1    0    0    0  501  0.00000000000E+00  0.00000000000E+00 -0.20468658101E+04  0.20468658101E+04  0.50400001928E-02 0.  1.
    10030    2    1    2    0    0  0.00000000000E+00  0.00000000000E+00 -0.93879099868E+03  0.31549406216E+04  0.30120295129E+04 0.  0.
        4    1    3    3  502    0 -0.16177757945E+03  0.11488879830E+04 -0.14751425608E+04  0.18767425956E+04  0.12699999809E+01 0.  1.
       -4    1    3    3    0  502  0.16177757945E+03 -0.11488879830E+04  0.53635156213E+03  0.12781980260E+04  0.12699999809E+01 0. -1.
</event>
<event>
 5   0  0.1723916E-06  0.3016323E+04  0.7818609E-02  0.8239085E-01
       -2   -1    0    0    0  501  0.00000000000E+00  0.00000000000E+00  0.15301008059E+04  0.15301008059E+04  0.25500000920E-02 0.  1.
        2   -1    0    0  501    0  0.00000000000E+00  0.00000000000E+00 -0.14865365616E+04  0.14865365616E+04  0.25500000920E-02 0. -1.
    10030    2    1    2    0    0  0.00000000000E+00  0.00000000000E+00  0.43564244307E+02  0.30166373674E+04  0.30163227883E+04 0.  0.
        1    1    3    3  502    0  0.10333357201E+04 -0.53415130706E+03 -0.93824010251E+03  0.14944546896E+04  0.50400001928E-02 0. -1.
       -1    1    3    3    0  502 -0.10333357201E+04  0.53415130706E+03  0.98180434681E+03  0.15221826778E+04  0.50400001928E-02 0.  1.
</event>
<event>
 5   0  0.1674806E-06  0.2967723E+04  0.7818609E-02  0.8253008E-01
        2   -1    0    0  501    0  0.00000000000E+00  0.00000000000E+00  0.23539859893E+04  0.23539859893E+04  0.25500000920E-02 0. -1.
       -2   -1    0    0    0  501  0.00000000000E+00  0.00000000000E+00 -0.93536855122E+03  0.93536855122E+03  0.25500000920E-02 0.  1.
    10030    2    1    2    0    0  0.00000000000E+00  0.00000000000E+00  0.14186174381E+04  0.32893545405E+04  0.29677226719E+04 0.  0.
        2    1    3    3  502    0  0.32478899996E+03 -0.81306533922E+03 -0.61856228787E+03  0.10719992744E+04  0.25500000920E-02 0.  1.
       -2    1    3    3    0  502 -0.32478899996E+03  0.81306533922E+03  0.20371797259E+04  0.22173552661E+04  0.25500000920E-02 0. -1.
</event>
<event>
 5   0  0.6291798E-07  0.2998362E+04  0.7818609E-02  0.8244199E-01
        1   -1    0    0  501    0  0.00000000000E+00  0.00000000000E+00  0.13133920082E+04  0.13133920082E+04  0.50400001928E-02 0. -1.
       -1   -1    0    0    0  501  0.00000000000E+00  0.00000000000E+00 -0.17112513281E+04  0.17112513282E+04  0.50400001928E-02 0.  1.
    10030    2    1    2    0    0  0.00000000000E+00  0.00000000000E+00 -0.39785931995E+03  0.30246433364E+04  0.29983620985E+04 0.  0.
        1    1    3    3  502    0  0.14499341852E+04 -0.30847187116E+03  0.26816985198E+02  0.14826271235E+04  0.50400001928E-02 0.  1.
       -1    1    3    3    0  502 -0.14499341852E+04  0.30847187116E+03 -0.42467630515E+03  0.15420162129E+04  0.50400001928E-02 0. -1.
</event>
<event>
 5   0  0.5931588E-07  0.2994313E+04  0.7818609E-02  0.8245357E-01
       -1   -1    0    0    0  501  0.00000000000E+00  0.00000000000E+00  0.16359911423E+04  0.16359911423E+04  0.50400001928E-02 0.  1.
        1   -1    0    0  501    0  0.00000000000E+00  0.00000000000E+00 -0.13701036106E+04  0.13701036106E+04  0.50400001928E-02 0. -1.
    10030    2    1    2    0    0  0.00000000000E+00  0.00000000000E+00  0.26588753163E+03  0.30060947529E+04  0.29943128567E+04 0.  0.
        2    1    3    3  502    0 -0.12526885128E+04  0.36578365975E+02  0.95525819169E+03  0.15757806636E+04  0.25500000920E-02 0.  1.
       -2    1    3    3    0  502  0.12526885128E+04 -0.36578365975E+02 -0.68937066006E+03  0.14303140893E+04  0.25500000920E-02 0. -1.
</event>
<event>
 5   0  0.1723916E-06  0.3020825E+04  0.7818609E-02  0.8237809E-01
       -2   -1    0    0    0  501  0.00000000000E+00  0.00000000000E+00  0.83926340541E+03  0.83926340542E+03  0.25500000920E-02 0.  1.
        2   -1    0    0  501    0  0.00000000000E+00  0.00000000000E+00 -0.27182710209E+04  0.27182710209E+04  0.25500000920E-02 0. -1.
    10030    2    1    2    0    0  0.00000000000E+00  0.00000000000E+00 -0.18790076155E+04  0.35575344263E+04  0.30208246516E+04 0.  0.
        1    1    3    3  502    0  0.74699140381E+03 -0.12805512870E+04 -0.12798843222E+04  0.19585483487E+04  0.50400001928E-02 0.  1.
       -1    1    3    3    0  502 -0.74699140381E+03  0.12805512870E+04 -0.59912329332E+03  0.15989860777E+04  0.50400001928E-02 0. -1.
</event>
<event>
 5   0  0.5931588E-07  0.2990663E+04  0.7818609E-02  0.8246402E-01
       -1   -1    0    0    0  501  0.00000000000E+00  0.00000000000E+00  0.13605035913E+04  0.13605035913E+04  0.50400001928E-02 0.  1.
        1   -1    0    0  501    0  0.00000000000E+00  0.00000000000E+00 -0.16435205434E+04  0.16435205435E+04  0.50400001928E-02 0. -1.
    10030    2    1    2    0    0  0.00000000000E+00  0.00000000000E+00 -0.28301695219E+03  0.30040241347E+04  0.29906625364E+04 0.  0.
        2    1    3    3  502    0 -0.29496608587E+03  0.14596011582E+04 -0.46091770945E+01  0.14891144272E+04  0.25500000920E-02 0.  1.
       -2    1    3    3    0  502  0.29496608587E+03 -0.14596011582E+04 -0.27840777509E+03  0.15149097075E+04  0.25500000920E-02 0. -1.
</event>
<event>
 5   0  0.5887179E-07  0.3002835E+04  0.7818609E-02  0.8242922E-01
        1   -1    0    0  501    0  0.00000000000E+00  0.00000000000E+00  0.12933568784E+04  0.12933568784E+04  0.50400001928E-02 0. -1.
       -1   -1    0    0    0  501  0.00000000000E+00  0.00000000000E+00 -0.17429488229E+04  0.17429488229E+04  0.50400001928E-02 0.  1.
    10030    2    1    2    0    0  0.00000000000E+00  0.00000000000E+00 -0.44959194452E+03  0.30363057013E+04  0.30028352261E+04 0.  0.
        3    1    3    3  502    0 -0.51057175179E+03  0.14037095997E+04 -0.70880093159E+02  0.14953622142E+04  0.10100000352E+00 0.  1.
       -3    1    3    3    0  502  0.51057175179E+03 -0.14037095997E+04 -0.37871185136E+03  0.15409434871E+04  0.10100000352E+00 0. -1.
</event>
<event>
 5   0  0.1625212E-06  0.3017001E+04  0.7818609E-02  0.8238893E-01
        2   -1    0    0  501    0  0.00000000000E+00  0.00000000000E+00  0.14728158728E+04  0.14728158728E+04  0.25500000920E-02 0. -1.
       -2   -1    0    0    0  501  0.00000000000E+00  0.00000000000E+00 -0.15450498815E+04  0.15450498815E+04  0.25500000920E-02 0.  1.
    10030    2    1    2    0    0  0.00000000000E+00  0.00000000000E+00 -0.72234008786E+02  0.30178657543E+04  0.30170011533E+04 0.  0.
        4    1    3    3  502    0  0.11761363195E+04  0.93217925133E+03 -0.18886170881E+03  0.15125888921E+04  0.12699999809E+01 0.  1.
       -4    1    3    3    0  502 -0.11761363195E+04 -0.93217925133E+03  0.11662770003E+03  0.15052768622E+04  0.12699999809E+01 0. -1.
</event>
<event>
 5   0  0.1625212E-06  0.3021401E+04  0.7818609E-02  0.8237646E-01
        2   -1    0    0  501    0  0.00000000000E+00  0.00000000000E+00  0.16945462072E+04  0.16945462072E+04  0.25500000920E-02 0.  1.
       -2   -1    0    0    0  501  0.00000000000E+00  0.00000000000E+00 -0.13468009458E+04  0.13468009458E+04  0.25500000920E-02 0. -1.
    10030    2    1    2    0    0  0.00000000000E+00  0.00000000000E+00  0.34774526134E+03  0.30413471530E+04  0.30214012872E+04 0.  0.
        4    1    3    3  502    0 -0.10491611568E+03 -0.10765829834E+04 -0.88768712183E+03  0.13992956624E+04  0.12699999809E+01 0. -1.
       -4    1    3    3    0  502  0.10491611568E+03  0.10765829834E+04  0.12354323832E+04  0.16420514906E+04  0.12699999809E+01 0.  1.
</event>
<event>
 5   0  0.1625212E-06  0.3001261E+04  0.7818609E-02  0.8243371E-01
        2   -1    0    0  501    0  0.00000000000E+00  0.00000000000E+00  0.14451860734E+04  0.14451860734E+04  0.25500000920E-02 0. -1.
       -2   -1    0    0    0  501  0.00000000000E+00  0.00000000000E+00 -0.15582016047E+04  0.15582016047E+04  0.25500000920E-02 0.  1.
    10030    2    1    2    0    0  0.00000000000E+00  0.00000000000E+00 -0.11301553134E+03  0.30033876781E+04  0.30012605742E+04 0.  0.
        4    1    3    3  502    0 -0.17898930310E+03  0.11891840129E+04 -0.95474844224E+03  0.15354940534E+04  0.12699999809E+01 0.  1.
       -4    1    3    3    0  502  0.17898930310E+03 -0.11891840129E+04  0.84173291091E+03  0.14678936247E+04  0.12699999809E+01 0. -1.
</event>
<event>
 5   0  0.1635086E-06  0.3009127E+04  0.7818609E-02  0.8241129E-01
       -2   -1    0    0    0  501  0.00000000000E+00  0.00000000000E+00  0.17488561334E+04  0.17488561334E+04  0.25500000920E-02 0. -1.
        2   -1    0    0  501    0  0.00000000000E+00  0.00000000000E+00 -0.12943957883E+04  0.12943957883E+04  0.25500000920E-02 0.  1.
    10030    2    1    2    0    0  0.00000000000E+00  0.00000000000E+00  0.45446034505E+03  0.30432519217E+04  0.30091274572E+04 0.  0.
        3    1    3    3  502    0 -0.54965951422E+03 -0.74642884503E+03  0.14257560970E+04  0.17006063802E+04  0.10100000352E+00 0. -1.
       -3    1    3    3    0  502  0.54965951422E+03  0.74642884503E+03 -0.97129575190E+03  0.13426455415E+04  0.10100000352E+00 0.  1.
</event>
<event>
 5   0  0.6291798E-07  0.3012362E+04  0.7818609E-02  0.8240210E-01
       -1   -1    0    0    0  501  0.00000000000E+00  0.00000000000E+00  0.14459473691E+04  0.14459473691E+04  0.50400001928E-02 0. -1.
        1   -1    0    0  501    0  0.00000000000E+00  0.00000000000E+00 -0.15689234313E+04  0.15689234313E+04  0.50400001928E-02 0.  1.
    10030    2    1    2    0    0  0.00000000000E+00  0.00000000000E+00 -0.12297606216E+03  0.30148708004E+04  0.30123616701E+04 0.  0.
        1    1    3    3  502    0 -0.23076627339E+03  0.12426673485E+04  0.75840461363E+03  0.14739921201E+04  0.50400001928E-02 0. -1.
       -1    1    3    3    0  502  0.23076627339E+03 -0.12426673485E+04 -0.88138067580E+03  0.15408786804E+04  0.50400001928E-02 0.  1.
</event>
<event>
 5   0  0.1674806E-06  0.3000199E+04  0.7818609E-02  0.8243674E-01
       -2   -1    0    0    0  501  0.00000000000E+00  0.00000000000E+00  0.11921987250E+04  0.11921987250E+04  0.25500000920E-02 0.  1.
        2   -1    0    0  501    0  0.00000000000E+00  0.00000000000E+00 -0.18875195607E+04  0.18875195607E+04  0.25500000920E-02 0. -1.
    10030    2    1    2    0    0  0.00000000000E+00  0.00000000000E+00 -0.69532083569E+03  0.30797182856E+04  0.30001989358E+04 0.  0.
        2    1    3    3  502    0  0.91100111534E+03  0.50998217962E+03  0.75805885495E+03  0.12902162932E+04  0.25500000920E-02 0.  1.
       -2    1    3    3    0  502 -0.91100111534E+03 -0.50998217962E+03 -0.14533796906E+04  0.17895019924E+04  0.25500000920E-02 0. -1.
</event>
<event>
 5   0  0.1723916E-06  0.2996807E+04  0.7818609E-02  0.8244643E-01
       -2   -1    0    0    0  501  0.00000000000E+00  0.00000000000E+00  0.13325942630E+04  0.13325942630E+04  0.25500000920E-02 0.  1.
        2   -1    0    0  501    0  0.00000000000E+00  0.00000000000E+00 -0.16848434305E+04  0.16848434305E+04  0.25500000920E-02 0. -1.
    10030    2    1    2    0    0  0.00000000000E+00  0.00000000000E+00 -0.35224916750E+03  0.30174376934E+04  0.29968067602E+04 0.  0.
        1    1    3    3  502    0 -0.60715262131E+03 -0.62989203932E+03  0.10487262338E+04  0.13657324044E+04  0.50400001928E-02 0.  1.
       -1    1    3    3    0  502  0.60715262131E+03  0.62989203932E+03 -0.14009754013E+04  0.16517052891E+04  0.50400001928E-02 0. -1.
</event>
<event>
 5   0  0.5931588E-07  0.2998633E+04  0.7818609E-02  0.8244121E-01
        1   -1    0    0  501    0  0.00000000000E+00  0.00000000000E+00  0.21820604767E+04  0.21820604767E+04  0.50400001928E-02 0.  1.
       -1   -1    0    0    0  501  0.00000000000E+00  0.00000000000E+00 -0.10301960643E+04  0.10301960643E+04  0.50400001928E-02 0. -1.
    10030    2    1    2    0    0  0.00000000000E+00  0.00000000000E+00  0.11518644124E+04  0.32122565410E+04  0.29986330987E+04 0.  0.
        2    1    3    3  502    0  0.17005965613E+03  0.75429150878E+02  0.21696483972E+04  0.21776097012E+04  0.25500000920E-02 0.  1.
       -2    1    3    3    0  502 -0.17005965613E+03 -0.75429150878E+02 -0.10177839848E+04  0.10346468398E+04  0.25500000920E-02 0. -1.
</event>
<event>
 5   0  0.5931588E-07  0.3003913E+04  0.7818609E-02  0.8242614E-01
        1   -1    0    0  501    0  0.00000000000E+00  0.00000000000E+00  0.18299506260E+04  0.18299506260E+04  0.50400001928E-02 0. -1.
       -1   -1    0    0    0  501  0.00000000000E+00  0.00000000000E+00 -0.12327510025E+04  0.12327510025E+04  0.50400001928E-02 0.  1.
    10030    2    1    2    0    0  0.00000000000E+00  0.00000000000E+00  0.59719962354E+03  0.30627016285E+04  0.30039130937E+04 0.  0.
        2    1    3    3  502    0  0.10740497148E+04  0.48583511244E+03 -0.65034331219E+03  0.13463153308E+04  0.25500000920E-02 0.  1.
       -2    1    3    3    0  502 -0.10740497148E+04 -0.48583511244E+03  0.12475429357E+04  0.17163862977E+04  0.25500000920E-02 0. -1.
</event>
<event>
 5   0  0.1625212E-06  0.3036989E+04  0.7818609E-02  0.8233247E-01
        2   -1    0    0  501    0  0.00000000000E+00  0.00000000000E+00  0.20632385884E+04  0.20632385884E+04  0.25500000920E-02 0. -1.
       -2   -1    0    0    0  501  0.00000000000E+00  0.00000000000E+00 -0.11175755675E+04  0.11175755675E+04  0.25500000920E-02 0.  1.
    10030    2    1    2    0    0  0.00000000000E+00  0.00000000000E+00  0.94566302091E+03  0.31808141560E+04  0.30369886641E+04 0.  0.
        4    1    3    3  502    0  0.29972354135E+03 -0.11386454510E+04 -0.53147266131E+03  0.12918252463E+04  0.12699999809E+01 0.  1.
       -4    1    3    3    0  502 -0.29972354135E+03  0.11386454510E+04  0.14771356822E+04  0.18889889097E+04  0.12699999809E+01 0. -1.
</event>
<event>
 5   0  0.1625212E-06  0.3009280E+04  0.7818609E-02  0.8241086E-01
       -2   -1    0    0    0  501  0.00000000000E+00  0.00000000000E+00  0.11478167078E+04  0.11478167078E+04  0.25500000920E-02 0.  1.
        2   -1    0    0  501    0  0.00000000000E+00  0.00000000000E+00 -0.19723899148E+04  0.19723899148E+04  0.25500000920E-02 0. -1.
    10030    2    1    2    0    0  0.00000000000E+00  0.00000000000E+00 -0.82457320704E+03  0.31202066225E+04  0.30092803780E+04 0.  0.
        4    1    3    3  502    0 -0.26659503929E+03  0.14689307108E+04 -0.60657057212E+03  0.16114464992E+04  0.12699999809E+01 0. -1.
       -4    1    3    3    0  502  0.26659503929E+03 -0.14689307108E+04 -0.21800263492E+03  0.15087601233E+04  0.12699999809E+01 0.  1.
</event>
<event>
 5   0  0.1625212E-06  0.2997659E+04  0.7818609E-02  0.8244400E-01
       -2   -1    0    0    0  501  0.00000000000E+00  0.00000000000E+00  0.70858423753E+03  0.70858423754E+03  0.25500000920E-02 0.  1.
        2   -1    0    0  501    0  0.00000000000E+00  0.00000000000E+00 -0.31703928660E+04  0.31703928660E+04  0.25500000920E-02 0. -1.
    10030    2    1    2    0    0  0.00000000000E+00  0.00000000000E+00 -0.24618086285E+04  0.38789771036E+04  0.29976593613E+04 0.  0.
        4    1    3    3  502    0 -0.95416850733E+03  0.94018445944E+02 -0.27216551150E+04  0.28855996234E+04  0.12699999809E+01 0. -1.
       -4    1    3    3    0  502  0.95416850733E+03 -0.94018445944E+02  0.25984648655E+03  0.99337748014E+03  0.12699999809E+01 0.  1.
</event>
<event>
 5   0  0.5887179E-07  0.3002773E+04  0.7818609E-02  0.8242939E-01
       -1   -1    0    0    0  501  0.00000000000E+00  0.00000000000E+00  0.14490640267E+04  0.14490640267E+04  0.50400001928E-02 0.  1.
        1   -1    0    0  501    0  0.00000000000E+00  0.00000000000E+00 -0.15555987047E+04  0.15555987047E+04  0.50400001928E-02 0. -1.
    10030    2    1    2    0    0  0.00000000000E+00  0.00000000000E+00 -0.10653467798E+03  0.30046627313E+04  0.30027734666E+04 0.  0.
        3    1    3    3  502    0  0.11618137957E+04 -0.90125054140E+03  0.25040058221E+03  0.14915643788E+04  0.10100000352E+00 0.  1.
       -3    1    3    3    0  502 -0.11618137957E+04  0.90125054140E+03 -0.35693526019E+03  0.15130983525E+04  0.10100000352E+00 0. -1.
</event>
<event>
 5   0  0.5916703E-07  0.3005610E+04  0.7818609E-02  0.8242131E-01
        1   -1    0    0  501    0  0.00000000000E+00  0.00000000000E+00  0.15677500795E+04  0.15677500795E+04  0.50400001928E-02 0. -1.
       -1   -1    0    0    0  501  0.00000000000E+00  0.00000000000E+00 -0.14405506922E+04  0.14405506922E+04  0.50400001928E-02 0.  1.
    10030    2    1    2    0    0  0.00000000000E+00  0.00000000000E+00  0.12719938728E+03  0.30083007717E+04  0.30056103954E+04 0.  0.
        5    1    3    3  502    0  0.14478082656E+04  0.33311512131E+03 -0.16306916391E+03  0.14945661913E+04  0.46999998093E+01 0. -1.
       -5    1    3    3    0  502 -0.14478082656E+04 -0.33311512131E+03  0.29026855119E+03  0.15137345804E+04  0.46999998093E+01 0.  1.
</event>
<event>
 5   0  0.1674806E-06  0.3005540E+04  0.7818609E-02  0.8242151E-01
       -2   -1    0    0    0  501  0.00000000000E+00  0.00000000000E+00  0.11489082775E+04  0.11489082775E+04  0.25500000920E-02 0.  1.
        2   -1    0    0  501    0  0.00000000000E+00  0.00000000000E+00 -0.19656210633E+04  0.19656210633E+04  0.25500000920E-02 0. -1.
    10030    2    1    2    0    0  0.00000000000E+00  0.00000000000E+00 -0.81671278579E+03  0.31145293407E+04  0.30055404239E+04 0.  0.
        2    1    3    3  502    0  0.40462218675E+03 -0.10551037682E+04 -0.14349131704E+04  0.18264552779E+04  0.25500000920E-02 0. -1.
       -2    1    3    3    0  502 -0.40462218675E+03  0.10551037682E+04  0.61820038461E+03  0.12880740628E+04  0.25500000920E-02 0.  1.
</event>
<event>
 5   0  0.5931588E-07  0.2906517E+04  0.7818609E-02  0.8270941E-01
       -1   -1    0    0    0  501  0.00000000000E+00  0.00000000000E+00  0.19995165974E+04  0.19995165974E+04  0.50400001928E-02 0.  1.
        1   -1    0    0  501    0  0.00000000000E+00  0.00000000000E+00 -0.10562352951E+04  0.10562352951E+04  0.50400001928E-02 0. -1.
    10030    2    1    2    0    0  0.00000000000E+00  0.00000000000E+00  0.94328130229E+03  0.30557518925E+04  0.29065168179E+04 0.  0.
        2    1    3    3  502    0  0.89662653277E+03  0.12991212648E+02  0.16739730911E+04  0.18990244392E+04  0.25500000920E-02 0.  1.
       -2    1    3    3    0  502 -0.89662653277E+03 -0.12991212648E+02 -0.73069178882E+03  0.11567274533E+04  0.25500000920E-02 0. -1.
</event>
<event>
 5   0  0.5931588E-07  0.2996123E+04  0.7818609E-02  0.8244839E-01
       -1   -1    0    0    0  501  0.00000000000E+00  0.00000000000E+00  0.10159175127E+04  0.10159175127E+04  0.50400001928E-02 0.  1.
        1   -1    0    0  501    0  0.00000000000E+00  0.00000000000E+00 -0.22090253432E+04  0.22090253433E+04  0.50400001928E-02 0. -1.
    10030    2    1    2    0    0  0.00000000000E+00  0.00000000000E+00 -0.11931078305E+04  0.32249428560E+04  0.29961225157E+04 0.  0.
        2    1    3    3  502    0  0.43120308923E+03 -0.75965989490E+03  0.71342605584E+03  0.11278279998E+04  0.25500000920E-02 0.  1.
       -2    1    3    3    0  502 -0.43120308923E+03  0.75965989490E+03 -0.19065338864E+04  0.20971148562E+04  0.25500000920E-02 0. -1.
</event>
<event>
 5   0  0.6291798E-07  0.3018411E+04  0.7818609E-02  0.8238493E-01
        1   -1    0    0  501    0  0.00000000000E+00  0.00000000000E+00  0.17439590395E+04  0.17439590395E+04  0.50400001928E-02 0. -1.
       -1   -1    0    0    0  501  0.00000000000E+00  0.00000000000E+00 -0.13060516202E+04  0.13060516202E+04  0.50400001928E-02 0.  1.
    10030    2    1    2    0    0  0.00000000000E+00  0.00000000000E+00  0.43790741931E+03  0.30500106596E+04  0.30184105281E+04 0.  0.
        1    1    3    3  502    0 -0.13663661300E+04 -0.20251357179E+03  0.83337576092E+03  0.16132214067E+04  0.50400001928E-02 0. -1.
       -1    1    3    3    0  502  0.13663661300E+04  0.20251357179E+03 -0.39546834162E+03  0.14367892529E+04  0.50400001928E-02 0.  1.
</event>
<event>
 5   0  0.1674806E-06  0.2999445E+04  0.7818609E-02  0.8243889E-01
       -2   -1    0    0    0  501  0.00000000000E+00  0.00000000000E+00  0.15328566625E+04  0.15328566625E+04  0.25500000920E-02 0.  1.
        2   -1    0    0  501    0  0.00000000000E+00  0.00000000000E+00 -0.14673043158E+04  0.14673043158E+04  0.25500000920E-02 0. -1.
    10030    2    1    2    0    0  0.00000000000E+00  0.00000000000E+00  0.65552346665E+02  0.30001609783E+04  0.29994447462E+04 0.  0.
        2    1    3    3  502    0  0.58046130102E+03 -0.24547797058E+03  0.13939730747E+04  0.15298221103E+04  0.25500000920E-02 0.  1.
       -2    1    3    3    0  502 -0.58046130102E+03  0.24547797058E+03 -0.13284207281E+04  0.14703388680E+04  0.25500000920E-02 0. -1.
</event>
<event>
 5   0  0.1625212E-06  0.2997748E+04  0.7818609E-02  0.8244374E-01
       -2   -1    0    0    0  501  0.00000000000E+00  0.00000000000E+00  0.14646996376E+04  0.14646996376E+04  0.25500000920E-02 0.  1.
        2   -1    0    0  501    0  0.00000000000E+00  0.00000000000E+00 -0.15338461559E+04  0.15338461559E+04  0.25500000920E-02 0. -1.
    10030    2    1    2    0    0  0.00000000000E+00  0.00000000000E+00 -0.69146518286E+02  0.29985457936E+04  0.29977484276E+04 0.  0.
        4    1    3    3  502    0  0.14339763401E+04  0.30309793414E+03 -0.34844932196E+03  0.15065108843E+04  0.12699999809E+01 0. -1.
       -4    1    3    3    0  502 -0.14339763401E+04 -0.30309793414E+03  0.27930280368E+03  0.14920349093E+04  0.12699999809E+01 0.  1.
</event>
<event>
 5   0  0.6291798E-07  0.2883487E+04  0.7818609E-02  0.8277808E-01
       -1   -1    0    0    0  501  0.00000000000E+00  0.00000000000E+00  0.11541886875E+04  0.11541886875E+04  0.50400001928E-02 0.  1.
        1   -1    0    0  501    0  0.00000000000E+00  0.00000000000E+00 -0.18009396504E+04  0.18009396504E+04  0.50400001928E-02 0. -1.
    10030    2    1    2    0    0  0.00000000000E+00  0.00000000000E+00 -0.64675096296E+03  0.29551283379E+04  0.28834868970E+04 0.  0.
        1    1    3    3  502    0  0.69996792795E+03 -0.11573673517E+04 -0.83494674359E+03  0.15895251969E+04  0.50400001928E-02 0. -1.
       -1    1    3    3    0  502 -0.69996792795E+03  0.11573673517E+04  0.18819578063E+03  0.13656031410E+04  0.50400001928E-02 0.  1.
</event>
<event>
 5   0  0.1723916E-06  0.3003723E+04  0.7818609E-02  0.8242668E-01
        2   -1    0    0  501    0  0.00000000000E+00  0.00000000000E+00  0.16824000374E+04  0.16824000374E+04  0.25500000920E-02 0.  1.
       -2   -1    0    0    0  501  0.00000000000E+00  0.00000000000E+00 -0.13406968728E+04  0.13406968728E+04  0.25500000920E-02 0. -1.
    10030    2    1    2    0    0  0.00000000000E+00  0.00000000000E+00  0.34170316464E+03  0.30230969102E+04  0.30037233354E+04 0.  0.
        1    1    3    3  502    0  0.35633717221E+03 -0.26842359503E+03 -0.12724694667E+04  0.13484086734E+04  0.50400001928E-02 0. -1.
       -1    1    3    3    0  502 -0.35633717221E+03  0.26842359503E+03  0.16141726314E+04  0.16746882368E+04  0.50400001928E-02 0.  1.
</event>
<event>
 5   0  0.5931588E-07  0.3008754E+04  0.7818609E-02  0.8241235E-01
        1   -1    0    0  501    0  0.00000000000E+00  0.00000000000E+00  0.22868548976E+04  0.22868548976E+04  0.50400001928E-02 0.  1.
       -1   -1    0    0    0  501  0.00000000000E+00  0.00000000000E+00 -0.98963462408E+03  0.98963462409E+03  0.50400001928E-02 0. -1.
    10030    2    1    2    0    0  0.00000000000E+00  0.00000000000E+00  0.12972202735E+04  0.32764895217E+04  0.30087544180E+04 0.  0.
        2    1    3    3  502    0 -0.13062433469E+04  0.74214683025E+03  0.56357726774E+03  0.16045787409E+04  0.25500000920E-02 0.  1.
       -2    1    3    3    0  502  0.13062433469E+04 -0.74214683025E+03  0.73364300575E+03  0.16719107808E+04  0.25500000920E-02 0. -1.
</event>
<event>
 5   0  0.6291798E-07  0.2984457E+04  0.7818609E-02  0.8248183E-01
        1   -1    0    0  501    0  0.00000000000E+00  0.00000000000E+00  0.18823925032E+04  0.18823925032E+04  0.50400001928E-02 0.  1.
       -1   -1    0    0    0  501  0.00000000000E+00  0.00000000000E+00 -0.11829338474E+04  0.11829338474E+04  0.50400001928E-02 0. -1.
    10030    2    1    2    0    0  0.00000000000E+00  0.00000000000E+00  0.69945865582E+03  0.30653263506E+04  0.29844569396E+04 0.  0.
        1    1    3    3  502    0  0.12339791279E+04  0.25694824613E+03  0.11701341022E+04  0.17198664793E+04  0.50400001928E-02 0.  1.
       -1    1    3    3    0  502 -0.12339791279E+04 -0.25694824613E+03 -0.47067544643E+03  0.13454598713E+04  0.50400001928E-02 0. -1.
</event>
<event>
 5   0  0.5887179E-07  0.3007639E+04  0.7818609E-02  0.8241553E-01
       -1   -1    0    0    0  501  0.00000000000E+00  0.00000000000E+00  0.10290896030E+04  0.10290896030E+04  0.50400001928E-02 0.  1.
        1   -1    0    0  501    0  0.00000000000E+00  0.00000000000E+00 -0.21975478057E+04  0.21975478057E+04  0.50400001928E-02 0. -1.
    10030    2    1    2    0    0  0.00000000000E+00  0.00000000000E+00 -0.11684582027E+04  0.32266374087E+04  0.30076393394E+04 0.  0.
        3    1    3    3  502    0 -0.82154073595E+03 -0.15355944687E+03  0.75698738157E+03  0.11276256429E+04  0.10100000352E+00 0.  1.
       -3    1    3    3    0  502  0.82154073595E+03  0.15355944687E+03 -0.19254455843E+04  0.20990117658E+04  0.10100000352E+00 0. -1.
</event>
<event>
 5   0  0.6291798E-07  0.2992360E+04  0.7818609E-02  0.8245916E-01
        1   -1    0    0  501    0  0.00000000000E+00  0.00000000000E+00  0.18670024451E+04  0.18670024451E+04  0.50400001928E-02 0. -1.
       -1   -1    0    0    0  501  0.00000000000E+00  0.00000000000E+00 -0.11990103814E+04  0.11990103814E+04  0.50400001928E-02 0.  1.
    10030    2    1    2    0    0  0.00000000000E+00  0.00000000000E+00  0.66799206378E+03  0.30660128265E+04  0.29923604821E+04 0.  0.
        1    1    3    3  502    0  0.79353204383E+03 -0.12308561041E+04  0.20097106848E+02  0.14646172699E+04  0.50400001928E-02 0.  1.
       -1    1    3    3    0  502 -0.79353204383E+03  0.12308561041E+04  0.64789495693E+03  0.16013955566E+04  0.50400001928E-02 0. -1.
</event>
<event>
 5   0  0.6291798E-07  0.2990856E+04  0.7818609E-02  0.8246347E-01
        1   -1    0    0  501    0  0.00000000000E+00  0.00000000000E+00  0.18058001446E+04  0.18058001446E+04  0.50400001928E-02 0. -1.
       -1   -1    0    0    0  501  0.00000000000E+00  0.00000000000E+00 -0.12384015148E+04  0.12384015148E+04  0.50400001928E-02 0.  1.
    10030    2    1    2    0    0  0.00000000000E+00  0.00000000000E+00  0.56739862977E+03  0.30442016594E+04  0.29908564890E+04 0.  0.
        1    1    3    3  502    0  0.26356258570E+03 -0.14476019672E+04  0.11937189948E+02  0.14714479904E+04  0.50400001928E-02 0.  1.
       -1    1    3    3    0  502 -0.26356258570E+03  0.14476019672E+04  0.55546143982E+03  0.15727536689E+04  0.50400001928E-02 0. -1.
</event>
<event>
 5   0  0.5931588E-07  0.2987886E+04  0.7818609E-02  0.8247199E-01
        1   -1    0    0  501    0  0.00000000000E+00  0.00000000000E+00  0.13877867359E+04  0.13877867360E+04  0.50400001928E-02 0. -1.
       -1   -1    0    0    0  501  0.00000000000E+00  0.00000000000E+00 -0.16082193176E+04  0.16082193176E+04  0.50400001928E-02 0.  1.
    10030    2    1    2    0    0  0.00000000000E+00  0.00000000000E+00 -0.22043258164E+03  0.29960060535E+04  0.29878858328E+04 0.  0.
        2    1    3    3  502    0  0.34437357751E+03  0.10542249373E+04  0.89344456664E+03  0.14241581980E+04  0.25500000920E-02 0. -1.
       -2    1    3    3    0  502 -0.34437357751E+03 -0.10542249373E+04 -0.11138771483E+04  0.15718478555E+04  0.25500000920E-02 0.  1.
</event>
<event>
 5   0  0.6291798E-07  0.3000427E+04  0.7818609E-02  0.8243609E-01
       -1   -1    0    0    0  501  0.00000000000E+00  0.00000000000E+00  0.15418991373E+04  0.15418991374E+04  0.50400001928E-02 0. -1.
        1   -1    0    0  501    0  0.00000000000E+00  0.00000000000E+00 -0.14596548095E+04  0.14596548095E+04  0.50400001928E-02 0.  1.
    10030    2    1    2    0    0  0.00000000000E+00  0.00000000000E+00  0.82244327845E+02  0.30015539469E+04  0.30004269640E+04 0.  0.
        1    1    3    3  502    0 -0.45807141952E+03  0.13189927087E+04 -0.50778175376E+03  0.14857366861E+04  0.50400001928E-02 0. -1.
       -1    1    3    3    0  502  0.45807141952E+03 -0.13189927087E+04  0.59002608161E+03  0.15158172608E+04  0.50400001928E-02 0.  1.
</event>
<event>
 5   0  0.1674806E-06  0.3018130E+04  0.7818609E-02  0.8238573E-01
        2   -1    0    0  501    0  0.00000000000E+00  0.00000000000E+00  0.16386916006E+04  0.16386916006E+04  0.25500000920E-02 0. -1.
       -2   -1    0    0    0  501  0.00000000000E+00  0.00000000000E+00 -0.13896919507E+04  0.13896919507E+04  0.25500000920E-02 0.  1.
    10030    2    1    2    0    0  0.00000000000E+00  0.00000000000E+00  0.24899964990E+03  0.30283835514E+04  0.30181295712E+04 0.  0.
        2    1    3    3  502    0  0.12349818215E+04 -0.91052755365E+02 -0.74087206788E+03  0.14430391972E+04  0.25500000920E-02 0.  1.
       -2    1    3    3    0  502 -0.12349818215E+04  0.91052755365E+02  0.98987171778E+03  0.15853443542E+04  0.25500000920E-02 0. -1.
</event>
<event>
 5   0  0.5931588E-07  0.3000352E+04  0.7818609E-02  0.8243630E-01
       -1   -1    0    0    0  501  0.00000000000E+00  0.00000000000E+00  0.10833993770E+04  0.10833993770E+04  0.50400001928E-02 0.  1.
        1   -1    0    0  501    0  0.00000000000E+00  0.00000000000E+00 -0.20772840391E+04  0.20772840391E+04  0.50400001928E-02 0. -1.
    10030    2    1    2    0    0  0.00000000000E+00  0.00000000000E+00 -0.99388466213E+03  0.31606834161E+04  0.30003521351E+04 0.  0.
        2    1    3    3  502    0  0.64377971111E+03 -0.13156036301E+04 -0.15516232550E+03  0.14728681459E+04  0.25500000920E-02 0. -1.
       -2    1    3    3    0  502 -0.64377971111E+03  0.13156036301E+04 -0.83872233663E+03  0.16878152701E+04  0.25500000920E-02 0.  1.
</event>
<event>
 5   0  0.5916703E-07  0.2994446E+04  0.7818609E-02  0.8245319E-01
       -1   -1    0    0    0  501  0.00000000000E+00  0.00000000000E+00  0.15668466152E+04  0.15668466152E+04  0.50400001928E-02 0. -1.
        1   -1    0    0  501    0  0.00000000000E+00  0.00000000000E+00 -0.14306933289E+04  0.14306933289E+04  0.50400001928E-02 0.  1.
    10030    2    1    2    0    0  0.00000000000E+00  0.00000000000E+00  0.13615328633E+03  0.29975399441E+04  0.29944461924E+04 0.  0.
        5    1    3    3  502    0  0.28056882412E+03 -0.14442476870E+04 -0.20985145483E+03  0.14861460122E+04  0.46999998093E+01 0.  1.
       -5    1    3    3    0  502 -0.28056882412E+03  0.14442476870E+04  0.34600474117E+03  0.15113939319E+04  0.46999998093E+01 0. -1.
</event>
<event>
 5   0  0.1723916E-06  0.3007809E+04  0.7818609E-02  0.8241504E-01
       -2   -1    0    0    0  501  0.00000000000E+00  0.00000000000E+00  0.10057905013E+04  0.10057905013E+04  0.25500000920E-02 0.  1.
        2   -1    0    0  501    0  0.00000000000E+00  0.00000000000E+00 -0.22487080574E+04  0.22487080574E+04  0.25500000920E-02 0. -1.
    10030    2    1    2    0    0  0.00000000000E+00  0.00000000000E+00 -0.12429175561E+04  0.32544985587E+04  0.30078093054E+04 0.  0.
        1    1    3    3  502    0 -0.11723799527E+04 -0.40606941792E+03 -0.15410848059E+04  0.19784613983E+04  0.50400001928E-02 0. -1.
       -1    1    3    3    0  502  0.11723799527E+04  0.40606941792E+03  0.29816724981E+03  0.12760371604E+04  0.50400001928E-02 0.  1.
</event>
<event>
 5   0  0.1723916E-06  0.3002275E+04  0.7818609E-02  0.8243082E-01
        2   -1    0    0  501    0  0.00000000000E+00  0.00000000000E+00  0.14346351330E+04  0.14346351330E+04  0.25500000920E-02 0.  1.
       -2   -1    0    0    0  501  0.00000000000E+00  0.00000000000E+00 -0.15707222679E+04  0.15707222679E+04  0.25500000920E-02 0. -1.
    10030    2    1    2    0    0  0.00000000000E+00  0.00000000000E+00 -0.13608713496E+03  0.30053574009E+04  0.30022747041E+04 0.  0.
        1    1    3    3  502    0  0.11352019757E+04  0.50734935330E+03 -0.90993414874E+03  0.15408007811E+04  0.50400001928E-02 0. -1.
       -1    1    3    3    0  502 -0.11352019757E+04 -0.50734935330E+03  0.77384701377E+03  0.14645566198E+04  0.50400001928E-02 0.  1.
</event>
<event>
 5   0  0.1674806E-06  0.3023646E+04  0.7818609E-02  0.8237011E-01
        2   -1    0    0  501    0  0.00000000000E+00  0.00000000000E+00  0.10162583232E+04  0.10162583232E+04  0.25500000920E-02 0. -1.
       -2   -1    0    0    0  501  0.00000000000E+00  0.00000000000E+00 -0.22490430306E+04  0.22490430306E+04  0.25500000920E-02 0.  1.
    10030    2    1    2    0    0  0.00000000000E+00  0.00000000000E+00 -0.12327847074E+04  0.32653013538E+04  0.30236459442E+04 0.  0.
        2    1    3    3  502    0 -0.12088592179E+04 -0.39019055865E+03 -0.15016776350E+04  0.19668820504E+04  0.25500000920E-02 0.  1.
       -2    1    3    3    0  502  0.12088592179E+04  0.39019055865E+03  0.26889292759E+03  0.12984193033E+04  0.25500000920E-02 0. -1.
</event>
<event>
 5   0  0.1560174E-06  0.2993714E+04  0.7818609E-02  0.8245528E-01
        2   -1    0    0  501    0  0.00000000000E+00  0.00000000000E+00  0.14888309463E+04  0.14888309463E+04  0.25500000920E-02 0. -1.
       -2   -1    0    0    0  501  0.00000000000E+00  0.00000000000E+00 -0.15049265144E+04  0.15049265144E+04  0.25500000920E-02 0.  1.
    10030    2    1    2    0    0  0.00000000000E+00  0.00000000000E+00 -0.16095568064E+02  0.29937574608E+04  0.29937141925E+04 0.  0.
        5    1    3    3  502    0  0.13039144400E+03  0.34345484348E+03  0.14430403537E+04  0.14890771338E+04  0.46999998093E+01 0. -1.
       -5    1    3    3    0  502 -0.13039144400E+03 -0.34345484348E+03 -0.14591359217E+04  0.15046803269E+04  0.46999998093E+01 0.  1.
</event>
<event>
 5   0  0.5874741E-07  0.2995032E+04  0.7818609E-02  0.8245151E-01
        1   -1    0    0  501    0  0.00000000000E+00  0.00000000000E+00  0.20983046010E+04  0.20983046010E+04  0.50400001928E-02 0. -1.
       -1   -1    0    0    0  501  0.00000000000E+00  0.00000000000E+00 -0.10687461110E+04  0.10687461110E+04  0.50400001928E-02 0.  1.
    10030    2    1    2    0    0  0.00000000000E+00  0.00000000000E+00  0.10295584900E+04  0.31670507120E+04  0.29950324752E+04 0.  0.
        4    1    3    3  502    0 -0.38860550302E+03 -0.13077456922E+04 -0.13821566721E+03  0.13712469566E+04  0.12699999809E+01 0.  1.
       -4    1    3    3    0  502  0.38860550302E+03  0.13077456922E+04  0.11677741572E+04  0.17958037553E+04  0.12699999809E+01 0. -1.
</event>
<event>
 5   0  0.1723916E-06  0.3008795E+04  0.7818609E-02  0.8241224E-01
        2   -1    0    0  501    0  0.00000000000E+00  0.00000000000E+00  0.96255135388E+03  0.96255135389E+03  0.25500000920E-02 0.  1.
       -2   -1    0    0    0  501  0.00000000000E+00  0.00000000000E+00 -0.23512631046E+04  0.23512631046E+04  0.25500000920E-02 0. -1.
    10030    2    1    2    0    0  0.00000000000E+00  0.00000000000E+00 -0.13887117507E+04  0.33138144585E+04  0.30087947651E+04 0.  0.
        1    1    3    3  502    0  0.11732092192E+04 -0.11768695302E+02 -0.17314364380E+04  0.20915139285E+04  0.50400001928E-02 0. -1.
       -1    1    3    3    0  502 -0.11732092192E+04  0.11768695302E+02  0.34272468728E+03  0.12223005300E+04  0.50400001928E-02 0.  1.
</event>
<event>
 5   0  0.6291798E-07  0.2949653E+04  0.7818609E-02  0.8258256E-01
        1   -1    0    0  501    0  0.00000000000E+00  0.00000000000E+00  0.11443166966E+04  0.11443166966E+04  0.50400001928E-02 0. -1.
       -1   -1    0    0    0  501  0.00000000000E+00  0.00000000000E+00 -0.19007959365E+04  0.19007959365E+04  0.50400001928E-02 0.  1.
    10030    2    1    2    0    0  0.00000000000E+00  0.00000000000E+00 -0.75647923992E+03  0.30451126331E+04  0.29496525401E+04 0.  0.
        1    1    3    3  502    0 -0.14296447787E+04 -0.28425072068E+03 -0.14640601549E+03  0.14649632715E+04  0.50400001928E-02 0. -1.
       -1    1    3    3    0  502  0.14296447787E+04  0.28425072068E+03 -0.61007322443E+03  0.15801493615E+04  0.50400001928E-02 0.  1.
</event>
<event>
 5   0  0.5931588E-07  0.3002468E+04  0.7818609E-02  0.8243026E-01
        1   -1    0    0  501    0  0.00000000000E+00  0.00000000000E+00  0.14697370784E+04  0.14697370784E+04  0.50400001928E-02 0. -1.
       -1   -1    0    0    0  501  0.00000000000E+00  0.00000000000E+00 -0.15334060591E+04  0.15334060591E+04  0.50400001928E-02 0.  1.
    10030    2    1    2    0    0  0.00000000000E+00  0.00000000000E+00 -0.63668980713E+02  0.30031431374E+04  0.30024681455E+04 0.  0.
        2    1    3    3  502    0  0.69683885166E+03 -0.97332671979E+03 -0.93799315501E+03  0.15207828403E+04  0.25500000920E-02 0.  1.
       -2    1    3    3    0  502 -0.69683885166E+03  0.97332671979E+03  0.87432417429E+03  0.14823602971E+04  0.25500000920E-02 0. -1.
</event>
<event>
 5   0  0.6291798E-07  0.2987959E+04  0.7818609E-02  0.8247178E-01
        1   -1    0    0  501    0  0.00000000000E+00  0.00000000000E+00  0.21697477369E+04  0.21697477369E+04  0.50400001928E-02 0.  1.
       -1   -1    0    0    0  501  0.00000000000E+00  0.00000000000E+00 -0.10286791362E+04  0.10286791362E+04  0.50400001928E-02 0. -1.
    10030    2    1    2    0    0  0.00000000000E+00  0.00000000000E+00  0.11410686006E+04  0.31984268731E+04  0.29879586529E+04 0.  0.
        1    1    3    3  502    0  0.42882762348E+03  0.81010142426E+03 -0.69231892064E+03  0.11486787785E+04  0.50400001928E-02 0. -1.
       -1    1    3    3    0  502 -0.42882762348E+03 -0.81010142426E+03  0.18333875213E+04  0.20497480946E+04  0.50400001928E-02 0.  1.
</event>
<event>
 5   0  0.5916703E-07  0.3035122E+04  0.7818609E-02  0.8233772E-01
       -1   -1    0    0    0  501  0.00000000000E+00  0.00000000000E+00  0.92811777457E+03  0.92811777459E+03  0.50400001928E-02 0.  1.
        1   -1    0    0  501    0  0.00000000000E+00  0.00000000000E+00 -0.24813567154E+04  0.24813567154E+04  0.50400001928E-02 0. -1.
    10030    2    1    2    0    0  0.00000000000E+00  0.00000000000E+00 -0.15532389409E+04  0.34094744900E+04  0.30351219235E+04 0.  0.
        5    1    3    3  502    0 -0.49383422925E+03 -0.56299057283E+03  0.70607835043E+03  0.10292712752E+04  0.46999998093E+01 0.  1.
       -5    1    3    3    0  502  0.49383422925E+03  0.56299057283E+03 -0.22593172913E+04  0.23802032148E+04  0.46999998093E+01 0. -1.
</event>
<event>
 5   0  0.5931588E-07  0.3069440E+04  0.7818609E-02  0.8224175E-01
        1   -1    0    0  501    0  0.00000000000E+00  0.00000000000E+00  0.19748970142E+04  0.19748970142E+04  0.50400001928E-02 0.  1.
       -1   -1    0    0    0  501  0.00000000000E+00  0.00000000000E+00 -0.11926520477E+04  0.11926520477E+04  0.50400001928E-02 0. -1.
    10030    2    1    2    0    0  0.00000000000E+00  0.00000000000E+00  0.78224496644E+03  0.31675490619E+04  0.30694396674E+04 0.  0.
        2    1    3    3  502    0  0.26425322220E+03  0.14530196260E+04 -0.39676360760E+02  0.14773862097E+04  0.25500000920E-02 0.  1.
       -2    1    3    3    0  502 -0.26425322220E+03 -0.14530196260E+04  0.82192132720E+03  0.16901628522E+04  0.25500000920E-02 0. -1.
</event>
<event>
 5   0  0.1723916E-06  0.2986986E+04  0.7818609E-02  0.8247457E-01
        2   -1    0    0  501    0  0.00000000000E+00  0.00000000000E+00  0.27504452782E+04  0.27504452782E+04  0.25500000920E-02 0. -1.
       -2   -1    0    0    0  501  0.00000000000E+00  0.00000000000E+00 -0.81096726335E+03  0.81096726335E+03  0.25500000920E-02 0.  1.
    10030    2    1    2    0    0  0.00000000000E+00  0.00000000000E+00  0.19394780149E+04  0.35614125416E+04  0.29869858254E+04 0.  0.
        1    1    3    3  502    0 -0.26559692237E+03 -0.12312509459E+04  0.19265633417E+04  0.23017747341E+04  0.50400001928E-02 0. -1.
       -1    1    3    3    0  502  0.26559692237E+03  0.12312509459E+04  0.12914673119E+02  0.12596378074E+04  0.50400001928E-02 0.  1.
</event>
<event>
 5   0  0.1635086E-06  0.3036050E+04  0.7818609E-02  0.8233511E-01
        2   -1    0    0  501    0  0.00000000000E+00  0.00000000000E+00  0.20889114098E+04  0.20889114098E+04  0.25500000920E-02 0.  1.
       -2   -1    0    0    0  501  0.00000000000E+00  0.00000000000E+00 -0.11031585961E+04  0.11031585961E+04  0.25500000920E-02 0. -1.
    10030    2    1    2    0    0  0.00000000000E+00  0.00000000000E+00  0.98575281368E+03  0.31920700060E+04  0.30360504464E+04 0.  0.
        3    1    3    3  502    0  0.34482745890E+03 -0.75960510260E+03  0.18263156686E+04  0.20078184230E+04  0.10100000352E+00 0.  1.
       -3    1    3    3    0  502 -0.34482745890E+03  0.75960510260E+03 -0.84056285494E+03  0.11842515829E+04  0.10100000352E+00 0. -1.
</event>
<event>
 5   0  0.6291798E-07  0.3000933E+04  0.7818609E-02  0.8243464E-01
       -1   -1    0    0    0  501  0.00000000000E+00  0.00000000000E+00  0.72276085547E+03  0.72276085549E+03  0.50400001928E-02 0. -1.
        1   -1    0    0  501    0  0.00000000000E+00  0.00000000000E+00 -0.31150000271E+04  0.31150000271E+04  0.50400001928E-02 0.  1.
    10030    2    1    2    0    0  0.00000000000E+00  0.00000000000E+00 -0.23922391716E+04  0.38377608826E+04  0.30009332444E+04 0.  0.
        1    1    3    3  502    0  0.56782780543E+03  0.49317886714E+03  0.46429936422E+03  0.88387086797E+03  0.50400001928E-02 0. -1.
       -1    1    3    3    0  502 -0.56782780543E+03 -0.49317886714E+03 -0.28565385358E+04  0.29538900146E+04  0.50400001928E-02 0.  1.
</event>
<event>
 5   0  0.5931588E-07  0.3022376E+04  0.7818609E-02  0.8237370E-01
        1   -1    0    0  501    0  0.00000000000E+00  0.00000000000E+00  0.19503490046E+04  0.19503490046E+04  0.50400001928E-02 0.  1.
       -1   -1    0    0    0  501  0.00000000000E+00  0.00000000000E+00 -0.11709126989E+04  0.11709126989E+04  0.50400001928E-02 0. -1.
    10030    2    1    2    0    0  0.00000000000E+00  0.00000000000E+00  0.77943630571E+03  0.31212617035E+04  0.30223755006E+04 0.  0.
        2    1    3    3  502    0  0.78554917629E+03  0.10800017151E+04  0.11201040742E+04  0.17430216149E+04  0.25500000920E-02 0.  1.
       -2    1    3    3    0  502 -0.78554917629E+03 -0.10800017151E+04 -0.34066776851E+03  0.13782400885E+04  0.25500000920E-02 0. -1.
</event>
<event>
 5   0  0.6291798E-07  0.3000076E+04  0.7818609E-02  0.8243709E-01
        1   -1    0    0  501    0  0.00000000000E+00  0.00000000000E+00  0.99582076885E+03  0.99582076886E+03  0.50400001928E-02 0. -1.
       -1   -1    0    0    0  501  0.00000000000E+00  0.00000000000E+00 -0.22595579141E+04  0.22595579141E+04  0.50400001928E-02 0.  1.
    10030    2    1    2    0    0  0.00000000000E+00  0.00000000000E+00 -0.12637371452E+04  0.32553786829E+04  0.30000764652E+04 0.  0.
        1    1    3    3  502    0  0.84678982526E+03  0.10822723581E+04 -0.12845066387E+04  0.18810432664E+04  0.50400001928E-02 0.  1.
       -1    1    3    3    0  502 -0.84678982526E+03 -0.10822723581E+04  0.20769493489E+02  0.13743354165E+04  0.50400001928E-02 0. -1.
</event>
<event>
 5   0  0.5931588E-07  0.3020465E+04  0.7818609E-02  0.8237911E-01
        1   -1    0    0  501    0  0.00000000000E+00  0.00000000000E+00  0.81396676337E+03  0.81396676339E+03  0.50400001928E-02 0. -1.
       -1   -1    0    0    0  501  0.00000000000E+00  0.00000000000E+00 -0.28020818811E+04  0.28020818811E+04  0.50400001928E-02 0.  1.
    10030    2    1    2    0    0  0.00000000000E+00  0.00000000000E+00 -0.19881151177E+04  0.36160486445E+04  0.30204645467E+04 0.  0.
        2    1    3    3  502    0 -0.34715116245E+03 -0.12588098172E+04 -0.19024073950E+04  0.23074379693E+04  0.25500000920E-02 0. -1.
       -2    1    3    3    0  502  0.34715116245E+03  0.12588098172E+04 -0.85707722734E+02  0.13086106752E+04  0.25500000920E-02 0.  1.
</event>
<event>
 5   0  0.5887179E-07  0.2994977E+04  0.7818609E-02  0.8245167E-01
       -1   -1    0    0    0  501  0.00000000000E+00  0.00000000000E+00  0.18399781930E+04  0.18399781930E+04  0.50400001928E-02 0. -1.
        1   -1    0    0  501    0  0.00000000000E+00  0.00000000000E+00 -0.12187492099E+04  0.12187492099E+04  0.50400001928E-02 0.  1.
    10030    2    1    2    0    0  0.00000000000E+00  0.00000000000E+00  0.62122898311E+03  0.30587274029E+04  0.29949771077E+04 0.  0.
        3    1    3    3  502    0  0.12142825557E+04 -0.83084953658E+03  0.25972645373E+02  0.14715528078E+04  0.10100000352E+00 0.  1.
       -3    1    3    3    0  502 -0.12142825557E+04  0.83084953658E+03  0.59525633774E+03  0.15871745951E+04  0.10100000352E+00 0. -1.
</event>
<event>
 5   0  0.1723916E-06  0.2988100E+04  0.7818609E-02  0.8247137E-01
        2   -1    0    0  501    0  0.00000000000E+00  0.00000000000E+00  0.24331932372E+04  0.24331932372E+04  0.25500000920E-02 0. -1.
       -2   -1    0    0    0  501  0.00000000000E+00  0.00000000000E+00 -0.91738940375E+03  0.91738940376E+03  0.25500000920E-02 0.  1.
    10030    2    1    2    0    0  0.00000000000E+00  0.00000000000E+00  0.15158038334E+04  0.33505826409E+04  0.29881001945E+04 0.  0.
        1    1    3    3  502    0 -0.98513444317E+03  0.95599863376E+03  0.96650657820E+02  0.13761412023E+04  0.50400001928E-02 0.  1.
       -1    1    3    3    0  502  0.98513444317E+03 -0.95599863376E+03  0.14191531756E+04  0.19744414387E+04  0.50400001928E-02 0. -1.
</event>
<event>
 5   0  0.5916703E-07  0.3010591E+04  0.7818609E-02  0.8240713E-01
        1   -1    0    0  501    0  0.00000000000E+00  0.00000000000E+00  0.16932432570E+04  0.16932432570E+04  0.50400001928E-02 0.  1.
       -1   -1    0    0    0  501  0.00000000000E+00  0.00000000000E+00 -0.13382099493E+04  0.13382099493E+04  0.50400001928E-02 0. -1.
    10030    2    1    2    0    0  0.00000000000E+00  0.00000000000E+00  0.35503330764E+03  0.30314532063E+04  0.30105912862E+04 0.  0.
        5    1    3    3  502    0 -0.11196586299E+04 -0.10055950807E+04  0.14510714061E+03  0.15119309131E+04  0.46999998093E+01 0. -1.
       -5    1    3    3    0  502  0.11196586299E+04  0.10055950807E+04  0.20992616703E+03  0.15195222932E+04  0.46999998093E+01 0.  1.
</event>
<event>
 5   0  0.1674806E-06  0.3006296E+04  0.7818609E-02  0.8241935E-01
        2   -1    0    0  501    0  0.00000000000E+00  0.00000000000E+00  0.11355186692E+04  0.11355186692E+04  0.25500000920E-02 0. -1.
       -2   -1    0    0    0  501  0.00000000000E+00  0.00000000000E+00 -0.19897984680E+04  0.19897984680E+04  0.25500000920E-02 0.  1.
    10030    2    1    2    0    0  0.00000000000E+00  0.00000000000E+00 -0.85427979877E+03  0.31253171372E+04  0.30062955998E+04 0.  0.
        2    1    3    3  502    0 -0.11301655139E+04  0.77900250442E+03  0.20976054146E+03  0.13885670583E+04  0.25500000920E-02 0.  1.
       -2    1    3    3    0  502  0.11301655139E+04 -0.77900250442E+03 -0.10640403402E+04  0.17367500788E+04  0.25500000920E-02 0. -1.
</event>
<event>
 5   0  0.5931588E-07  0.2998414E+04  0.7818609E-02  0.8244184E-01
       -1   -1    0    0    0  501  0.00000000000E+00  0.00000000000E+00  0.17612728344E+04  0.17612728344E+04  0.50400001928E-02 0.  1.
        1   -1    0    0  501    0  0.00000000000E+00  0.00000000000E+00 -0.12761352266E+04  0.12761352266E+04  0.50400001928E-02 0. -1.
    10030    2    1    2    0    0  0.00000000000E+00  0.00000000000E+00  0.48513760772E+03  0.30374080610E+04  0.29984144528E+04 0.  0.
        2    1    3    3  502    0 -0.11267163439E+04  0.50675776289E+03 -0.61778725701E+03  0.13812871696E+04  0.25500000920E-02 0. -1.
       -2    1    3    3    0  502  0.11267163439E+04 -0.50675776289E+03  0.11029248647E+04  0.16561208914E+04  0.25500000920E-02 0.  1.
</event>
<event>
 5   0  0.1635086E-06  0.3017496E+04  0.7818609E-02  0.8238752E-01
        2   -1    0    0  501    0  0.00000000000E+00  0.00000000000E+00  0.22753161533E+04  0.22753161533E+04  0.25500000920E-02 0.  1.
       -2   -1    0    0    0  501  0.00000000000E+00  0.00000000000E+00 -0.10004412071E+04  0.10004412071E+04  0.25500000920E-02 0. -1.
    10030    2    1    2    0    0  0.00000000000E+00  0.00000000000E+00  0.12748749462E+04  0.32757573604E+04  0.30174956762E+04 0.  0.
        3    1    3    3  502    0 -0.37313137084E+03  0.10808053811E+03 -0.94521876160E+03  0.10219329431E+04  0.10100000352E+00 0. -1.
       -3    1    3    3    0  502  0.37313137084E+03 -0.10808053811E+03  0.22200937078E+04  0.22538244173E+04  0.10100000352E+00 0.  1.
</event>
<event>
 5   0  0.6291798E-07  0.3003480E+04  0.7818609E-02  0.8242738E-01
       -1   -1    0    0    0  501  0.00000000000E+00  0.00000000000E+00  0.13188363108E+04  0.13188363108E+04  0.50400001928E-02 0. -1.
        1   -1    0    0  501    0  0.00000000000E+00  0.00000000000E+00 -0.17100101312E+04  0.17100101312E+04  0.50400001928E-02 0.  1.
    10030    2    1    2    0    0  0.00000000000E+00  0.00000000000E+00 -0.39117382040E+03  0.30288464419E+04  0.30034802831E+04 0.  0.
        1    1    3    3  502    0 -0.64674163979E+03 -0.35739290695E+03  0.11228256392E+04  0.13441509791E+04  0.50400001928E-02 0. -1.
       -1    1    3    3    0  502  0.64674163979E+03  0.35739290695E+03 -0.15139994596E+04  0.16846954628E+04  0.50400001928E-02 0.  1.
</event>
<event>
 5   0  0.1635086E-06  0.3017735E+04  0.7818609E-02  0.8238685E-01
       -2   -1    0    0    0  501  0.00000000000E+00  0.00000000000E+00  0.12936944282E+04  0.12936944282E+04  0.25500000920E-02 0.  1.
        2   -1    0    0  501    0  0.00000000000E+00  0.00000000000E+00 -0.17598287916E+04  0.17598287916E+04  0.25500000920E-02 0. -1.
    10030    2    1    2    0    0  0.00000000000E+00  0.00000000000E+00 -0.46613436346E+03  0.30535232198E+04  0.30177347149E+04 0.  0.
        3    1    3    3  502    0  0.68915867266E+03  0.12290583399E+04 -0.77905568426E+03  0.16101092660E+04  0.10100000352E+00 0. -1.
       -3    1    3    3    0  502 -0.68915867266E+03 -0.12290583399E+04  0.31292132081E+03  0.14434139539E+04  0.10100000352E+00 0.  1.
</event>
<event>
 5   0  0.5887179E-07  0.3008145E+04  0.7818609E-02  0.8241409E-01
        1   -1    0    0  501    0  0.00000000000E+00  0.00000000000E+00  0.21827439344E+04  0.21827439344E+04  0.50400001928E-02 0.  1.
       -1   -1    0    0    0  501  0.00000000000E+00  0.00000000000E+00 -0.10364178224E+04  0.10364178224E+04  0.50400001928E-02 0. -1.
    10030    2    1    2    0    0  0.00000000000E+00  0.00000000000E+00  0.11463261120E+04  0.32191617568E+04  0.30081454189E+04 0.  0.
        3    1    3    3  502    0 -0.26048768925E+03  0.70276432803E+02 -0.10103100962E+04  0.10457146427E+04  0.10100000352E+00 0. -1.
       -3    1    3    3    0  502  0.26048768925E+03 -0.70276432803E+02  0.21566362081E+04  0.21734471141E+04  0.10100000352E+00 0.  1.
</event>
<event>
 5   0  0.5916703E-07  0.2989657E+04  0.7818609E-02  0.8246691E-01
       -1   -1    0    0    0  501  0.00000000000E+00  0.00000000000E+00  0.11424916422E+04  0.11424916422E+04  0.50400001928E-02 0.  1.
        1   -1    0    0  501    0  0.00000000000E+00  0.00000000000E+00 -0.19558233008E+04  0.19558233008E+04  0.50400001928E-02 0. -1.
    10030    2    1    2    0    0  0.00000000000E+00  0.00000000000E+00 -0.81333165857E+03  0.30983149430E+04  0.29896566858E+04 0.  0.
        5    1    3    3  502    0  0.13097015200E+04 -0.48197534914E+03  0.14840429206E+03  0.14034472675E+04  0.46999998093E+01 0.  1.
       -5    1    3    3    0  502 -0.13097015200E+04  0.48197534914E+03 -0.96173595062E+03  0.16948676755E+04  0.46999998093E+01 0. -1.
</event>
<event>
 5   0  0.5887179E-07  0.3008953E+04  0.7818609E-02  0.8241179E-01
        1   -1    0    0  501    0  0.00000000000E+00  0.00000000000E+00  0.16213438213E+04  0.16213438213E+04  0.50400001928E-02 0. -1.
       -1   -1    0    0    0  501  0.00000000000E+00  0.00000000000E+00 -0.13960327759E+04  0.13960327759E+04  0.50400001928E-02 0.  1.
    10030    2    1    2    0    0  0.00000000000E+00  0.00000000000E+00  0.22531104545E+03  0.30173765972E+04  0.30089527185E+04 0.  0.
        3    1    3    3  502    0 -0.21195206524E+03  0.56384459083E+03  0.14951393330E+04  0.16119199843E+04  0.10100000352E+00 0. -1.
       -3    1    3    3    0  502  0.21195206524E+03 -0.56384459083E+03 -0.12698282876E+04  0.14054566129E+04  0.10100000352E+00 0.  1.
</event>
<event>
 5   0  0.1560174E-06  0.3045961E+04  0.7818609E-02  0.8230727E-01
        2   -1    0    0  501    0  0.00000000000E+00  0.00000000000E+00  0.93149503348E+03  0.93149503349E+03  0.25500000920E-02 0.  1.
       -2   -1    0    0    0  501  0.00000000000E+00  0.00000000000E+00 -0.24900504634E+04  0.24900504634E+04  0.25500000920E-02 0. -1.
    10030    2    1    2    0    0  0.00000000000E+00  0.00000000000E+00 -0.15585554299E+04  0.34215454969E+04  0.30459610239E+04 0.  0.
        5    1    3    3  502    0 -0.90777279242E+03  0.78216596162E+03  0.27663715717E+03  0.12297907305E+04  0.46999998093E+01 0.  1.
       -5    1    3    3    0  502  0.90777279242E+03 -0.78216596162E+03 -0.18351925871E+04  0.21917547664E+04  0.46999998093E+01 0. -1.
</event>
<event>
 5   0  0.1723916E-06  0.2994846E+04  0.7818609E-02  0.8245204E-01
       -2   -1    0    0    0  501  0.00000000000E+00  0.00000000000E+00  0.14392072572E+04  0.14392072572E+04  0.25500000920E-02 0.  1.
        2   -1    0    0  501    0  0.00000000000E+00  0.00000000000E+00 -0.15579939861E+04  0.15579939861E+04  0.25500000920E-02 0. -1.
    10030    2    1    2    0    0  0.00000000000E+00  0.00000000000E+00 -0.11878672889E+03  0.29972012433E+04  0.29948464077E+04 0.  0.
        1    1    3    3  502    0 -0.58669296680E+03  0.11000272282E+03 -0.14337783314E+04  0.15530710029E+04  0.50400001928E-02 0. -1.
       -1    1    3    3    0  502  0.58669296680E+03 -0.11000272282E+03  0.13149916026E+04  0.14441302404E+04  0.50400001928E-02 0.  1.
</event>
<event>
 5   0  0.1723916E-06  0.2987601E+04  0.7818609E-02  0.8247280E-01
        2   -1    0    0  501    0  0.00000000000E+00  0.00000000000E+00  0.16877852831E+04  0.16877852831E+04  0.25500000920E-02 0.  1.
       -2   -1    0    0    0  501  0.00000000000E+00  0.00000000000E+00 -0.13221113902E+04  0.13221113902E+04  0.25500000920E-02 0. -1.
    10030    2    1    2    0    0  0.00000000000E+00  0.00000000000E+00  0.36567389290E+03  0.30098966734E+04  0.29876011428E+04 0.  0.
        1    1    3    3  502    0 -0.83634334127E+03  0.87683303216E+03  0.10629314601E+04  0.16118714712E+04  0.50400001928E-02 0.  1.
       -1    1    3    3    0  502  0.83634334127E+03 -0.87683303216E+03 -0.69725756721E+03  0.13980252021E+04  0.50400001928E-02 0. -1.
</event>
<event>
 5   0  0.5931588E-07  0.3016591E+04  0.7818609E-02  0.8239009E-01
       -1   -1    0    0    0  501  0.00000000000E+00  0.00000000000E+00  0.14582594117E+04  0.14582594118E+04  0.50400001928E-02 0.  1.
        1   -1    0    0  501    0  0.00000000000E+00  0.00000000000E+00 -0.15600482663E+04  0.15600482663E+04  0.50400001928E-02 0. -1.
    10030    2    1    2    0    0  0.00000000000E+00  0.00000000000E+00 -0.10178885450E+03  0.30183076780E+04  0.30165908354E+04 0.  0.
        2    1    3    3  502    0  0.33966048156E+03 -0.14114137711E+04  0.35860246125E+03  0.14953440411E+04  0.25500000920E-02 0.  1.
       -2    1    3    3    0  502 -0.33966048156E+03  0.14114137711E+04 -0.46039131575E+03  0.15229636370E+04  0.25500000920E-02 0. -1.
</event>
<event>
 5   0  0.5431625E-07  0.2993733E+04  0.7818609E-02  0.8245523E-01
       -4   -1    0    0    0  501  0.00000000000E+00  0.00000000000E+00  0.16851344470E+04  0.16851349256E+04  0.12699999809E+01 0.  1.
        4   -1    0    0  501    0  0.00000000000E+00  0.00000000000E+00 -0.13296312343E+04  0.13296318408E+04  0.12699999809E+01 0. -1.
    10030    2    1    2    0    0  0.00000000000E+00  0.00000000000E+00  0.35550321270E+03  0.30147667664E+04  0.29937328073E+04 0.  0.
        4    1    3    3  502    0  0.13970757631E+03  0.11722189103E+04 -0.74903627458E+03  0.13980959674E+04  0.12699999809E+01 0. -1.
       -4    1    3    3    0  502 -0.13970757631E+03 -0.11722189103E+04  0.11045394873E+04  0.16166707990E+04  0.12699999809E+01 0.  1.
</event>
<event>
 5   0  0.1674806E-06  0.2896867E+04  0.7818609E-02  0.8273810E-01
       -2   -1    0    0    0  501  0.00000000000E+00  0.00000000000E+00  0.15346027089E+04  0.15346027089E+04  0.25500000920E-02 0. -1.
        2   -1    0    0  501    0  0.00000000000E+00  0.00000000000E+00 -0.13671023141E+04  0.13671023141E+04  0.25500000920E-02 0.  1.
    10030    2    1    2    0    0  0.00000000000E+00  0.00000000000E+00  0.16750039482E+03  0.29017050230E+04  0.28968665241E+04 0.  0.
        2    1    3    3  502    0  0.89707546957E+03 -0.20809229657E+02 -0.10551543826E+04  0.13851094517E+04  0.25500000920E-02 0.  1.
       -2    1    3    3    0  502 -0.89707546957E+03  0.20809229657E+02  0.12226547774E+04  0.15165955713E+04  0.25500000920E-02 0. -1.
</event>
<event>
 5   0  0.5916703E-07  0.3000101E+04  0.7818609E-02  0.8243702E-01
       -1   -1    0    0    0  501  0.00000000000E+00  0.00000000000E+00  0.15167437333E+04  0.15167437333E+04  0.50400001928E-02 0. -1.
        1   -1    0    0  501    0  0.00000000000E+00  0.00000000000E+00 -0.14835405897E+04  0.14835405897E+04  0.50400001928E-02 0.  1.
    10030    2    1    2    0    0  0.00000000000E+00  0.00000000000E+00  0.33203143600E+02  0.30002843230E+04  0.30001005934E+04 0.  0.
        5    1    3    3  502    0  0.51525122676E+03  0.10408301286E+04  0.96603720324E+03  0.15106492483E+04  0.46999998093E+01 0. -1.
       -5    1    3    3    0  502 -0.51525122676E+03 -0.10408301286E+04 -0.93283405964E+03  0.14896350748E+04  0.46999998093E+01 0.  1.
</event>
<event>
 5   0  0.5874741E-07  0.3010992E+04  0.7818609E-02  0.8240599E-01
        1   -1    0    0  501    0  0.00000000000E+00  0.00000000000E+00  0.27636510139E+04  0.27636510139E+04  0.50400001928E-02 0.  1.
       -1   -1    0    0    0  501  0.00000000000E+00  0.00000000000E+00 -0.82011738639E+03  0.82011738641E+03  0.50400001928E-02 0. -1.
    10030    2    1    2    0    0  0.00000000000E+00  0.00000000000E+00  0.19435336275E+04  0.35837684003E+04  0.30109920269E+04 0.  0.
        4    1    3    3  502    0 -0.99070079286E+02 -0.14954640192E+04  0.11413028165E+04  0.18838262248E+04  0.12699999809E+01 0.  1.
       -4    1    3    3    0  502  0.99070079286E+02  0.14954640192E+04  0.80223081097E+03  0.16999421755E+04  0.12699999809E+01 0. -1.
</event>
<event>
 5   0  0.5887179E-07  0.2998008E+04  0.7818609E-02  0.8244300E-01
        1   -1    0    0  501    0  0.00000000000E+00  0.00000000000E+00  0.18565727188E+04  0.18565727188E+04  0.50400001928E-02 0. -1.
       -1   -1    0    0    0  501  0.00000000000E+00  0.00000000000E+00 -0.12103019204E+04  0.12103019204E+04  0.50400001928E-02 0.  1.
    10030    2    1    2    0    0  0.00000000000E+00  0.00000000000E+00  0.64627079840E+03  0.30668746392E+04  0.29980083568E+04 0.  0.
        3    1    3    3  502    0  0.27702364589E+03  0.17469310049E+03 -0.11732555815E+04  0.12181085541E+04  0.10100000352E+00 0.  1.
       -3    1    3    3    0  502 -0.27702364589E+03 -0.17469310049E+03  0.18195263799E+04  0.18487660851E+04  0.10100000352E+00 0. -1.
</event>
<event>
 5   0  0.5916703E-07  0.3041297E+04  0.7818609E-02  0.8232036E-01
        1   -1    0    0  501    0  0.00000000000E+00  0.00000000000E+00  0.88955566506E+03  0.88955566508E+03  0.50400001928E-02 0. -1.
       -1   -1    0    0    0  501  0.00000000000E+00  0.00000000000E+00 -0.25994686391E+04  0.25994686391E+04  0.50400001928E-02 0.  1.
    10030    2    1    2    0    0  0.00000000000E+00  0.00000000000E+00 -0.17099129740E+04  0.34890243042E+04  0.30412971273E+04 0.  0.
        5    1    3    3  502    0 -0.63330169214E+03 -0.99143859313E+02 -0.24368874711E+04  0.25197903038E+04  0.46999998093E+01 0.  1.
       -5    1    3    3    0  502  0.63330169214E+03  0.99143859313E+02  0.72697449709E+03  0.96923400040E+03  0.46999998093E+01 0. -1.
</event>
<event>
 5   0  0.1674806E-06  0.2997495E+04  0.7818609E-02  0.8244447E-01
        2   -1    0    0  501    0  0.00000000000E+00  0.00000000000E+00  0.25556878615E+04  0.25556878615E+04  0.25500000920E-02 0.  1.
       -2   -1    0    0    0  501  0.00000000000E+00  0.00000000000E+00 -0.87891931811E+03  0.87891931811E+03  0.25500000920E-02 0. -1.
    10030    2    1    2    0    0  0.00000000000E+00  0.00000000000E+00  0.16767685434E+04  0.34346071797E+04  0.29974945755E+04 0.  0.
        2    1    3    3  502    0 -0.82778065075E+03 -0.27092563135E+03 -0.55915800157E+03  0.10350261708E+04  0.25500000920E-02 0. -1.
       -2    1    3    3    0  502  0.82778065075E+03  0.27092563135E+03  0.22359265450E+04  0.23995810089E+04  0.25500000920E-02 0.  1.
</event>
<event>
 5   0  0.1674806E-06  0.2995859E+04  0.7818609E-02  0.8244914E-01
        2   -1    0    0  501    0  0.00000000000E+00  0.00000000000E+00  0.26865696694E+04  0.26865696694E+04  0.25500000920E-02 0. -1.
       -2   -1    0    0    0  501  0.00000000000E+00  0.00000000000E+00 -0.83518877702E+03  0.83518877702E+03  0.25500000920E-02 0.  1.
    10030    2    1    2    0    0  0.00000000000E+00  0.00000000000E+00  0.18513808924E+04  0.35217584465E+04  0.29958590331E+04 0.  0.
        2    1    3    3  502    0 -0.14805188932E+04 -0.16089725596E+03  0.11151268465E+04  0.18604655342E+04  0.25500000920E-02 0. -1.
       -2    1    3    3    0  502  0.14805188932E+04  0.16089725596E+03  0.73625404591E+03  0.16612929123E+04  0.25500000920E-02 0.  1.
</event>
<event>
 5   0  0.5874741E-07  0.3015260E+04  0.7818609E-02  0.8239387E-01
       -1   -1    0    0    0  501  0.00000000000E+00  0.00000000000E+00  0.14537037339E+04  0.14537037339E+04  0.50400001928E-02 0. -1.
        1   -1    0    0  501    0  0.00000000000E+00  0.00000000000E+00 -0.15635570702E+04  0.15635570702E+04  0.50400001928E-02 0.  1.
    10030    2    1    2    0    0  0.00000000000E+00  0.00000000000E+00 -0.10985333627E+03  0.30172608040E+04  0.30152603543E+04 0.  0.
        4    1    3    3  502    0 -0.44746506403E+03  0.37590691087E+03  0.13357493414E+04  0.14579982528E+04  0.12699999809E+01 0. -1.
       -4    1    3    3    0  502  0.44746506403E+03 -0.37590691087E+03 -0.14456026777E+04  0.15592625513E+04  0.12699999809E+01 0.  1.
</event>
<event>
 5   0  0.6291798E-07  0.3045084E+04  0.7818609E-02  0.8230973E-01
        1   -1    0    0  501    0  0.00000000000E+00  0.00000000000E+00  0.12916918566E+04  0.12916918566E+04  0.50400001928E-02 0.  1.
       -1   -1    0    0    0  501  0.00000000000E+00  0.00000000000E+00 -0.17946493836E+04  0.17946493837E+04  0.50400001928E-02 0. -1.
    10030    2    1    2    0    0  0.00000000000E+00  0.00000000000E+00 -0.50295752707E+03  0.30863412402E+04  0.30450839031E+04 0.  0.
        1    1    3    3  502    0 -0.85703066809E+03  0.93155662877E+03 -0.11090121639E+04  0.16829163076E+04  0.50400001928E-02 0. -1.
       -1    1    3    3    0  502  0.85703066809E+03 -0.93155662877E+03  0.60605463686E+03  0.14034249326E+04  0.50400001928E-02 0.  1.
</event>
<event>
 5   0  0.6291798E-07  0.2975431E+04  0.7818609E-02  0.8250782E-01
        1   -1    0    0  501    0  0.00000000000E+00  0.00000000000E+00  0.80805050604E+03  0.80805050605E+03  0.50400001928E-02 0. -1.
       -1   -1    0    0    0  501  0.00000000000E+00  0.00000000000E+00 -0.27390586374E+04  0.27390586374E+04  0.50400001928E-02 0.  1.
    10030    2    1    2    0    0  0.00000000000E+00  0.00000000000E+00 -0.19310081313E+04  0.35471091434E+04  0.29754312078E+04 0.  0.
        1    1    3    3  502    0  0.11191072118E+04  0.73214338706E+03 -0.17425541384E+04  0.21965722879E+04  0.50400001928E-02 0.  1.
       -1    1    3    3    0  502 -0.11191072118E+04 -0.73214338706E+03 -0.18845399292E+03  0.13505368555E+04  0.50400001928E-02 0. -1.
</event>
<event>
 5   0  0.5916703E-07  0.3005175E+04  0.7818609E-02  0.8242255E-01
       -1   -1    0    0    0  501  0.00000000000E+00  0.00000000000E+00  0.10810102561E+04  0.10810102561E+04  0.50400001928E-02 0.  1.
        1   -1    0    0  501    0  0.00000000000E+00  0.00000000000E+00 -0.20885735173E+04  0.20885735173E+04  0.50400001928E-02 0. -1.
    10030    2    1    2    0    0  0.00000000000E+00  0.00000000000E+00 -0.10075632612E+04  0.31695837733E+04  0.30051751315E+04 0.  0.
        5    1    3    3  502    0  0.87663227714E+01  0.44980498390E+03  0.10082988679E+04  0.11041241185E+04  0.46999998093E+01 0.  1.
       -5    1    3    3    0  502 -0.87663227714E+01 -0.44980498390E+03 -0.20158621292E+04  0.20654596548E+04  0.46999998093E+01 0. -1.
</event>
<event>
 5   0  0.1625212E-06  0.3025847E+04  0.7818609E-02  0.8236388E-01
       -2   -1    0    0    0  501  0.00000000000E+00  0.00000000000E+00  0.12750928713E+04  0.12750928713E+04  0.25500000920E-02 0. -1.
        2   -1    0    0  501    0  0.00000000000E+00  0.00000000000E+00 -0.17951143553E+04  0.17951143553E+04  0.25500000920E-02 0.  1.
    10030    2    1    2    0    0  0.00000000000E+00  0.00000000000E+00 -0.52002148399E+03  0.30702072267E+04  0.30258470006E+04 0.  0.
        4    1    3    3  502    0 -0.80702798958E+03  0.95027472063E+03 -0.11296757692E+04  0.16824045818E+04  0.12699999809E+01 0.  1.
       -4    1    3    3    0  502  0.80702798958E+03 -0.95027472063E+03  0.60965428519E+03  0.13878026448E+04  0.12699999809E+01 0. -1.
</event>
<event>
 5   0  0.1635086E-06  0.3001830E+04  0.7818609E-02  0.8243208E-01
        2   -1    0    0  501    0  0.00000000000E+00  0.00000000000E+00  0.16369819583E+04  0.16369819583E+04  0.25500000920E-02 0. -1.
       -2   -1    0    0    0  501  0.00000000000E+00  0.00000000000E+00 -0.13761581257E+04  0.13761581257E+04  0.25500000920E-02 0.  1.
    10030    2    1    2    0    0  0.00000000000E+00  0.00000000000E+00  0.26082383260E+03  0.30131400839E+04  0.30018301241E+04 0.  0.
        3    1    3    3  502    0  0.13613602210E+03  0.71663164338E+03 -0.11862665832E+04  0.13925955426E+04  0.10100000352E+00 0.  1.
       -3    1    3    3    0  502 -0.13613602210E+03 -0.71663164338E+03  0.14470904158E+04  0.16205445413E+04  0.10100000352E+00 0. -1.
</event>
<event>
 5   0  0.1723916E-06  0.3006627E+04  0.7818609E-02  0.8241841E-01
        2   -1    0    0  501    0  0.00000000000E+00  0.00000000000E+00  0.15862236468E+04  0.15862236468E+04  0.25500000920E-02 0.  1.
       -2   -1    0    0    0  501  0.00000000000E+00  0.00000000000E+00 -0.14247368438E+04  0.14247368438E+04  0.25500000920E-02 0. -1.
    10030    2    1    2    0    0  0.00000000000E+00  0.00000000000E+00  0.16148680304E+03  0.30109604906E+04  0.30066268622E+04 0.  0.
        1    1    3    3  502    0 -0.34774372031E+03 -0.15018689899E+03  0.15376493881E+04  0.15836184642E+04  0.50400001928E-02 0.  1.
       -1    1    3    3    0  502  0.34774372031E+03  0.15018689899E+03 -0.13761625850E+04  0.14273420263E+04  0.50400001928E-02 0. -1.
</event>
<event>
 5   0  0.1635086E-06  0.3023440E+04  0.7818609E-02  0.8237069E-01
        2   -1    0    0  501    0  0.00000000000E+00  0.00000000000E+00  0.24370642873E+04  0.24370642873E+04  0.25500000920E-02 0. -1.
       -2   -1    0    0    0  501  0.00000000000E+00  0.00000000000E+00 -0.93772539595E+03  0.93772539595E+03  0.25500000920E-02 0.  1.
    10030    2    1    2    0    0  0.00000000000E+00  0.00000000000E+00  0.14993388914E+04  0.33747896833E+04  0.30234398117E+04 0.  0.
        3    1    3    3  502    0 -0.69692001318E+03 -0.12540867911E+04  0.21801435500E+03  0.14511931138E+04  0.10100000352E+00 0.  1.
       -3    1    3    3    0  502  0.69692001318E+03  0.12540867911E+04  0.12813245364E+04  0.19235965695E+04  0.10100000352E+00 0. -1.
</event>
<event>
 5   0  0.1560174E-06  0.2995285E+04  0.7818609E-02  0.8245079E-01
        2   -1    0    0  501    0  0.00000000000E+00  0.00000000000E+00  0.19580906976E+04  0.19580906976E+04  0.25500000920E-02 0. -1.
       -2   -1    0    0    0  501  0.00000000000E+00  0.00000000000E+00 -0.11454695585E+04  0.11454695586E+04  0.25500000920E-02 0.  1.
    10030    2    1    2    0    0  0.00000000000E+00  0.00000000000E+00  0.81262113907E+03  0.31035602562E+04  0.29952851530E+04 0.  0.
        5    1    3    3  502    0  0.21689348719E+03  0.64286754755E+03 -0.97708922798E+03  0.11895574462E+04  0.46999998093E+01 0.  1.
       -5    1    3    3    0  502 -0.21689348719E+03 -0.64286754755E+03  0.17897103671E+04  0.19140028099E+04  0.46999998093E+01 0. -1.
</event>
<event>
 5   0  0.1560174E-06  0.3018801E+04  0.7818609E-02  0.8238382E-01
        2   -1    0    0  501    0  0.00000000000E+00  0.00000000000E+00  0.11814253094E+04  0.11814253094E+04  0.25500000920E-02 0.  1.
       -2   -1    0    0    0  501  0.00000000000E+00  0.00000000000E+00 -0.19284248613E+04  0.19284248613E+04  0.25500000920E-02 0. -1.
    10030    2    1    2    0    0  0.00000000000E+00  0.00000000000E+00 -0.74699955190E+03  0.31098501707E+04  0.30188010457E+04 0.  0.
        5    1    3    3  502    0 -0.88637756754E+03  0.53680622947E+03  0.75707130033E+03  0.12833569901E+04  0.46999998093E+01 0.  1.
       -5    1    3    3    0  502  0.88637756754E+03 -0.53680622947E+03 -0.15040708522E+04  0.18264931806E+04  0.46999998093E+01 0. -1.
</event>
<event>
 5   0  0.5887179E-07  0.3008800E+04  0.7818609E-02  0.8241223E-01
        1   -1    0    0  501    0  0.00000000000E+00  0.00000000000E+00  0.10412032159E+04  0.10412032159E+04  0.50400001928E-02 0. -1.
       -1   -1    0    0    0  501  0.00000000000E+00  0.00000000000E+00 -0.21736574071E+04  0.21736574071E+04  0.50400001928E-02 0.  1.
    10030    2    1    2    0    0  0.00000000000E+00  0.00000000000E+00 -0.11324541912E+04  0.32148606231E+04  0.30087998156E+04 0.  0.
        3    1    3    3  502    0  0.10138271951E+04  0.11036096577E+04 -0.70724788294E+03  0.16571057409E+04  0.10100000352E+00 0. -1.
       -3    1    3    3    0  502 -0.10138271951E+04 -0.11036096577E+04 -0.42520630829E+03  0.15577548822E+04  0.10100000352E+00 0.  1.
</event>
<event>
 5   0  0.1723916E-06  0.2858360E+04  0.7818609E-02  0.8285376E-01
       -2   -1    0    0    0  501  0.00000000000E+00  0.00000000000E+00  0.10914474863E+04  0.10914474863E+04  0.25500000920E-02 0.  1.
        2   -1    0    0  501    0  0.00000000000E+00  0.00000000000E+00 -0.18714185438E+04  0.18714185438E+04  0.25500000920E-02 0. -1.
    10030    2    1    2    0    0  0.00000000000E+00  0.00000000000E+00 -0.77997105749E+03  0.29628660302E+04  0.28583597153E+04 0.  0.
        1    1    3    3  502    0 -0.73632493602E+02  0.91476425955E+03 -0.15256426070E+04  0.17803934282E+04  0.50400001928E-02 0. -1.
       -1    1    3    3    0  502  0.73632493602E+02 -0.91476425955E+03  0.74567154954E+03  0.11824726020E+04  0.50400001928E-02 0.  1.
</event>
<event>
 5   0  0.5887179E-07  0.2988587E+04  0.7818609E-02  0.8246997E-01
        1   -1    0    0  501    0  0.00000000000E+00  0.00000000000E+00  0.15029567280E+04  0.15029567280E+04  0.50400001928E-02 0.  1.
       -1   -1    0    0    0  501  0.00000000000E+00  0.00000000000E+00 -0.14856806959E+04  0.14856806959E+04  0.50400001928E-02 0. -1.
    10030    2    1    2    0    0  0.00000000000E+00  0.00000000000E+00  0.17276032098E+02  0.29886374240E+04  0.29885874909E+04 0.  0.
        3    1    3    3  502    0  0.45997391729E+03  0.33480314370E+03 -0.13731392589E+04  0.14863312498E+04  0.10100000352E+00 0. -1.
       -3    1    3    3    0  502 -0.45997391729E+03 -0.33480314370E+03  0.13904152910E+04  0.15023061742E+04  0.10100000352E+00 0.  1.
</event>
<event>
 5   0  0.5931588E-07  0.2999354E+04  0.7818609E-02  0.8243915E-01
       -1   -1    0    0    0  501  0.00000000000E+00  0.00000000000E+00  0.17947342681E+04  0.17947342681E+04  0.50400001928E-02 0. -1.
        1   -1    0    0  501    0  0.00000000000E+00  0.00000000000E+00 -0.12531279417E+04  0.12531279417E+04  0.50400001928E-02 0.  1.
    10030    2    1    2    0    0  0.00000000000E+00  0.00000000000E+00  0.54160632635E+03  0.30478622098E+04  0.29993543701E+04 0.  0.
        2    1    3    3  502    0 -0.84930047257E+02 -0.11144722623E+04  0.12868591195E+04  0.17044846523E+04  0.25500000920E-02 0. -1.
       -2    1    3    3    0  502  0.84930047257E+02  0.11144722623E+04 -0.74525279318E+03  0.13433775575E+04  0.25500000920E-02 0.  1.
</event>
<event>
 5   0  0.5874741E-07  0.3002151E+04  0.7818609E-02  0.8243117E-01
       -1   -1    0    0    0  501  0.00000000000E+00  0.00000000000E+00  0.10486499038E+04  0.10486499038E+04  0.50400001928E-02 0. -1.
        1   -1    0    0  501    0  0.00000000000E+00  0.00000000000E+00 -0.21486934621E+04  0.21486934621E+04  0.50400001928E-02 0.  1.
    10030    2    1    2    0    0  0.00000000000E+00  0.00000000000E+00 -0.11000435583E+04  0.31973433659E+04  0.30021506907E+04 0.  0.
        4    1    3    3  502    0 -0.58570381793E+03  0.61700943011E+03  0.76710664185E+03  0.11455146494E+04  0.12699999809E+01 0. -1.
       -4    1    3    3    0  502  0.58570381793E+03 -0.61700943011E+03 -0.18671502001E+04  0.20518287165E+04  0.12699999809E+01 0.  1.
</event>
<event>
 5   0  0.1625212E-06  0.3126846E+04  0.7818609E-02  0.8208409E-01
       -2   -1    0    0    0  501  0.00000000000E+00  0.00000000000E+00  0.87260195467E+03  0.87260195467E+03  0.25500000920E-02 0. -1.
        2   -1    0    0  501    0  0.00000000000E+00  0.00000000000E+00 -0.28011528531E+04  0.28011528531E+04  0.25500000920E-02 0.  1.
    10030    2    1    2    0    0  0.00000000000E+00  0.00000000000E+00 -0.19285508984E+04  0.36737548078E+04  0.31268459859E+04 0.  0.
        4    1    3    3  502    0  0.11844958272E+04 -0.68058614314E+03 -0.70988724751E+02  0.13679433010E+04  0.12699999809E+01 0. -1.
       -4    1    3    3    0  502 -0.11844958272E+04  0.68058614314E+03 -0.18575621737E+04  0.23058115068E+04  0.12699999809E+01 0.  1.
</event>
<event>
 5   0  0.5916703E-07  0.3002204E+04  0.7818609E-02  0.8243102E-01
        1   -1    0    0  501    0  0.00000000000E+00  0.00000000000E+00  0.10352760609E+04  0.10352760610E+04  0.50400001928E-02 0.  1.
       -1   -1    0    0    0  501  0.00000000000E+00  0.00000000000E+00 -0.21765282272E+04  0.21765282272E+04  0.50400001928E-02 0. -1.
    10030    2    1    2    0    0  0.00000000000E+00  0.00000000000E+00 -0.11412521663E+04  0.32118042882E+04  0.30022042366E+04 0.  0.
        5    1    3    3  502    0  0.81352483149E+03  0.23173164380E+03 -0.18972675940E+04  0.20772983944E+04  0.46999998093E+01 0. -1.
       -5    1    3    3    0  502 -0.81352483149E+03 -0.23173164380E+03  0.75601542768E+03  0.11345058938E+04  0.46999998093E+01 0.  1.
</event>
<event>
 5   0  0.5916703E-07  0.2976862E+04  0.7818609E-02  0.8250369E-01
       -1   -1    0    0    0  501  0.00000000000E+00  0.00000000000E+00  0.14728053921E+04  0.14728053921E+04  0.50400001928E-02 0.  1.
        1   -1    0    0  501    0  0.00000000000E+00  0.00000000000E+00 -0.15042219193E+04  0.15042219193E+04  0.50400001928E-02 0. -1.
    10030    2    1    2    0    0  0.00000000000E+00  0.00000000000E+00 -0.31416527216E+02  0.29770273114E+04  0.29768615377E+04 0.  0.
        5    1    3    3  502    0 -0.97467653255E+03  0.76295908039E+03  0.81095930381E+03  0.14797898445E+04  0.46999998093E+01 0.  1.
       -5    1    3    3    0  502  0.97467653255E+03 -0.76295908039E+03 -0.84237583102E+03  0.14972374669E+04  0.46999998093E+01 0. -1.
</event>
<event>
 5   0  0.5916703E-07  0.2987191E+04  0.7818609E-02  0.8247398E-01
        1   -1    0    0  501    0  0.00000000000E+00  0.00000000000E+00  0.15643546017E+04  0.15643546017E+04  0.50400001928E-02 0.  1.
       -1   -1    0    0    0  501  0.00000000000E+00  0.00000000000E+00 -0.14260368777E+04  0.14260368778E+04  0.50400001928E-02 0. -1.
    10030    2    1    2    0    0  0.00000000000E+00  0.00000000000E+00  0.13831772392E+03  0.29903914794E+04  0.29871908890E+04 0.  0.
        5    1    3    3  502    0 -0.98518051846E+03 -0.83206028546E+03  0.82355788195E+03  0.15300897515E+04  0.46999998093E+01 0.  1.
       -5    1    3    3    0  502  0.98518051846E+03  0.83206028546E+03 -0.68524015802E+03  0.14603017280E+04  0.46999998093E+01 0. -1.
</event>
<event>
 5   0  0.1560174E-06  0.2991847E+04  0.7818609E-02  0.8246063E-01
        2   -1    0    0  501    0  0.00000000000E+00  0.00000000000E+00  0.27119857622E+04  0.27119857622E+04  0.25500000920E-02 0.  1.
       -2   -1    0    0    0  501  0.00000000000E+00  0.00000000000E+00 -0.82514695576E+03  0.82514695576E+03  0.25500000920E-02 0. -1.
    10030    2    1    2    0    0  0.00000000000E+00  0.00000000000E+00  0.18868388064E+04  0.35371327179E+04  0.29918467847E+04 0.  0.
        5    1    3    3  502    0  0.92129479625E+03 -0.51428799929E+03  0.21971075141E+04  0.24373304590E+04  0.46999998093E+01 0.  1.
       -5    1    3    3    0  502 -0.92129479625E+03  0.51428799929E+03 -0.31026870769E+03  0.10998022589E+04  0.46999998093E+01 0. -1.
</event>
<event>
 5   0  0.1723916E-06  0.3003211E+04  0.7818609E-02  0.8242815E-01
        2   -1    0    0  501    0  0.00000000000E+00  0.00000000000E+00  0.75270186762E+03  0.75270186762E+03  0.25500000920E-02 0. -1.
       -2   -1    0    0    0  501  0.00000000000E+00  0.00000000000E+00 -0.29956331325E+04  0.29956331325E+04  0.25500000920E-02 0.  1.
    10030    2    1    2    0    0  0.00000000000E+00  0.00000000000E+00 -0.22429312649E+04  0.37483350002E+04  0.30032107176E+04 0.  0.
        1    1    3    3  502    0  0.59131914456E+03  0.46406811907E+03 -0.27439121431E+04  0.28450081545E+04  0.50400001928E-02 0.  1.
       -1    1    3    3    0  502 -0.59131914456E+03 -0.46406811907E+03  0.50098087817E+03  0.90332684571E+03  0.50400001928E-02 0. -1.
</event>
<event>
 5   0  0.5931588E-07  0.3000243E+04  0.7818609E-02  0.8243662E-01
        1   -1    0    0  501    0  0.00000000000E+00  0.00000000000E+00  0.16667650328E+04  0.16667650328E+04  0.50400001928E-02 0.  1.
       -1   -1    0    0    0  501  0.00000000000E+00  0.00000000000E+00 -0.13501388650E+04  0.13501388650E+04  0.50400001928E-02 0. -1.
    10030    2    1    2    0    0  0.00000000000E+00  0.00000000000E+00  0.31662616780E+03  0.30169038978E+04  0.30002428232E+04 0.  0.
        2    1    3    3  502    0  0.13036972710E+04  0.43039888911E+03  0.76623174728E+03  0.15722534365E+04  0.25500000920E-02 0.  1.
       -2    1    3    3    0  502 -0.13036972710E+04 -0.43039888911E+03 -0.44960557948E+03  0.14446504612E+04  0.25500000920E-02 0. -1.
</event>
<event>
 5   0  0.1560174E-06  0.2998783E+04  0.7818609E-02  0.8244078E-01
       -2   -1    0    0    0  501  0.00000000000E+00  0.00000000000E+00  0.14924862880E+04  0.14924862880E+04  0.25500000920E-02 0. -1.
        2   -1    0    0  501    0  0.00000000000E+00  0.00000000000E+00 -0.15063286828E+04  0.15063286828E+04  0.25500000920E-02 0.  1.
    10030    2    1    2    0    0  0.00000000000E+00  0.00000000000E+00 -0.13842394748E+02  0.29988149708E+04  0.29987830227E+04 0.  0.
        5    1    3    3  502    0 -0.12563811641E+02 -0.35413265516E+03 -0.14638461283E+04  0.15061325852E+04  0.46999998093E+01 0.  1.
       -5    1    3    3    0  502  0.12563811641E+02  0.35413265516E+03  0.14500037336E+04  0.14926823856E+04  0.46999998093E+01 0. -1.
</event>
<event>
 5   0  0.1723916E-06  0.2976264E+04  0.7818609E-02  0.8250541E-01
       -2   -1    0    0    0  501  0.00000000000E+00  0.00000000000E+00  0.10530600641E+04  0.10530600641E+04  0.25500000920E-02 0.  1.
        2   -1    0    0  501    0  0.00000000000E+00  0.00000000000E+00 -0.21029544257E+04  0.21029544257E+04  0.25500000920E-02 0. -1.
    10030    2    1    2    0    0  0.00000000000E+00  0.00000000000E+00 -0.10498943616E+04  0.31560144898E+04  0.29762643178E+04 0.  0.
        1    1    3    3  502    0 -0.83884522765E+03  0.11025965588E+04  0.51147563370E+02  0.13863609057E+04  0.50400001928E-02 0.  1.
       -1    1    3    3    0  502  0.83884522765E+03 -0.11025965588E+04 -0.11010419250E+04  0.17696535842E+04  0.50400001928E-02 0. -1.
</event>
<event>
 5   0  0.1723916E-06  0.2996663E+04  0.7818609E-02  0.8244684E-01
        2   -1    0    0  501    0  0.00000000000E+00  0.00000000000E+00  0.17268950461E+04  0.17268950461E+04  0.25500000920E-02 0. -1.
       -2   -1    0    0    0  501  0.00000000000E+00  0.00000000000E+00 -0.13000196353E+04  0.13000196353E+04  0.25500000920E-02 0.  1.
    10030    2    1    2    0    0  0.00000000000E+00  0.00000000000E+00  0.42687541083E+03  0.30269146814E+04  0.29966631229E+04 0.  0.
        1    1    3    3  502    0  0.59304781966E+03 -0.21489776899E+03  0.15862422825E+04  0.17070592686E+04  0.50400001928E-02 0. -1.
       -1    1    3    3    0  502 -0.59304781966E+03  0.21489776899E+03 -0.11593668717E+04  0.13198554128E+04  0.50400001928E-02 0.  1.
</event>
<event>
 5   0  0.1635086E-06  0.2978670E+04  0.7818609E-02  0.8249848E-01
        2   -1    0    0  501    0  0.00000000000E+00  0.00000000000E+00  0.17430252759E+04  0.17430252759E+04  0.25500000920E-02 0.  1.
       -2   -1    0    0    0  501  0.00000000000E+00  0.00000000000E+00 -0.12725687060E+04  0.12725687060E+04  0.25500000920E-02 0. -1.
    10030    2    1    2    0    0  0.00000000000E+00  0.00000000000E+00  0.47045656993E+03  0.30155939818E+04  0.29786704549E+04 0.  0.
        3    1    3    3  502    0  0.65770536350E+03  0.10091365976E+04 -0.65152101767E+03  0.13694570692E+04  0.10100000352E+00 0. -1.
       -3    1    3    3    0  502 -0.65770536350E+03 -0.10091365976E+04  0.11219775876E+04  0.16461369126E+04  0.10100000352E+00 0.  1.
</event>
<event>
 5   0  0.5874741E-07  0.2948823E+04  0.7818609E-02  0.8258498E-01
        1   -1    0    0  501    0  0.00000000000E+00  0.00000000000E+00  0.11573313564E+04  0.11573313565E+04  0.50400001928E-02 0.  1.
       -1   -1    0    0    0  501  0.00000000000E+00  0.00000000000E+00 -0.18783633029E+04  0.18783633029E+04  0.50400001928E-02 0. -1.
    10030    2    1    2    0    0  0.00000000000E+00  0.00000000000E+00 -0.72103194647E+03  0.30356946594E+04  0.29488226459E+04 0.  0.
        4    1    3    3  502    0 -0.48881468724E+02 -0.14498438833E+04 -0.63181421116E+03  0.15822855287E+04  0.12699999809E+01 0.  1.
       -4    1    3    3    0  502  0.48881468724E+02  0.14498438833E+04 -0.89217735304E+02  0.14534091307E+04  0.12699999809E+01 0. -1.
</event>
<event>
 5   0  0.5874741E-07  0.3047668E+04  0.7818609E-02  0.8230249E-01
       -1   -1    0    0    0  501  0.00000000000E+00  0.00000000000E+00  0.10782710410E+04  0.10782710411E+04  0.50400001928E-02 0. -1.
        1   -1    0    0  501    0  0.00000000000E+00  0.00000000000E+00 -0.21535117391E+04  0.21535117391E+04  0.50400001928E-02 0.  1.
    10030    2    1    2    0    0  0.00000000000E+00  0.00000000000E+00 -0.10752406981E+04  0.32317827802E+04  0.30476675310E+04 0.  0.
        4    1    3    3  502    0 -0.41391271400E+03 -0.14585903946E+04 -0.69933944299E+03  0.16696966621E+04  0.12699999809E+01 0. -1.
       -4    1    3    3    0  502  0.41391271400E+03  0.14585903946E+04 -0.37590125509E+03  0.15620861181E+04  0.12699999809E+01 0.  1.
</event>
<event>
 5   0  0.6291798E-07  0.3021675E+04  0.7818609E-02  0.8237569E-01
       -1   -1    0    0    0  501  0.00000000000E+00  0.00000000000E+00  0.14904395504E+04  0.14904395504E+04  0.50400001928E-02 0. -1.
        1   -1    0    0  501    0  0.00000000000E+00  0.00000000000E+00 -0.15315142041E+04  0.15315142041E+04  0.50400001928E-02 0.  1.
    10030    2    1    2    0    0  0.00000000000E+00  0.00000000000E+00 -0.41074653667E+02  0.30219537545E+04  0.30216745965E+04 0.  0.
        1    1    3    3  502    0  0.11272668974E+04  0.18944625186E+03 -0.10085601743E+04  0.15244061682E+04  0.50400001928E-02 0.  1.
       -1    1    3    3    0  502 -0.11272668974E+04 -0.18944625186E+03  0.96748552066E+03  0.14975475863E+04  0.50400001928E-02 0. -1.
</event>
<event>
 5   0  0.1560174E-06  0.3003000E+04  0.7818609E-02  0.8242875E-01
       -2   -1    0    0    0  501  0.00000000000E+00  0.00000000000E+00  0.10184213372E+04  0.10184213372E+04  0.25500000920E-02 0. -1.
        2   -1    0    0  501    0  0.00000000000E+00  0.00000000000E+00 -0.22137226371E+04  0.22137226371E+04  0.25500000920E-02 0.  1.
    10030    2    1    2    0    0  0.00000000000E+00  0.00000000000E+00 -0.11953012999E+04  0.32321439743E+04  0.30030000787E+04 0.  0.
        5    1    3    3  502    0  0.32793021975E+03 -0.62019458131E+03  0.83116225803E+03  0.10876728998E+04  0.46999998093E+01 0. -1.
       -5    1    3    3    0  502 -0.32793021975E+03  0.62019458131E+03 -0.20264635580E+04  0.21444710745E+04  0.46999998093E+01 0.  1.
</event>
<event>
 5   0  0.6291798E-07  0.2989352E+04  0.7818609E-02  0.8246778E-01
        1   -1    0    0  501    0  0.00000000000E+00  0.00000000000E+00  0.11508542843E+04  0.11508542843E+04  0.50400001928E-02 0.  1.
       -1   -1    0    0    0  501  0.00000000000E+00  0.00000000000E+00 -0.19412161296E+04  0.19412161296E+04  0.50400001928E-02 0. -1.
    10030    2    1    2    0    0  0.00000000000E+00  0.00000000000E+00 -0.79036184531E+03  0.30920704140E+04  0.29893523711E+04 0.  0.
        1    1    3    3  502    0 -0.52330857260E+03  0.79376003759E+03 -0.15881318540E+04  0.18509645175E+04  0.50400001928E-02 0. -1.
       -1    1    3    3    0  502  0.52330857260E+03 -0.79376003759E+03  0.79777000869E+03  0.12411058965E+04  0.50400001928E-02 0.  1.
</event>
<event>
 5   0  0.1560174E-06  0.2995533E+04  0.7818609E-02  0.8245008E-01
       -2   -1    0    0    0  501  0.00000000000E+00  0.00000000000E+00  0.12676463697E+04  0.12676463697E+04  0.25500000920E-02 0. -1.
        2   -1    0    0  501    0  0.00000000000E+00  0.00000000000E+00 -0.17696605311E+04  0.17696605311E+04  0.25500000920E-02 0.  1.
    10030    2    1    2    0    0  0.00000000000E+00  0.00000000000E+00 -0.50201416141E+03  0.30373069008E+04  0.29955325055E+04 0.  0.
        5    1    3    3  502    0  0.26200716414E+03  0.47932679582E+03  0.11630307054E+04  0.12849375249E+04  0.46999998093E+01 0. -1.
       -5    1    3    3    0  502 -0.26200716414E+03 -0.47932679582E+03 -0.16650448668E+04  0.17523693759E+04  0.46999998093E+01 0.  1.
</event>
<event>
 5   0  0.1723916E-06  0.3011702E+04  0.7818609E-02  0.8240397E-01
        2   -1    0    0  501    0  0.00000000000E+00  0.00000000000E+00  0.14240375191E+04  0.14240375191E+04  0.25500000920E-02 0.  1.
       -2   -1    0    0    0  501  0.00000000000E+00  0.00000000000E+00 -0.15923653228E+04  0.15923653228E+04  0.25500000920E-02 0. -1.
    10030    2    1    2    0    0  0.00000000000E+00  0.00000000000E+00 -0.16832780371E+03  0.30164028418E+04  0.30117024844E+04 0.  0.
        1    1    3    3  502    0 -0.14280401643E+04 -0.43609626296E+03 -0.27968461524E+03  0.15191122886E+04  0.50400001928E-02 0. -1.
       -1    1    3    3    0  502  0.14280401643E+04  0.43609626296E+03  0.11135681153E+03  0.14972905532E+04  0.50400001928E-02 0.  1.
</event>
<event>
 5   0  0.1625212E-06  0.3026430E+04  0.7818609E-02  0.8236224E-01
       -2   -1    0    0    0  501  0.00000000000E+00  0.00000000000E+00  0.11634329715E+04  0.11634329715E+04  0.25500000920E-02 0. -1.
        2   -1    0    0  501    0  0.00000000000E+00  0.00000000000E+00 -0.19681576450E+04  0.19681576450E+04  0.25500000920E-02 0.  1.
    10030    2    1    2    0    0  0.00000000000E+00  0.00000000000E+00 -0.80472467348E+03  0.31315906166E+04  0.30264299083E+04 0.  0.
        4    1    3    3  502    0 -0.53472629472E+03  0.39468422811E+03  0.10043272594E+04  0.12043183579E+04  0.12699999809E+01 0. -1.
       -4    1    3    3    0  502  0.53472629472E+03 -0.39468422811E+03 -0.18090519329E+04  0.19272722587E+04  0.12699999809E+01 0.  1.
</event>
<event>
 5   0  0.1560174E-06  0.2997024E+04  0.7818609E-02  0.8244581E-01
        2   -1    0    0  501    0  0.00000000000E+00  0.00000000000E+00  0.19447089274E+04  0.19447089274E+04  0.25500000920E-02 0.  1.
       -2   -1    0    0    0  501  0.00000000000E+00  0.00000000000E+00 -0.11546909804E+04  0.11546909804E+04  0.25500000920E-02 0. -1.
    10030    2    1    2    0    0  0.00000000000E+00  0.00000000000E+00  0.79001794698E+03  0.30993999078E+04  0.29970237624E+04 0.  0.
        5    1    3    3  502    0 -0.11045976865E+04  0.93095227164E+03 -0.16980646117E+02  0.14446863374E+04  0.46999998093E+01 0.  1.
       -5    1    3    3    0  502  0.11045976865E+04 -0.93095227164E+03  0.80699859310E+03  0.16547135705E+04  0.46999998093E+01 0. -1.
</event>
<event>
 5   0  0.5874741E-07  0.3008895E+04  0.7818609E-02  0.8241195E-01
       -1   -1    0    0    0  501  0.00000000000E+00  0.00000000000E+00  0.86894016458E+03  0.86894016459E+03  0.50400001928E-02 0.  1.
        1   -1    0    0  501    0  0.00000000000E+00  0.00000000000E+00 -0.26047387869E+04  0.26047387869E+04  0.50400001928E-02 0. -1.
    10030    2    1    2    0    0  0.00000000000E+00  0.00000000000E+00 -0.17357986223E+04  0.34736789515E+04  0.30088949135E+04 0.  0.
        4    1    3    3  502    0 -0.10793028305E+03  0.13985406023E+04 -0.14957821890E+04  0.20505927758E+04  0.12699999809E+01 0. -1.
       -4    1    3    3    0  502  0.10793028305E+03 -0.13985406023E+04 -0.24001643329E+03  0.14230861757E+04  0.12699999809E+01 0.  1.
</event>
<event>
 5   0  0.1723916E-06  0.2988588E+04  0.7818609E-02  0.8246997E-01
       -2   -1    0    0    0  501  0.00000000000E+00  0.00000000000E+00  0.87652188248E+03  0.87652188248E+03  0.25500000920E-02 0. -1.
        2   -1    0    0  501    0  0.00000000000E+00  0.00000000000E+00 -0.25474712894E+04  0.25474712894E+04  0.25500000920E-02 0.  1.
    10030    2    1    2    0    0  0.00000000000E+00  0.00000000000E+00 -0.16709494069E+04  0.34239931719E+04  0.29885878472E+04 0.  0.
        1    1    3    3  502    0  0.19759954435E+03 -0.46381779271E+03 -0.24470901769E+04  0.24984841122E+04  0.50400001928E-02 0.  1.
       -1    1    3    3    0  502 -0.19759954435E+03  0.46381779271E+03  0.77614076999E+03  0.92550905972E+03  0.50400001928E-02 0. -1.
</event>
<event>
 5   0  0.5874741E-07  0.3010138E+04  0.7818609E-02  0.8240842E-01
       -1   -1    0    0    0  501  0.00000000000E+00  0.00000000000E+00  0.18321253788E+04  0.18321253788E+04  0.50400001928E-02 0. -1.
        1   -1    0    0  501    0  0.00000000000E+00  0.00000000000E+00 -0.12363963072E+04  0.12363963072E+04  0.50400001928E-02 0.  1.
    10030    2    1    2    0    0  0.00000000000E+00  0.00000000000E+00  0.59572907160E+03  0.30685216860E+04  0.30101382378E+04 0.  0.
        4    1    3    3  502    0 -0.11760183436E+04 -0.58668982458E+03 -0.44985178225E+03  0.13890976688E+04  0.12699999809E+01 0.  1.
       -4    1    3    3    0  502  0.11760183436E+04  0.58668982458E+03  0.10455808538E+04  0.16794240172E+04  0.12699999809E+01 0. -1.
</event>
<event>
 5   0  0.5931588E-07  0.3040529E+04  0.7818609E-02  0.8232251E-01
        1   -1    0    0  501    0  0.00000000000E+00  0.00000000000E+00  0.22045094612E+04  0.22045094612E+04  0.50400001928E-02 0. -1.
       -1   -1    0    0    0  501  0.00000000000E+00  0.00000000000E+00 -0.10483982344E+04  0.10483982344E+04  0.50400001928E-02 0.  1.
    10030    2    1    2    0    0  0.00000000000E+00  0.00000000000E+00  0.11561112268E+04  0.32529076956E+04  0.30405287875E+04 0.  0.
        2    1    3    3  502    0 -0.19617861508E+03 -0.42710073115E+02 -0.10341521796E+04  0.10534614041E+04  0.25500000920E-02 0.  1.
       -2    1    3    3    0  502  0.19617861508E+03  0.42710073115E+02  0.21902634065E+04  0.21994462915E+04  0.25500000920E-02 0. -1.
</event>
<event>
 5   0  0.5931588E-07  0.3002065E+04  0.7818609E-02  0.8243141E-01
       -1   -1    0    0    0  501  0.00000000000E+00  0.00000000000E+00  0.10444659625E+04  0.10444659625E+04  0.50400001928E-02 0. -1.
        1   -1    0    0  501    0  0.00000000000E+00  0.00000000000E+00 -0.21571775892E+04  0.21571775892E+04  0.50400001928E-02 0.  1.
    10030    2    1    2    0    0  0.00000000000E+00  0.00000000000E+00 -0.11127116267E+04  0.32016435518E+04  0.30020650007E+04 0.  0.
        2    1    3    3  502    0  0.12377055406E+04  0.73046700068E+03 -0.94431238930E+02  0.14402827164E+04  0.25500000920E-02 0. -1.
       -2    1    3    3    0  502 -0.12377055406E+04 -0.73046700068E+03 -0.10182803878E+04  0.17613608354E+04  0.25500000920E-02 0.  1.
</event>
<event>
 5   0  0.6291798E-07  0.2945366E+04  0.7818609E-02  0.8259506E-01
        1   -1    0    0  501    0  0.00000000000E+00  0.00000000000E+00  0.15442197724E+04  0.15442197724E+04  0.50400001928E-02 0.  1.
       -1   -1    0    0    0  501  0.00000000000E+00  0.00000000000E+00 -0.14044597633E+04  0.14044597634E+04  0.50400001928E-02 0. -1.
    10030    2    1    2    0    0  0.00000000000E+00  0.00000000000E+00  0.13976000906E+03  0.29486795358E+04  0.29453655366E+04 0.  0.
        1    1    3    3  502    0  0.13781865265E+04  0.49095715582E+03  0.23846634652E+03  0.14823303374E+04  0.50400001928E-02 0.  1.
       -1    1    3    3    0  502 -0.13781865265E+04 -0.49095715582E+03 -0.98706337461E+02  0.14663491984E+04  0.50400001928E-02 0. -1.
</event>
<event>
 5   0  0.5874741E-07  0.2996383E+04  0.7818609E-02  0.8244765E-01
       -1   -1    0    0    0  501  0.00000000000E+00  0.00000000000E+00  0.87193450631E+03  0.87193450633E+03  0.50400001928E-02 0.  1.
        1   -1    0    0  501    0  0.00000000000E+00  0.00000000000E+00 -0.25742501973E+04  0.25742501974E+04  0.50400001928E-02 0. -1.
    10030    2    1    2    0    0  0.00000000000E+00  0.00000000000E+00 -0.17023156910E+04  0.34461847037E+04  0.29963828694E+04 0.  0.
        4    1    3    3  502    0  0.50378351295E+03  0.11344553511E+03 -0.24686579423E+04  0.25220906737E+04  0.12699999809E+01 0. -1.
       -4    1    3    3    0  502 -0.50378351295E+03 -0.11344553511E+03  0.76634225124E+03  0.92409403001E+03  0.12699999809E+01 0.  1.
</event>
<event>
 5   0  0.1625212E-06  0.3004512E+04  0.7818609E-02  0.8242444E-01
       -2   -1    0    0    0  501  0.00000000000E+00  0.00000000000E+00  0.13710297957E+04  0.13710297957E+04  0.25500000920E-02 0. -1.
        2   -1    0    0  501    0  0.00000000000E+00  0.00000000000E+00 -0.16460420082E+04  0.16460420082E+04  0.25500000920E-02 0.  1.
    10030    2    1    2    0    0  0.00000000000E+00  0.00000000000E+00 -0.27501221253E+03  0.30170718039E+04  0.30045116996E+04 0.  0.
        4    1    3    3  502    0 -0.58562705230E+03 -0.10585539876E+04 -0.10318895473E+04  0.15900607661E+04  0.12699999809E+01 0.  1.
       -4    1    3    3    0  502  0.58562705230E+03  0.10585539876E+04  0.75687733480E+03  0.14270110378E+04  0.12699999809E+01 0. -1.
</event>
<event>
 5   0  0.1625212E-06  0.3006287E+04  0.7818609E-02  0.8241938E-01
       -2   -1    0    0    0  501  0.00000000000E+00  0.00000000000E+00  0.11368272932E+04  0.11368272933E+04  0.25500000920E-02 0. -1.
        2   -1    0    0  501    0  0.00000000000E+00  0.00000000000E+00 -0.19874962295E+04  0.19874962295E+04  0.25500000920E-02 0.  1.
    10030    2    1    2    0    0  0.00000000000E+00  0.00000000000E+00 -0.85066893621E+03  0.31243235227E+04  0.30062867188E+04 0.  0.
        4    1    3    3  502    0  0.72623511291E+02 -0.14847269562E+04 -0.65713920446E+03  0.16252759322E+04  0.12699999809E+01 0.  1.
       -4    1    3    3    0  502 -0.72623511291E+02  0.14847269562E+04 -0.19352973175E+03  0.14990475905E+04  0.12699999809E+01 0. -1.
</event>
<event>
 5   0  0.5916703E-07  0.3023764E+04  0.7818609E-02  0.8236977E-01
        1   -1    0    0  501    0  0.00000000000E+00  0.00000000000E+00  0.15037958243E+04  0.15037958243E+04  0.50400001928E-02 0. -1.
       -1   -1    0    0    0  501  0.00000000000E+00  0.00000000000E+00 -0.15200117871E+04  0.15200117871E+04  0.50400001928E-02 0.  1.
    10030    2    1    2    0    0  0.00000000000E+00  0.00000000000E+00 -0.16215962769E+02  0.30238076114E+04  0.30237641299E+04 0.  0.
        5    1    3    3  502    0  0.14444107646E+04 -0.26907201534E+03 -0.36454414086E+03  0.15138152882E+04  0.46999998093E+01 0.  1.
       -5    1    3    3    0  502 -0.14444107646E+04  0.26907201534E+03  0.34832817809E+03  0.15099923231E+04  0.46999998093E+01 0. -1.
</event>
<event>
 5   0  0.1674806E-06  0.2994622E+04  0.7818609E-02  0.8245268E-01
       -2   -1    0    0    0  501  0.00000000000E+00  0.00000000000E+00  0.13182079559E+04  0.13182079559E+04  0.25500000920E-02 0. -1.
        2   -1    0    0  501    0  0.00000000000E+00  0.00000000000E+00 -0.17007482812E+04  0.17007482812E+04  0.25500000920E-02 0.  1.
    10030    2    1    2    0    0  0.00000000000E+00  0.00000000000E+00 -0.38254032530E+03  0.30189562371E+04  0.29946217893E+04 0.  0.
        2    1    3    3  502    0  0.14939224757E+04  0.14596931753E+02 -0.90849059885E+02  0.14967534819E+04  0.25500000920E-02 0. -1.
       -2    1    3    3    0  502 -0.14939224757E+04 -0.14596931753E+02 -0.29169126542E+03  0.15222027553E+04  0.25500000920E-02 0.  1.
</event>
<event>
 5   0  0.5916703E-07  0.3004525E+04  0.7818609E-02  0.8242440E-01
       -1   -1    0    0    0  501  0.00000000000E+00  0.00000000000E+00  0.98339014509E+03  0.98339014511E+03  0.50400001928E-02 0.  1.
        1   -1    0    0  501    0  0.00000000000E+00  0.00000000000E+00 -0.22949113909E+04  0.22949113909E+04  0.50400001928E-02 0. -1.
    10030    2    1    2    0    0  0.00000000000E+00  0.00000000000E+00 -0.13115212458E+04  0.32783015360E+04  0.30045254173E+04 0.  0.
        5    1    3    3  502    0  0.33948132578E+03 -0.12169987456E+04  0.23096431528E+03  0.12844065253E+04  0.46999998093E+01 0.  1.
       -5    1    3    3    0  502 -0.33948132578E+03  0.12169987456E+04 -0.15424855611E+04  0.19938950107E+04  0.46999998093E+01 0. -1.
</event>
<event>
 5   0  0.1723916E-06  0.3058205E+04  0.7818609E-02  0.8227303E-01
       -2   -1    0    0    0  501  0.00000000000E+00  0.00000000000E+00  0.99067738207E+03  0.99067738208E+03  0.25500000920E-02 0.  1.
        2   -1    0    0  501    0  0.00000000000E+00  0.00000000000E+00 -0.23601565366E+04  0.23601565366E+04  0.25500000920E-02 0. -1.
    10030    2    1    2    0    0  0.00000000000E+00  0.00000000000E+00 -0.13694791545E+04  0.33508339187E+04  0.30582045052E+04 0.  0.
        1    1    3    3  502    0 -0.89476835909E+03 -0.91843102048E+03 -0.15975378189E+04  0.20484757843E+04  0.50400001928E-02 0. -1.
       -1    1    3    3    0  502  0.89476835909E+03  0.91843102048E+03  0.22805866441E+03  0.13023581344E+04  0.50400001928E-02 0.  1.
</event>
<event>
 5   0  0.1625212E-06  0.3026510E+04  0.7818609E-02  0.8236201E-01
        2   -1    0    0  501    0  0.00000000000E+00  0.00000000000E+00  0.20112318065E+04  0.20112318065E+04  0.25500000920E-02 0.  1.
       -2   -1    0    0    0  501  0.00000000000E+00  0.00000000000E+00 -0.11385758841E+04  0.11385758841E+04  0.25500000920E-02 0. -1.
    10030    2    1    2    0    0  0.00000000000E+00  0.00000000000E+00  0.87265592244E+03  0.31498076906E+04  0.30265095620E+04 0.  0.
        4    1    3    3  502    0  0.82868799015E+03 -0.71375824685E+03 -0.65211020335E+03  0.12733514637E+04  0.12699999809E+01 0. -1.
       -4    1    3    3    0  502 -0.82868799015E+03  0.71375824685E+03  0.15247661258E+04  0.18764562268E+04  0.12699999809E+01 0.  1.
</event>
<event>
 5   0  0.5916703E-07  0.2993572E+04  0.7818609E-02  0.8245569E-01
        1   -1    0    0  501    0  0.00000000000E+00  0.00000000000E+00  0.19436294296E+04  0.19436294296E+04  0.50400001928E-02 0. -1.
       -1   -1    0    0    0  501  0.00000000000E+00  0.00000000000E+00 -0.11526729493E+04  0.11526729493E+04  0.50400001928E-02 0.  1.
    10030    2    1    2    0    0  0.00000000000E+00  0.00000000000E+00  0.79095648032E+03  0.30963023789E+04  0.29935724925E+04 0.  0.
        5    1    3    3  502    0 -0.12107569678E+04  0.61359930156E+03 -0.25697028428E+03  0.13814819416E+04  0.46999998093E+01 0.  1.
       -5    1    3    3    0  502  0.12107569678E+04 -0.61359930156E+03  0.10479267646E+04  0.17148204372E+04  0.46999998093E+01 0. -1.
</event>
<event>
 5   0  0.1625212E-06  0.3021477E+04  0.7818609E-02  0.8237625E-01
       -2   -1    0    0    0  501  0.00000000000E+00  0.00000000000E+00  0.12749096870E+04  0.12749096870E+04  0.25500000920E-02 0.  1.
        2   -1    0    0  501    0  0.00000000000E+00  0.00000000000E+00 -0.17901896945E+04  0.17901896945E+04  0.25500000920E-02 0. -1.
    10030    2    1    2    0    0  0.00000000000E+00  0.00000000000E+00 -0.51528000754E+03  0.30650993815E+04  0.30214765815E+04 0.  0.
        4    1    3    3  502    0 -0.10161226059E+04  0.10548184172E+04 -0.63336764310E+03  0.15957140182E+04  0.12699999809E+01 0. -1.
       -4    1    3    3    0  502  0.10161226059E+04 -0.10548184172E+04  0.11808763556E+03  0.14693853634E+04  0.12699999809E+01 0.  1.
</event>
<event>
 5   0  0.1560174E-06  0.3149677E+04  0.7818609E-02  0.8202235E-01
       -2   -1    0    0    0  501  0.00000000000E+00  0.00000000000E+00  0.90081528946E+03  0.90081528946E+03  0.25500000920E-02 0.  1.
        2   -1    0    0  501    0  0.00000000000E+00  0.00000000000E+00 -0.27531906569E+04  0.27531906569E+04  0.25500000920E-02 0. -1.
    10030    2    1    2    0    0  0.00000000000E+00  0.00000000000E+00 -0.18523753675E+04  0.36540059464E+04  0.31496769603E+04 0.  0.
        5    1    3    3  502    0 -0.16582034706E+03  0.54220646751E+03  0.77828607408E+03  0.96293070572E+03  0.46999998093E+01 0.  1.
       -5    1    3    3    0  502  0.16582034706E+03 -0.54220646751E+03 -0.26306614415E+04  0.26910752407E+04  0.46999998093E+01 0. -1.
</event>
<event>
 5   0  0.1723916E-06  0.2967549E+04  0.7818609E-02  0.8253059E-01
        2   -1    0    0  501    0  0.00000000000E+00  0.00000000000E+00  0.14323477104E+04  0.14323477104E+04  0.25500000920E-02 0. -1.
       -2   -1    0    0    0  501  0.00000000000E+00  0.00000000000E+00 -0.15370473916E+04  0.15370473916E+04  0.25500000920E-02 0.  1.
    10030    2    1    2    0    0  0.00000000000E+00  0.00000000000E+00 -0.10469968126E+03  0.29693951020E+04  0.29675486935E+04 0.  0.
        1    1    3    3  502    0  0.88708331086E+03  0.72979785141E+03  0.88741746579E+03  0.14515617324E+04  0.50400001928E-02 0.  1.
       -1    1    3    3    0  502 -0.88708331086E+03 -0.72979785141E+03 -0.99211714705E+03  0.15178333696E+04  0.50400001928E-02 0. -1.
</event>
<event>
 5   0  0.5874741E-07  0.3001417E+04  0.7818609E-02  0.8243326E-01
        1   -1    0    0  501    0  0.00000000000E+00  0.00000000000E+00  0.15320616931E+04  0.15320616931E+04  0.50400001928E-02 0. -1.
       -1   -1    0    0    0  501  0.00000000000E+00  0.00000000000E+00 -0.14699964888E+04  0.14699964888E+04  0.50400001928E-02 0.  1.
    10030    2    1    2    0    0  0.00000000000E+00  0.00000000000E+00  0.62065204328E+02  0.30020581819E+04  0.30014165386E+04 0.  0.
        4    1    3    3  502    0 -0.39348321751E+03 -0.45399217372E+02 -0.14167690071E+04  0.14710969253E+04  0.12699999809E+01 0.  1.
       -4    1    3    3    0  502  0.39348321751E+03  0.45399217372E+02  0.14788342114E+04  0.15309612566E+04  0.12699999809E+01 0. -1.
</event>
<event>
 5   0  0.1723916E-06  0.2994349E+04  0.7818609E-02  0.8245346E-01
        2   -1    0    0  501    0  0.00000000000E+00  0.00000000000E+00  0.14250149478E+04  0.14250149478E+04  0.25500000920E-02 0.  1.
       -2   -1    0    0    0  501  0.00000000000E+00  0.00000000000E+00 -0.15729881476E+04  0.15729881476E+04  0.25500000920E-02 0. -1.
    10030    2    1    2    0    0  0.00000000000E+00  0.00000000000E+00 -0.14797319986E+03  0.29980030954E+04  0.29943490932E+04 0.  0.
        1    1    3    3  502    0 -0.40468745747E+03  0.87788292691E+03 -0.12186582815E+04  0.15554993985E+04  0.50400001928E-02 0. -1.
       -1    1    3    3    0  502  0.40468745747E+03 -0.87788292691E+03  0.10706850816E+04  0.14425036969E+04  0.50400001928E-02 0.  1.
</event>
<event>
 5   0  0.5931588E-07  0.2933736E+04  0.7818609E-02  0.8262910E-01
       -1   -1    0    0    0  501  0.00000000000E+00  0.00000000000E+00  0.14263233108E+04  0.14263233108E+04  0.50400001928E-02 0. -1.
        1   -1    0    0  501    0  0.00000000000E+00  0.00000000000E+00 -0.15085654994E+04  0.15085654994E+04  0.50400001928E-02 0.  1.
    10030    2    1    2    0    0  0.00000000000E+00  0.00000000000E+00 -0.82242188608E+02  0.29348888103E+04  0.29337362784E+04 0.  0.
        2    1    3    3  502    0  0.17967710989E+03  0.12033592050E+04  0.77855718594E+03  0.14444751753E+04  0.25500000920E-02 0. -1.
       -2    1    3    3    0  502 -0.17967710989E+03 -0.12033592050E+04 -0.86079937455E+03  0.14904136350E+04  0.25500000920E-02 0.  1.
</event>
<event>
 5   0  0.1635086E-06  0.3002558E+04  0.7818609E-02  0.8243001E-01
       -2   -1    0    0    0  501  0.00000000000E+00  0.00000000000E+00  0.15949510040E+04  0.15949510040E+04  0.25500000920E-02 0. -1.
        2   -1    0    0  501    0  0.00000000000E+00  0.00000000000E+00 -0.14131088043E+04  0.14131088043E+04  0.25500000920E-02 0.  1.
    10030    2    1    2    0    0  0.00000000000E+00  0.00000000000E+00  0.18184219969E+03  0.30080598083E+04  0.30025584465E+04 0.  0.
        3    1    3    3  502    0  0.57798238765E+03 -0.97890798519E+03 -0.89144413891E+03  0.14446442977E+04  0.10100000352E+00 0.  1.
       -3    1    3    3    0  502 -0.57798238765E+03  0.97890798519E+03  0.10732863386E+04  0.15634155106E+04  0.10100000352E+00 0. -1.
</event>
<event>
 5   0  0.5874741E-07  0.2994025E+04  0.7818609E-02  0.8245439E-01
        1   -1    0    0  501    0  0.00000000000E+00  0.00000000000E+00  0.71306326883E+03  0.71306326885E+03  0.50400001928E-02 0.  1.
       -1   -1    0    0    0  501  0.00000000000E+00  0.00000000000E+00 -0.31428444012E+04  0.31428444012E+04  0.50400001928E-02 0. -1.
    10030    2    1    2    0    0  0.00000000000E+00  0.00000000000E+00 -0.24297811324E+04  0.38559076701E+04  0.29940253187E+04 0.  0.
        4    1    3    3  502    0 -0.14586756838E+02  0.41355905774E+03  0.63793910977E+03  0.76040238584E+03  0.12699999809E+01 0.  1.
       -4    1    3    3    0  502  0.14586756838E+02 -0.41355905774E+03 -0.30677202422E+04  0.30955052842E+04  0.12699999809E+01 0. -1.
</event>
<event>
 5   0  0.5874741E-07  0.2998322E+04  0.7818609E-02  0.8244210E-01
        1   -1    0    0  501    0  0.00000000000E+00  0.00000000000E+00  0.17996228437E+04  0.17996228437E+04  0.50400001928E-02 0.  1.
       -1   -1    0    0    0  501  0.00000000000E+00  0.00000000000E+00 -0.12488635383E+04  0.12488635383E+04  0.50400001928E-02 0. -1.
    10030    2    1    2    0    0  0.00000000000E+00  0.00000000000E+00  0.55075930540E+03  0.30484863819E+04  0.29983217653E+04 0.  0.
        4    1    3    3  502    0 -0.13997314763E+03  0.56489329374E+03 -0.11293233430E+04  0.12704604446E+04  0.12699999809E+01 0. -1.
       -4    1    3    3    0  502  0.13997314763E+03 -0.56489329374E+03  0.16800826484E+04  0.17780259373E+04  0.12699999809E+01 0.  1.
</event>
<event>
 5   0  0.1723916E-06  0.2974658E+04  0.7818609E-02  0.8251005E-01
       -2   -1    0    0    0  501  0.00000000000E+00  0.00000000000E+00  0.95094900491E+03  0.95094900491E+03  0.25500000920E-02 0.  1.
        2   -1    0    0  501    0  0.00000000000E+00  0.00000000000E+00 -0.23262530256E+04  0.23262530256E+04  0.25500000920E-02 0. -1.
    10030    2    1    2    0    0  0.00000000000E+00  0.00000000000E+00 -0.13753040207E+04  0.32772020305E+04  0.29746582996E+04 0.  0.
        1    1    3    3  502    0 -0.23264459583E+03  0.12987292886E+04 -0.14440095904E+04  0.19560125179E+04  0.50400001928E-02 0. -1.
       -1    1    3    3    0  502  0.23264459583E+03 -0.12987292886E+04  0.68705569700E+02  0.13211895126E+04  0.50400001928E-02 0.  1.
</event>
<event>
 5   0  0.1625212E-06  0.2992344E+04  0.7818609E-02  0.8245920E-01
        2   -1    0    0  501    0  0.00000000000E+00  0.00000000000E+00  0.24152982465E+04  0.24152982465E+04  0.25500000920E-02 0.  1.
       -2   -1    0    0    0  501  0.00000000000E+00  0.00000000000E+00 -0.92681360804E+03  0.92681360804E+03  0.25500000920E-02 0. -1.
    10030    2    1    2    0    0  0.00000000000E+00  0.00000000000E+00  0.14884846385E+04  0.33421118546E+04  0.29923444202E+04 0.  0.
        4    1    3    3  502    0 -0.10873451823E+04 -0.40635288909E+03  0.17985553294E+04  0.21406179252E+04  0.12699999809E+01 0.  1.
       -4    1    3    3    0  502  0.10873451823E+04  0.40635288909E+03 -0.31007069096E+03  0.12014939293E+04  0.12699999809E+01 0. -1.
</event>
<event>
 5   0  0.5916703E-07  0.2995107E+04  0.7818609E-02  0.8245130E-01
        1   -1    0    0  501    0  0.00000000000E+00  0.00000000000E+00  0.13477442397E+04  0.13477442397E+04  0.50400001928E-02 0. -1.
       -1   -1    0    0    0  501  0.00000000000E+00  0.00000000000E+00 -0.16640147342E+04  0.16640147342E+04  0.50400001928E-02 0.  1.
    10030    2    1    2    0    0  0.00000000000E+00  0.00000000000E+00 -0.31627049458E+03  0.30117589739E+04  0.29951068581E+04 0.  0.
        5    1    3    3  502    0  0.57141958174E+03 -0.62241042027E+03 -0.14014273060E+04  0.16364399328E+04  0.46999998093E+01 0.  1.
       -5    1    3    3    0  502 -0.57141958174E+03  0.62241042027E+03  0.10851568114E+04  0.13753190412E+04  0.46999998093E+01 0. -1.
</event>
<event>
 5   0  0.1723916E-06  0.2990676E+04  0.7818609E-02  0.8246398E-01
       -2   -1    0    0    0  501  0.00000000000E+00  0.00000000000E+00  0.14898822847E+04  0.14898822847E+04  0.25500000920E-02 0. -1.
        2   -1    0    0  501    0  0.00000000000E+00  0.00000000000E+00 -0.15008137799E+04  0.15008137799E+04  0.25500000920E-02 0.  1.
    10030    2    1    2    0    0  0.00000000000E+00  0.00000000000E+00 -0.10931495223E+02  0.29906960645E+04  0.29906760862E+04 0.  0.
        1    1    3    3  502    0 -0.45142224142E+02 -0.46515707077E+03  0.14149756974E+04  0.14901560808E+04  0.50400001928E-02 0. -1.
       -1    1    3    3    0  502  0.45142224142E+02  0.46515707077E+03 -0.14259071926E+04  0.15005399838E+04  0.50400001928E-02 0.  1.
</event>
<event>
 5   0  0.1635086E-06  0.2986151E+04  0.7818609E-02  0.8247697E-01
       -2   -1    0    0    0  501  0.00000000000E+00  0.00000000000E+00  0.13252690643E+04  0.13252690643E+04  0.25500000920E-02 0. -1.
        2   -1    0    0  501    0  0.00000000000E+00  0.00000000000E+00 -0.16821300084E+04  0.16821300084E+04  0.25500000920E-02 0.  1.
    10030    2    1    2    0    0  0.00000000000E+00  0.00000000000E+00 -0.35686094411E+03  0.30073990727E+04  0.29861512770E+04 0.  0.
        3    1    3    3  502    0  0.12994997164E+04  0.63858222173E+03  0.18856339823E+03  0.14601516813E+04  0.10100000352E+00 0.  1.
       -3    1    3    3    0  502 -0.12994997164E+04 -0.63858222173E+03 -0.54542434234E+03  0.15472473915E+04  0.10100000352E+00 0. -1.
</event>
<event>
 5   0  0.6291798E-07  0.2993100E+04  0.7818609E-02  0.8245704E-01
       -1   -1    0    0    0  501  0.00000000000E+00  0.00000000000E+00  0.14949265989E+04  0.14949265989E+04  0.50400001928E-02 0.  1.
        1   -1    0    0  501    0  0.00000000000E+00  0.00000000000E+00 -0.14981753773E+04  0.14981753773E+04  0.50400001928E-02 0. -1.
    10030    2    1    2    0    0  0.00000000000E+00  0.00000000000E+00 -0.32487783958E+01  0.29931019763E+04  0.29931002131E+04 0.  0.
        1    1    3    3  502    0 -0.71302375294E+02  0.10664755117E+04 -0.10491020588E+04  0.14976879433E+04  0.50400001928E-02 0. -1.
       -1    1    3    3    0  502  0.71302375294E+02 -0.10664755117E+04  0.10458532804E+04  0.14954140330E+04  0.50400001928E-02 0.  1.
</event>
<event>
 5   0  0.5874741E-07  0.3004789E+04  0.7818609E-02  0.8242365E-01
        1   -1    0    0  501    0  0.00000000000E+00  0.00000000000E+00  0.19154305792E+04  0.19154305792E+04  0.50400001928E-02 0. -1.
       -1   -1    0    0    0  501  0.00000000000E+00  0.00000000000E+00 -0.11784240552E+04  0.11784240552E+04  0.50400001928E-02 0.  1.
    10030    2    1    2    0    0  0.00000000000E+00  0.00000000000E+00  0.73700652399E+03  0.30938546344E+04  0.30047891577E+04 0.  0.
        4    1    3    3  502    0  0.69644868314E+03 -0.12164595401E+02  0.17391251118E+04  0.18734317476E+04  0.12699999809E+01 0. -1.
       -4    1    3    3    0  502 -0.69644868314E+03  0.12164595401E+02 -0.10021185878E+04  0.12204228868E+04  0.12699999809E+01 0.  1.
</event>
<event>
 5   0  0.5887179E-07  0.3001776E+04  0.7818609E-02  0.8243224E-01
       -1   -1    0    0    0  501  0.00000000000E+00  0.00000000000E+00  0.81416375676E+03  0.81416375677E+03  0.50400001928E-02 0.  1.
        1   -1    0    0  501    0  0.00000000000E+00  0.00000000000E+00 -0.27668444576E+04  0.27668444576E+04  0.50400001928E-02 0. -1.
    10030    2    1    2    0    0  0.00000000000E+00  0.00000000000E+00 -0.19526807009E+04  0.35810082144E+04  0.30017757931E+04 0.  0.
        3    1    3    3  502    0  0.59645593389E+03 -0.31840637257E+03 -0.25748764633E+04  0.26621666197E+04  0.10100000352E+00 0. -1.
       -3    1    3    3    0  502 -0.59645593389E+03  0.31840637257E+03  0.62219576248E+03  0.91884159474E+03  0.10100000352E+00 0.  1.
</event>
<event>
 5   0  0.5916703E-07  0.2944609E+04  0.7818609E-02  0.8259727E-01
       -1   -1    0    0    0  501  0.00000000000E+00  0.00000000000E+00  0.10714658719E+04  0.10714658720E+04  0.50400001928E-02 0.  1.
        1   -1    0    0  501    0  0.00000000000E+00  0.00000000000E+00 -0.20230983204E+04  0.20230983205E+04  0.50400001928E-02 0. -1.
    10030    2    1    2    0    0  0.00000000000E+00  0.00000000000E+00 -0.95163244850E+03  0.30945641924E+04  0.29446091802E+04 0.  0.
        5    1    3    3  502    0 -0.12050967295E+04 -0.83231348327E+03 -0.63399655122E+03  0.15959253049E+04  0.46999998093E+01 0. -1.
       -5    1    3    3    0  502  0.12050967295E+04  0.83231348327E+03 -0.31763589727E+03  0.14986388875E+04  0.46999998093E+01 0.  1.
</event>
<event>
 5   0  0.5887179E-07  0.2996489E+04  0.7818609E-02  0.8244734E-01
        1   -1    0    0  501    0  0.00000000000E+00  0.00000000000E+00  0.11714852059E+04  0.11714852059E+04  0.50400001928E-02 0. -1.
       -1   -1    0    0    0  501  0.00000000000E+00  0.00000000000E+00 -0.19161453582E+04  0.19161453582E+04  0.50400001928E-02 0.  1.
    10030    2    1    2    0    0  0.00000000000E+00  0.00000000000E+00 -0.74466015239E+03  0.30876305641E+04  0.29964885713E+04 0.  0.
        3    1    3    3  502    0 -0.59427604451E+03  0.57884899035E+03 -0.16578774088E+04  0.18538575144E+04  0.10100000352E+00 0.  1.
       -3    1    3    3    0  502  0.59427604451E+03 -0.57884899035E+03  0.91321725642E+03  0.12337730498E+04  0.10100000352E+00 0. -1.
</event>
<event>
 5   0  0.1625212E-06  0.2973687E+04  0.7818609E-02  0.8251285E-01
        2   -1    0    0  501    0  0.00000000000E+00  0.00000000000E+00  0.16792548266E+04  0.16792548266E+04  0.25500000920E-02 0. -1.
       -2   -1    0    0    0  501  0.00000000000E+00  0.00000000000E+00 -0.13164786092E+04  0.13164786092E+04  0.25500000920E-02 0.  1.
    10030    2    1    2    0    0  0.00000000000E+00  0.00000000000E+00  0.36277621736E+03  0.29957334358E+04  0.29736866403E+04 0.  0.
        4    1    3    3  502    0  0.34276155206E+03 -0.61060747233E+03 -0.11399667337E+04  0.13378537789E+04  0.12699999809E+01 0.  1.
       -4    1    3    3    0  502 -0.34276155206E+03  0.61060747233E+03  0.15027429511E+04  0.16578796569E+04  0.12699999809E+01 0. -1.
</event>
<event>
 5   0  0.1723916E-06  0.2991175E+04  0.7818609E-02  0.8246256E-01
       -2   -1    0    0    0  501  0.00000000000E+00  0.00000000000E+00  0.13037675860E+04  0.13037675860E+04  0.25500000920E-02 0. -1.
        2   -1    0    0  501    0  0.00000000000E+00  0.00000000000E+00 -0.17156288859E+04  0.17156288859E+04  0.25500000920E-02 0.  1.
    10030    2    1    2    0    0  0.00000000000E+00  0.00000000000E+00 -0.41186129986E+03  0.30193964719E+04  0.29911745727E+04 0.  0.
        1    1    3    3  502    0  0.79649955151E+03 -0.78755409437E+03 -0.12063049023E+04  0.16461544595E+04  0.50400001928E-02 0.  1.
       -1    1    3    3    0  502 -0.79649955151E+03  0.78755409437E+03  0.79444360245E+03  0.13732420124E+04  0.50400001928E-02 0. -1.
</event>
<event>
 5   0  0.5931588E-07  0.2986396E+04  0.7818609E-02  0.8247626E-01
       -1   -1    0    0    0  501  0.00000000000E+00  0.00000000000E+00  0.18100806880E+04  0.18100806880E+04  0.50400001928E-02 0.  1.
        1   -1    0    0  501    0  0.00000000000E+00  0.00000000000E+00 -0.12317903719E+04  0.12317903720E+04  0.50400001928E-02 0. -1.
    10030    2    1    2    0    0  0.00000000000E+00  0.00000000000E+00  0.57829031603E+03  0.30418710599E+04  0.29863957969E+04 0.  0.
        2    1    3    3  502    0 -0.72766804285E+02  0.30242508823E+02 -0.12296709687E+04  0.12321932918E+04  0.25500000920E-02 0. -1.
       -2    1    3    3    0  502  0.72766804285E+02 -0.30242508823E+02  0.18079612848E+04  0.18096777681E+04  0.25500000920E-02 0.  1.
</event>
<event>
 5   0  0.1560174E-06  0.3011709E+04  0.7818609E-02  0.8240395E-01
       -2   -1    0    0    0  501  0.00000000000E+00  0.00000000000E+00  0.23191568032E+04  0.23191568032E+04  0.25500000920E-02 0.  1.
        2   -1    0    0  501    0  0.00000000000E+00  0.00000000000E+00 -0.97776814036E+03  0.97776814036E+03  0.25500000920E-02 0. -1.
    10030    2    1    2    0    0  0.00000000000E+00  0.00000000000E+00  0.13413886628E+04  0.32969249435E+04  0.30117089067E+04 0.  0.
        5    1    3    3  502    0  0.66017779211E+02 -0.82192186062E+03  0.20500461270E+04  0.22096662881E+04  0.46999998093E+01 0.  1.
       -5    1    3    3    0  502 -0.66017779211E+02  0.82192186062E+03 -0.70865746420E+03  0.10872586554E+04  0.46999998093E+01 0. -1.
</event>
<event>
 5   0  0.5931588E-07  0.3001296E+04  0.7818609E-02  0.8243361E-01
       -1   -1    0    0    0  501  0.00000000000E+00  0.00000000000E+00  0.18122161767E+04  0.18122161767E+04  0.50400001928E-02 0.  1.
        1   -1    0    0  501    0  0.00000000000E+00  0.00000000000E+00 -0.12426469570E+04  0.12426469570E+04  0.50400001928E-02 0. -1.
    10030    2    1    2    0    0  0.00000000000E+00  0.00000000000E+00  0.56956921973E+03  0.30548631337E+04  0.30012963315E+04 0.  0.
        2    1    3    3  502    0  0.12633787443E+04 -0.22428812213E+03 -0.50725142350E+03  0.13797590441E+04  0.25500000920E-02 0. -1.
       -2    1    3    3    0  502 -0.12633787443E+04  0.22428812213E+03  0.10768206432E+04  0.16751040896E+04  0.25500000920E-02 0.  1.
</event>
<event>
 5   0  0.1674806E-06  0.2997284E+04  0.7818609E-02  0.8244507E-01
        2   -1    0    0  501    0  0.00000000000E+00  0.00000000000E+00  0.20162844125E+04  0.20162844125E+04  0.25500000920E-02 0.  1.
       -2   -1    0    0    0  501  0.00000000000E+00  0.00000000000E+00 -0.11138940680E+04  0.11138940680E+04  0.25500000920E-02 0. -1.
    10030    2    1    2    0    0  0.00000000000E+00  0.00000000000E+00  0.90239034453E+03  0.31301784805E+04  0.29972836012E+04 0.  0.
        2    1    3    3  502    0 -0.54144979560E+03  0.27849556583E+03 -0.97890023844E+03  0.11528110592E+04  0.25500000920E-02 0. -1.
       -2    1    3    3    0  502  0.54144979560E+03 -0.27849556583E+03  0.18812905830E+04  0.19773674213E+04  0.25500000920E-02 0.  1.
</event>
<event>
 5   0  0.1635086E-06  0.2993020E+04  0.7818609E-02  0.8245727E-01
        2   -1    0    0  501    0  0.00000000000E+00  0.00000000000E+00  0.25794063184E+04  0.25794063184E+04  0.25500000920E-02 0. -1.
       -2   -1    0    0    0  501  0.00000000000E+00  0.00000000000E+00 -0.86823925902E+03  0.86823925903E+03  0.25500000920E-02 0.  1.
    10030    2    1    2    0    0  0.00000000000E+00  0.00000000000E+00  0.17111670594E+04  0.34476455774E+04  0.29930197665E+04 0.  0.
        3    1    3    3  502    0  0.78359593768E+03 -0.10226997634E+04 -0.21374629304E+02  0.12885628757E+04  0.10100000352E+00 0. -1.
       -3    1    3    3    0  502 -0.78359593768E+03  0.10226997634E+04  0.17325416887E+04  0.21590827017E+04  0.10100000352E+00 0.  1.
</event>
<event>
 5   0  0.1723916E-06  0.2961334E+04  0.7818609E-02  0.8254859E-01
       -2   -1    0    0    0  501  0.00000000000E+00  0.00000000000E+00  0.15222961350E+04  0.15222961350E+04  0.25500000920E-02 0.  1.
        2   -1    0    0  501    0  0.00000000000E+00  0.00000000000E+00 -0.14401758619E+04  0.14401758619E+04  0.25500000920E-02 0. -1.
    10030    2    1    2    0    0  0.00000000000E+00  0.00000000000E+00  0.82120273139E+02  0.29624719968E+04  0.29613335835E+04 0.  0.
        1    1    3    3  502    0 -0.14752439350E+04 -0.29631253029E+02 -0.82078487303E+02  0.14778225729E+04  0.50400001928E-02 0.  1.
       -1    1    3    3    0  502  0.14752439350E+04  0.29631253029E+02  0.16419876044E+03  0.14846494239E+04  0.50400001928E-02 0. -1.
</event>
<event>
 5   0  0.1625212E-06  0.2986992E+04  0.7818609E-02  0.8247455E-01
       -2   -1    0    0    0  501  0.00000000000E+00  0.00000000000E+00  0.12579735064E+04  0.12579735064E+04  0.25500000920E-02 0. -1.
        2   -1    0    0  501    0  0.00000000000E+00  0.00000000000E+00 -0.17731143704E+04  0.17731143704E+04  0.25500000920E-02 0.  1.
    10030    2    1    2    0    0  0.00000000000E+00  0.00000000000E+00 -0.51514086407E+03  0.30310878768E+04  0.29869924015E+04 0.  0.
        4    1    3    3  502    0 -0.24714104184E+03 -0.52010187371E+03 -0.16559354828E+04  0.17531995293E+04  0.12699999809E+01 0.  1.
       -4    1    3    3    0  502  0.24714104184E+03  0.52010187371E+03  0.11407946187E+04  0.12778883475E+04  0.12699999809E+01 0. -1.
</event>
<event>
 5   0  0.5916703E-07  0.2798008E+04  0.7818609E-02  0.8303887E-01
        1   -1    0    0  501    0  0.00000000000E+00  0.00000000000E+00  0.18563974517E+04  0.18563974517E+04  0.50400001928E-02 0.  1.
       -1   -1    0    0    0  501  0.00000000000E+00  0.00000000000E+00 -0.10543067414E+04  0.10543067414E+04  0.50400001928E-02 0. -1.
    10030    2    1    2    0    0  0.00000000000E+00  0.00000000000E+00  0.80209071034E+03  0.29107041931E+04  0.27980081115E+04 0.  0.
        5    1    3    3  502    0 -0.93465911811E+03  0.53545526742E+03  0.13296874332E+04  0.17112541514E+04  0.46999998093E+01 0.  1.
       -5    1    3    3    0  502  0.93465911811E+03 -0.53545526742E+03 -0.52759672291E+03  0.11994500417E+04  0.46999998093E+01 0. -1.
</event>
<event>
 5   0  0.5874741E-07  0.2964194E+04  0.7818609E-02  0.8254030E-01
        1   -1    0    0  501    0  0.00000000000E+00  0.00000000000E+00  0.18048424388E+04  0.18048424388E+04  0.50400001928E-02 0. -1.
       -1   -1    0    0    0  501  0.00000000000E+00  0.00000000000E+00 -0.12170654097E+04  0.12170654097E+04  0.50400001928E-02 0.  1.
    10030    2    1    2    0    0  0.00000000000E+00  0.00000000000E+00  0.58777702910E+03  0.30219078485E+04  0.29641938548E+04 0.  0.
        4    1    3    3  502    0 -0.56611795060E+03 -0.10394077298E+04 -0.61552919846E+03  0.13340673783E+04  0.12699999809E+01 0.  1.
       -4    1    3    3    0  502  0.56611795060E+03  0.10394077298E+04  0.12033062276E+04  0.16878404702E+04  0.12699999809E+01 0. -1.
</event>
<event>
 5   0  0.5916703E-07  0.3006927E+04  0.7818609E-02  0.8241756E-01
        1   -1    0    0  501    0  0.00000000000E+00  0.00000000000E+00  0.21331306647E+04  0.21331306647E+04  0.50400001928E-02 0.  1.
       -1   -1    0    0    0  501  0.00000000000E+00  0.00000000000E+00 -0.10596643931E+04  0.10596643931E+04  0.50400001928E-02 0. -1.
    10030    2    1    2    0    0  0.00000000000E+00  0.00000000000E+00  0.10734662716E+04  0.31927950577E+04  0.30069270767E+04 0.  0.
        5    1    3    3  502    0 -0.65188608735E+03 -0.91603625878E+03  0.15965816212E+04  0.19527347135E+04  0.46999998093E+01 0.  1.
       -5    1    3    3    0  502  0.65188608735E+03  0.91603625878E+03 -0.52311534959E+03  0.12400603442E+04  0.46999998093E+01 0. -1.
</event>
<event>
 5   0  0.1635086E-06  0.3008677E+04  0.7818609E-02  0.8241257E-01
        2   -1    0    0  501    0  0.00000000000E+00  0.00000000000E+00  0.13200173397E+04  0.13200173397E+04  0.25500000920E-02 0. -1.
       -2   -1    0    0    0  501  0.00000000000E+00  0.00000000000E+00 -0.17143975532E+04  0.17143975532E+04  0.25500000920E-02 0.  1.
    10030    2    1    2    0    0  0.00000000000E+00  0.00000000000E+00 -0.39438021350E+03  0.30344148929E+04  0.30086771161E+04 0.  0.
        3    1    3    3  502    0 -0.37808754098E+03  0.10459116362E+04  0.82446772665E+03  0.13844234836E+04  0.10100000352E+00 0. -1.
       -3    1    3    3    0  502  0.37808754098E+03 -0.10459116362E+04 -0.12188479401E+04  0.16499914093E+04  0.10100000352E+00 0.  1.
</event>
<event>
 5   0  0.1674806E-06  0.3034506E+04  0.7818609E-02  0.8233945E-01
        2   -1    0    0  501    0  0.00000000000E+00  0.00000000000E+00  0.25691934156E+04  0.25691934156E+04  0.25500000920E-02 0. -1.
       -2   -1    0    0    0  501  0.00000000000E+00  0.00000000000E+00 -0.89602329966E+03  0.89602329967E+03  0.25500000920E-02 0.  1.
    10030    2    1    2    0    0  0.00000000000E+00  0.00000000000E+00  0.16731701159E+04  0.34652167153E+04  0.30345063267E+04 0.  0.
        2    1    3    3  502    0  0.91242709454E+03  0.60295841434E+03  0.20375076913E+04  0.23124704634E+04  0.25500000920E-02 0. -1.
       -2    1    3    3    0  502 -0.91242709454E+03 -0.60295841434E+03 -0.36433757534E+03  0.11527462518E+04  0.25500000920E-02 0.  1.
</event>
<event>
 5   0  0.1560174E-06  0.3024726E+04  0.7818609E-02  0.8236705E-01
        2   -1    0    0  501    0  0.00000000000E+00  0.00000000000E+00  0.10142634572E+04  0.10142634572E+04  0.25500000920E-02 0. -1.
       -2   -1    0    0    0  501  0.00000000000E+00  0.00000000000E+00 -0.22550765319E+04  0.22550765319E+04  0.25500000920E-02 0.  1.
    10030    2    1    2    0    0  0.00000000000E+00  0.00000000000E+00 -0.12408130746E+04  0.32693399891E+04  0.30247259178E+04 0.  0.
        5    1    3    3  502    0 -0.99761691246E+02 -0.13425053136E+04 -0.13653040158E+04  0.19173810413E+04  0.46999998093E+01 0.  1.
       -5    1    3    3    0  502  0.99761691246E+02  0.13425053136E+04  0.12449094114E+03  0.13519589478E+04  0.46999998093E+01 0. -1.
</event>
<event>
 5   0  0.5874741E-07  0.2990212E+04  0.7818609E-02  0.8246531E-01
        1   -1    0    0  501    0  0.00000000000E+00  0.00000000000E+00  0.15818821693E+04  0.15818821693E+04  0.50400001928E-02 0.  1.
       -1   -1    0    0    0  501  0.00000000000E+00  0.00000000000E+00 -0.14130899831E+04  0.14130899831E+04  0.50400001928E-02 0. -1.
    10030    2    1    2    0    0  0.00000000000E+00  0.00000000000E+00  0.16879218622E+03  0.29949721524E+04  0.29902119309E+04 0.  0.
        4    1    3    3  502    0 -0.20989758811E+03 -0.93193767069E+03 -0.10675545618E+04  0.14325638467E+04  0.12699999809E+01 0. -1.
       -4    1    3    3    0  502  0.20989758811E+03  0.93193767069E+03  0.12363467480E+04  0.15624083057E+04  0.12699999809E+01 0.  1.
</event>
<event>
 5   0  0.6291798E-07  0.2999717E+04  0.7818609E-02  0.8243812E-01
       -1   -1    0    0    0  501  0.00000000000E+00  0.00000000000E+00  0.12967295891E+04  0.12967295892E+04  0.50400001928E-02 0. -1.
        1   -1    0    0  501    0  0.00000000000E+00  0.00000000000E+00 -0.17348072038E+04  0.17348072039E+04  0.50400001928E-02 0.  1.
    10030    2    1    2    0    0  0.00000000000E+00  0.00000000000E+00 -0.43807761470E+03  0.30315367930E+04  0.29997172085E+04 0.  0.
        1    1    3    3  502    0 -0.10607794553E+04  0.85727533275E+03  0.41160116907E+03  0.14246366454E+04  0.50400001928E-02 0. -1.
       -1    1    3    3    0  502  0.10607794553E+04 -0.85727533275E+03 -0.84967878377E+03  0.16069001476E+04  0.50400001928E-02 0.  1.
</event>
<event>
 5   0  0.1674806E-06  0.2983699E+04  0.7818609E-02  0.8248401E-01
       -2   -1    0    0    0  501  0.00000000000E+00  0.00000000000E+00  0.15064159554E+04  0.15064159554E+04  0.25500000920E-02 0.  1.
        2   -1    0    0  501    0  0.00000000000E+00  0.00000000000E+00 -0.14774238515E+04  0.14774238515E+04  0.25500000920E-02 0. -1.
    10030    2    1    2    0    0  0.00000000000E+00  0.00000000000E+00  0.28992103846E+02  0.29838398069E+04  0.29836989545E+04 0.  0.
        2    1    3    3  502    0  0.32850593168E+03 -0.27565324750E+03  0.14434490865E+04  0.15058041457E+04  0.25500000920E-02 0.  1.
       -2    1    3    3    0  502 -0.32850593168E+03  0.27565324750E+03 -0.14144569826E+04  0.14780356612E+04  0.25500000920E-02 0. -1.
</event>
<event>
 5   0  0.5431625E-07  0.3011356E+04  0.7818609E-02  0.8240495E-01
       -3   -1    0    0    0  501  0.00000000000E+00  0.00000000000E+00  0.20278816056E+04  0.20278816082E+04  0.10100000352E+00 0.  1.
        3   -1    0    0  501    0  0.00000000000E+00  0.00000000000E+00 -0.11179483904E+04  0.11179483950E+04  0.10100000352E+00 0. -1.
    10030    2    1    2    0    0  0.00000000000E+00  0.00000000000E+00  0.90993321522E+03  0.31458300031E+04  0.30113564971E+04 0.  0.
        5    1    3    3  502    0 -0.13659757529E+04 -0.32992277833E+01 -0.20667585108E+03  0.13815345236E+04  0.46999998093E+01 0.  1.
       -5    1    3    3    0  502  0.13659757529E+04  0.32992277833E+01  0.11166090663E+04  0.17642954796E+04  0.46999998093E+01 0. -1.
</event>
<event>
 5   0  0.5874741E-07  0.2985840E+04  0.7818609E-02  0.8247786E-01
       -1   -1    0    0    0  501  0.00000000000E+00  0.00000000000E+00  0.13243149638E+04  0.13243149638E+04  0.50400001928E-02 0. -1.
        1   -1    0    0  501    0  0.00000000000E+00  0.00000000000E+00 -0.16829909459E+04  0.16829909459E+04  0.50400001928E-02 0.  1.
    10030    2    1    2    0    0  0.00000000000E+00  0.00000000000E+00 -0.35867598206E+03  0.30073059097E+04  0.29858399780E+04 0.  0.
        4    1    3    3  502    0 -0.77014793808E+03  0.11781764091E+04  0.32181430074E+03  0.14438814198E+04  0.12699999809E+01 0. -1.
       -4    1    3    3    0  502  0.77014793808E+03 -0.11781764091E+04 -0.68049028281E+03  0.15634244898E+04  0.12699999809E+01 0.  1.
</event>
<event>
 5   0  0.1625212E-06  0.2976402E+04  0.7818609E-02  0.8250502E-01
        2   -1    0    0  501    0  0.00000000000E+00  0.00000000000E+00  0.11898697744E+04  0.11898697744E+04  0.25500000920E-02 0.  1.
       -2   -1    0    0    0  501  0.00000000000E+00  0.00000000000E+00 -0.18613320172E+04  0.18613320172E+04  0.25500000920E-02 0. -1.
    10030    2    1    2    0    0  0.00000000000E+00  0.00000000000E+00 -0.67146224281E+03  0.30512017916E+04  0.29764023299E+04 0.  0.
        4    1    3    3  502    0 -0.66434877999E+03  0.62548724619E+02 -0.16993745669E+04  0.18256908763E+04  0.12699999809E+01 0. -1.
       -4    1    3    3    0  502  0.66434877999E+03 -0.62548724619E+02  0.10279123241E+04  0.12255109152E+04  0.12699999809E+01 0.  1.
</event>
<event>
 5   0  0.5916703E-07  0.3000163E+04  0.7818609E-02  0.8243684E-01
       -1   -1    0    0    0  501  0.00000000000E+00  0.00000000000E+00  0.15118379868E+04  0.15118379868E+04  0.50400001928E-02 0. -1.
        1   -1    0    0  501    0  0.00000000000E+00  0.00000000000E+00 -0.14884161781E+04  0.14884161781E+04  0.50400001928E-02 0.  1.
    10030    2    1    2    0    0  0.00000000000E+00  0.00000000000E+00  0.23421808760E+02  0.30002541649E+04  0.30001627411E+04 0.  0.
        5    1    3    3  502    0 -0.39544831228E+03 -0.13864118964E+04  0.42609620690E+03  0.15033620261E+04  0.46999998093E+01 0.  1.
       -5    1    3    3    0  502  0.39544831228E+03  0.13864118964E+04 -0.40267439814E+03  0.14968921387E+04  0.46999998093E+01 0. -1.
</event>
<event>
 5   0  0.1560174E-06  0.2995161E+04  0.7818609E-02  0.8245114E-01
        2   -1    0    0  501    0  0.00000000000E+00  0.00000000000E+00  0.13230086605E+04  0.13230086605E+04  0.25500000920E-02 0.  1.
       -2   -1    0    0    0  501  0.00000000000E+00  0.00000000000E+00 -0.16951867786E+04  0.16951867786E+04  0.25500000920E-02 0. -1.
    10030    2    1    2    0    0  0.00000000000E+00  0.00000000000E+00 -0.37217811807E+03  0.30181954391E+04  0.29951606229E+04 0.  0.
        5    1    3    3  502    0 -0.54210830217E+03 -0.13686936439E+04  0.90835261225E+02  0.14749497744E+04  0.46999998093E+01 0. -1.
       -5    1    3    3    0  502  0.54210830217E+03  0.13686936439E+04 -0.46301337930E+03  0.15432456647E+04  0.46999998093E+01 0.  1.
</event>
<event>
 5   0  0.1723916E-06  0.2981343E+04  0.7818609E-02  0.8249079E-01
        2   -1    0    0  501    0  0.00000000000E+00  0.00000000000E+00  0.13073192213E+04  0.13073192213E+04  0.25500000920E-02 0.  1.
       -2   -1    0    0    0  501  0.00000000000E+00  0.00000000000E+00 -0.16997387070E+04  0.16997387070E+04  0.25500000920E-02 0. -1.
    10030    2    1    2    0    0  0.00000000000E+00  0.00000000000E+00 -0.39241948564E+03  0.30070579283E+04  0.29813427062E+04 0.  0.
        1    1    3    3  502    0 -0.22628457957E+02 -0.14383028590E+04  0.19815365198E+03  0.14520647476E+04  0.50400001928E-02 0.  1.
       -1    1    3    3    0  502  0.22628457957E+02  0.14383028590E+04 -0.59057313762E+03  0.15549931808E+04  0.50400001928E-02 0. -1.
</event>
<event>
 5   0  0.5887179E-07  0.2991929E+04  0.7818609E-02  0.8246039E-01
        1   -1    0    0  501    0  0.00000000000E+00  0.00000000000E+00  0.25722984766E+04  0.25722984766E+04  0.50400001928E-02 0. -1.
       -1   -1    0    0    0  501  0.00000000000E+00  0.00000000000E+00 -0.87000388797E+03  0.87000388799E+03  0.50400001928E-02 0.  1.
    10030    2    1    2    0    0  0.00000000000E+00  0.00000000000E+00  0.17022945886E+04  0.34423023646E+04  0.29919289267E+04 0.  0.
        3    1    3    3  502    0 -0.20028593278E+03  0.45998883297E+02 -0.85368709653E+03  0.87807290193E+03  0.10100000352E+00 0.  1.
       -3    1    3    3    0  502  0.20028593278E+03 -0.45998883297E+02  0.25559816851E+04  0.25642294626E+04  0.10100000352E+00 0. -1.
</event>
<event>
 5   0  0.5874741E-07  0.3027548E+04  0.7818609E-02  0.8235908E-01
       -1   -1    0    0    0  501  0.00000000000E+00  0.00000000000E+00  0.10744001218E+04  0.10744001218E+04  0.50400001928E-02 0. -1.
        1   -1    0    0  501    0  0.00000000000E+00  0.00000000000E+00 -0.21328288147E+04  0.21328288147E+04  0.50400001928E-02 0.  1.
    10030    2    1    2    0    0  0.00000000000E+00  0.00000000000E+00 -0.10584286929E+04  0.32072289365E+04  0.30275478780E+04 0.  0.
        4    1    3    3  502    0  0.42161920083E+03 -0.14501903752E+04 -0.63876888214E+03  0.16397689388E+04  0.12699999809E+01 0.  1.
       -4    1    3    3    0  502 -0.42161920083E+03  0.14501903752E+04 -0.41965981078E+03  0.15674599978E+04  0.12699999809E+01 0. -1.
</event>
<event>
 5   0  0.5874741E-07  0.2996739E+04  0.7818609E-02  0.8244663E-01
        1   -1    0    0  501    0  0.00000000000E+00  0.00000000000E+00  0.14799247389E+04  0.14799247389E+04  0.50400001928E-02 0. -1.
       -1   -1    0    0    0  501  0.00000000000E+00  0.00000000000E+00 -0.15170446471E+04  0.15170446471E+04  0.50400001928E-02 0.  1.
    10030    2    1    2    0    0  0.00000000000E+00  0.00000000000E+00 -0.37119908158E+02  0.29969693860E+04  0.29967394971E+04 0.  0.
        4    1    3    3  502    0  0.79168083426E+03 -0.54102886791E+03 -0.11700124744E+04  0.15127463708E+04  0.12699999809E+01 0.  1.
       -4    1    3    3    0  502 -0.79168083426E+03  0.54102886791E+03  0.11328925663E+04  0.14842230152E+04  0.12699999809E+01 0. -1.
</event>
<event>
 5   0  0.5874741E-07  0.3007096E+04  0.7818609E-02  0.8241708E-01
        1   -1    0    0  501    0  0.00000000000E+00  0.00000000000E+00  0.26883723691E+04  0.26883723691E+04  0.50400001928E-02 0.  1.
       -1   -1    0    0    0  501  0.00000000000E+00  0.00000000000E+00 -0.84090155216E+03  0.84090155218E+03  0.50400001928E-02 0. -1.
    10030    2    1    2    0    0  0.00000000000E+00  0.00000000000E+00  0.18474708169E+04  0.35292739212E+04  0.30070959399E+04 0.  0.
        4    1    3    3  502    0  0.10272140958E+04 -0.28524410184E+03 -0.32062098910E+03  0.11132530835E+04  0.12699999809E+01 0. -1.
       -4    1    3    3    0  502 -0.10272140958E+04  0.28524410184E+03  0.21680918060E+04  0.24160208378E+04  0.12699999809E+01 0.  1.
</event>
<event>
 5   0  0.5887179E-07  0.2972924E+04  0.7818609E-02  0.8251505E-01
        1   -1    0    0  501    0  0.00000000000E+00  0.00000000000E+00  0.24200562286E+04  0.24200562287E+04  0.50400001928E-02 0. -1.
       -1   -1    0    0    0  501  0.00000000000E+00  0.00000000000E+00 -0.91302375250E+03  0.91302375251E+03  0.50400001928E-02 0.  1.
    10030    2    1    2    0    0  0.00000000000E+00  0.00000000000E+00  0.15070324761E+04  0.33330799812E+04  0.29729236917E+04 0.  0.
        3    1    3    3  502    0 -0.30857695930E+03 -0.14431995143E+04  0.55445613487E+03  0.15765361377E+04  0.10100000352E+00 0. -1.
       -3    1    3    3    0  502  0.30857695930E+03  0.14431995143E+04  0.95257634128E+03  0.17565438435E+04  0.10100000352E+00 0.  1.
</event>
<event>
 5   0  0.1560174E-06  0.2912213E+04  0.7818609E-02  0.8269253E-01
        2   -1    0    0  501    0  0.00000000000E+00  0.00000000000E+00  0.28497078242E+04  0.28497078242E+04  0.25500000920E-02 0. -1.
       -2   -1    0    0    0  501  0.00000000000E+00  0.00000000000E+00 -0.74402205109E+03  0.74402205109E+03  0.25500000920E-02 0.  1.
    10030    2    1    2    0    0  0.00000000000E+00  0.00000000000E+00  0.21056857731E+04  0.35937298753E+04  0.29122125337E+04 0.  0.
        5    1    3    3  502    0 -0.90275083767E+03 -0.35507239301E+03 -0.28718510015E+03  0.10116980038E+04  0.46999998093E+01 0.  1.
       -5    1    3    3    0  502  0.90275083767E+03  0.35507239301E+03  0.23928708733E+04  0.25820318715E+04  0.46999998093E+01 0. -1.
</event>
<event>
 5   0  0.1674806E-06  0.2943188E+04  0.7818609E-02  0.8260143E-01
       -2   -1    0    0    0  501  0.00000000000E+00  0.00000000000E+00  0.11018716780E+04  0.11018716780E+04  0.25500000920E-02 0. -1.
        2   -1    0    0  501    0  0.00000000000E+00  0.00000000000E+00 -0.19653730767E+04  0.19653730767E+04  0.25500000920E-02 0.  1.
    10030    2    1    2    0    0  0.00000000000E+00  0.00000000000E+00 -0.86350139879E+03  0.30672447547E+04  0.29431880197E+04 0.  0.
        2    1    3    3  502    0  0.45729481222E+03 -0.10398087043E+04 -0.14067426071E+04  0.18081054863E+04  0.25500000920E-02 0.  1.
       -2    1    3    3    0  502 -0.45729481222E+03  0.10398087043E+04  0.54324120831E+03  0.12591392684E+04  0.25500000920E-02 0. -1.
</event>
<event>
 5   0  0.5931588E-07  0.2998021E+04  0.7818609E-02  0.8244296E-01
       -1   -1    0    0    0  501  0.00000000000E+00  0.00000000000E+00  0.11765141734E+04  0.11765141734E+04  0.50400001928E-02 0. -1.
        1   -1    0    0  501    0  0.00000000000E+00  0.00000000000E+00 -0.19099074681E+04  0.19099074681E+04  0.50400001928E-02 0.  1.
    10030    2    1    2    0    0  0.00000000000E+00  0.00000000000E+00 -0.73339329475E+03  0.30864216415E+04  0.29980214850E+04 0.  0.
        2    1    3    3  502    0  0.13966259326E+04  0.45964416815E+03 -0.66718750403E+03  0.16146132424E+04  0.25500000920E-02 0.  1.
       -2    1    3    3    0  502 -0.13966259326E+04 -0.45964416815E+03 -0.66205790716E+02  0.14718083991E+04  0.25500000920E-02 0. -1.
</event>
<event>
 5   0  0.6291798E-07  0.3004082E+04  0.7818609E-02  0.8242566E-01
        1   -1    0    0  501    0  0.00000000000E+00  0.00000000000E+00  0.31852136260E+04  0.31852136260E+04  0.50400001928E-02 0. -1.
       -1   -1    0    0    0  501  0.00000000000E+00  0.00000000000E+00 -0.70831261827E+03  0.70831261828E+03  0.50400001928E-02 0.  1.
    10030    2    1    2    0    0  0.00000000000E+00  0.00000000000E+00  0.24769010077E+04  0.38935262442E+04  0.30040818918E+04 0.  0.
        1    1    3    3  502    0  0.53491184973E+03 -0.15939694980E+03 -0.56891189735E+03  0.79699361450E+03  0.50400001928E-02 0.  1.
       -1    1    3    3    0  502 -0.53491184973E+03  0.15939694980E+03  0.30458129050E+04  0.30965326298E+04  0.50400001928E-02 0. -1.
</event>
<event>
 5   0  0.5887179E-07  0.2999693E+04  0.7818609E-02  0.8243818E-01
       -1   -1    0    0    0  501  0.00000000000E+00  0.00000000000E+00  0.12406491028E+04  0.12406491029E+04  0.50400001928E-02 0. -1.
        1   -1    0    0  501    0  0.00000000000E+00  0.00000000000E+00 -0.18131958935E+04  0.18131958935E+04  0.50400001928E-02 0.  1.
    10030    2    1    2    0    0  0.00000000000E+00  0.00000000000E+00 -0.57254679066E+03  0.30538449964E+04  0.29996932234E+04 0.  0.
        3    1    3    3  502    0 -0.30262311892E+03 -0.67251040951E+03 -0.16158704749E+04  0.17762005531E+04  0.10100000352E+00 0.  1.
       -3    1    3    3    0  502  0.30262311892E+03  0.67251040951E+03  0.10433236843E+04  0.12776444432E+04  0.10100000352E+00 0. -1.
</event>
<event>
 5   0  0.6291798E-07  0.2945425E+04  0.7818609E-02  0.8259489E-01
        1   -1    0    0  501    0  0.00000000000E+00  0.00000000000E+00  0.15304817235E+04  0.15304817235E+04  0.50400001928E-02 0.  1.
       -1   -1    0    0    0  501  0.00000000000E+00  0.00000000000E+00 -0.14171242290E+04  0.14171242290E+04  0.50400001928E-02 0. -1.
    10030    2    1    2    0    0  0.00000000000E+00  0.00000000000E+00  0.11335749452E+03  0.29476059524E+04  0.29454254242E+04 0.  0.
        1    1    3    3  502    0 -0.84198572346E+03  0.13912216428E+03  0.12578121912E+04  0.15199955406E+04  0.50400001928E-02 0.  1.
       -1    1    3    3    0  502  0.84198572346E+03 -0.13912216428E+03 -0.11444546967E+04  0.14276104118E+04  0.50400001928E-02 0. -1.
</event>
<event>
 5   0  0.5874741E-07  0.2998762E+04  0.7818609E-02  0.8244084E-01
        1   -1    0    0  501    0  0.00000000000E+00  0.00000000000E+00  0.16203496735E+04  0.16203496735E+04  0.50400001928E-02 0. -1.
       -1   -1    0    0    0  501  0.00000000000E+00  0.00000000000E+00 -0.13874435148E+04  0.13874435148E+04  0.50400001928E-02 0.  1.
    10030    2    1    2    0    0  0.00000000000E+00  0.00000000000E+00  0.23290615864E+03  0.30077931883E+04  0.29987621755E+04 0.  0.
        4    1    3    3  502    0 -0.89034668819E+03  0.20183049946E+03 -0.10765360190E+04  0.14115183983E+04  0.12699999809E+01 0.  1.
       -4    1    3    3    0  502  0.89034668819E+03 -0.20183049946E+03  0.13094421776E+04  0.15962747900E+04  0.12699999809E+01 0. -1.
</event>
<event>
 5   0  0.5874741E-07  0.3004426E+04  0.7818609E-02  0.8242468E-01
       -1   -1    0    0    0  501  0.00000000000E+00  0.00000000000E+00  0.23067870023E+04  0.23067870023E+04  0.50400001928E-02 0.  1.
        1   -1    0    0  501    0  0.00000000000E+00  0.00000000000E+00 -0.97826294659E+03  0.97826294660E+03  0.50400001928E-02 0. -1.
    10030    2    1    2    0    0  0.00000000000E+00  0.00000000000E+00  0.13285240557E+04  0.32850499489E+04  0.30044262348E+04 0.  0.
        4    1    3    3  502    0  0.11256037966E+04 -0.85089772142E+03  0.12277964676E+04  0.18704268545E+04  0.12699999809E+01 0.  1.
       -4    1    3    3    0  502 -0.11256037966E+04  0.85089772142E+03  0.10072758802E+03  0.14146230944E+04  0.12699999809E+01 0. -1.
</event>
<event>
 5   0  0.5887179E-07  0.2971032E+04  0.7818609E-02  0.8252051E-01
        1   -1    0    0  501    0  0.00000000000E+00  0.00000000000E+00  0.14905029496E+04  0.14905029496E+04  0.50400001928E-02 0. -1.
       -1   -1    0    0    0  501  0.00000000000E+00  0.00000000000E+00 -0.14805459719E+04  0.14805459719E+04  0.50400001928E-02 0.  1.
    10030    2    1    2    0    0  0.00000000000E+00  0.00000000000E+00  0.99569777498E+01  0.29710489215E+04  0.29710322369E+04 0.  0.
        3    1    3    3  502    0 -0.35154241735E+02 -0.67832905913E+03 -0.13161617755E+04  0.14810968782E+04  0.10100000352E+00 0.  1.
       -3    1    3    3    0  502  0.35154241735E+02  0.67832905913E+03  0.13261187533E+04  0.14899520432E+04  0.10100000352E+00 0. -1.
</event>
<event>
 5   0  0.1674806E-06  0.3020143E+04  0.7818609E-02  0.8238002E-01
        2   -1    0    0  501    0  0.00000000000E+00  0.00000000000E+00  0.18781596849E+04  0.18781596849E+04  0.25500000920E-02 0. -1.
       -2   -1    0    0    0  501  0.00000000000E+00  0.00000000000E+00 -0.12141223280E+04  0.12141223280E+04  0.25500000920E-02 0.  1.
    10030    2    1    2    0    0  0.00000000000E+00  0.00000000000E+00  0.66403735696E+03  0.30922820129E+04  0.30201427840E+04 0.  0.
        2    1    3    3  502    0  0.12424155995E+03  0.10702496222E+04  0.14153294830E+04  0.17787714200E+04  0.25500000920E-02 0. -1.
       -2    1    3    3    0  502 -0.12424155995E+03 -0.10702496222E+04 -0.75129212601E+03  0.13135105929E+04  0.25500000920E-02 0.  1.
</event>
<event>
 5   0  0.5916703E-07  0.2996155E+04  0.7818609E-02  0.8244830E-01
        1   -1    0    0  501    0  0.00000000000E+00  0.00000000000E+00  0.17791842596E+04  0.17791842596E+04  0.50400001928E-02 0.  1.
       -1   -1    0    0    0  501  0.00000000000E+00  0.00000000000E+00 -0.12613849756E+04  0.12613849756E+04  0.50400001928E-02 0. -1.
    10030    2    1    2    0    0  0.00000000000E+00  0.00000000000E+00  0.51779928395E+03  0.30405692352E+04  0.29961550653E+04 0.  0.
        5    1    3    3  502    0  0.77994822653E+03  0.86068166459E+03 -0.70123410768E+03  0.13567768894E+04  0.46999998093E+01 0. -1.
       -5    1    3    3    0  502 -0.77994822653E+03 -0.86068166459E+03  0.12190333916E+04  0.16837923458E+04  0.46999998093E+01 0.  1.
</event>
<event>
 5   0  0.1723916E-06  0.2997406E+04  0.7818609E-02  0.8244472E-01
        2   -1    0    0  501    0  0.00000000000E+00  0.00000000000E+00  0.65513958692E+03  0.65513958692E+03  0.25500000920E-02 0.  1.
       -2   -1    0    0    0  501  0.00000000000E+00  0.00000000000E+00 -0.34284466459E+04  0.34284466459E+04  0.25500000920E-02 0. -1.
    10030    2    1    2    0    0  0.00000000000E+00  0.00000000000E+00 -0.27733070590E+04  0.40835862328E+04  0.29974062917E+04 0.  0.
        1    1    3    3  502    0 -0.29728608862E+03 -0.11146730741E+04 -0.83298678247E+02  0.11566389888E+04  0.50400001928E-02 0.  1.
       -1    1    3    3    0  502  0.29728608862E+03  0.11146730741E+04 -0.26900083807E+04  0.29269472440E+04  0.50400001928E-02 0. -1.
</event>
<event>
 5   0  0.5887179E-07  0.3018810E+04  0.7818609E-02  0.8238380E-01
       -1   -1    0    0    0  501  0.00000000000E+00  0.00000000000E+00  0.15870244037E+04  0.15870244037E+04  0.50400001928E-02 0.  1.
        1   -1    0    0  501    0  0.00000000000E+00  0.00000000000E+00 -0.14355821113E+04  0.14355821113E+04  0.50400001928E-02 0. -1.
    10030    2    1    2    0    0  0.00000000000E+00  0.00000000000E+00  0.15144229241E+03  0.30226065151E+04  0.30188102585E+04 0.  0.
        3    1    3    3  502    0  0.85650549116E+02  0.71828409926E+03 -0.12507224372E+04  0.14448441746E+04  0.10100000352E+00 0. -1.
       -3    1    3    3    0  502 -0.85650549116E+02 -0.71828409926E+03  0.14021647296E+04  0.15777623404E+04  0.10100000352E+00 0.  1.
</event>
<event>
 5   0  0.1723916E-06  0.2997324E+04  0.7818609E-02  0.8244495E-01
        2   -1    0    0  501    0  0.00000000000E+00  0.00000000000E+00  0.12129675725E+04  0.12129675725E+04  0.25500000920E-02 0. -1.
       -2   -1    0    0    0  501  0.00000000000E+00  0.00000000000E+00 -0.18516471508E+04  0.18516471508E+04  0.25500000920E-02 0.  1.
    10030    2    1    2    0    0  0.00000000000E+00  0.00000000000E+00 -0.63867957834E+03  0.30646147233E+04  0.29973241063E+04 0.  0.
        1    1    3    3  502    0 -0.70107781692E+03 -0.40572035755E+03 -0.16085472952E+04  0.18009840407E+04  0.50400001928E-02 0.  1.
       -1    1    3    3    0  502  0.70107781692E+03  0.40572035755E+03  0.96986771684E+03  0.12636306826E+04  0.50400001928E-02 0. -1.
</event>
<event>
 5   0  0.6291798E-07  0.3000546E+04  0.7818609E-02  0.8243575E-01
       -1   -1    0    0    0  501  0.00000000000E+00  0.00000000000E+00  0.20820257625E+04  0.20820257625E+04  0.50400001928E-02 0.  1.
        1   -1    0    0  501    0  0.00000000000E+00  0.00000000000E+00 -0.10810716314E+04  0.10810716314E+04  0.50400001928E-02 0. -1.
    10030    2    1    2    0    0  0.00000000000E+00  0.00000000000E+00  0.10009541311E+04  0.31630973939E+04  0.30005459421E+04 0.  0.
        1    1    3    3  502    0  0.71223931509E+03 -0.43757597424E+03  0.18137855029E+04  0.19971418141E+04  0.50400001928E-02 0.  1.
       -1    1    3    3    0  502 -0.71223931509E+03  0.43757597424E+03 -0.81283137172E+03  0.11659555798E+04  0.50400001928E-02 0. -1.
</event>
<event>
 5   0  0.1560174E-06  0.3007397E+04  0.7818609E-02  0.8241622E-01
        2   -1    0    0  501    0  0.00000000000E+00  0.00000000000E+00  0.15877199561E+04  0.15877199561E+04  0.25500000920E-02 0. -1.
       -2   -1    0    0    0  501  0.00000000000E+00  0.00000000000E+00 -0.14241234651E+04  0.14241234651E+04  0.25500000920E-02 0.  1.
    10030    2    1    2    0    0  0.00000000000E+00  0.00000000000E+00  0.16359649096E+03  0.30118434212E+04  0.30073970443E+04 0.  0.
        5    1    3    3  502    0  0.43991093866E+03  0.13324821175E+04  0.62302016605E+03  0.15353196555E+04  0.46999998093E+01 0. -1.
       -5    1    3    3    0  502 -0.43991093866E+03 -0.13324821175E+04 -0.45942367510E+03  0.14765237657E+04  0.46999998093E+01 0.  1.
</event>
<event>
 5   0  0.5931588E-07  0.3002627E+04  0.7818609E-02  0.8242981E-01
        1   -1    0    0  501    0  0.00000000000E+00  0.00000000000E+00  0.18724142956E+04  0.18724142956E+04  0.50400001928E-02 0.  1.
       -1   -1    0    0    0  501  0.00000000000E+00  0.00000000000E+00 -0.12037624811E+04  0.12037624811E+04  0.50400001928E-02 0. -1.
    10030    2    1    2    0    0  0.00000000000E+00  0.00000000000E+00  0.66865181446E+03  0.30761767767E+04  0.30026269020E+04 0.  0.
        2    1    3    3  502    0 -0.83494592475E+03 -0.12474940363E+04  0.30995217257E+03  0.15327904022E+04  0.25500000920E-02 0.  1.
       -2    1    3    3    0  502  0.83494592475E+03  0.12474940363E+04  0.35869964189E+03  0.15433863745E+04  0.25500000920E-02 0. -1.
</event>
<event>
 5   0  0.1635086E-06  0.3003735E+04  0.7818609E-02  0.8242665E-01
        2   -1    0    0  501    0  0.00000000000E+00  0.00000000000E+00  0.14132956236E+04  0.14132956236E+04  0.25500000920E-02 0. -1.
       -2   -1    0    0    0  501  0.00000000000E+00  0.00000000000E+00 -0.15959903993E+04  0.15959903993E+04  0.25500000920E-02 0.  1.
    10030    2    1    2    0    0  0.00000000000E+00  0.00000000000E+00 -0.18269477577E+03  0.30092860229E+04  0.30037351725E+04 0.  0.
        3    1    3    3  502    0 -0.40196681177E+03  0.53329149225E+02  0.13574179516E+04  0.14166879760E+04  0.10100000352E+00 0. -1.
       -3    1    3    3    0  502  0.40196681177E+03 -0.53329149225E+02 -0.15401127273E+04  0.15925980469E+04  0.10100000352E+00 0.  1.
</event>
<event>
 5   0  0.1674806E-06  0.2974189E+04  0.7818609E-02  0.8251140E-01
       -2   -1    0    0    0  501  0.00000000000E+00  0.00000000000E+00  0.12871628166E+04  0.12871628166E+04  0.25500000920E-02 0. -1.
        2   -1    0    0  501    0  0.00000000000E+00  0.00000000000E+00 -0.17180813430E+04  0.17180813430E+04  0.25500000920E-02 0.  1.
    10030    2    1    2    0    0  0.00000000000E+00  0.00000000000E+00 -0.43091852635E+03  0.30052441596E+04  0.29741892479E+04 0.  0.
        2    1    3    3  502    0 -0.39153091511E+03 -0.98760510265E+03 -0.12668963839E+04  0.16533864472E+04  0.25500000920E-02 0.  1.
       -2    1    3    3    0  502  0.39153091511E+03  0.98760510265E+03  0.83597785754E+03  0.13518577124E+04  0.25500000920E-02 0. -1.
</event>
<event>
 5   0  0.5931588E-07  0.3007325E+04  0.7818609E-02  0.8241642E-01
       -1   -1    0    0    0  501  0.00000000000E+00  0.00000000000E+00  0.15922480786E+04  0.15922480786E+04  0.50400001928E-02 0.  1.
        1   -1    0    0  501    0  0.00000000000E+00  0.00000000000E+00 -0.14200056065E+04  0.14200056065E+04  0.50400001928E-02 0. -1.
    10030    2    1    2    0    0  0.00000000000E+00  0.00000000000E+00  0.17224247210E+03  0.30122536852E+04  0.30073251894E+04 0.  0.
        2    1    3    3  502    0  0.11081267782E+04  0.59518147382E+03 -0.73913145531E+03  0.14589383988E+04  0.25500000920E-02 0. -1.
       -2    1    3    3    0  502 -0.11081267782E+04 -0.59518147382E+03  0.91137392741E+03  0.15533152864E+04  0.25500000920E-02 0.  1.
</event>
<event>
 5   0  0.1560174E-06  0.3029106E+04  0.7818609E-02  0.8235468E-01
       -2   -1    0    0    0  501  0.00000000000E+00  0.00000000000E+00  0.15833860157E+04  0.15833860157E+04  0.25500000920E-02 0. -1.
        2   -1    0    0  501    0  0.00000000000E+00  0.00000000000E+00 -0.14487120363E+04  0.14487120363E+04  0.25500000920E-02 0.  1.
    10030    2    1    2    0    0  0.00000000000E+00  0.00000000000E+00  0.13467397945E+03  0.30320980520E+04  0.30291057288E+04 0.  0.
        5    1    3    3  502    0  0.18395749891E+03  0.19219617565E+03  0.15598057079E+04  0.15823386703E+04  0.46999998093E+01 0. -1.
       -5    1    3    3    0  502 -0.18395749891E+03 -0.19219617565E+03 -0.14251317284E+04  0.14497593817E+04  0.46999998093E+01 0.  1.
</event>
<event>
 5   0  0.1560174E-06  0.3000775E+04  0.7818609E-02  0.8243510E-01
       -2   -1    0    0    0  501  0.00000000000E+00  0.00000000000E+00  0.12374269466E+04  0.12374269466E+04  0.25500000920E-02 0.  1.
        2   -1    0    0  501    0  0.00000000000E+00  0.00000000000E+00 -0.18192287186E+04  0.18192287186E+04  0.25500000920E-02 0. -1.
    10030    2    1    2    0    0  0.00000000000E+00  0.00000000000E+00 -0.58180177193E+03  0.30566556652E+04  0.30007749922E+04 0.  0.
        5    1    3    3  502    0 -0.54721936046E+03  0.13271535698E+04  0.15352069649E+03  0.14437369292E+04  0.46999998093E+01 0.  1.
       -5    1    3    3    0  502  0.54721936046E+03 -0.13271535698E+04 -0.73532246842E+03  0.16129187360E+04  0.46999998093E+01 0. -1.
</event>
<event>
 5   0  0.1635086E-06  0.3000560E+04  0.7818609E-02  0.8243571E-01
        2   -1    0    0  501    0  0.00000000000E+00  0.00000000000E+00  0.12004010761E+04  0.12004010761E+04  0.25500000920E-02 0. -1.
       -2   -1    0    0    0  501  0.00000000000E+00  0.00000000000E+00 -0.18750733129E+04  0.18750733129E+04  0.25500000920E-02 0.  1.
    10030    2    1    2    0    0  0.00000000000E+00  0.00000000000E+00 -0.67467223682E+03  0.30754743890E+04  0.30005599628E+04 0.  0.
        3    1    3    3  502    0 -0.61110157975E+03  0.10794603960E+04  0.52762907445E+03  0.13479882558E+04  0.10100000352E+00 0. -1.
       -3    1    3    3    0  502  0.61110157975E+03 -0.10794603960E+04 -0.12023013113E+04  0.17274861333E+04  0.10100000352E+00 0.  1.
</event>
<event>
 5   0  0.1723916E-06  0.2999025E+04  0.7818609E-02  0.8244009E-01
        2   -1    0    0  501    0  0.00000000000E+00  0.00000000000E+00  0.10249239116E+04  0.10249239116E+04  0.25500000920E-02 0.  1.
       -2   -1    0    0    0  501  0.00000000000E+00  0.00000000000E+00 -0.21938587607E+04  0.21938587607E+04  0.25500000920E-02 0. -1.
    10030    2    1    2    0    0  0.00000000000E+00  0.00000000000E+00 -0.11689348491E+04  0.32187826724E+04  0.29990253767E+04 0.  0.
        1    1    3    3  502    0  0.91286202027E+02 -0.14754334449E+04 -0.85450099917E+03  0.17074568746E+04  0.50400001928E-02 0. -1.
       -1    1    3    3    0  502 -0.91286202027E+02  0.14754334449E+04 -0.31443384995E+03  0.15113257978E+04  0.50400001928E-02 0.  1.
</event>
<event>
 5   0  0.5916703E-07  0.2979484E+04  0.7818609E-02  0.8249614E-01
        1   -1    0    0  501    0  0.00000000000E+00  0.00000000000E+00  0.17510892492E+04  0.17510892492E+04  0.50400001928E-02 0. -1.
       -1   -1    0    0    0  501  0.00000000000E+00  0.00000000000E+00 -0.12674000474E+04  0.12674000474E+04  0.50400001928E-02 0.  1.
    10030    2    1    2    0    0  0.00000000000E+00  0.00000000000E+00  0.48368920182E+03  0.30184892966E+04  0.29794835777E+04 0.  0.
        5    1    3    3  502    0 -0.63625429078E+03  0.32029625541E+03  0.15673690742E+04  0.17216495341E+04  0.46999998093E+01 0. -1.
       -5    1    3    3    0  502  0.63625429078E+03 -0.32029625541E+03 -0.10836798723E+04  0.12968397624E+04  0.46999998093E+01 0.  1.
</event>
<event>
 5   0  0.6291798E-07  0.3015069E+04  0.7818609E-02  0.8239441E-01
        1   -1    0    0  501    0  0.00000000000E+00  0.00000000000E+00  0.15699339924E+04  0.15699339924E+04  0.50400001928E-02 0. -1.
       -1   -1    0    0    0  501  0.00000000000E+00  0.00000000000E+00 -0.14476148932E+04  0.14476148932E+04  0.50400001928E-02 0.  1.
    10030    2    1    2    0    0  0.00000000000E+00  0.00000000000E+00  0.12231909921E+03  0.30175488856E+04  0.30150687082E+04 0.  0.
        1    1    3    3  502    0 -0.23131970901E+03  0.12007479246E+03  0.15472153216E+04  0.15690130703E+04  0.50400001928E-02 0. -1.
       -1    1    3    3    0  502  0.23131970901E+03 -0.12007479246E+03 -0.14248962224E+04  0.14485358153E+04  0.50400001928E-02 0.  1.
</event>
<event>
 5   0  0.1674806E-06  0.3005327E+04  0.7818609E-02  0.8242211E-01
        2   -1    0    0  501    0  0.00000000000E+00  0.00000000000E+00  0.18706955030E+04  0.18706955030E+04  0.25500000920E-02 0.  1.
       -2   -1    0    0    0  501  0.00000000000E+00  0.00000000000E+00 -0.12070363773E+04  0.12070363773E+04  0.25500000920E-02 0. -1.
    10030    2    1    2    0    0  0.00000000000E+00  0.00000000000E+00  0.66365912571E+03  0.30777318804E+04  0.30053269527E+04 0.  0.
        2    1    3    3  502    0 -0.13928699547E+04  0.51902192878E+03  0.10623376713E+03  0.14902201470E+04  0.25500000920E-02 0.  1.
       -2    1    3    3    0  502  0.13928699547E+04 -0.51902192878E+03  0.55742535858E+03  0.15875117334E+04  0.25500000920E-02 0. -1.
</event>
<event>
 5   0  0.5931588E-07  0.2951769E+04  0.7818609E-02  0.8257639E-01
       -1   -1    0    0    0  501  0.00000000000E+00  0.00000000000E+00  0.97275708014E+03  0.97275708016E+03  0.50400001928E-02 0. -1.
        1   -1    0    0  501    0  0.00000000000E+00  0.00000000000E+00 -0.22392389792E+04  0.22392389792E+04  0.50400001928E-02 0.  1.
    10030    2    1    2    0    0  0.00000000000E+00  0.00000000000E+00 -0.12664818991E+04  0.32119960594E+04  0.29517693482E+04 0.  0.
        2    1    3    3  502    0  0.48760811651E+03  0.12760178833E+04 -0.12412994702E+04  0.18457539621E+04  0.25500000920E-02 0.  1.
       -2    1    3    3    0  502 -0.48760811651E+03 -0.12760178833E+04 -0.25182428873E+02  0.13662420973E+04  0.25500000920E-02 0. -1.
</event>
<event>
 5   0  0.1723916E-06  0.2999714E+04  0.7818609E-02  0.8243812E-01
        2   -1    0    0  501    0  0.00000000000E+00  0.00000000000E+00  0.12336917040E+04  0.12336917040E+04  0.25500000920E-02 0.  1.
       -2   -1    0    0    0  501  0.00000000000E+00  0.00000000000E+00 -0.18234470650E+04  0.18234470650E+04  0.25500000920E-02 0. -1.
    10030    2    1    2    0    0  0.00000000000E+00  0.00000000000E+00 -0.58975536097E+03  0.30571387691E+04  0.29997143310E+04 0.  0.
        1    1    3    3  502    0  0.95384681434E+03 -0.11503399048E+04 -0.42565356421E+03  0.15537974767E+04  0.50400001928E-02 0.  1.
       -1    1    3    3    0  502 -0.95384681434E+03  0.11503399048E+04 -0.16410179676E+03  0.15033412924E+04  0.50400001928E-02 0. -1.
</event>
<event>
 5   0  0.1560174E-06  0.2954496E+04  0.7818609E-02  0.8256845E-01
       -2   -1    0    0    0  501  0.00000000000E+00  0.00000000000E+00  0.11439216717E+04  0.11439216717E+04  0.25500000920E-02 0.  1.
        2   -1    0    0  501    0  0.00000000000E+00  0.00000000000E+00 -0.19077022806E+04  0.19077022806E+04  0.25500000920E-02 0. -1.
    10030    2    1    2    0    0  0.00000000000E+00  0.00000000000E+00 -0.76378060890E+03  0.30516239523E+04  0.29544962223E+04 0.  0.
        5    1    3    3  502    0  0.11730835141E+03  0.14493754549E+02 -0.19028023996E+04  0.19064759060E+04  0.46999998093E+01 0. -1.
       -5    1    3    3    0  502 -0.11730835141E+03 -0.14493754549E+02  0.11390217907E+04  0.11451480463E+04  0.46999998093E+01 0.  1.
</event>
<event>
 5   0  0.5887179E-07  0.2991732E+04  0.7818609E-02  0.8246096E-01
        1   -1    0    0  501    0  0.00000000000E+00  0.00000000000E+00  0.11125883309E+04  0.11125883309E+04  0.50400001928E-02 0.  1.
       -1   -1    0    0    0  501  0.00000000000E+00  0.00000000000E+00 -0.20111798250E+04  0.20111798250E+04  0.50400001928E-02 0. -1.
    10030    2    1    2    0    0  0.00000000000E+00  0.00000000000E+00 -0.89859149408E+03  0.31237681559E+04  0.29917320766E+04 0.  0.
        3    1    3    3  502    0  0.53046284331E+02  0.95208098932E+03 -0.16526991178E+04  0.19080583069E+04  0.10100000352E+00 0. -1.
       -3    1    3    3    0  502 -0.53046284331E+02 -0.95208098932E+03  0.75410762371E+03  0.12157098489E+04  0.10100000352E+00 0.  1.
</event>
<event>
 5   0  0.5916703E-07  0.2994861E+04  0.7818609E-02  0.8245200E-01
       -1   -1    0    0    0  501  0.00000000000E+00  0.00000000000E+00  0.10594661588E+04  0.10594661588E+04  0.50400001928E-02 0.  1.
        1   -1    0    0  501    0  0.00000000000E+00  0.00000000000E+00 -0.21164418026E+04  0.21164418026E+04  0.50400001928E-02 0. -1.
    10030    2    1    2    0    0  0.00000000000E+00  0.00000000000E+00 -0.10569756438E+04  0.31759079614E+04  0.29948612435E+04 0.  0.
        5    1    3    3  502    0  0.64661856580E+03 -0.40992112457E+03 -0.18931898019E+04  0.20421411837E+04  0.46999998093E+01 0. -1.
       -5    1    3    3    0  502 -0.64661856580E+03  0.40992112457E+03  0.83621415813E+03  0.11337667777E+04  0.46999998093E+01 0.  1.
</event>
<event>
 5   0  0.1723916E-06  0.2997561E+04  0.7818609E-02  0.8244428E-01
       -2   -1    0    0    0  501  0.00000000000E+00  0.00000000000E+00  0.19501869494E+04  0.19501869494E+04  0.25500000920E-02 0. -1.
        2   -1    0    0  501    0  0.00000000000E+00  0.00000000000E+00 -0.11518605443E+04  0.11518605443E+04  0.25500000920E-02 0.  1.
    10030    2    1    2    0    0  0.00000000000E+00  0.00000000000E+00  0.79832640508E+03  0.31020474937E+04  0.29975612761E+04 0.  0.
        1    1    3    3  502    0 -0.12328614469E+04  0.76907951006E+03  0.77927109570E+03  0.16488462877E+04  0.50400001928E-02 0.  1.
       -1    1    3    3    0  502  0.12328614469E+04 -0.76907951006E+03  0.19055309387E+02  0.14532012059E+04  0.50400001928E-02 0. -1.
</event>
<event>
 5   0  0.1625212E-06  0.2996743E+04  0.7818609E-02  0.8244662E-01
        2   -1    0    0  501    0  0.00000000000E+00  0.00000000000E+00  0.18641231964E+04  0.18641231964E+04  0.25500000920E-02 0.  1.
       -2   -1    0    0    0  501  0.00000000000E+00  0.00000000000E+00 -0.12043821376E+04  0.12043821376E+04  0.25500000920E-02 0. -1.
    10030    2    1    2    0    0  0.00000000000E+00  0.00000000000E+00  0.65974105875E+03  0.30685053340E+04  0.29967426850E+04 0.  0.
        4    1    3    3  502    0 -0.13086975941E+04  0.57823574486E+03  0.78557762427E+03  0.16322315357E+04  0.12699999809E+01 0.  1.
       -4    1    3    3    0  502  0.13086975941E+04 -0.57823574486E+03 -0.12583656551E+03  0.14362737983E+04  0.12699999809E+01 0. -1.
</event>
<event>
 5   0  0.5931588E-07  0.3000138E+04  0.7818609E-02  0.8243692E-01
       -1   -1    0    0    0  501  0.00000000000E+00  0.00000000000E+00  0.10407264015E+04  0.10407264015E+04  0.50400001928E-02 0. -1.
        1   -1    0    0  501    0  0.00000000000E+00  0.00000000000E+00 -0.21621499375E+04  0.21621499375E+04  0.50400001928E-02 0.  1.
    10030    2    1    2    0    0  0.00000000000E+00  0.00000000000E+00 -0.11214235360E+04  0.32028763389E+04  0.30001376794E+04 0.  0.
        2    1    3    3  502    0 -0.92152749983E+03 -0.11771755126E+04 -0.69255380094E+03  0.16476000387E+04  0.25500000920E-02 0. -1.
       -2    1    3    3    0  502  0.92152749983E+03  0.11771755126E+04 -0.42886973508E+03  0.15552763002E+04  0.25500000920E-02 0.  1.
</event>
<event>
 5   0  0.5874741E-07  0.3001783E+04  0.7818609E-02  0.8243222E-01
        1   -1    0    0  501    0  0.00000000000E+00  0.00000000000E+00  0.13226078216E+04  0.13226078216E+04  0.50400001928E-02 0.  1.
       -1   -1    0    0    0  501  0.00000000000E+00  0.00000000000E+00 -0.17032068674E+04  0.17032068674E+04  0.50400001928E-02 0. -1.
    10030    2    1    2    0    0  0.00000000000E+00  0.00000000000E+00 -0.38059904583E+03  0.30258146890E+04  0.30017826201E+04 0.  0.
        4    1    3    3  502    0  0.73546417073E+03  0.99357825957E+03 -0.10483297848E+04  0.16208338147E+04  0.12699999809E+01 0. -1.
       -4    1    3    3    0  502 -0.73546417073E+03 -0.99357825957E+03  0.66773073898E+03  0.14049808742E+04  0.12699999809E+01 0.  1.
</event>
<event>
 5   0  0.1635086E-06  0.3004530E+04  0.7818609E-02  0.8242438E-01
       -2   -1    0    0    0  501  0.00000000000E+00  0.00000000000E+00  0.89890174690E+03  0.89890174690E+03  0.25500000920E-02 0.  1.
        2   -1    0    0  501    0  0.00000000000E+00  0.00000000000E+00 -0.25106195320E+04  0.25106195320E+04  0.25500000920E-02 0. -1.
    10030    2    1    2    0    0  0.00000000000E+00  0.00000000000E+00 -0.16117177851E+04  0.34095212789E+04  0.30045301018E+04 0.  0.
        3    1    3    3  502    0  0.85771678938E+03  0.12285540739E+04 -0.68270859461E+03  0.16465461544E+04  0.10100000352E+00 0.  1.
       -3    1    3    3    0  502 -0.85771678938E+03 -0.12285540739E+04 -0.92900919047E+03  0.17629751245E+04  0.10100000352E+00 0. -1.
</event>
<event>
 5   0  0.6291798E-07  0.2992264E+04  0.7818609E-02  0.8245944E-01
        1   -1    0    0  501    0  0.00000000000E+00  0.00000000000E+00  0.17030105924E+04  0.17030105924E+04  0.50400001928E-02 0.  1.
       -1   -1    0    0    0  501  0.00000000000E+00  0.00000000000E+00 -0.13143842207E+04  0.13143842207E+04  0.50400001928E-02 0. -1.
    10030    2    1    2    0    0  0.00000000000E+00  0.00000000000E+00  0.38862637169E+03  0.30173948132E+04  0.29922635248E+04 0.  0.
        1    1    3    3  502    0  0.68927653200E+03  0.70340172491E+03  0.13300648410E+04  0.16549769200E+04  0.50400001928E-02 0.  1.
       -1    1    3    3    0  502 -0.68927653200E+03 -0.70340172491E+03 -0.94143846936E+03  0.13624178932E+04  0.50400001928E-02 0. -1.
</event>
<event>
 5   0  0.1560174E-06  0.3030598E+04  0.7818609E-02  0.8235047E-01
        2   -1    0    0  501    0  0.00000000000E+00  0.00000000000E+00  0.23503892776E+04  0.23503892776E+04  0.25500000920E-02 0.  1.
       -2   -1    0    0    0  501  0.00000000000E+00  0.00000000000E+00 -0.97691513255E+03  0.97691513255E+03  0.25500000920E-02 0. -1.
    10030    2    1    2    0    0  0.00000000000E+00  0.00000000000E+00  0.13734741451E+04  0.33273044101E+04  0.30305978636E+04 0.  0.
        5    1    3    3  502    0 -0.23735903922E+03 -0.42097661767E+03  0.22634995247E+04  0.23145221569E+04  0.46999998093E+01 0.  1.
       -5    1    3    3    0  502  0.23735903922E+03  0.42097661767E+03 -0.89002537968E+03  0.10127822533E+04  0.46999998093E+01 0. -1.
</event>
<event>
 5   0  0.5931588E-07  0.2994637E+04  0.7818609E-02  0.8245264E-01
        1   -1    0    0  501    0  0.00000000000E+00  0.00000000000E+00  0.21890249710E+04  0.21890249710E+04  0.50400001928E-02 0. -1.
       -1   -1    0    0    0  501  0.00000000000E+00  0.00000000000E+00 -0.10241833574E+04  0.10241833574E+04  0.50400001928E-02 0.  1.
    10030    2    1    2    0    0  0.00000000000E+00  0.00000000000E+00  0.11648416136E+04  0.32132083284E+04  0.29946371695E+04 0.  0.
        2    1    3    3  502    0  0.30170846468E+03 -0.86501369553E+03  0.18532141863E+04  0.20672879604E+04  0.25500000920E-02 0. -1.
       -2    1    3    3    0  502 -0.30170846468E+03  0.86501369553E+03 -0.68837257263E+03  0.11459203680E+04  0.25500000920E-02 0.  1.
</event>
<event>
 5   0  0.1723916E-06  0.3002576E+04  0.7818609E-02  0.8242996E-01
        2   -1    0    0  501    0  0.00000000000E+00  0.00000000000E+00  0.11347396123E+04  0.11347396123E+04  0.25500000920E-02 0. -1.
       -2   -1    0    0    0  501  0.00000000000E+00  0.00000000000E+00 -0.19862397478E+04  0.19862397478E+04  0.25500000920E-02 0.  1.
    10030    2    1    2    0    0  0.00000000000E+00  0.00000000000E+00 -0.85150013550E+03  0.31209793601E+04  0.30025755087E+04 0.  0.
        1    1    3    3  502    0  0.82419126874E+03  0.83923541796E+03  0.54391302952E+03  0.12959354606E+04  0.50400001928E-02 0. -1.
       -1    1    3    3    0  502 -0.82419126874E+03 -0.83923541796E+03 -0.13954131650E+04  0.18250438996E+04  0.50400001928E-02 0.  1.
</event>
<event>
 5   0  0.1674806E-06  0.3010701E+04  0.7818609E-02  0.8240682E-01
       -2   -1    0    0    0  501  0.00000000000E+00  0.00000000000E+00  0.20888542230E+04  0.20888542230E+04  0.25500000920E-02 0. -1.
        2   -1    0    0  501    0  0.00000000000E+00  0.00000000000E+00 -0.10848433262E+04  0.10848433262E+04  0.25500000920E-02 0.  1.
    10030    2    1    2    0    0  0.00000000000E+00  0.00000000000E+00  0.10040108968E+04  0.31736975493E+04  0.30107006250E+04 0.  0.
        2    1    3    3  502    0  0.17031090371E+02 -0.10529329448E+04 -0.63192779183E+03  0.12281248220E+04  0.25500000920E-02 0.  1.
       -2    1    3    3    0  502 -0.17031090371E+02  0.10529329448E+04  0.16359386886E+04  0.19455727273E+04  0.25500000920E-02 0. -1.
</event>
<event>
 5   0  0.5431625E-07  0.3003233E+04  0.7818609E-02  0.8242808E-01
        3   -1    0    0  501    0  0.00000000000E+00  0.00000000000E+00  0.11463963781E+04  0.11463963826E+04  0.10100000352E+00 0.  1.
       -3   -1    0    0    0  501  0.00000000000E+00  0.00000000000E+00 -0.19669044515E+04  0.19669044541E+04  0.10100000352E+00 0. -1.
    10030    2    1    2    0    0  0.00000000000E+00  0.00000000000E+00 -0.82050807339E+03  0.31133008366E+04  0.30032330247E+04 0.  0.
        1    1    3    3  502    0  0.67970780485E+03  0.18668987818E+02 -0.17981654620E+04  0.19224334214E+04  0.50400001928E-02 0. -1.
       -1    1    3    3    0  502 -0.67970780485E+03 -0.18668987818E+02  0.97765738861E+03  0.11908674152E+04  0.50400001928E-02 0.  1.
</event>
<event>
 5   0  0.5874741E-07  0.2981252E+04  0.7818609E-02  0.8249105E-01
       -1   -1    0    0    0  501  0.00000000000E+00  0.00000000000E+00  0.11362780543E+04  0.11362780543E+04  0.50400001928E-02 0. -1.
        1   -1    0    0  501    0  0.00000000000E+00  0.00000000000E+00 -0.19554770121E+04  0.19554770121E+04  0.50400001928E-02 0.  1.
    10030    2    1    2    0    0  0.00000000000E+00  0.00000000000E+00 -0.81919895787E+03  0.30917550664E+04  0.29812518274E+04 0.  0.
        4    1    3    3  502    0 -0.11004780633E+04 -0.97683072542E+03 -0.65657315657E+03  0.16113162808E+04  0.12699999809E+01 0.  1.
       -4    1    3    3    0  502  0.11004780633E+04  0.97683072542E+03 -0.16262580130E+03  0.14804387856E+04  0.12699999809E+01 0. -1.
</event>
<event>
 5   0  0.1625212E-06  0.2997951E+04  0.7818609E-02  0.8244316E-01
        2   -1    0    0  501    0  0.00000000000E+00  0.00000000000E+00  0.15175084160E+04  0.15175084160E+04  0.25500000920E-02 0.  1.
       -2   -1    0    0    0  501  0.00000000000E+00  0.00000000000E+00 -0.14806687828E+04  0.14806687828E+04  0.25500000920E-02 0. -1.
    10030    2    1    2    0    0  0.00000000000E+00  0.00000000000E+00  0.36839633250E+02  0.29981771988E+04  0.29979508596E+04 0.  0.
        4    1    3    3  502    0 -0.10340952900E+04 -0.49216406645E+03 -0.94878669086E+03  0.14872042008E+04  0.12699999809E+01 0. -1.
       -4    1    3    3    0  502  0.10340952900E+04  0.49216406645E+03  0.98562632411E+03  0.15109729980E+04  0.12699999809E+01 0.  1.
</event>
<event>
 5   0  0.1560174E-06  0.3013932E+04  0.7818609E-02  0.8239764E-01
       -2   -1    0    0    0  501  0.00000000000E+00  0.00000000000E+00  0.90230919580E+03  0.90230919580E+03  0.25500000920E-02 0. -1.
        2   -1    0    0  501    0  0.00000000000E+00  0.00000000000E+00 -0.25168162387E+04  0.25168162387E+04  0.25500000920E-02 0.  1.
    10030    2    1    2    0    0  0.00000000000E+00  0.00000000000E+00 -0.16145070429E+04  0.34191254345E+04  0.30139319410E+04 0.  0.
        5    1    3    3  502    0  0.42360282285E+03 -0.13607722625E+04 -0.13627631001E+04  0.19718736925E+04  0.46999998093E+01 0.  1.
       -5    1    3    3    0  502 -0.42360282285E+03  0.13607722625E+04 -0.25174394277E+03  0.14472517420E+04  0.46999998093E+01 0. -1.
</event>
<event>
 5   0  0.6291798E-07  0.3006297E+04  0.7818609E-02  0.8241935E-01
       -1   -1    0    0    0  501  0.00000000000E+00  0.00000000000E+00  0.26938956202E+04  0.26938956202E+04  0.50400001928E-02 0. -1.
        1   -1    0    0  501    0  0.00000000000E+00  0.00000000000E+00 -0.83873149429E+03  0.83873149430E+03  0.50400001928E-02 0.  1.
    10030    2    1    2    0    0  0.00000000000E+00  0.00000000000E+00  0.18551641259E+04  0.35326271145E+04  0.30062967911E+04 0.  0.
        1    1    3    3  502    0  0.50638831311E+03  0.73476911082E+03 -0.49379379697E+03  0.10198760139E+04  0.50400001928E-02 0.  1.
       -1    1    3    3    0  502 -0.50638831311E+03 -0.73476911082E+03  0.23489579229E+04  0.25127511006E+04  0.50400001928E-02 0. -1.
</event>
<event>
 5   0  0.1625212E-06  0.2997490E+04  0.7818609E-02  0.8244448E-01
       -2   -1    0    0    0  501  0.00000000000E+00  0.00000000000E+00  0.15744178752E+04  0.15744178752E+04  0.25500000920E-02 0.  1.
        2   -1    0    0  501    0  0.00000000000E+00  0.00000000000E+00 -0.14267094799E+04  0.14267094799E+04  0.25500000920E-02 0. -1.
    10030    2    1    2    0    0  0.00000000000E+00  0.00000000000E+00  0.14770839523E+03  0.30011273551E+04  0.29974902221E+04 0.  0.
        4    1    3    3  502    0 -0.22471942449E+03 -0.56168916553E+03  0.14467371017E+04  0.15681337293E+04  0.12699999809E+01 0.  1.
       -4    1    3    3    0  502  0.22471942449E+03  0.56168916553E+03 -0.12990287065E+04  0.14329936258E+04  0.12699999809E+01 0. -1.
</event>
<event>
 5   0  0.5887179E-07  0.3060748E+04  0.7818609E-02  0.8226594E-01
        1   -1    0    0  501    0  0.00000000000E+00  0.00000000000E+00  0.18577928881E+04  0.18577928881E+04  0.50400001928E-02 0.  1.
       -1   -1    0    0    0  501  0.00000000000E+00  0.00000000000E+00 -0.12606596690E+04  0.12606596690E+04  0.50400001928E-02 0. -1.
    10030    2    1    2    0    0  0.00000000000E+00  0.00000000000E+00  0.59713321913E+03  0.31184525571E+04  0.30607479918E+04 0.  0.
        3    1    3    3  502    0 -0.91902354191E+03  0.85797534596E+03 -0.59041911277E+03  0.13889998934E+04  0.10100000352E+00 0. -1.
       -3    1    3    3    0  502  0.91902354191E+03 -0.85797534596E+03  0.11875523319E+04  0.17294526637E+04  0.10100000352E+00 0.  1.
</event>
<event>
 5   0  0.5931588E-07  0.3001199E+04  0.7818609E-02  0.8243389E-01
       -1   -1    0    0    0  501  0.00000000000E+00  0.00000000000E+00  0.24348654467E+04  0.24348654467E+04  0.50400001928E-02 0.  1.
        1   -1    0    0  501    0  0.00000000000E+00  0.00000000000E+00 -0.92481463833E+03  0.92481463835E+03  0.50400001928E-02 0. -1.
    10030    2    1    2    0    0  0.00000000000E+00  0.00000000000E+00  0.15100508083E+04  0.33596800850E+04  0.30011992320E+04 0.  0.
        2    1    3    3  502    0 -0.11129163810E+04  0.98143039276E+03  0.10053679440E+04  0.17923596709E+04  0.25500000920E-02 0. -1.
       -2    1    3    3    0  502  0.11129163810E+04 -0.98143039276E+03  0.50468286432E+03  0.15673204141E+04  0.25500000920E-02 0.  1.
</event>
<event>
 5   0  0.5931588E-07  0.2968348E+04  0.7818609E-02  0.8252828E-01
        1   -1    0    0  501    0  0.00000000000E+00  0.00000000000E+00  0.94870874473E+03  0.94870874474E+03  0.50400001928E-02 0. -1.
       -1   -1    0    0    0  501  0.00000000000E+00  0.00000000000E+00 -0.23218633380E+04  0.23218633381E+04  0.50400001928E-02 0.  1.
    10030    2    1    2    0    0  0.00000000000E+00  0.00000000000E+00 -0.13731545933E+04  0.32705720828E+04  0.29683477242E+04 0.  0.
        2    1    3    3  502    0 -0.13423717505E+04  0.62514716069E+03 -0.79676527662E+03  0.16815486300E+04  0.25500000920E-02 0.  1.
       -2    1    3    3    0  502  0.13423717505E+04 -0.62514716069E+03 -0.57638931669E+03  0.15890234528E+04  0.25500000920E-02 0. -1.
</event>
<event>
 5   0  0.6291798E-07  0.2999983E+04  0.7818609E-02  0.8243736E-01
       -1   -1    0    0    0  501  0.00000000000E+00  0.00000000000E+00  0.66152811382E+03  0.66152811384E+03  0.50400001928E-02 0.  1.
        1   -1    0    0  501    0  0.00000000000E+00  0.00000000000E+00 -0.34011785608E+04  0.34011785608E+04  0.50400001928E-02 0. -1.
    10030    2    1    2    0    0  0.00000000000E+00  0.00000000000E+00 -0.27396504470E+04  0.40627066746E+04  0.29999834920E+04 0.  0.
        1    1    3    3  502    0 -0.86406927586E+03 -0.46328095046E+03 -0.29071924551E+04  0.30680633832E+04  0.50400001928E-02 0. -1.
       -1    1    3    3    0  502  0.86406927586E+03  0.46328095046E+03  0.16754200816E+03  0.99464329137E+03  0.50400001928E-02 0.  1.
</event>
<event>
 5   0  0.5916703E-07  0.3002181E+04  0.7818609E-02  0.8243108E-01
       -1   -1    0    0    0  501  0.00000000000E+00  0.00000000000E+00  0.14319042415E+04  0.14319042415E+04  0.50400001928E-02 0.  1.
        1   -1    0    0  501    0  0.00000000000E+00  0.00000000000E+00 -0.15736198896E+04  0.15736198896E+04  0.50400001928E-02 0. -1.
    10030    2    1    2    0    0  0.00000000000E+00  0.00000000000E+00 -0.14171564812E+03  0.30055241312E+04  0.30021812034E+04 0.  0.
        5    1    3    3  502    0 -0.78995540525E+03 -0.13834960823E+02  0.12068979525E+04  0.14425136762E+04  0.46999998093E+01 0.  1.
       -5    1    3    3    0  502  0.78995540525E+03  0.13834960823E+02 -0.13486136006E+04  0.15630104549E+04  0.46999998093E+01 0. -1.
</event>
<event>
 5   0  0.5931588E-07  0.2997177E+04  0.7818609E-02  0.8244538E-01
        1   -1    0    0  501    0  0.00000000000E+00  0.00000000000E+00  0.14149439101E+04  0.14149439101E+04  0.50400001928E-02 0.  1.
       -1   -1    0    0    0  501  0.00000000000E+00  0.00000000000E+00 -0.15871773464E+04  0.15871773464E+04  0.50400001928E-02 0. -1.
    10030    2    1    2    0    0  0.00000000000E+00  0.00000000000E+00 -0.17223343630E+03  0.30021212566E+04  0.29971766185E+04 0.  0.
        2    1    3    3  502    0 -0.91796172897E+03 -0.19488887022E+03  0.10841992742E+04  0.14339189216E+04  0.25500000920E-02 0.  1.
       -2    1    3    3    0  502  0.91796172897E+03  0.19488887022E+03 -0.12564327105E+04  0.15682023350E+04  0.25500000920E-02 0. -1.
</event>
<event>
 5   0  0.1625212E-06  0.2957938E+04  0.7818609E-02  0.8255845E-01
        2   -1    0    0  501    0  0.00000000000E+00  0.00000000000E+00  0.14552703871E+04  0.14552703871E+04  0.25500000920E-02 0.  1.
       -2   -1    0    0    0  501  0.00000000000E+00  0.00000000000E+00 -0.15030530582E+04  0.15030530582E+04  0.25500000920E-02 0. -1.
    10030    2    1    2    0    0  0.00000000000E+00  0.00000000000E+00 -0.47782671054E+02  0.29583234453E+04  0.29579375286E+04 0.  0.
        4    1    3    3  502    0  0.11049790596E+04 -0.70283837837E+03  0.66350211477E+03  0.14680589829E+04  0.12699999809E+01 0.  1.
       -4    1    3    3    0  502 -0.11049790596E+04  0.70283837837E+03 -0.71128478583E+03  0.14902644623E+04  0.12699999809E+01 0. -1.
</event>
<event>
 5   0  0.1625212E-06  0.2984889E+04  0.7818609E-02  0.8248059E-01
       -2   -1    0    0    0  501  0.00000000000E+00  0.00000000000E+00  0.18252622696E+04  0.18252622696E+04  0.25500000920E-02 0.  1.
        2   -1    0    0  501    0  0.00000000000E+00  0.00000000000E+00 -0.12203125919E+04  0.12203125919E+04  0.25500000920E-02 0. -1.
    10030    2    1    2    0    0  0.00000000000E+00  0.00000000000E+00  0.60494967769E+03  0.30455748614E+04  0.29848889634E+04 0.  0.
        4    1    3    3  502    0 -0.70756668242E+03  0.29845200297E+03  0.16082054754E+04  0.17821477695E+04  0.12699999809E+01 0.  1.
       -4    1    3    3    0  502  0.70756668242E+03 -0.29845200297E+03 -0.10032557977E+04  0.12634270920E+04  0.12699999809E+01 0. -1.
</event>
<event>
 5   0  0.1723916E-06  0.3012876E+04  0.7818609E-02  0.8240064E-01
       -2   -1    0    0    0  501  0.00000000000E+00  0.00000000000E+00  0.15638861780E+04  0.15638861780E+04  0.25500000920E-02 0. -1.
        2   -1    0    0  501    0  0.00000000000E+00  0.00000000000E+00 -0.14511000261E+04  0.14511000261E+04  0.25500000920E-02 0.  1.
    10030    2    1    2    0    0  0.00000000000E+00  0.00000000000E+00  0.11278615192E+03  0.30149862040E+04  0.30128758843E+04 0.  0.
        1    1    3    3  502    0  0.14525003073E+04 -0.13139320210E+03 -0.32114290661E+03  0.14933700421E+04  0.50400001928E-02 0.  1.
       -1    1    3    3    0  502 -0.14525003073E+04  0.13139320210E+03  0.43392905853E+03  0.15216161619E+04  0.50400001928E-02 0. -1.
</event>
<event>
 5   0  0.5874741E-07  0.2880377E+04  0.7818609E-02  0.8278740E-01
        1   -1    0    0  501    0  0.00000000000E+00  0.00000000000E+00  0.17132088447E+04  0.17132088447E+04  0.50400001928E-02 0. -1.
       -1   -1    0    0    0  501  0.00000000000E+00  0.00000000000E+00 -0.12106768451E+04  0.12106768451E+04  0.50400001928E-02 0.  1.
    10030    2    1    2    0    0  0.00000000000E+00  0.00000000000E+00  0.50253199960E+03  0.29238856899E+04  0.28803765582E+04 0.  0.
        4    1    3    3  502    0  0.12444093587E+03  0.10144562086E+04  0.12812522090E+04  0.16389679014E+04  0.12699999809E+01 0. -1.
       -4    1    3    3    0  502 -0.12444093587E+03 -0.10144562086E+04 -0.77872020938E+03  0.12849177885E+04  0.12699999809E+01 0.  1.
</event>
<event>
 5   0  0.5874741E-07  0.2998506E+04  0.7818609E-02  0.8244158E-01
       -1   -1    0    0    0  501  0.00000000000E+00  0.00000000000E+00  0.10219916242E+04  0.10219916242E+04  0.50400001928E-02 0.  1.
        1   -1    0    0  501    0  0.00000000000E+00  0.00000000000E+00 -0.21993916246E+04  0.21993916246E+04  0.50400001928E-02 0. -1.
    10030    2    1    2    0    0  0.00000000000E+00  0.00000000000E+00 -0.11774000004E+04  0.32213832487E+04  0.29985061738E+04 0.  0.
        4    1    3    3  502    0 -0.13592634419E+04 -0.37221425701E+03 -0.11382041383E+04  0.18115327297E+04  0.12699999809E+01 0. -1.
       -4    1    3    3    0  502  0.13592634419E+04  0.37221425701E+03 -0.39195862091E+02  0.14098505190E+04  0.12699999809E+01 0.  1.
</event>
<event>
 5   0  0.1560174E-06  0.3002548E+04  0.7818609E-02  0.8243004E-01
        2   -1    0    0  501    0  0.00000000000E+00  0.00000000000E+00  0.10346815812E+04  0.10346815812E+04  0.25500000920E-02 0. -1.
       -2   -1    0    0    0  501  0.00000000000E+00  0.00000000000E+00 -0.21782780690E+04  0.21782780690E+04  0.25500000920E-02 0.  1.
    10030    2    1    2    0    0  0.00000000000E+00  0.00000000000E+00 -0.11435964878E+04  0.32129596502E+04  0.30025483821E+04 0.  0.
        5    1    3    3  502    0  0.64127845802E+03  0.10126148014E+04 -0.15391242763E+04  0.19507825160E+04  0.46999998093E+01 0.  1.
       -5    1    3    3    0  502 -0.64127845802E+03 -0.10126148014E+04  0.39552778849E+03  0.12621771342E+04  0.46999998093E+01 0. -1.
</event>
<event>
 5   0  0.5916703E-07  0.2996204E+04  0.7818609E-02  0.8244816E-01
       -1   -1    0    0    0  501  0.00000000000E+00  0.00000000000E+00  0.11920046120E+04  0.11920046120E+04  0.50400001928E-02 0. -1.
        1   -1    0    0  501    0  0.00000000000E+00  0.00000000000E+00 -0.18828023341E+04  0.18828023341E+04  0.50400001928E-02 0.  1.
    10030    2    1    2    0    0  0.00000000000E+00  0.00000000000E+00 -0.69079772210E+03  0.30748069462E+04  0.29962036418E+04 0.  0.
        5    1    3    3  502    0 -0.14900747713E+03  0.27363293497E+03 -0.18491766348E+04  0.18752478577E+04  0.46999998093E+01 0.  1.
       -5    1    3    3    0  502  0.14900747713E+03 -0.27363293497E+03  0.11583789127E+04  0.11995590884E+04  0.46999998093E+01 0. -1.
</event>
<event>
 5   0  0.5916703E-07  0.3005930E+04  0.7818609E-02  0.8242039E-01
       -1   -1    0    0    0  501  0.00000000000E+00  0.00000000000E+00  0.10659690337E+04  0.10659690337E+04  0.50400001928E-02 0.  1.
        1   -1    0    0  501    0  0.00000000000E+00  0.00000000000E+00 -0.21191088048E+04  0.21191088048E+04  0.50400001928E-02 0. -1.
    10030    2    1    2    0    0  0.00000000000E+00  0.00000000000E+00 -0.10531397711E+04  0.31850778385E+04  0.30059303818E+04 0.  0.
        5    1    3    3  502    0  0.13175127732E+03 -0.60971068156E+03 -0.19754618745E+04  0.20716122277E+04  0.46999998093E+01 0. -1.
       -5    1    3    3    0  502 -0.13175127732E+03  0.60971068156E+03  0.92232210335E+03  0.11134656109E+04  0.46999998093E+01 0.  1.
</event>
<event>
 5   0  0.1674806E-06  0.2961852E+04  0.7818609E-02  0.8254709E-01
       -2   -1    0    0    0  501  0.00000000000E+00  0.00000000000E+00  0.13187533017E+04  0.13187533017E+04  0.25500000920E-02 0.  1.
        2   -1    0    0  501    0  0.00000000000E+00  0.00000000000E+00 -0.16630413117E+04  0.16630413117E+04  0.25500000920E-02 0. -1.
    10030    2    1    2    0    0  0.00000000000E+00  0.00000000000E+00 -0.34428801001E+03  0.29817946134E+04  0.29618515970E+04 0.  0.
        2    1    3    3  502    0  0.52253310615E+03  0.13847726123E+04 -0.22253284859E+03  0.14967153716E+04  0.25500000920E-02 0. -1.
       -2    1    3    3    0  502 -0.52253310615E+03 -0.13847726123E+04 -0.12175516142E+03  0.14850792417E+04  0.25500000920E-02 0.  1.
</event>
<event>
 5   0  0.5887179E-07  0.3001690E+04  0.7818609E-02  0.8243249E-01
       -1   -1    0    0    0  501  0.00000000000E+00  0.00000000000E+00  0.89229014009E+03  0.89229014011E+03  0.50400001928E-02 0.  1.
        1   -1    0    0  501    0  0.00000000000E+00  0.00000000000E+00 -0.25244424242E+04  0.25244424242E+04  0.50400001928E-02 0. -1.
    10030    2    1    2    0    0  0.00000000000E+00  0.00000000000E+00 -0.16321522841E+04  0.34167325643E+04  0.30016895804E+04 0.  0.
        3    1    3    3  502    0 -0.60491365565E+03  0.17360861391E+02 -0.23794113352E+04  0.24551619585E+04  0.10100000352E+00 0. -1.
       -3    1    3    3    0  502  0.60491365565E+03 -0.17360861391E+02  0.74725905108E+03  0.96157060580E+03  0.10100000352E+00 0.  1.
</event>
<event>
 5   0  0.1635086E-06  0.2994459E+04  0.7818609E-02  0.8245315E-01
        2   -1    0    0  501    0  0.00000000000E+00  0.00000000000E+00  0.14750292783E+04  0.14750292783E+04  0.25500000920E-02 0.  1.
       -2   -1    0    0    0  501  0.00000000000E+00  0.00000000000E+00 -0.15197636245E+04  0.15197636245E+04  0.25500000920E-02 0. -1.
    10030    2    1    2    0    0  0.00000000000E+00  0.00000000000E+00 -0.44734346257E+02  0.29947929028E+04  0.29944587773E+04 0.  0.
        3    1    3    3  502    0  0.16281167805E+02  0.50750965337E+03  0.13862873112E+04  0.14763548504E+04  0.10100000352E+00 0.  1.
       -3    1    3    3    0  502 -0.16281167805E+02 -0.50750965337E+03 -0.14310216575E+04  0.15184380524E+04  0.10100000352E+00 0. -1.
</event>
<event>
 5   0  0.1625212E-06  0.2992779E+04  0.7818609E-02  0.8245796E-01
       -2   -1    0    0    0  501  0.00000000000E+00  0.00000000000E+00  0.84230706873E+03  0.84230706873E+03  0.25500000920E-02 0. -1.
        2   -1    0    0  501    0  0.00000000000E+00  0.00000000000E+00 -0.26583903029E+04  0.26583903029E+04  0.25500000920E-02 0.  1.
    10030    2    1    2    0    0  0.00000000000E+00  0.00000000000E+00 -0.18160832341E+04  0.35006973716E+04  0.29927786043E+04 0.  0.
        4    1    3    3  502    0  0.28527026053E+03 -0.12944206351E+04 -0.17203623650E+04  0.21717624598E+04  0.12699999809E+01 0.  1.
       -4    1    3    3    0  502 -0.28527026053E+03  0.12944206351E+04 -0.95720869142E+02  0.13289349118E+04  0.12699999809E+01 0. -1.
</event>
<event>
 5   0  0.1625212E-06  0.3017570E+04  0.7818609E-02  0.8238731E-01
       -2   -1    0    0    0  501  0.00000000000E+00  0.00000000000E+00  0.98380606135E+03  0.98380606136E+03  0.25500000920E-02 0. -1.
        2   -1    0    0  501    0  0.00000000000E+00  0.00000000000E+00 -0.23139030534E+04  0.23139030534E+04  0.25500000920E-02 0.  1.
    10030    2    1    2    0    0  0.00000000000E+00  0.00000000000E+00 -0.13300969920E+04  0.32977091147E+04  0.30175697833E+04 0.  0.
        4    1    3    3  502    0  0.25126006295E+03  0.19985330003E+03 -0.22761414009E+04  0.22986722799E+04  0.12699999809E+01 0.  1.
       -4    1    3    3    0  502 -0.25126006295E+03 -0.19985330003E+03  0.94604440889E+03  0.99903683479E+03  0.12699999809E+01 0. -1.
</event>
<event>
 5   0  0.5931588E-07  0.2969131E+04  0.7818609E-02  0.8252601E-01
        1   -1    0    0  501    0  0.00000000000E+00  0.00000000000E+00  0.21738975251E+04  0.21738975251E+04  0.50400001928E-02 0. -1.
       -1   -1    0    0    0  501  0.00000000000E+00  0.00000000000E+00 -0.10138169742E+04  0.10138169742E+04  0.50400001928E-02 0.  1.
    10030    2    1    2    0    0  0.00000000000E+00  0.00000000000E+00  0.11600805509E+04  0.31877144993E+04  0.29691306547E+04 0.  0.
        2    1    3    3  502    0  0.25875301956E+01 -0.68053470276E+03 -0.83648573087E+03  0.10783517770E+04  0.25500000920E-02 0.  1.
       -2    1    3    3    0  502 -0.25875301956E+01  0.68053470276E+03  0.19965662817E+04  0.21093627223E+04  0.25500000920E-02 0. -1.
</event>
<event>
 5   0  0.1723916E-06  0.2990823E+04  0.7818609E-02  0.8246356E-01
       -2   -1    0    0    0  501  0.00000000000E+00  0.00000000000E+00  0.12079237120E+04  0.12079237120E+04  0.25500000920E-02 0.  1.
        2   -1    0    0  501    0  0.00000000000E+00  0.00000000000E+00 -0.18513220936E+04  0.18513220936E+04  0.25500000920E-02 0. -1.
    10030    2    1    2    0    0  0.00000000000E+00  0.00000000000E+00 -0.64339838155E+03  0.30592458056E+04  0.29908232014E+04 0.  0.
        1    1    3    3  502    0 -0.12768789123E+04 -0.73166945618E+03 -0.59328406568E+03  0.15867406632E+04  0.50400001928E-02 0. -1.
       -1    1    3    3    0  502  0.12768789123E+04  0.73166945618E+03 -0.50114315877E+02  0.14725051424E+04  0.50400001928E-02 0.  1.
</event>
<event>
 5   0  0.6291798E-07  0.2988673E+04  0.7818609E-02  0.8246973E-01
       -1   -1    0    0    0  501  0.00000000000E+00  0.00000000000E+00  0.90032720001E+03  0.90032720002E+03  0.50400001928E-02 0. -1.
        1   -1    0    0  501    0  0.00000000000E+00  0.00000000000E+00 -0.24802549741E+04  0.24802549741E+04  0.50400001928E-02 0.  1.
    10030    2    1    2    0    0  0.00000000000E+00  0.00000000000E+00 -0.15799277741E+04  0.33805821741E+04  0.29886726259E+04 0.  0.
        1    1    3    3  502    0  0.26607146462E+01  0.84074782695E+03 -0.21873473761E+04  0.23433635083E+04  0.50400001928E-02 0.  1.
       -1    1    3    3    0  502 -0.26607146462E+01 -0.84074782695E+03  0.60741960202E+03  0.10372186659E+04  0.50400001928E-02 0. -1.
</event>
<event>
 5   0  0.5916703E-07  0.2971088E+04  0.7818609E-02  0.8252035E-01
        1   -1    0    0  501    0  0.00000000000E+00  0.00000000000E+00  0.22920490885E+04  0.22920490885E+04  0.50400001928E-02 0.  1.
       -1   -1    0    0    0  501  0.00000000000E+00  0.00000000000E+00 -0.96282451710E+03  0.96282451711E+03  0.50400001928E-02 0. -1.
    10030    2    1    2    0    0  0.00000000000E+00  0.00000000000E+00  0.13292245714E+04  0.32548736056E+04  0.29710880544E+04 0.  0.
        5    1    3    3  502    0  0.12784433035E+04 -0.73030358173E+03  0.44810344465E+03  0.15390189696E+04  0.46999998093E+01 0.  1.
       -5    1    3    3    0  502 -0.12784433035E+04  0.73030358173E+03  0.88112112672E+03  0.17158546360E+04  0.46999998093E+01 0. -1.
</event>
<event>
 5   0  0.1723916E-06  0.2998101E+04  0.7818609E-02  0.8244273E-01
       -2   -1    0    0    0  501  0.00000000000E+00  0.00000000000E+00  0.88162624853E+03  0.88162624853E+03  0.25500000920E-02 0.  1.
        2   -1    0    0  501    0  0.00000000000E+00  0.00000000000E+00 -0.25488724017E+04  0.25488724017E+04  0.25500000920E-02 0. -1.
    10030    2    1    2    0    0  0.00000000000E+00  0.00000000000E+00 -0.16672461532E+04  0.34304986503E+04  0.29981012748E+04 0.  0.
        1    1    3    3  502    0  0.12087041703E+04  0.36423118675E+03  0.91375974741E+02  0.12656933663E+04  0.50400001928E-02 0.  1.
       -1    1    3    3    0  502 -0.12087041703E+04 -0.36423118675E+03 -0.17586221280E+04  0.21648052840E+04  0.50400001928E-02 0. -1.
</event>
<event>
 5   0  0.5916703E-07  0.2999297E+04  0.7818609E-02  0.8243932E-01
       -1   -1    0    0    0  501  0.00000000000E+00  0.00000000000E+00  0.14039634207E+04  0.14039634207E+04  0.50400001928E-02 0.  1.
        1   -1    0    0  501    0  0.00000000000E+00  0.00000000000E+00 -0.16018550689E+04  0.16018550689E+04  0.50400001928E-02 0. -1.
    10030    2    1    2    0    0  0.00000000000E+00  0.00000000000E+00 -0.19789164816E+03  0.30058184896E+04  0.29992971990E+04 0.  0.
        5    1    3    3  502    0 -0.89832755924E+03  0.97708046144E+03  0.60060139492E+03  0.14568537186E+04  0.46999998093E+01 0.  1.
       -5    1    3    3    0  502  0.89832755924E+03 -0.97708046144E+03 -0.79849304308E+03  0.15489647710E+04  0.46999998093E+01 0. -1.
</event>
<event>
 5   0  0.5887179E-07  0.2993259E+04  0.7818609E-02  0.8245659E-01
       -1   -1    0    0    0  501  0.00000000000E+00  0.00000000000E+00  0.12188263291E+04  0.12188263292E+04  0.50400001928E-02 0.  1.
        1   -1    0    0  501    0  0.00000000000E+00  0.00000000000E+00 -0.18377509577E+04  0.18377509577E+04  0.50400001928E-02 0. -1.
    10030    2    1    2    0    0  0.00000000000E+00  0.00000000000E+00 -0.61892462857E+03  0.30565772869E+04  0.29932585947E+04 0.  0.
        3    1    3    3  502    0  0.11733185547E+04 -0.56051479297E+03  0.44718849557E+03  0.13750748433E+04  0.10100000352E+00 0.  1.
       -3    1    3    3    0  502 -0.11733185547E+04  0.56051479297E+03 -0.10661131241E+04  0.16815024436E+04  0.10100000352E+00 0. -1.
</event>
<event>
 5   0  0.5874741E-07  0.2994132E+04  0.7818609E-02  0.8245408E-01
        1   -1    0    0  501    0  0.00000000000E+00  0.00000000000E+00  0.99554007297E+03  0.99554007298E+03  0.50400001928E-02 0.  1.
       -1   -1    0    0    0  501  0.00000000000E+00  0.00000000000E+00 -0.22512471223E+04  0.22512471223E+04  0.50400001928E-02 0. -1.
    10030    2    1    2    0    0  0.00000000000E+00  0.00000000000E+00 -0.12557070493E+04  0.32467871953E+04  0.29941320775E+04 0.  0.
        4    1    3    3  502    0  0.39717479661E+03 -0.12730680663E+03  0.93126595997E+03  0.10203983257E+04  0.12699999809E+01 0.  1.
       -4    1    3    3    0  502 -0.39717479661E+03  0.12730680663E+03 -0.21869730093E+04  0.22263888695E+04  0.12699999809E+01 0. -1.
</event>
<event>
 5   0  0.1560174E-06  0.2998083E+04  0.7818609E-02  0.8244279E-01
       -2   -1    0    0    0  501  0.00000000000E+00  0.00000000000E+00  0.16643937622E+04  0.16643937622E+04  0.25500000920E-02 0.  1.
        2   -1    0    0  501    0  0.00000000000E+00  0.00000000000E+00 -0.13501164707E+04  0.13501164707E+04  0.25500000920E-02 0. -1.
    10030    2    1    2    0    0  0.00000000000E+00  0.00000000000E+00  0.31427729144E+03  0.30145102329E+04  0.29980830089E+04 0.  0.
        5    1    3    3  502    0  0.10753100002E+04 -0.81696683727E+03 -0.49710076988E+03  0.14390474888E+04  0.46999998093E+01 0. -1.
       -5    1    3    3    0  502 -0.10753100002E+04  0.81696683727E+03  0.81137806133E+03  0.15754627441E+04  0.46999998093E+01 0.  1.
</event>
<event>
 5   0  0.1723916E-06  0.3001057E+04  0.7818609E-02  0.8243429E-01
       -2   -1    0    0    0  501  0.00000000000E+00  0.00000000000E+00  0.91668175760E+03  0.91668175760E+03  0.25500000920E-02 0.  1.
        2   -1    0    0  501    0  0.00000000000E+00  0.00000000000E+00 -0.24562350193E+04  0.24562350193E+04  0.25500000920E-02 0. -1.
    10030    2    1    2    0    0  0.00000000000E+00  0.00000000000E+00 -0.15395532617E+04  0.33729167769E+04  0.30010570368E+04 0.  0.
        1    1    3    3  502    0 -0.21744585158E+03  0.83213527868E+03 -0.21517074576E+04  0.23172347320E+04  0.50400001928E-02 0. -1.
       -1    1    3    3    0  502  0.21744585158E+03 -0.83213527868E+03  0.61215419584E+03  0.10556820449E+04  0.50400001928E-02 0.  1.
</event>
<event>
 5   0  0.5931588E-07  0.3002637E+04  0.7818609E-02  0.8242978E-01
        1   -1    0    0  501    0  0.00000000000E+00  0.00000000000E+00  0.12239408143E+04  0.12239408143E+04  0.50400001928E-02 0.  1.
       -1   -1    0    0    0  501  0.00000000000E+00  0.00000000000E+00 -0.18415576981E+04  0.18415576982E+04  0.50400001928E-02 0. -1.
    10030    2    1    2    0    0  0.00000000000E+00  0.00000000000E+00 -0.61761688384E+03  0.30654985125E+04  0.30026372599E+04 0.  0.
        2    1    3    3  502    0  0.51446312541E+03  0.17600917421E+03  0.11198832778E+04  0.12449056561E+04  0.25500000920E-02 0.  1.
       -2    1    3    3    0  502 -0.51446312541E+03 -0.17600917421E+03 -0.17375001616E+04  0.18205928563E+04  0.25500000920E-02 0. -1.
</event>
<event>
 5   0  0.5916703E-07  0.2992879E+04  0.7818609E-02  0.8245767E-01
        1   -1    0    0  501    0  0.00000000000E+00  0.00000000000E+00  0.15363026981E+04  0.15363026982E+04  0.50400001928E-02 0.  1.
       -1   -1    0    0    0  501  0.00000000000E+00  0.00000000000E+00 -0.14576110883E+04  0.14576110883E+04  0.50400001928E-02 0. -1.
    10030    2    1    2    0    0  0.00000000000E+00  0.00000000000E+00  0.78691609881E+02  0.29939137864E+04  0.29928794481E+04 0.  0.
        5    1    3    3  502    0 -0.31110977105E+03  0.13297910148E+04  0.65125674628E+03  0.15130402745E+04  0.46999998093E+01 0.  1.
       -5    1    3    3    0  502  0.31110977105E+03 -0.13297910148E+04 -0.57256513640E+03  0.14808735119E+04  0.46999998093E+01 0. -1.
</event>
<event>
 5   0  0.1635086E-06  0.3007179E+04  0.7818609E-02  0.8241684E-01
       -2   -1    0    0    0  501  0.00000000000E+00  0.00000000000E+00  0.90656466012E+03  0.90656466012E+03  0.25500000920E-02 0. -1.
        2   -1    0    0  501    0  0.00000000000E+00  0.00000000000E+00 -0.24937891134E+04  0.24937891134E+04  0.25500000920E-02 0.  1.
    10030    2    1    2    0    0  0.00000000000E+00  0.00000000000E+00 -0.15872244533E+04  0.34003537735E+04  0.30071787975E+04 0.  0.
        3    1    3    3  502    0  0.12209166274E+04  0.85865071447E+03 -0.99859429643E+03  0.17958588585E+04  0.10100000352E+00 0.  1.
       -3    1    3    3    0  502 -0.12209166274E+04 -0.85865071447E+03 -0.58863015682E+03  0.16044949150E+04  0.10100000352E+00 0. -1.
</event>
<event>
 5   0  0.1723916E-06  0.3000987E+04  0.7818609E-02  0.8243449E-01
        2   -1    0    0  501    0  0.00000000000E+00  0.00000000000E+00  0.20928226779E+04  0.20928226779E+04  0.25500000920E-02 0.  1.
       -2   -1    0    0    0  501  0.00000000000E+00  0.00000000000E+00 -0.10758108981E+04  0.10758108981E+04  0.25500000920E-02 0. -1.
    10030    2    1    2    0    0  0.00000000000E+00  0.00000000000E+00  0.10170117797E+04  0.31686335760E+04  0.30009874673E+04 0.  0.
        1    1    3    3  502    0 -0.10223608956E+04 -0.12408770712E+02 -0.65107357824E+03  0.12121355464E+04  0.50400001928E-02 0. -1.
       -1    1    3    3    0  502  0.10223608956E+04  0.12408770712E+02  0.16680853580E+04  0.19564980296E+04  0.50400001928E-02 0.  1.
</event>
<event>
 5   0  0.5431625E-07  0.3004960E+04  0.7818609E-02  0.8242316E-01
        3   -1    0    0  501    0  0.00000000000E+00  0.00000000000E+00  0.13512592553E+04  0.13512592591E+04  0.10100000352E+00 0. -1.
       -3   -1    0    0    0  501  0.00000000000E+00  0.00000000000E+00 -0.16706234717E+04  0.16706234748E+04  0.10100000352E+00 0.  1.
    10030    2    1    2    0    0  0.00000000000E+00  0.00000000000E+00 -0.31936421636E+03  0.30218827339E+04  0.30049595263E+04 0.  0.
        2    1    3    3  502    0 -0.80422591386E+03  0.60020568754E+03  0.96483691321E+03  0.13920978619E+04  0.25500000920E-02 0. -1.
       -2    1    3    3    0  502  0.80422591386E+03 -0.60020568754E+03 -0.12842011296E+04  0.16297848720E+04  0.25500000920E-02 0.  1.
</event>
<event>
 5   0  0.5931588E-07  0.3001914E+04  0.7818609E-02  0.8243185E-01
        1   -1    0    0  501    0  0.00000000000E+00  0.00000000000E+00  0.16435912026E+04  0.16435912027E+04  0.50400001928E-02 0. -1.
       -1   -1    0    0    0  501  0.00000000000E+00  0.00000000000E+00 -0.13707008115E+04  0.13707008115E+04  0.50400001928E-02 0.  1.
    10030    2    1    2    0    0  0.00000000000E+00  0.00000000000E+00  0.27289039115E+03  0.30142920142E+04  0.30019139197E+04 0.  0.
        2    1    3    3  502    0  0.67355682748E+03 -0.10970002301E+04 -0.63860765986E+03  0.14369787917E+04  0.25500000920E-02 0.  1.
       -2    1    3    3    0  502 -0.67355682748E+03  0.10970002301E+04  0.91149805101E+03  0.15773132224E+04  0.25500000920E-02 0. -1.
</event>
<event>
 5   0  0.5916703E-07  0.2999804E+04  0.7818609E-02  0.8243787E-01
        1   -1    0    0  501    0  0.00000000000E+00  0.00000000000E+00  0.14930685550E+04  0.14930685550E+04  0.50400001928E-02 0. -1.
       -1   -1    0    0    0  501  0.00000000000E+00  0.00000000000E+00 -0.15067670546E+04  0.15067670546E+04  0.50400001928E-02 0.  1.
    10030    2    1    2    0    0  0.00000000000E+00  0.00000000000E+00 -0.13698499574E+02  0.29998356096E+04  0.29998043329E+04 0.  0.
        5    1    3    3  502    0  0.63107509610E+03 -0.11930251886E+04 -0.66116451688E+03  0.15029056810E+04  0.46999998093E+01 0.  1.
       -5    1    3    3    0  502 -0.63107509610E+03  0.11930251886E+04  0.64746601731E+03  0.14969299286E+04  0.46999998093E+01 0. -1.
</event>
<event>
 5   0  0.5931588E-07  0.2997640E+04  0.7818609E-02  0.8244405E-01
       -1   -1    0    0    0  501  0.00000000000E+00  0.00000000000E+00  0.10291617970E+04  0.10291617970E+04  0.50400001928E-02 0.  1.
        1   -1    0    0  501    0  0.00000000000E+00  0.00000000000E+00 -0.21828075162E+04  0.21828075162E+04  0.50400001928E-02 0. -1.
    10030    2    1    2    0    0  0.00000000000E+00  0.00000000000E+00 -0.11536457192E+04  0.32119693132E+04  0.29976404760E+04 0.  0.
        2    1    3    3  502    0 -0.58905795850E+02  0.75147316969E+03  0.81128780249E+03  0.11074157828E+04  0.25500000920E-02 0.  1.
       -2    1    3    3    0  502  0.58905795850E+02 -0.75147316969E+03 -0.19649335217E+04  0.21045535304E+04  0.25500000920E-02 0. -1.
</event>
<event>
 5   0  0.5916703E-07  0.3001624E+04  0.7818609E-02  0.8243267E-01
       -1   -1    0    0    0  501  0.00000000000E+00  0.00000000000E+00  0.11049664330E+04  0.11049664331E+04  0.50400001928E-02 0. -1.
        1   -1    0    0  501    0  0.00000000000E+00  0.00000000000E+00 -0.20384663074E+04  0.20384663074E+04  0.50400001928E-02 0.  1.
    10030    2    1    2    0    0  0.00000000000E+00  0.00000000000E+00 -0.93349987434E+03  0.31434327404E+04  0.30016241234E+04 0.  0.
        5    1    3    3  502    0  0.59558219590E+03  0.10075862054E+04 -0.14505277278E+04  0.18638671874E+04  0.46999998093E+01 0.  1.
       -5    1    3    3    0  502 -0.59558219590E+03 -0.10075862054E+04  0.51702785342E+03  0.12795655530E+04  0.46999998093E+01 0. -1.
</event>
<event>
 5   0  0.5931588E-07  0.2985650E+04  0.7818609E-02  0.8247841E-01
       -1   -1    0    0    0  501  0.00000000000E+00  0.00000000000E+00  0.11653477881E+04  0.11653477881E+04  0.50400001928E-02 0.  1.
        1   -1    0    0  501    0  0.00000000000E+00  0.00000000000E+00 -0.19123267926E+04  0.19123267927E+04  0.50400001928E-02 0. -1.
    10030    2    1    2    0    0  0.00000000000E+00  0.00000000000E+00 -0.74697900458E+03  0.30776745807E+04  0.29856495427E+04 0.  0.
        2    1    3    3  502    0  0.22223653121E+03  0.19061492012E+03  0.11354608780E+04  0.11726016071E+04  0.25500000920E-02 0.  1.
       -2    1    3    3    0  502 -0.22223653121E+03 -0.19061492012E+03 -0.18824398825E+04  0.19050729736E+04  0.25500000920E-02 0. -1.
</event>
<event>
 5   0  0.1635086E-06  0.2996572E+04  0.7818609E-02  0.8244710E-01
        2   -1    0    0  501    0  0.00000000000E+00  0.00000000000E+00  0.19122393550E+04  0.19122393550E+04  0.25500000920E-02 0. -1.
       -2   -1    0    0    0  501  0.00000000000E+00  0.00000000000E+00 -0.11739433937E+04  0.11739433937E+04  0.25500000920E-02 0.  1.
    10030    2    1    2    0    0  0.00000000000E+00  0.00000000000E+00  0.73829596133E+03  0.30861827487E+04  0.29965718800E+04 0.  0.
        3    1    3    3  502    0 -0.47980085616E+03  0.68764040477E+03  0.16479735783E+04  0.18490200412E+04  0.10100000352E+00 0. -1.
       -3    1    3    3    0  502  0.47980085616E+03 -0.68764040477E+03 -0.90967761696E+03  0.12371627075E+04  0.10100000352E+00 0.  1.
</event>
<event>
 5   0  0.1674806E-06  0.2980647E+04  0.7818609E-02  0.8249279E-01
        2   -1    0    0  501    0  0.00000000000E+00  0.00000000000E+00  0.28251580790E+04  0.28251580790E+04  0.25500000920E-02 0.  1.
       -2   -1    0    0    0  501  0.00000000000E+00  0.00000000000E+00 -0.78617317817E+03  0.78617317817E+03  0.25500000920E-02 0. -1.
    10030    2    1    2    0    0  0.00000000000E+00  0.00000000000E+00  0.20389849008E+04  0.36113312572E+04  0.29806465780E+04 0.  0.
        2    1    3    3  502    0  0.11549684816E+02 -0.59255980735E+03  0.26762340128E+04  0.27410744266E+04  0.25500000920E-02 0.  1.
       -2    1    3    3    0  502 -0.11549684816E+02  0.59255980735E+03 -0.63724911199E+03  0.87025683062E+03  0.25500000920E-02 0. -1.
</event>
<event>
 5   0  0.1723916E-06  0.2992683E+04  0.7818609E-02  0.8245823E-01
        2   -1    0    0  501    0  0.00000000000E+00  0.00000000000E+00  0.14662008810E+04  0.14662008810E+04  0.25500000920E-02 0. -1.
       -2   -1    0    0    0  501  0.00000000000E+00  0.00000000000E+00 -0.15271017609E+04  0.15271017609E+04  0.25500000920E-02 0.  1.
    10030    2    1    2    0    0  0.00000000000E+00  0.00000000000E+00 -0.60900879951E+02  0.29933026419E+04  0.29926830418E+04 0.  0.
        1    1    3    3  502    0 -0.92623692249E+03 -0.69259908740E+03  0.91918260194E+03  0.14773303585E+04  0.50400001928E-02 0. -1.
       -1    1    3    3    0  502  0.92623692249E+03  0.69259908740E+03 -0.98008348189E+03  0.15159722834E+04  0.50400001928E-02 0.  1.
</event>
<event>
 5   0  0.5931588E-07  0.2994067E+04  0.7818609E-02  0.8245427E-01
       -1   -1    0    0    0  501  0.00000000000E+00  0.00000000000E+00  0.17205650650E+04  0.17205650650E+04  0.50400001928E-02 0.  1.
        1   -1    0    0  501    0  0.00000000000E+00  0.00000000000E+00 -0.13025427490E+04  0.13025427490E+04  0.50400001928E-02 0. -1.
    10030    2    1    2    0    0  0.00000000000E+00  0.00000000000E+00  0.41802231594E+03  0.30231078140E+04  0.29940671667E+04 0.  0.
        2    1    3    3  502    0  0.99399542182E+03  0.76148609956E+03  0.10374703265E+04  0.16261096693E+04  0.25500000920E-02 0.  1.
       -2    1    3    3    0  502 -0.99399542182E+03 -0.76148609956E+03 -0.61944801054E+03  0.13969981447E+04  0.25500000920E-02 0. -1.
</event>
<event>
 5   0  0.1625212E-06  0.2983425E+04  0.7818609E-02  0.8248480E-01
       -2   -1    0    0    0  501  0.00000000000E+00  0.00000000000E+00  0.20054374447E+04  0.20054374447E+04  0.25500000920E-02 0.  1.
        2   -1    0    0  501    0  0.00000000000E+00  0.00000000000E+00 -0.11095864236E+04  0.11095864236E+04  0.25500000920E-02 0. -1.
    10030    2    1    2    0    0  0.00000000000E+00  0.00000000000E+00  0.89585102109E+03  0.31150238683E+04  0.29834249862E+04 0.  0.
        4    1    3    3  502    0  0.58495143806E+03  0.13515608208E+04  0.69571134174E+03  0.16287727653E+04  0.12699999809E+01 0.  1.
       -4    1    3    3    0  502 -0.58495143806E+03 -0.13515608208E+04  0.20013967935E+03  0.14862511030E+04  0.12699999809E+01 0. -1.
</event>
<event>
 5   0  0.6291798E-07  0.2993056E+04  0.7818609E-02  0.8245717E-01
        1   -1    0    0  501    0  0.00000000000E+00  0.00000000000E+00  0.16555318627E+04  0.16555318627E+04  0.50400001928E-02 0. -1.
       -1   -1    0    0    0  501  0.00000000000E+00  0.00000000000E+00 -0.13527954223E+04  0.13527954223E+04  0.50400001928E-02 0.  1.
    10030    2    1    2    0    0  0.00000000000E+00  0.00000000000E+00  0.30273644045E+03  0.30083272850E+04  0.29930559135E+04 0.  0.
        1    1    3    3  502    0 -0.28535576512E+03  0.87158680964E+03 -0.10372494393E+04  0.13845497025E+04  0.50400001928E-02 0.  1.
       -1    1    3    3    0  502  0.28535576512E+03 -0.87158680964E+03  0.13399858797E+04  0.16237775825E+04  0.50400001928E-02 0. -1.
</event>
<event>
 5   0  0.5874741E-07  0.3014084E+04  0.7818609E-02  0.8239721E-01
       -1   -1    0    0    0  501  0.00000000000E+00  0.00000000000E+00  0.14448210488E+04  0.14448210488E+04  0.50400001928E-02 0.  1.
        1   -1    0    0  501    0  0.00000000000E+00  0.00000000000E+00 -0.15719421886E+04  0.15719421886E+04  0.50400001928E-02 0. -1.
    10030    2    1    2    0    0  0.00000000000E+00  0.00000000000E+00 -0.12712113976E+03  0.30167632374E+04  0.30140837159E+04 0.  0.
        4    1    3    3  502    0  0.94422925010E+03  0.93028651281E+03 -0.78125568626E+03  0.15386240388E+04  0.12699999809E+01 0. -1.
       -4    1    3    3    0  502 -0.94422925010E+03 -0.93028651281E+03  0.65413454650E+03  0.14781391986E+04  0.12699999809E+01 0.  1.
</event>
<event>
 5   0  0.1635086E-06  0.2996767E+04  0.7818609E-02  0.8244655E-01
        2   -1    0    0  501    0  0.00000000000E+00  0.00000000000E+00  0.21364549111E+04  0.21364549111E+04  0.25500000920E-02 0.  1.
       -2   -1    0    0    0  501  0.00000000000E+00  0.00000000000E+00 -0.10508779547E+04  0.10508779547E+04  0.25500000920E-02 0. -1.
    10030    2    1    2    0    0  0.00000000000E+00  0.00000000000E+00  0.10855769564E+04  0.31873328658E+04  0.29967671696E+04 0.  0.
        3    1    3    3  502    0 -0.75880656400E+03 -0.39868541146E+03 -0.76435329162E+03  0.11484656823E+04  0.10100000352E+00 0. -1.
       -3    1    3    3    0  502  0.75880656400E+03  0.39868541146E+03  0.18499302480E+04  0.20388671834E+04  0.10100000352E+00 0.  1.
</event>
<event>
 5   0  0.5916703E-07  0.2982140E+04  0.7818609E-02  0.8248849E-01
        1   -1    0    0  501    0  0.00000000000E+00  0.00000000000E+00  0.14493619107E+04  0.14493619107E+04  0.50400001928E-02 0.  1.
       -1   -1    0    0    0  501  0.00000000000E+00  0.00000000000E+00 -0.15339782057E+04  0.15339782057E+04  0.50400001928E-02 0. -1.
    10030    2    1    2    0    0  0.00000000000E+00  0.00000000000E+00 -0.84616294994E+02  0.29833401163E+04  0.29821398915E+04 0.  0.
        5    1    3    3  502    0 -0.44433941296E+03  0.93771480826E+03 -0.11134962664E+04  0.15220521019E+04  0.46999998093E+01 0. -1.
       -5    1    3    3    0  502  0.44433941296E+03 -0.93771480826E+03  0.10288799714E+04  0.14612880144E+04  0.46999998093E+01 0.  1.
</event>
<event>
 5   0  0.1635086E-06  0.2991049E+04  0.7818609E-02  0.8246292E-01
        2   -1    0    0  501    0  0.00000000000E+00  0.00000000000E+00  0.19735661969E+04  0.19735661969E+04  0.25500000920E-02 0.  1.
       -2   -1    0    0    0  501  0.00000000000E+00  0.00000000000E+00 -0.11332751875E+04  0.11332751875E+04  0.25500000920E-02 0. -1.
    10030    2    1    2    0    0  0.00000000000E+00  0.00000000000E+00  0.84029100934E+03  0.31068413844E+04  0.29910490480E+04 0.  0.
        3    1    3    3  502    0 -0.10982262555E+04  0.10147059372E+04  0.38960408398E+03  0.15451603152E+04  0.10100000352E+00 0. -1.
       -3    1    3    3    0  502  0.10982262555E+04 -0.10147059372E+04  0.45068692536E+03  0.15616810692E+04  0.10100000352E+00 0.  1.
</event>
<event>
 5   0  0.5874741E-07  0.2979283E+04  0.7818609E-02  0.8249672E-01
       -1   -1    0    0    0  501  0.00000000000E+00  0.00000000000E+00  0.96990926196E+03  0.96990926197E+03  0.50400001928E-02 0. -1.
        1   -1    0    0  501    0  0.00000000000E+00  0.00000000000E+00 -0.22878760542E+04  0.22878760542E+04  0.50400001928E-02 0.  1.
    10030    2    1    2    0    0  0.00000000000E+00  0.00000000000E+00 -0.13179667923E+04  0.32577853162E+04  0.29792832529E+04 0.  0.
        4    1    3    3  502    0  0.22775027787E+03 -0.14713925804E+04 -0.70985367883E+03  0.16494726954E+04  0.12699999809E+01 0.  1.
       -4    1    3    3    0  502 -0.22775027787E+03  0.14713925804E+04 -0.60811311346E+03  0.16083126208E+04  0.12699999809E+01 0. -1.
</event>
<event>
 5   0  0.5916703E-07  0.2997989E+04  0.7818609E-02  0.8244305E-01
        1   -1    0    0  501    0  0.00000000000E+00  0.00000000000E+00  0.13690316051E+04  0.13690316051E+04  0.50400001928E-02 0.  1.
       -1   -1    0    0    0  501  0.00000000000E+00  0.00000000000E+00 -0.16412953024E+04  0.16412953024E+04  0.50400001928E-02 0. -1.
    10030    2    1    2    0    0  0.00000000000E+00  0.00000000000E+00 -0.27226369729E+03  0.30103269074E+04  0.29979894211E+04 0.  0.
        5    1    3    3  502    0  0.47388319500E+03  0.28706714483E+01 -0.15640916064E+04  0.16343127505E+04  0.46999998093E+01 0. -1.
       -5    1    3    3    0  502 -0.47388319500E+03 -0.28706714483E+01  0.12918279091E+04  0.13760141569E+04  0.46999998093E+01 0.  1.
</event>
<event>
 5   0  0.1560174E-06  0.3026213E+04  0.7818609E-02  0.8236285E-01
       -2   -1    0    0    0  501  0.00000000000E+00  0.00000000000E+00  0.98327818746E+03  0.98327818746E+03  0.25500000920E-02 0. -1.
        2   -1    0    0  501    0  0.00000000000E+00  0.00000000000E+00 -0.23284273106E+04  0.23284273106E+04  0.25500000920E-02 0.  1.
    10030    2    1    2    0    0  0.00000000000E+00  0.00000000000E+00 -0.13451491231E+04  0.33117054981E+04  0.30262133339E+04 0.  0.
        5    1    3    3  502    0 -0.70217844989E+02 -0.93438357246E+03 -0.19727065818E+04  0.21839406023E+04  0.46999998093E+01 0.  1.
       -5    1    3    3    0  502  0.70217844989E+02  0.93438357246E+03  0.62755745869E+03  0.11277648958E+04  0.46999998093E+01 0. -1.
</event>
<event>
 5   0  0.6291798E-07  0.3021564E+04  0.7818609E-02  0.8237600E-01
        1   -1    0    0  501    0  0.00000000000E+00  0.00000000000E+00  0.14955394001E+04  0.14955394001E+04  0.50400001928E-02 0. -1.
       -1   -1    0    0    0  501  0.00000000000E+00  0.00000000000E+00 -0.15261795617E+04  0.15261795617E+04  0.50400001928E-02 0.  1.
    10030    2    1    2    0    0  0.00000000000E+00  0.00000000000E+00 -0.30640161617E+02  0.30217189619E+04  0.30215636126E+04 0.  0.
        1    1    3    3  502    0  0.42227080665E+03  0.65517100757E+03  0.12789257275E+04  0.14977358578E+04  0.50400001928E-02 0. -1.
       -1    1    3    3    0  502 -0.42227080665E+03 -0.65517100757E+03 -0.13095658892E+04  0.15239831040E+04  0.50400001928E-02 0.  1.
</event>
<event>
 5   0  0.1560174E-06  0.2999567E+04  0.7818609E-02  0.8243854E-01
       -2   -1    0    0    0  501  0.00000000000E+00  0.00000000000E+00  0.14891916019E+04  0.14891916019E+04  0.25500000920E-02 0. -1.
        2   -1    0    0  501    0  0.00000000000E+00  0.00000000000E+00 -0.15104509112E+04  0.15104509112E+04  0.25500000920E-02 0.  1.
    10030    2    1    2    0    0  0.00000000000E+00  0.00000000000E+00 -0.21259309300E+02  0.29996425132E+04  0.29995671769E+04 0.  0.
        5    1    3    3  502    0  0.10981091979E+04 -0.37212104024E+03  0.94071481694E+03  0.14930788110E+04  0.46999998093E+01 0. -1.
       -5    1    3    3    0  502 -0.10981091979E+04  0.37212104024E+03 -0.96197412624E+03  0.15065637021E+04  0.46999998093E+01 0.  1.
</event>
<event>
 5   0  0.5931588E-07  0.2954731E+04  0.7818609E-02  0.8256777E-01
        1   -1    0    0  501    0  0.00000000000E+00  0.00000000000E+00  0.13495627545E+04  0.13495627545E+04  0.50400001928E-02 0.  1.
       -1   -1    0    0    0  501  0.00000000000E+00  0.00000000000E+00 -0.16172710912E+04  0.16172710912E+04  0.50400001928E-02 0. -1.
    10030    2    1    2    0    0  0.00000000000E+00  0.00000000000E+00 -0.26770833668E+03  0.29668338457E+04  0.29547310054E+04 0.  0.
        2    1    3    3  502    0  0.52941089134E+03  0.41713792312E+03 -0.14538983587E+04  0.16025293683E+04  0.25500000920E-02 0. -1.
       -2    1    3    3    0  502 -0.52941089134E+03 -0.41713792312E+03  0.11861900220E+04  0.13643044774E+04  0.25500000920E-02 0.  1.
</event>
<event>
 5   0  0.5887179E-07  0.3003436E+04  0.7818609E-02  0.8242750E-01
       -1   -1    0    0    0  501  0.00000000000E+00  0.00000000000E+00  0.12353243715E+04  0.12353243715E+04  0.50400001928E-02 0.  1.
        1   -1    0    0  501    0  0.00000000000E+00  0.00000000000E+00 -0.18255583197E+04  0.18255583197E+04  0.50400001928E-02 0. -1.
    10030    2    1    2    0    0  0.00000000000E+00  0.00000000000E+00 -0.59023394813E+03  0.30608826912E+04  0.30034358218E+04 0.  0.
        3    1    3    3  502    0 -0.95891511231E+03  0.41734540273E+03  0.80320759909E+03  0.13186500048E+04  0.10100000352E+00 0.  1.
       -3    1    3    3    0  502  0.95891511231E+03 -0.41734540273E+03 -0.13934415472E+04  0.17422326864E+04  0.10100000352E+00 0. -1.
</event>
<event>
 5   0  0.5916703E-07  0.3004584E+04  0.7818609E-02  0.8242423E-01
        1   -1    0    0  501    0  0.00000000000E+00  0.00000000000E+00  0.13073497654E+04  0.13073497654E+04  0.50400001928E-02 0.  1.
       -1   -1    0    0    0  501  0.00000000000E+00  0.00000000000E+00 -0.17263031333E+04  0.17263031333E+04  0.50400001928E-02 0. -1.
    10030    2    1    2    0    0  0.00000000000E+00  0.00000000000E+00 -0.41895336787E+03  0.30336528987E+04  0.30045844946E+04 0.  0.
        5    1    3    3  502    0  0.13600311794E+03 -0.14441465836E+04  0.18520630330E+03  0.14623199609E+04  0.46999998093E+01 0. -1.
       -5    1    3    3    0  502 -0.13600311794E+03  0.14441465836E+04 -0.60415967117E+03  0.15713329378E+04  0.46999998093E+01 0.  1.
</event>
<event>
 5   0  0.1674806E-06  0.3000655E+04  0.7818609E-02  0.8243544E-01
        2   -1    0    0  501    0  0.00000000000E+00  0.00000000000E+00  0.24787412192E+04  0.24787412192E+04  0.25500000920E-02 0. -1.
       -2   -1    0    0    0  501  0.00000000000E+00  0.00000000000E+00 -0.90811527387E+03  0.90811527388E+03  0.25500000920E-02 0.  1.
    10030    2    1    2    0    0  0.00000000000E+00  0.00000000000E+00  0.15706259453E+04  0.33868564931E+04  0.30006551026E+04 0.  0.
        2    1    3    3  502    0 -0.54251796465E+03 -0.35659314134E+03  0.23119884378E+04  0.24014110325E+04  0.25500000920E-02 0. -1.
       -2    1    3    3    0  502  0.54251796465E+03  0.35659314134E+03 -0.74136249251E+03  0.98544546056E+03  0.25500000920E-02 0.  1.
</event>
<event>
 5   0  0.1723916E-06  0.2998434E+04  0.7818609E-02  0.8244178E-01
        2   -1    0    0  501    0  0.00000000000E+00  0.00000000000E+00  0.80685194412E+03  0.80685194413E+03  0.25500000920E-02 0.  1.
       -2   -1    0    0    0  501  0.00000000000E+00  0.00000000000E+00 -0.27857052604E+04  0.27857052604E+04  0.25500000920E-02 0. -1.
    10030    2    1    2    0    0  0.00000000000E+00  0.00000000000E+00 -0.19788533163E+04  0.35925572045E+04  0.29984340614E+04 0.  0.
        1    1    3    3  502    0  0.31607028825E+03 -0.14649533310E+04 -0.94056621387E+03  0.17693652793E+04  0.50400001928E-02 0.  1.
       -1    1    3    3    0  502 -0.31607028825E+03  0.14649533310E+04 -0.10382871024E+04  0.18231919252E+04  0.50400001928E-02 0. -1.
</event>
<event>
 5   0  0.6291798E-07  0.2972398E+04  0.7818609E-02  0.8251657E-01
       -1   -1    0    0    0  501  0.00000000000E+00  0.00000000000E+00  0.10474205936E+04  0.10474205936E+04  0.50400001928E-02 0.  1.
        1   -1    0    0  501    0  0.00000000000E+00  0.00000000000E+00 -0.21087868443E+04  0.21087868443E+04  0.50400001928E-02 0. -1.
    10030    2    1    2    0    0  0.00000000000E+00  0.00000000000E+00 -0.10613662507E+04  0.31562074379E+04  0.29723975294E+04 0.  0.
        1    1    3    3  502    0 -0.46323505072E+03 -0.12762604098E+04  0.11114508719E+03  0.13622703756E+04  0.50400001928E-02 0.  1.
       -1    1    3    3    0  502  0.46323505072E+03  0.12762604098E+04 -0.11725113379E+04  0.17939370623E+04  0.50400001928E-02 0. -1.
</event>
<event>
 5   0  0.5887179E-07  0.3003596E+04  0.7818609E-02  0.8242705E-01
        1   -1    0    0  501    0  0.00000000000E+00  0.00000000000E+00  0.20075431545E+04  0.20075431546E+04  0.50400001928E-02 0.  1.
       -1   -1    0    0    0  501  0.00000000000E+00  0.00000000000E+00 -0.11234610936E+04  0.11234610937E+04  0.50400001928E-02 0. -1.
    10030    2    1    2    0    0  0.00000000000E+00  0.00000000000E+00  0.88408206090E+03  0.31310042482E+04  0.30035955973E+04 0.  0.
        3    1    3    3  502    0  0.95589503871E+03  0.39857004101E+03  0.15757418119E+04  0.18856181137E+04  0.10100000352E+00 0.  1.
       -3    1    3    3    0  502 -0.95589503871E+03 -0.39857004101E+03 -0.69165975104E+03  0.12453861345E+04  0.10100000352E+00 0. -1.
</event>
<event>
 5   0  0.5887179E-07  0.2987563E+04  0.7818609E-02  0.8247291E-01
       -1   -1    0    0    0  501  0.00000000000E+00  0.00000000000E+00  0.11526282365E+04  0.11526282365E+04  0.50400001928E-02 0.  1.
        1   -1    0    0  501    0  0.00000000000E+00  0.00000000000E+00 -0.19359093540E+04  0.19359093540E+04  0.50400001928E-02 0. -1.
    10030    2    1    2    0    0  0.00000000000E+00  0.00000000000E+00 -0.78328111749E+03  0.30885375905E+04  0.29875634117E+04 0.  0.
        3    1    3    3  502    0 -0.11982424667E+04 -0.50092968960E+03 -0.11546005667E+04  0.17377623663E+04  0.10100000352E+00 0. -1.
       -3    1    3    3    0  502  0.11982424667E+04  0.50092968960E+03  0.37131944923E+03  0.13507752242E+04  0.10100000352E+00 0.  1.
</event>
<event>
 5   0  0.5931588E-07  0.2989829E+04  0.7818609E-02  0.8246641E-01
        1   -1    0    0  501    0  0.00000000000E+00  0.00000000000E+00  0.19162827582E+04  0.19162827582E+04  0.50400001928E-02 0. -1.
       -1   -1    0    0    0  501  0.00000000000E+00  0.00000000000E+00 -0.11662003366E+04  0.11662003366E+04  0.50400001928E-02 0.  1.
    10030    2    1    2    0    0  0.00000000000E+00  0.00000000000E+00  0.75008242155E+03  0.30824830948E+04  0.29898291574E+04 0.  0.
        2    1    3    3  502    0  0.14853008096E+04 -0.14018825608E+03  0.27724187461E+03  0.15174433430E+04  0.25500000920E-02 0.  1.
       -2    1    3    3    0  502 -0.14853008096E+04  0.14018825608E+03  0.47284054693E+03  0.15650397518E+04  0.25500000920E-02 0. -1.
</event>
<event>
 5   0  0.1723916E-06  0.3045991E+04  0.7818609E-02  0.8230719E-01
        2   -1    0    0  501    0  0.00000000000E+00  0.00000000000E+00  0.23998550165E+04  0.23998550165E+04  0.25500000920E-02 0. -1.
       -2   -1    0    0    0  501  0.00000000000E+00  0.00000000000E+00 -0.96652289762E+03  0.96652289763E+03  0.25500000920E-02 0.  1.
    10030    2    1    2    0    0  0.00000000000E+00  0.00000000000E+00  0.14333321189E+04  0.33663779141E+04  0.30459906923E+04 0.  0.
        1    1    3    3  502    0  0.10030463419E+04 -0.40583693133E+03  0.19011777606E+04  0.21875288469E+04  0.50400001928E-02 0. -1.
       -1    1    3    3    0  502 -0.10030463419E+04  0.40583693133E+03 -0.46784564168E+03  0.11788490672E+04  0.50400001928E-02 0.  1.
</event>
<event>
 5   0  0.1635086E-06  0.3024298E+04  0.7818609E-02  0.8236826E-01
        2   -1    0    0  501    0  0.00000000000E+00  0.00000000000E+00  0.22242119244E+04  0.22242119244E+04  0.25500000920E-02 0.  1.
       -2   -1    0    0    0  501  0.00000000000E+00  0.00000000000E+00 -0.10280470429E+04  0.10280470429E+04  0.25500000920E-02 0. -1.
    10030    2    1    2    0    0  0.00000000000E+00  0.00000000000E+00  0.11961648815E+04  0.32522589673E+04  0.30242979296E+04 0.  0.
        3    1    3    3  502    0  0.25376683988E+03 -0.13165366305E+04 -0.15385737068E+03  0.13495697126E+04  0.10100000352E+00 0. -1.
       -3    1    3    3    0  502 -0.25376683988E+03  0.13165366305E+04  0.13500222522E+04  0.19026892547E+04  0.10100000352E+00 0.  1.
</event>
<event>
 5   0  0.5887179E-07  0.2925736E+04  0.7818609E-02  0.8265261E-01
        1   -1    0    0  501    0  0.00000000000E+00  0.00000000000E+00  0.11670763355E+04  0.11670763355E+04  0.50400001928E-02 0. -1.
       -1   -1    0    0    0  501  0.00000000000E+00  0.00000000000E+00 -0.18336268822E+04  0.18336268822E+04  0.50400001928E-02 0.  1.
    10030    2    1    2    0    0  0.00000000000E+00  0.00000000000E+00 -0.66655054666E+03  0.30007032177E+04  0.29257358339E+04 0.  0.
        3    1    3    3  502    0 -0.65920171360E+03  0.71360508905E+03 -0.14550107391E+04  0.17495243306E+04  0.10100000352E+00 0.  1.
       -3    1    3    3    0  502  0.65920171360E+03 -0.71360508905E+03  0.78846019244E+03  0.12511788871E+04  0.10100000352E+00 0. -1.
</event>
<event>
 5   0  0.1625212E-06  0.3003168E+04  0.7818609E-02  0.8242827E-01
       -2   -1    0    0    0  501  0.00000000000E+00  0.00000000000E+00  0.11248050073E+04  0.11248050073E+04  0.25500000920E-02 0.  1.
        2   -1    0    0  501    0  0.00000000000E+00  0.00000000000E+00 -0.20045735239E+04  0.20045735239E+04  0.25500000920E-02 0. -1.
    10030    2    1    2    0    0  0.00000000000E+00  0.00000000000E+00 -0.87976851657E+03  0.31293785312E+04  0.30031678856E+04 0.  0.
        4    1    3    3  502    0  0.24321751227E+03 -0.30553998246E+03  0.10709609607E+04  0.11399422930E+04  0.12699999809E+01 0.  1.
       -4    1    3    3    0  502 -0.24321751227E+03  0.30553998246E+03 -0.19507294773E+04  0.19894362382E+04  0.12699999809E+01 0. -1.
</event>
<event>
 5   0  0.5887179E-07  0.3009409E+04  0.7818609E-02  0.8241049E-01
        1   -1    0    0  501    0  0.00000000000E+00  0.00000000000E+00  0.23769573324E+04  0.23769573324E+04  0.50400001928E-02 0. -1.
       -1   -1    0    0    0  501  0.00000000000E+00  0.00000000000E+00 -0.95253504958E+03  0.95253504960E+03  0.50400001928E-02 0.  1.
    10030    2    1    2    0    0  0.00000000000E+00  0.00000000000E+00  0.14244222829E+04  0.33294923820E+04  0.30094086931E+04 0.  0.
        3    1    3    3  502    0 -0.10630546602E+04  0.22156637864E+03  0.18646114757E+04  0.21577657047E+04  0.10100000352E+00 0. -1.
       -3    1    3    3    0  502  0.10630546602E+04 -0.22156637864E+03 -0.44018919287E+03  0.11717266774E+04  0.10100000352E+00 0.  1.
</event>
<event>
 5   0  0.5887179E-07  0.2991072E+04  0.7818609E-02  0.8246285E-01
        1   -1    0    0  501    0  0.00000000000E+00  0.00000000000E+00  0.15930772343E+04  0.15930772343E+04  0.50400001928E-02 0. -1.
       -1   -1    0    0    0  501  0.00000000000E+00  0.00000000000E+00 -0.14039666552E+04  0.14039666552E+04  0.50400001928E-02 0.  1.
    10030    2    1    2    0    0  0.00000000000E+00  0.00000000000E+00  0.18911057909E+03  0.29970438895E+04  0.29910715913E+04 0.  0.
        3    1    3    3  502    0  0.15084361690E+03  0.63649492971E+03  0.14421375723E+04  0.15835530872E+04  0.10100000352E+00 0. -1.
       -3    1    3    3    0  502 -0.15084361690E+03 -0.63649492971E+03 -0.12530269932E+04  0.14134908023E+04  0.10100000352E+00 0.  1.
</event>
<event>
 5   0  0.1560174E-06  0.2976327E+04  0.7818609E-02  0.8250523E-01
        2   -1    0    0  501    0  0.00000000000E+00  0.00000000000E+00  0.22590548719E+04  0.22590548719E+04  0.25500000920E-02 0. -1.
       -2   -1    0    0    0  501  0.00000000000E+00  0.00000000000E+00 -0.98033471892E+03  0.98033471893E+03  0.25500000920E-02 0.  1.
    10030    2    1    2    0    0  0.00000000000E+00  0.00000000000E+00  0.12787201530E+04  0.32393895909E+04  0.29763265432E+04 0.  0.
        5    1    3    3  502    0 -0.39214212886E+03  0.37305665911E+03 -0.86940285612E+03  0.10241240825E+04  0.46999998093E+01 0.  1.
       -5    1    3    3    0  502  0.39214212886E+03 -0.37305665911E+03  0.21481230091E+04  0.22152655084E+04  0.46999998093E+01 0. -1.
</event>
<event>
 5   0  0.5874741E-07  0.2999309E+04  0.7818609E-02  0.8243928E-01
        1   -1    0    0  501    0  0.00000000000E+00  0.00000000000E+00  0.23167263574E+04  0.23167263574E+04  0.50400001928E-02 0. -1.
       -1   -1    0    0    0  501  0.00000000000E+00  0.00000000000E+00 -0.97075044938E+03  0.97075044939E+03  0.50400001928E-02 0.  1.
    10030    2    1    2    0    0  0.00000000000E+00  0.00000000000E+00  0.13459759080E+04  0.32874768068E+04  0.29993086887E+04 0.  0.
        4    1    3    3  502    0 -0.51194422783E+03 -0.33600668847E+03  0.21734441807E+04  0.22580630210E+04  0.12699999809E+01 0. -1.
       -4    1    3    3    0  502  0.51194422783E+03  0.33600668847E+03 -0.82746827273E+03  0.10294137858E+04  0.12699999809E+01 0.  1.
</event>
<event>
 5   0  0.5887179E-07  0.2994810E+04  0.7818609E-02  0.8245214E-01
        1   -1    0    0  501    0  0.00000000000E+00  0.00000000000E+00  0.17160865810E+04  0.17160865810E+04  0.50400001928E-02 0. -1.
       -1   -1    0    0    0  501  0.00000000000E+00  0.00000000000E+00 -0.13065901014E+04  0.13065901014E+04  0.50400001928E-02 0.  1.
    10030    2    1    2    0    0  0.00000000000E+00  0.00000000000E+00  0.40949647960E+03  0.30226766824E+04  0.29948100039E+04 0.  0.
        3    1    3    3  502    0 -0.28388537412E+02  0.24091819246E+03  0.16961220497E+04  0.17133818904E+04  0.10100000352E+00 0. -1.
       -3    1    3    3    0  502  0.28388537412E+02 -0.24091819246E+03 -0.12866255701E+04  0.13092947920E+04  0.10100000352E+00 0.  1.
</event>
<event>
 5   0  0.1674806E-06  0.3007132E+04  0.7818609E-02  0.8241697E-01
        2   -1    0    0  501    0  0.00000000000E+00  0.00000000000E+00  0.18491640600E+04  0.18491640600E+04  0.25500000920E-02 0.  1.
       -2   -1    0    0    0  501  0.00000000000E+00  0.00000000000E+00 -0.12225583315E+04  0.12225583315E+04  0.25500000920E-02 0. -1.
    10030    2    1    2    0    0  0.00000000000E+00  0.00000000000E+00  0.62660572846E+03  0.30717223914E+04  0.30071321406E+04 0.  0.
        2    1    3    3  502    0  0.21483051730E+03  0.13451879538E+04  0.96339071969E+03  0.16684736920E+04  0.25500000920E-02 0.  1.
       -2    1    3    3    0  502 -0.21483051730E+03 -0.13451879538E+04 -0.33678499122E+03  0.14032486994E+04  0.25500000920E-02 0. -1.
</event>
<event>
 5   0  0.5874741E-07  0.2994470E+04  0.7818609E-02  0.8245312E-01
        1   -1    0    0  501    0  0.00000000000E+00  0.00000000000E+00  0.21645896825E+04  0.21645896825E+04  0.50400001928E-02 0.  1.
       -1   -1    0    0    0  501  0.00000000000E+00  0.00000000000E+00 -0.10356295204E+04  0.10356295204E+04  0.50400001928E-02 0. -1.
    10030    2    1    2    0    0  0.00000000000E+00  0.00000000000E+00  0.11289601621E+04  0.32002192029E+04  0.29944702200E+04 0.  0.
        4    1    3    3  502    0 -0.96671261958E+03 -0.31869750409E+03  0.17379261774E+04  0.20140730868E+04  0.12699999809E+01 0.  1.
       -4    1    3    3    0  502  0.96671261958E+03  0.31869750409E+03 -0.60896601529E+03  0.11861461161E+04  0.12699999809E+01 0. -1.
</event>
<event>
 5   0  0.1723916E-06  0.3003138E+04  0.7818609E-02  0.8242835E-01
       -2   -1    0    0    0  501  0.00000000000E+00  0.00000000000E+00  0.79020439365E+03  0.79020439366E+03  0.25500000920E-02 0.  1.
        2   -1    0    0  501    0  0.00000000000E+00  0.00000000000E+00 -0.28533246800E+04  0.28533246800E+04  0.25500000920E-02 0. -1.
    10030    2    1    2    0    0  0.00000000000E+00  0.00000000000E+00 -0.20631202863E+04  0.36435290737E+04  0.30031381578E+04 0.  0.
        1    1    3    3  502    0 -0.77832760076E+03  0.82168224357E+03  0.16565329975E+03  0.11438516421E+04  0.50400001928E-02 0.  1.
       -1    1    3    3    0  502  0.77832760076E+03 -0.82168224357E+03 -0.22287735861E+04  0.24996774315E+04  0.50400001928E-02 0. -1.
</event>
<event>
 5   0  0.5931588E-07  0.3002660E+04  0.7818609E-02  0.8242972E-01
        1   -1    0    0  501    0  0.00000000000E+00  0.00000000000E+00  0.16567399866E+04  0.16567399866E+04  0.50400001928E-02 0. -1.
       -1   -1    0    0    0  501  0.00000000000E+00  0.00000000000E+00 -0.13604982572E+04  0.13604982572E+04  0.50400001928E-02 0.  1.
    10030    2    1    2    0    0  0.00000000000E+00  0.00000000000E+00  0.29624172946E+03  0.30172382438E+04  0.30026600636E+04 0.  0.
        2    1    3    3  502    0  0.82585750338E+03 -0.10407544713E+04  0.85064421249E+03  0.15775950246E+04  0.25500000920E-02 0. -1.
       -2    1    3    3    0  502 -0.82585750338E+03  0.10407544713E+04 -0.55440248303E+03  0.14396432192E+04  0.25500000920E-02 0.  1.
</event>
<event>
 5   0  0.5874741E-07  0.3008919E+04  0.7818609E-02  0.8241189E-01
       -1   -1    0    0    0  501  0.00000000000E+00  0.00000000000E+00  0.13706261367E+04  0.13706261367E+04  0.50400001928E-02 0.  1.
        1   -1    0    0  501    0  0.00000000000E+00  0.00000000000E+00 -0.16513610609E+04  0.16513610609E+04  0.50400001928E-02 0. -1.
    10030    2    1    2    0    0  0.00000000000E+00  0.00000000000E+00 -0.28073492422E+03  0.30219871976E+04  0.30089191623E+04 0.  0.
        4    1    3    3  502    0 -0.97758832378E+03 -0.10072416641E+04  0.40344729296E+03  0.14604745913E+04  0.12699999809E+01 0.  1.
       -4    1    3    3    0  502  0.97758832378E+03  0.10072416641E+04 -0.68418221718E+03  0.15615126064E+04  0.12699999809E+01 0. -1.
</event>
<event>
 5   0  0.1635086E-06  0.2996792E+04  0.7818609E-02  0.8244647E-01
        2   -1    0    0  501    0  0.00000000000E+00  0.00000000000E+00  0.13541848306E+04  0.13541848306E+04  0.25500000920E-02 0.  1.
       -2   -1    0    0    0  501  0.00000000000E+00  0.00000000000E+00 -0.16579651647E+04  0.16579651647E+04  0.25500000920E-02 0. -1.
    10030    2    1    2    0    0  0.00000000000E+00  0.00000000000E+00 -0.30378033405E+03  0.30121499953E+04  0.29967924691E+04 0.  0.
        3    1    3    3  502    0  0.60394725738E+03 -0.80438407374E+03 -0.12681693351E+04  0.16186536073E+04  0.10100000352E+00 0. -1.
       -3    1    3    3    0  502 -0.60394725738E+03  0.80438407374E+03  0.96438900107E+03  0.13934963880E+04  0.10100000352E+00 0.  1.
</event>
<event>
 5   0  0.5887179E-07  0.2998184E+04  0.7818609E-02  0.8244250E-01
        1   -1    0    0  501    0  0.00000000000E+00  0.00000000000E+00  0.16666820993E+04  0.16666820993E+04  0.50400001928E-02 0. -1.
       -1   -1    0    0    0  501  0.00000000000E+00  0.00000000000E+00 -0.13483536476E+04  0.13483536476E+04  0.50400001928E-02 0.  1.
    10030    2    1    2    0    0  0.00000000000E+00  0.00000000000E+00  0.31832845173E+03  0.30150357469E+04  0.29981840424E+04 0.  0.
        3    1    3    3  502    0  0.12331708229E+04  0.23083502354E+03  0.98431367086E+03  0.15946374194E+04  0.10100000352E+00 0. -1.
       -3    1    3    3    0  502 -0.12331708229E+04 -0.23083502354E+03 -0.66598521913E+03  0.14203983275E+04  0.10100000352E+00 0.  1.
</event>
<event>
 5   0  0.1674806E-06  0.3010654E+04  0.7818609E-02  0.8240695E-01
       -2   -1    0    0    0  501  0.00000000000E+00  0.00000000000E+00  0.13201331655E+04  0.13201331655E+04  0.25500000920E-02 0. -1.
        2   -1    0    0  501    0  0.00000000000E+00  0.00000000000E+00 -0.17165011584E+04  0.17165011584E+04  0.25500000920E-02 0.  1.
    10030    2    1    2    0    0  0.00000000000E+00  0.00000000000E+00 -0.39636799289E+03  0.30366343240E+04  0.30106544856E+04 0.  0.
        2    1    3    3  502    0 -0.43538546490E+03  0.12552963042E+04  0.51551000342E+03  0.14251595974E+04  0.25500000920E-02 0. -1.
       -2    1    3    3    0  502  0.43538546490E+03 -0.12552963042E+04 -0.91187799630E+03  0.16114747266E+04  0.25500000920E-02 0.  1.
</event>
<event>
 5   0  0.1635086E-06  0.3043881E+04  0.7818609E-02  0.8231310E-01
       -2   -1    0    0    0  501  0.00000000000E+00  0.00000000000E+00  0.14094102376E+04  0.14094102376E+04  0.25500000920E-02 0.  1.
        2   -1    0    0  501    0  0.00000000000E+00  0.00000000000E+00 -0.16434550115E+04  0.16434550115E+04  0.25500000920E-02 0. -1.
    10030    2    1    2    0    0  0.00000000000E+00  0.00000000000E+00 -0.23404477397E+03  0.30528652491E+04  0.30438806273E+04 0.  0.
        3    1    3    3  502    0  0.12183790776E+04  0.90891613650E+03 -0.19291732795E+03  0.15322510321E+04  0.10100000352E+00 0. -1.
       -3    1    3    3    0  502 -0.12183790776E+04 -0.90891613650E+03 -0.41127446022E+02  0.15206142170E+04  0.10100000352E+00 0.  1.
</event>
<event>
 5   0  0.1674806E-06  0.3028149E+04  0.7818609E-02  0.8235738E-01
        2   -1    0    0  501    0  0.00000000000E+00  0.00000000000E+00  0.16275836203E+04  0.16275836203E+04  0.25500000920E-02 0. -1.
       -2   -1    0    0    0  501  0.00000000000E+00  0.00000000000E+00 -0.14084815646E+04  0.14084815646E+04  0.25500000920E-02 0.  1.
    10030    2    1    2    0    0  0.00000000000E+00  0.00000000000E+00  0.21910205576E+03  0.30360651849E+04  0.30281489554E+04 0.  0.
        2    1    3    3  502    0 -0.10465472006E+04 -0.10413279348E+04  0.44628108752E+03  0.15423332065E+04  0.25500000920E-02 0. -1.
       -2    1    3    3    0  502  0.10465472006E+04  0.10413279348E+04 -0.22717903176E+03  0.14937319784E+04  0.25500000920E-02 0.  1.
</event>
<event>
 5   0  0.1674806E-06  0.3060144E+04  0.7818609E-02  0.8226762E-01
       -2   -1    0    0    0  501  0.00000000000E+00  0.00000000000E+00  0.12959297651E+04  0.12959297651E+04  0.25500000920E-02 0.  1.
        2   -1    0    0  501    0  0.00000000000E+00  0.00000000000E+00 -0.18065181135E+04  0.18065181135E+04  0.25500000920E-02 0. -1.
    10030    2    1    2    0    0  0.00000000000E+00  0.00000000000E+00 -0.51058834836E+03  0.31024478787E+04  0.30601441761E+04 0.  0.
        2    1    3    3  502    0  0.55264409653E+03  0.82995301723E+03 -0.14318906827E+04  0.17448634432E+04  0.25500000920E-02 0. -1.
       -2    1    3    3    0  502 -0.55264409653E+03 -0.82995301723E+03  0.92130233431E+03  0.13575844355E+04  0.25500000920E-02 0.  1.
</event>
<event>
 5   0  0.5916703E-07  0.3007748E+04  0.7818609E-02  0.8241522E-01
        1   -1    0    0  501    0  0.00000000000E+00  0.00000000000E+00  0.15127754468E+04  0.15127754468E+04  0.50400001928E-02 0. -1.
       -1   -1    0    0    0  501  0.00000000000E+00  0.00000000000E+00 -0.14950247287E+04  0.14950247287E+04  0.50400001928E-02 0.  1.
    10030    2    1    2    0    0  0.00000000000E+00  0.00000000000E+00  0.17750718160E+02  0.30078001755E+04  0.30077477966E+04 0.  0.
        5    1    3    3  502    0 -0.25149513076E+03  0.56093279161E+03 -0.13636350503E+04  0.14958001330E+04  0.46999998093E+01 0.  1.
       -5    1    3    3    0  502  0.25149513076E+03 -0.56093279161E+03  0.13813857684E+04  0.15120000426E+04  0.46999998093E+01 0. -1.
</event>
<event>
 5   0  0.5874741E-07  0.3013713E+04  0.7818609E-02  0.8239826E-01
       -1   -1    0    0    0  501  0.00000000000E+00  0.00000000000E+00  0.12820655196E+04  0.12820655196E+04  0.50400001928E-02 0. -1.
        1   -1    0    0  501    0  0.00000000000E+00  0.00000000000E+00 -0.17710610328E+04  0.17710610328E+04  0.50400001928E-02 0.  1.
    10030    2    1    2    0    0  0.00000000000E+00  0.00000000000E+00 -0.48899551323E+03  0.30531265524E+04  0.30137128485E+04 0.  0.
        4    1    3    3  502    0  0.83869664275E+03  0.12366529244E+04 -0.47292904507E+02  0.14949785101E+04  0.12699999809E+01 0.  1.
       -4    1    3    3    0  502 -0.83869664275E+03 -0.12366529244E+04 -0.44170260872E+03  0.15581480422E+04  0.12699999809E+01 0. -1.
</event>
<event>
 5   0  0.1674806E-06  0.3045537E+04  0.7818609E-02  0.8230846E-01
        2   -1    0    0  501    0  0.00000000000E+00  0.00000000000E+00  0.26269198464E+04  0.26269198464E+04  0.25500000920E-02 0.  1.
       -2   -1    0    0    0  501  0.00000000000E+00  0.00000000000E+00 -0.88271616157E+03  0.88271616157E+03  0.25500000920E-02 0. -1.
    10030    2    1    2    0    0  0.00000000000E+00  0.00000000000E+00  0.17442036848E+04  0.35096360080E+04  0.30455374590E+04 0.  0.
        2    1    3    3  502    0  0.84294003235E+03 -0.41184629685E+03  0.22543216600E+04  0.24417476154E+04  0.25500000920E-02 0.  1.
       -2    1    3    3    0  502 -0.84294003235E+03  0.41184629685E+03 -0.51011797521E+03  0.10678883926E+04  0.25500000920E-02 0. -1.
</event>
<event>
 5   0  0.1674806E-06  0.2987269E+04  0.7818609E-02  0.8247376E-01
        2   -1    0    0  501    0  0.00000000000E+00  0.00000000000E+00  0.24123390040E+04  0.24123390040E+04  0.25500000920E-02 0. -1.
       -2   -1    0    0    0  501  0.00000000000E+00  0.00000000000E+00 -0.92480515335E+03  0.92480515336E+03  0.25500000920E-02 0.  1.
    10030    2    1    2    0    0  0.00000000000E+00  0.00000000000E+00  0.14875338506E+04  0.33371441573E+04  0.29872686806E+04 0.  0.
        2    1    3    3  502    0  0.77840416051E+03 -0.23089729349E+03  0.21442821998E+04  0.22928525355E+04  0.25500000920E-02 0. -1.
       -2    1    3    3    0  502 -0.77840416051E+03  0.23089729349E+03 -0.65674834918E+03  0.10442916218E+04  0.25500000920E-02 0.  1.
</event>
<event>
 5   0  0.5431625E-07  0.2999975E+04  0.7818609E-02  0.8243738E-01
        3   -1    0    0  501    0  0.00000000000E+00  0.00000000000E+00  0.11219415684E+04  0.11219415730E+04  0.10100000352E+00 0.  1.
       -3   -1    0    0    0  501  0.00000000000E+00  0.00000000000E+00 -0.20054184382E+04  0.20054184408E+04  0.10100000352E+00 0. -1.
    10030    2    1    2    0    0  0.00000000000E+00  0.00000000000E+00 -0.88347686982E+03  0.31273600137E+04  0.29999748792E+04 0.  0.
        5    1    3    3  502    0 -0.70054715141E+03  0.24726280860E+03  0.91668004931E+03  0.11799277989E+04  0.46999998093E+01 0.  1.
       -5    1    3    3    0  502  0.70054715141E+03 -0.24726280860E+03 -0.18001569191E+04  0.19474322148E+04  0.46999998093E+01 0. -1.
</event>
<event>
 5   0  0.1635086E-06  0.3000935E+04  0.7818609E-02  0.8243464E-01
       -2   -1    0    0    0  501  0.00000000000E+00  0.00000000000E+00  0.11937261974E+04  0.11937261974E+04  0.25500000920E-02 0. -1.
        2   -1    0    0  501    0  0.00000000000E+00  0.00000000000E+00 -0.18860289490E+04  0.18860289490E+04  0.25500000920E-02 0.  1.
    10030    2    1    2    0    0  0.00000000000E+00  0.00000000000E+00 -0.69230275158E+03  0.30797551463E+04  0.30009346313E+04 0.  0.
        3    1    3    3  502    0 -0.90828040646E+03  0.12811554031E+03 -0.15647805239E+04  0.18138150365E+04  0.10100000352E+00 0.  1.
       -3    1    3    3    0  502  0.90828040646E+03 -0.12811554031E+03  0.87247777229E+03  0.12659401099E+04  0.10100000352E+00 0. -1.
</event>
<event>
 5   0  0.5931588E-07  0.3015734E+04  0.7818609E-02  0.8239252E-01
       -1   -1    0    0    0  501  0.00000000000E+00  0.00000000000E+00  0.14176287149E+04  0.14176287149E+04  0.50400001928E-02 0. -1.
        1   -1    0    0  501    0  0.00000000000E+00  0.00000000000E+00 -0.16038489516E+04  0.16038489516E+04  0.50400001928E-02 0.  1.
    10030    2    1    2    0    0  0.00000000000E+00  0.00000000000E+00 -0.18622023664E+03  0.30214776665E+04  0.30157336276E+04 0.  0.
        2    1    3    3  502    0  0.90972280166E+03 -0.11451335205E+04  0.27465301471E+03  0.14880727919E+04  0.25500000920E-02 0.  1.
       -2    1    3    3    0  502 -0.90972280166E+03  0.11451335205E+04 -0.46087325136E+03  0.15334048746E+04  0.25500000920E-02 0. -1.
</event>
<event>
 5   0  0.6291798E-07  0.3001325E+04  0.7818609E-02  0.8243353E-01
       -1   -1    0    0    0  501  0.00000000000E+00  0.00000000000E+00  0.15755344161E+04  0.15755344161E+04  0.50400001928E-02 0. -1.
        1   -1    0    0  501    0  0.00000000000E+00  0.00000000000E+00 -0.14293484635E+04  0.14293484635E+04  0.50400001928E-02 0.  1.
    10030    2    1    2    0    0  0.00000000000E+00  0.00000000000E+00  0.14618595263E+03  0.30048828796E+04  0.30013248387E+04 0.  0.
        1    1    3    3  502    0 -0.84112346669E+03 -0.55579725576E+03 -0.10397950294E+04  0.14483000307E+04  0.50400001928E-02 0.  1.
       -1    1    3    3    0  502  0.84112346669E+03  0.55579725576E+03  0.11859809820E+04  0.15565828489E+04  0.50400001928E-02 0. -1.
</event>
<event>
 5   0  0.1674806E-06  0.3006523E+04  0.7818609E-02  0.8241871E-01
        2   -1    0    0  501    0  0.00000000000E+00  0.00000000000E+00  0.18423060820E+04  0.18423060821E+04  0.25500000920E-02 0. -1.
       -2   -1    0    0    0  501  0.00000000000E+00  0.00000000000E+00 -0.12266125129E+04  0.12266125129E+04  0.25500000920E-02 0.  1.
    10030    2    1    2    0    0  0.00000000000E+00  0.00000000000E+00  0.61569356919E+03  0.30689185949E+04  0.30065233695E+04 0.  0.
        2    1    3    3  502    0 -0.12208103161E+04  0.45185649345E+03 -0.45958291358E+03  0.13804957708E+04  0.25500000920E-02 0.  1.
       -2    1    3    3    0  502  0.12208103161E+04 -0.45185649345E+03  0.10752764828E+04  0.16884228241E+04  0.25500000920E-02 0. -1.
</event>
<event>
 5   0  0.1560174E-06  0.3013277E+04  0.7818609E-02  0.8239950E-01
        2   -1    0    0  501    0  0.00000000000E+00  0.00000000000E+00  0.10551141791E+04  0.10551141791E+04  0.25500000920E-02 0.  1.
       -2   -1    0    0    0  501  0.00000000000E+00  0.00000000000E+00 -0.21513875715E+04  0.21513875715E+04  0.25500000920E-02 0. -1.
    10030    2    1    2    0    0  0.00000000000E+00  0.00000000000E+00 -0.10962733924E+04  0.32065017507E+04  0.30132769747E+04 0.  0.
        5    1    3    3  502    0  0.12376439922E+04 -0.26396245945E+03  0.32191024123E+03  0.13057898471E+04  0.46999998093E+01 0.  1.
       -5    1    3    3    0  502 -0.12376439922E+04  0.26396245945E+03 -0.14181836336E+04  0.19007119035E+04  0.46999998093E+01 0. -1.
</event>
<event>
 5   0  0.5931588E-07  0.2993406E+04  0.7818609E-02  0.8245616E-01
        1   -1    0    0  501    0  0.00000000000E+00  0.00000000000E+00  0.18238943682E+04  0.18238943682E+04  0.50400001928E-02 0.  1.
       -1   -1    0    0    0  501  0.00000000000E+00  0.00000000000E+00 -0.12282071198E+04  0.12282071198E+04  0.50400001928E-02 0. -1.
    10030    2    1    2    0    0  0.00000000000E+00  0.00000000000E+00  0.59568724849E+03  0.30521014880E+04  0.29934061193E+04 0.  0.
        2    1    3    3  502    0 -0.69540855736E+03 -0.12146329975E+04  0.83851838582E+03  0.16315757609E+04  0.25500000920E-02 0.  1.
       -2    1    3    3    0  502  0.69540855736E+03  0.12146329975E+04 -0.24283113733E+03  0.14205257271E+04  0.25500000920E-02 0. -1.
</event>
<event>
 5   0  0.5916703E-07  0.2931155E+04  0.7818609E-02  0.8263668E-01
       -1   -1    0    0    0  501  0.00000000000E+00  0.00000000000E+00  0.10849207836E+04  0.10849207836E+04  0.50400001928E-02 0.  1.
        1   -1    0    0  501    0  0.00000000000E+00  0.00000000000E+00 -0.19797914097E+04  0.19797914097E+04  0.50400001928E-02 0. -1.
    10030    2    1    2    0    0  0.00000000000E+00  0.00000000000E+00 -0.89487062605E+03  0.30647121933E+04  0.29311546173E+04 0.  0.
        5    1    3    3  502    0 -0.11241944764E+04 -0.87379821129E+03 -0.84399569355E+02  0.14263526605E+04  0.46999998093E+01 0.  1.
       -5    1    3    3    0  502  0.11241944764E+04  0.87379821129E+03 -0.81047105669E+03  0.16383595328E+04  0.46999998093E+01 0. -1.
</event>
<event>
 5   0  0.1625212E-06  0.2996850E+04  0.7818609E-02  0.8244631E-01
       -2   -1    0    0    0  501  0.00000000000E+00  0.00000000000E+00  0.94576125628E+03  0.94576125628E+03  0.25500000920E-02 0.  1.
        2   -1    0    0  501    0  0.00000000000E+00  0.00000000000E+00 -0.23740418022E+04  0.23740418022E+04  0.25500000920E-02 0. -1.
    10030    2    1    2    0    0  0.00000000000E+00  0.00000000000E+00 -0.14282805459E+04  0.33198030585E+04  0.29968495173E+04 0.  0.
        4    1    3    3  502    0  0.88483305750E+03 -0.12085704832E+04 -0.75985474223E+03  0.16795692884E+04  0.12699999809E+01 0.  1.
       -4    1    3    3    0  502 -0.88483305750E+03  0.12085704832E+04 -0.66842580372E+03  0.16402337701E+04  0.12699999809E+01 0. -1.
</event>
<event>
 5   0  0.5887179E-07  0.2995102E+04  0.7818609E-02  0.8245131E-01
        1   -1    0    0  501    0  0.00000000000E+00  0.00000000000E+00  0.10154531518E+04  0.10154531518E+04  0.50400001928E-02 0.  1.
       -1   -1    0    0    0  501  0.00000000000E+00  0.00000000000E+00 -0.22085305891E+04  0.22085305891E+04  0.50400001928E-02 0. -1.
    10030    2    1    2    0    0  0.00000000000E+00  0.00000000000E+00 -0.11930774373E+04  0.32239837409E+04  0.29951022337E+04 0.  0.
        3    1    3    3  502    0 -0.34822790246E+03 -0.11828003646E+04 -0.15114185159E+04  0.19505551300E+04  0.10100000352E+00 0. -1.
       -3    1    3    3    0  502  0.34822790246E+03  0.11828003646E+04  0.31834107859E+03  0.12734286109E+04  0.10100000352E+00 0.  1.
</event>
<event>
 5   0  0.5931588E-07  0.3005448E+04  0.7818609E-02  0.8242177E-01
        1   -1    0    0  501    0  0.00000000000E+00  0.00000000000E+00  0.15944647751E+04  0.15944647752E+04  0.50400001928E-02 0. -1.
       -1   -1    0    0    0  501  0.00000000000E+00  0.00000000000E+00 -0.14162617830E+04  0.14162617830E+04  0.50400001928E-02 0.  1.
    10030    2    1    2    0    0  0.00000000000E+00  0.00000000000E+00  0.17820299215E+03  0.30107265582E+04  0.30054480700E+04 0.  0.
        2    1    3    3  502    0  0.73793203760E+03  0.13090544853E+04  0.92598744791E+02  0.15055702790E+04  0.25500000920E-02 0.  1.
       -2    1    3    3    0  502 -0.73793203760E+03 -0.13090544853E+04  0.85604247361E+02  0.15051562791E+04  0.25500000920E-02 0. -1.
</event>
<event>
 5   0  0.1674806E-06  0.3004276E+04  0.7818609E-02  0.8242511E-01
        2   -1    0    0  501    0  0.00000000000E+00  0.00000000000E+00  0.10080533174E+04  0.10080533174E+04  0.25500000920E-02 0.  1.
       -2   -1    0    0    0  501  0.00000000000E+00  0.00000000000E+00 -0.22383924710E+04  0.22383924710E+04  0.25500000920E-02 0. -1.
    10030    2    1    2    0    0  0.00000000000E+00  0.00000000000E+00 -0.12303391536E+04  0.32464457884E+04  0.30042762563E+04 0.  0.
        2    1    3    3  502    0  0.13198364493E+04 -0.48371183640E+03 -0.11874570703E+04  0.18401086074E+04  0.25500000920E-02 0. -1.
       -2    1    3    3    0  502 -0.13198364493E+04  0.48371183640E+03 -0.42882083349E+02  0.14063371810E+04  0.25500000920E-02 0.  1.
</event>
<event>
 5   0  0.1560174E-06  0.3001395E+04  0.7818609E-02  0.8243333E-01
       -2   -1    0    0    0  501  0.00000000000E+00  0.00000000000E+00  0.11588694343E+04  0.11588694343E+04  0.25500000920E-02 0.  1.
        2   -1    0    0  501    0  0.00000000000E+00  0.00000000000E+00 -0.19433534039E+04  0.19433534039E+04  0.25500000920E-02 0. -1.
    10030    2    1    2    0    0  0.00000000000E+00  0.00000000000E+00 -0.78448396958E+03  0.31022228383E+04  0.30013949157E+04 0.  0.
        5    1    3    3  502    0 -0.86257121436E+03 -0.57382883580E+03  0.72993908177E+03  0.12673364927E+04  0.46999998093E+01 0.  1.
       -5    1    3    3    0  502  0.86257121436E+03  0.57382883580E+03 -0.15144230514E+04  0.18348863456E+04  0.46999998093E+01 0. -1.
</event>
<event>
 5   0  0.5874741E-07  0.2994119E+04  0.7818609E-02  0.8245412E-01
       -1   -1    0    0    0  501  0.00000000000E+00  0.00000000000E+00  0.15145527832E+04  0.15145527832E+04  0.50400001928E-02 0.  1.
        1   -1    0    0  501    0  0.00000000000E+00  0.00000000000E+00 -0.14797680256E+04  0.14797680256E+04  0.50400001928E-02 0. -1.
    10030    2    1    2    0    0  0.00000000000E+00  0.00000000000E+00  0.34784757660E+02  0.29943208088E+04  0.29941187563E+04 0.  0.
        4    1    3    3  502    0  0.29818968746E+03 -0.12570221658E+04  0.77385822686E+03  0.15059482007E+04  0.12699999809E+01 0.  1.
       -4    1    3    3    0  502 -0.29818968746E+03  0.12570221658E+04 -0.73907346920E+03  0.14883726082E+04  0.12699999809E+01 0. -1.
</event>
<event>
 5   0  0.1560174E-06  0.3006771E+04  0.7818609E-02  0.8241800E-01
        2   -1    0    0  501    0  0.00000000000E+00  0.00000000000E+00  0.20669803500E+04  0.20669803500E+04  0.25500000920E-02 0.  1.
       -2   -1    0    0    0  501  0.00000000000E+00  0.00000000000E+00 -0.10934633293E+04  0.10934633293E+04  0.25500000920E-02 0. -1.
    10030    2    1    2    0    0  0.00000000000E+00  0.00000000000E+00  0.97351702071E+03  0.31604436794E+04  0.30067705035E+04 0.  0.
        5    1    3    3  502    0 -0.37950490273E+03  0.83623242473E+03 -0.76438647705E+03  0.11948294504E+04  0.46999998093E+01 0. -1.
       -5    1    3    3    0  502  0.37950490273E+03 -0.83623242473E+03  0.17379034978E+04  0.19656142289E+04  0.46999998093E+01 0.  1.
</event>
<event>
 5   0  0.5887179E-07  0.3082149E+04  0.7818609E-02  0.8220654E-01
       -1   -1    0    0    0  501  0.00000000000E+00  0.00000000000E+00  0.10417014851E+04  0.10417014851E+04  0.50400001928E-02 0. -1.
        1   -1    0    0  501    0  0.00000000000E+00  0.00000000000E+00 -0.22798385602E+04  0.22798385602E+04  0.50400001928E-02 0.  1.
    10030    2    1    2    0    0  0.00000000000E+00  0.00000000000E+00 -0.12381370751E+04  0.33215400453E+04  0.30821493890E+04 0.  0.
        3    1    3    3  502    0  0.54144376373E+03 -0.87715354337E+03  0.61548775278E+03  0.12005768913E+04  0.10100000352E+00 0. -1.
       -3    1    3    3    0  502 -0.54144376373E+03  0.87715354337E+03 -0.18536248279E+04  0.21209631540E+04  0.10100000352E+00 0.  1.
</event>
<event>
 5   0  0.1674806E-06  0.3002328E+04  0.7818609E-02  0.8243066E-01
       -2   -1    0    0    0  501  0.00000000000E+00  0.00000000000E+00  0.17911874068E+04  0.17911874068E+04  0.25500000920E-02 0.  1.
        2   -1    0    0  501    0  0.00000000000E+00  0.00000000000E+00 -0.12581002240E+04  0.12581002240E+04  0.25500000920E-02 0. -1.
    10030    2    1    2    0    0  0.00000000000E+00  0.00000000000E+00  0.53308718274E+03  0.30492876308E+04  0.30023279486E+04 0.  0.
        2    1    3    3  502    0  0.12529895808E+04  0.82591740278E+03  0.22893973615E+03  0.15180697773E+04  0.25500000920E-02 0. -1.
       -2    1    3    3    0  502 -0.12529895808E+04 -0.82591740278E+03  0.30414744660E+03  0.15312178536E+04  0.25500000920E-02 0.  1.
</event>
<event>
 5   0  0.1635086E-06  0.3005555E+04  0.7818609E-02  0.8242146E-01
        2   -1    0    0  501    0  0.00000000000E+00  0.00000000000E+00  0.14409214085E+04  0.14409214085E+04  0.25500000920E-02 0.  1.
       -2   -1    0    0    0  501  0.00000000000E+00  0.00000000000E+00 -0.15672894583E+04  0.15672894584E+04  0.25500000920E-02 0. -1.
    10030    2    1    2    0    0  0.00000000000E+00  0.00000000000E+00 -0.12636804981E+03  0.30082108669E+04  0.30055554787E+04 0.  0.
        3    1    3    3  502    0 -0.21002776439E+03  0.13940488421E+04  0.45771510156E+03  0.14822236540E+04  0.10100000352E+00 0.  1.
       -3    1    3    3    0  502  0.21002776439E+03 -0.13940488421E+04 -0.58408315137E+03  0.15259872129E+04  0.10100000352E+00 0. -1.
</event>
<event>
 5   0  0.1723916E-06  0.2998847E+04  0.7818609E-02  0.8244060E-01
       -2   -1    0    0    0  501  0.00000000000E+00  0.00000000000E+00  0.17731899854E+04  0.17731899854E+04  0.25500000920E-02 0.  1.
        2   -1    0    0  501    0  0.00000000000E+00  0.00000000000E+00 -0.12679242947E+04  0.12679242947E+04  0.25500000920E-02 0. -1.
    10030    2    1    2    0    0  0.00000000000E+00  0.00000000000E+00  0.50526569070E+03  0.30411142802E+04  0.29988468862E+04 0.  0.
        1    1    3    3  502    0 -0.31100025862E+01 -0.52032650193E+03  0.16786969077E+04  0.17574904405E+04  0.50400001928E-02 0.  1.
       -1    1    3    3    0  502  0.31100025862E+01  0.52032650193E+03 -0.11734312170E+04  0.12836238396E+04  0.50400001928E-02 0. -1.
</event>
<event>
 5   0  0.6291798E-07  0.3005676E+04  0.7818609E-02  0.8242112E-01
        1   -1    0    0  501    0  0.00000000000E+00  0.00000000000E+00  0.27571071968E+04  0.27571071969E+04  0.50400001928E-02 0.  1.
       -1   -1    0    0    0  501  0.00000000000E+00  0.00000000000E+00 -0.81916379004E+03  0.81916379006E+03  0.50400001928E-02 0. -1.
    10030    2    1    2    0    0  0.00000000000E+00  0.00000000000E+00  0.19379434068E+04  0.35762709869E+04  0.30056762174E+04 0.  0.
        1    1    3    3  502    0  0.22270338797E+03 -0.35114297867E+03  0.26873004363E+04  0.27192796520E+04  0.50400001928E-02 0.  1.
       -1    1    3    3    0  502 -0.22270338797E+03  0.35114297867E+03 -0.74935702951E+03  0.85699133495E+03  0.50400001928E-02 0. -1.
</event>
<event>
 5   0  0.1635086E-06  0.2997473E+04  0.7818609E-02  0.8244453E-01
        2   -1    0    0  501    0  0.00000000000E+00  0.00000000000E+00  0.19212368594E+04  0.19212368594E+04  0.25500000920E-02 0.  1.
       -2   -1    0    0    0  501  0.00000000000E+00  0.00000000000E+00 -0.11691485446E+04  0.11691485446E+04  0.25500000920E-02 0. -1.
    10030    2    1    2    0    0  0.00000000000E+00  0.00000000000E+00  0.75208831478E+03  0.30903854040E+04  0.29974731211E+04 0.  0.
        3    1    3    3  502    0 -0.72673095307E+03 -0.26896104889E+02  0.17271418503E+04  0.18740011366E+04  0.10100000352E+00 0.  1.
       -3    1    3    3    0  502  0.72673095307E+03  0.26896104889E+02 -0.97505353553E+03  0.12163842674E+04  0.10100000352E+00 0. -1.
</event>
<event>
 5   0  0.5874741E-07  0.3011898E+04  0.7818609E-02  0.8240341E-01
       -1   -1    0    0    0  501  0.00000000000E+00  0.00000000000E+00  0.15638466012E+04  0.15638466012E+04  0.50400001928E-02 0. -1.
        1   -1    0    0  501    0  0.00000000000E+00  0.00000000000E+00 -0.14501953300E+04  0.14501953300E+04  0.50400001928E-02 0.  1.
    10030    2    1    2    0    0  0.00000000000E+00  0.00000000000E+00  0.11365127114E+03  0.30140419312E+04  0.30118984299E+04 0.  0.
        4    1    3    3  502    0  0.10757455758E+04 -0.89185671368E+03 -0.50504031658E+03  0.14858345385E+04  0.12699999809E+01 0. -1.
       -4    1    3    3    0  502 -0.10757455758E+04  0.89185671368E+03  0.61869158772E+03  0.15282073927E+04  0.12699999809E+01 0.  1.
</event>
<event>
 5   0  0.1560174E-06  0.3001660E+04  0.7818609E-02  0.8243257E-01
       -2   -1    0    0    0  501  0.00000000000E+00  0.00000000000E+00  0.10575215967E+04  0.10575215967E+04  0.25500000920E-02 0. -1.
        2   -1    0    0  501    0  0.00000000000E+00  0.00000000000E+00 -0.21299707233E+04  0.21299707233E+04  0.25500000920E-02 0.  1.
    10030    2    1    2    0    0  0.00000000000E+00  0.00000000000E+00 -0.10724491266E+04  0.31874923200E+04  0.30016595678E+04 0.  0.
        5    1    3    3  502    0  0.14141987243E+04 -0.13972094529E+03 -0.23653050151E+02  0.14212886867E+04  0.46999998093E+01 0. -1.
       -5    1    3    3    0  502 -0.14141987243E+04  0.13972094529E+03 -0.10487960765E+04  0.17662036333E+04  0.46999998093E+01 0.  1.
</event>
<event>
 5   0  0.5874741E-07  0.2996326E+04  0.7818609E-02  0.8244781E-01
       -1   -1    0    0    0  501  0.00000000000E+00  0.00000000000E+00  0.91356338728E+03  0.91356338730E+03  0.50400001928E-02 0. -1.
        1   -1    0    0  501    0  0.00000000000E+00  0.00000000000E+00 -0.24568542758E+04  0.24568542759E+04  0.50400001928E-02 0.  1.
    10030    2    1    2    0    0  0.00000000000E+00  0.00000000000E+00 -0.15432908886E+04  0.33704176632E+04  0.29963258263E+04 0.  0.
        4    1    3    3  502    0  0.63506644935E+02  0.13635892876E+04 -0.14660358472E+04  0.20031653844E+04  0.12699999809E+01 0.  1.
       -4    1    3    3    0  502 -0.63506644935E+02 -0.13635892876E+04 -0.77255041386E+02  0.13672522787E+04  0.12699999809E+01 0. -1.
</event>
<event>
 5   0  0.5887179E-07  0.3004565E+04  0.7818609E-02  0.8242428E-01
       -1   -1    0    0    0  501  0.00000000000E+00  0.00000000000E+00  0.20791531018E+04  0.20791531018E+04  0.50400001928E-02 0.  1.
        1   -1    0    0  501    0  0.00000000000E+00  0.00000000000E+00 -0.10854674073E+04  0.10854674073E+04  0.50400001928E-02 0. -1.
    10030    2    1    2    0    0  0.00000000000E+00  0.00000000000E+00  0.99368569457E+03  0.31646205091E+04  0.30045651444E+04 0.  0.
        3    1    3    3  502    0  0.83614607971E+03  0.64544734774E+03 -0.62829009360E+03  0.12290203404E+04  0.10100000352E+00 0. -1.
       -3    1    3    3    0  502 -0.83614607971E+03 -0.64544734774E+03  0.16219757882E+04  0.19356001687E+04  0.10100000352E+00 0.  1.
</event>
<event>
 5   0  0.1723916E-06  0.2946194E+04  0.7818609E-02  0.8259265E-01
       -2   -1    0    0    0  501  0.00000000000E+00  0.00000000000E+00  0.11804661606E+04  0.11804661606E+04  0.25500000920E-02 0. -1.
        2   -1    0    0  501    0  0.00000000000E+00  0.00000000000E+00 -0.18382694384E+04  0.18382694384E+04  0.25500000920E-02 0.  1.
    10030    2    1    2    0    0  0.00000000000E+00  0.00000000000E+00 -0.65780327782E+03  0.30187355990E+04  0.29461940643E+04 0.  0.
        1    1    3    3  502    0  0.43679664368E+03  0.86010120686E+03 -0.14696192316E+04  0.17579380194E+04  0.50400001928E-02 0.  1.
       -1    1    3    3    0  502 -0.43679664368E+03 -0.86010120686E+03  0.81181595381E+03  0.12607975797E+04  0.50400001928E-02 0. -1.
</event>
<event>
 5   0  0.1625212E-06  0.2976053E+04  0.7818609E-02  0.8250602E-01
       -2   -1    0    0    0  501  0.00000000000E+00  0.00000000000E+00  0.12721926273E+04  0.12721926273E+04  0.25500000920E-02 0.  1.
        2   -1    0    0  501    0  0.00000000000E+00  0.00000000000E+00 -0.17404773302E+04  0.17404773302E+04  0.25500000920E-02 0. -1.
    10030    2    1    2    0    0  0.00000000000E+00  0.00000000000E+00 -0.46828470289E+03  0.30126699575E+04  0.29760527062E+04 0.  0.
        4    1    3    3  502    0  0.11366480711E+04  0.91538068577E+03  0.59827264511E+02  0.14606408018E+04  0.12699999809E+01 0. -1.
       -4    1    3    3    0  502 -0.11366480711E+04 -0.91538068577E+03 -0.52811196740E+03  0.15520291558E+04  0.12699999809E+01 0.  1.
</event>
<event>
 5   0  0.1635086E-06  0.2998291E+04  0.7818609E-02  0.8244219E-01
       -2   -1    0    0    0  501  0.00000000000E+00  0.00000000000E+00  0.78863112115E+03  0.78863112115E+03  0.25500000920E-02 0. -1.
        2   -1    0    0  501    0  0.00000000000E+00  0.00000000000E+00 -0.28497943910E+04  0.28497943910E+04  0.25500000920E-02 0.  1.
    10030    2    1    2    0    0  0.00000000000E+00  0.00000000000E+00 -0.20611632699E+04  0.36384255122E+04  0.29982905434E+04 0.  0.
        3    1    3    3  502    0  0.13411854049E+04 -0.13473308046E+03 -0.18267941420E+04  0.22702660947E+04  0.10100000352E+00 0. -1.
       -3    1    3    3    0  502 -0.13411854049E+04  0.13473308046E+03 -0.23436912794E+03  0.13681594175E+04  0.10100000352E+00 0.  1.
</event>
<event>
 5   0  0.5874741E-07  0.3002826E+04  0.7818609E-02  0.8242924E-01
        1   -1    0    0  501    0  0.00000000000E+00  0.00000000000E+00  0.18745878388E+04  0.18745878388E+04  0.50400001928E-02 0. -1.
       -1   -1    0    0    0  501  0.00000000000E+00  0.00000000000E+00 -0.12025265677E+04  0.12025265677E+04  0.50400001928E-02 0.  1.
    10030    2    1    2    0    0  0.00000000000E+00  0.00000000000E+00  0.67206127103E+03  0.30771144065E+04  0.30028264550E+04 0.  0.
        4    1    3    3  502    0 -0.10406812867E+04 -0.11843151749E+03 -0.76631291688E+03  0.12977983912E+04  0.12699999809E+01 0.  1.
       -4    1    3    3    0  502  0.10406812867E+04  0.11843151749E+03  0.14383741879E+04  0.17793160153E+04  0.12699999809E+01 0. -1.
</event>
<event>
 5   0  0.5931588E-07  0.2997505E+04  0.7818609E-02  0.8244444E-01
       -1   -1    0    0    0  501  0.00000000000E+00  0.00000000000E+00  0.13143181806E+04  0.13143181806E+04  0.50400001928E-02 0.  1.
        1   -1    0    0  501    0  0.00000000000E+00  0.00000000000E+00 -0.17090676581E+04  0.17090676581E+04  0.50400001928E-02 0. -1.
    10030    2    1    2    0    0  0.00000000000E+00  0.00000000000E+00 -0.39474947754E+03  0.30233858387E+04  0.29975047589E+04 0.  0.
        2    1    3    3  502    0 -0.10627230051E+04 -0.41754376159E+03  0.78185050654E+03  0.13838400172E+04  0.25500000920E-02 0.  1.
       -2    1    3    3    0  502  0.10627230051E+04  0.41754376159E+03 -0.11765999841E+04  0.16395458216E+04  0.25500000920E-02 0. -1.
</event>
<event>
 5   0  0.1560174E-06  0.3010392E+04  0.7818609E-02  0.8240770E-01
       -2   -1    0    0    0  501  0.00000000000E+00  0.00000000000E+00  0.17496992272E+04  0.17496992272E+04  0.25500000920E-02 0.  1.
        2   -1    0    0  501    0  0.00000000000E+00  0.00000000000E+00 -0.12948593359E+04  0.12948593359E+04  0.25500000920E-02 0. -1.
    10030    2    1    2    0    0  0.00000000000E+00  0.00000000000E+00  0.45483989125E+03  0.30445585631E+04  0.30103915887E+04 0.  0.
        5    1    3    3  502    0 -0.24585385887E+03 -0.96777998015E+03  0.13665023646E+04  0.16924517755E+04  0.46999998093E+01 0.  1.
       -5    1    3    3    0  502  0.24585385887E+03  0.96777998015E+03 -0.91166247331E+03  0.13521067876E+04  0.46999998093E+01 0. -1.
</event>
<event>
 5   0  0.6291798E-07  0.3174433E+04  0.7818609E-02  0.8195602E-01
       -1   -1    0    0    0  501  0.00000000000E+00  0.00000000000E+00  0.32977978918E+04  0.32977978919E+04  0.50400001928E-02 0. -1.
        1   -1    0    0  501    0  0.00000000000E+00  0.00000000000E+00 -0.76392071388E+03  0.76392071389E+03  0.50400001928E-02 0.  1.
    10030    2    1    2    0    0  0.00000000000E+00  0.00000000000E+00  0.25338771780E+04  0.40617186057E+04  0.31744329382E+04 0.  0.
        1    1    3    3  502    0  0.12854704144E+04 -0.41663908024E+03  0.23322670840E+04  0.26954576719E+04  0.50400001928E-02 0.  1.
       -1    1    3    3    0  502 -0.12854704144E+04  0.41663908024E+03  0.20161009393E+03  0.13662609339E+04  0.50400001928E-02 0. -1.
</event>
<event>
 5   0  0.1635086E-06  0.3027495E+04  0.7818609E-02  0.8235923E-01
        2   -1    0    0  501    0  0.00000000000E+00  0.00000000000E+00  0.10364186189E+04  0.10364186189E+04  0.25500000920E-02 0. -1.
       -2   -1    0    0    0  501  0.00000000000E+00  0.00000000000E+00 -0.22109123887E+04  0.22109123887E+04  0.25500000920E-02 0.  1.
    10030    2    1    2    0    0  0.00000000000E+00  0.00000000000E+00 -0.11744937698E+04  0.32473310076E+04  0.30274945182E+04 0.  0.
        3    1    3    3  502    0  0.47028594504E+03  0.10315778303E+04 -0.16631315683E+04  0.20127911749E+04  0.10100000352E+00 0.  1.
       -3    1    3    3    0  502 -0.47028594504E+03 -0.10315778303E+04  0.48863779856E+03  0.12345398327E+04  0.10100000352E+00 0. -1.
</event>
<event>
 5   0  0.5931588E-07  0.3001142E+04  0.7818609E-02  0.8243405E-01
        1   -1    0    0  501    0  0.00000000000E+00  0.00000000000E+00  0.18926506792E+04  0.18926506792E+04  0.50400001928E-02 0. -1.
       -1   -1    0    0    0  501  0.00000000000E+00  0.00000000000E+00 -0.11897139678E+04  0.11897139678E+04  0.50400001928E-02 0.  1.
    10030    2    1    2    0    0  0.00000000000E+00  0.00000000000E+00  0.70293671136E+03  0.30823646470E+04  0.30011417489E+04 0.  0.
        2    1    3    3  502    0  0.10393673403E+04  0.43827267802E+03  0.13678702871E+04  0.17729739228E+04  0.25500000920E-02 0. -1.
       -2    1    3    3    0  502 -0.10393673403E+04 -0.43827267802E+03 -0.66493357577E+03  0.13093907242E+04  0.25500000920E-02 0.  1.
</event>
<event>
 5   0  0.5874741E-07  0.2999826E+04  0.7818609E-02  0.8243780E-01
       -1   -1    0    0    0  501  0.00000000000E+00  0.00000000000E+00  0.11511447966E+04  0.11511447966E+04  0.50400001928E-02 0. -1.
        1   -1    0    0  501    0  0.00000000000E+00  0.00000000000E+00 -0.19543498388E+04  0.19543498388E+04  0.50400001928E-02 0.  1.
    10030    2    1    2    0    0  0.00000000000E+00  0.00000000000E+00 -0.80320504217E+03  0.31054946354E+04  0.29998264268E+04 0.  0.
        4    1    3    3  502    0  0.34148603394E+03  0.14224718266E+04 -0.74447800884E+03  0.16414286239E+04  0.12699999809E+01 0.  1.
       -4    1    3    3    0  502 -0.34148603394E+03 -0.14224718266E+04 -0.58727033337E+02  0.14640660115E+04  0.12699999809E+01 0. -1.
</event>
<event>
 5   0  0.5431625E-07  0.3001544E+04  0.7818609E-02  0.8243290E-01
       -3   -1    0    0    0  501  0.00000000000E+00  0.00000000000E+00  0.12767646200E+04  0.12767646239E+04  0.10100000352E+00 0.  1.
        3   -1    0    0  501    0  0.00000000000E+00  0.00000000000E+00 -0.17640815202E+04  0.17640815231E+04  0.10100000352E+00 0. -1.
    10030    2    1    2    0    0  0.00000000000E+00  0.00000000000E+00 -0.48731690027E+03  0.30408461471E+04  0.30015441907E+04 0.  0.
        4    1    3    3  502    0  0.97583464714E+03  0.94071930429E+03  0.40906750991E+03  0.14158191652E+04  0.12699999809E+01 0.  1.
       -4    1    3    3    0  502 -0.97583464714E+03 -0.94071930429E+03 -0.89638441019E+03  0.16250269819E+04  0.12699999809E+01 0. -1.
</event>
<event>
 5   0  0.1625212E-06  0.2985590E+04  0.7818609E-02  0.8247858E-01
        2   -1    0    0  501    0  0.00000000000E+00  0.00000000000E+00  0.24786256616E+04  0.24786256616E+04  0.25500000920E-02 0.  1.
       -2   -1    0    0    0  501  0.00000000000E+00  0.00000000000E+00 -0.89906154385E+03  0.89906154386E+03  0.25500000920E-02 0. -1.
    10030    2    1    2    0    0  0.00000000000E+00  0.00000000000E+00  0.15795641178E+04  0.33776872055E+04  0.29855900683E+04 0.  0.
        4    1    3    3  502    0  0.42105918458E+03  0.75654746199E+03  0.21655370885E+04  0.23322108382E+04  0.12699999809E+01 0.  1.
       -4    1    3    3    0  502 -0.42105918458E+03 -0.75654746199E+03 -0.58597297076E+03  0.10454763673E+04  0.12699999809E+01 0. -1.
</event>
<event>
 5   0  0.5916703E-07  0.2982013E+04  0.7818609E-02  0.8248886E-01
        1   -1    0    0  501    0  0.00000000000E+00  0.00000000000E+00  0.12803800494E+04  0.12803800494E+04  0.50400001928E-02 0. -1.
       -1   -1    0    0    0  501  0.00000000000E+00  0.00000000000E+00 -0.17362811412E+04  0.17362811412E+04  0.50400001928E-02 0.  1.
    10030    2    1    2    0    0  0.00000000000E+00  0.00000000000E+00 -0.45590109179E+03  0.30166611906E+04  0.29820125642E+04 0.  0.
        5    1    3    3  502    0  0.14214327817E+04 -0.20872875258E+03 -0.63138093562E+03  0.15693001054E+04  0.46999998093E+01 0. -1.
       -5    1    3    3    0  502 -0.14214327817E+04  0.20872875258E+03  0.17547984383E+03  0.14473610851E+04  0.46999998093E+01 0.  1.
</event>
<event>
 5   0  0.1674806E-06  0.2998044E+04  0.7818609E-02  0.8244290E-01
       -2   -1    0    0    0  501  0.00000000000E+00  0.00000000000E+00  0.16380576206E+04  0.16380576206E+04  0.25500000920E-02 0. -1.
        2   -1    0    0  501    0  0.00000000000E+00  0.00000000000E+00 -0.13717878862E+04  0.13717878862E+04  0.25500000920E-02 0.  1.
    10030    2    1    2    0    0  0.00000000000E+00  0.00000000000E+00  0.26626973433E+03  0.30098455068E+04  0.29980444298E+04 0.  0.
        2    1    3    3  502    0 -0.66540938158E+03  0.13310571666E+04 -0.48088210970E+02  0.14888906279E+04  0.25500000920E-02 0.  1.
       -2    1    3    3    0  502  0.66540938158E+03 -0.13310571666E+04  0.31435794530E+03  0.15209548789E+04  0.25500000920E-02 0. -1.
</event>
<event>
 5   0  0.5874741E-07  0.3003173E+04  0.7818609E-02  0.8242825E-01
        1   -1    0    0  501    0  0.00000000000E+00  0.00000000000E+00  0.14826778898E+04  0.14826778898E+04  0.50400001928E-02 0. -1.
       -1   -1    0    0    0  501  0.00000000000E+00  0.00000000000E+00 -0.15207361653E+04  0.15207361653E+04  0.50400001928E-02 0.  1.
    10030    2    1    2    0    0  0.00000000000E+00  0.00000000000E+00 -0.38058275503E+02  0.30034140550E+04  0.30031729144E+04 0.  0.
        4    1    3    3  502    0  0.52162259276E+03 -0.34758627430E+03  0.13455781084E+04  0.14844151731E+04  0.12699999809E+01 0. -1.
       -4    1    3    3    0  502 -0.52162259276E+03  0.34758627430E+03 -0.13836363840E+04  0.15189988819E+04  0.12699999809E+01 0.  1.
</event>
<event>
 5   0  0.6291798E-07  0.3007469E+04  0.7818609E-02  0.8241601E-01
        1   -1    0    0  501    0  0.00000000000E+00  0.00000000000E+00  0.15873612438E+04  0.15873612438E+04  0.50400001928E-02 0.  1.
       -1   -1    0    0    0  501  0.00000000000E+00  0.00000000000E+00 -0.14245133208E+04  0.14245133209E+04  0.50400001928E-02 0. -1.
    10030    2    1    2    0    0  0.00000000000E+00  0.00000000000E+00  0.16284792296E+03  0.30118745647E+04  0.30074688606E+04 0.  0.
        1    1    3    3  502    0  0.95932543816E+02  0.55799304373E+03  0.14765397031E+04  0.15813692752E+04  0.50400001928E-02 0.  1.
       -1    1    3    3    0  502 -0.95932543816E+02 -0.55799304373E+03 -0.13136917801E+04  0.14305052894E+04  0.50400001928E-02 0. -1.
</event>
<event>
 5   0  0.1674806E-06  0.2993012E+04  0.7818609E-02  0.8245729E-01
        2   -1    0    0  501    0  0.00000000000E+00  0.00000000000E+00  0.10814705619E+04  0.10814705619E+04  0.25500000920E-02 0.  1.
       -2   -1    0    0    0  501  0.00000000000E+00  0.00000000000E+00 -0.20708199842E+04  0.20708199842E+04  0.25500000920E-02 0. -1.
    10030    2    1    2    0    0  0.00000000000E+00  0.00000000000E+00 -0.98934942226E+03  0.31522905461E+04  0.29930124303E+04 0.  0.
        2    1    3    3  502    0 -0.80701034483E+03 -0.10817660727E+04 -0.11756485697E+04  0.17898695741E+04  0.25500000920E-02 0. -1.
       -2    1    3    3    0  502  0.80701034483E+03  0.10817660727E+04  0.18629914744E+03  0.13624209720E+04  0.25500000920E-02 0.  1.
</event>
<event>
 5   0  0.1625212E-06  0.2997729E+04  0.7818609E-02  0.8244380E-01
       -2   -1    0    0    0  501  0.00000000000E+00  0.00000000000E+00  0.93298165054E+03  0.93298165054E+03  0.25500000920E-02 0.  1.
        2   -1    0    0  501    0  0.00000000000E+00  0.00000000000E+00 -0.24079726586E+04  0.24079726586E+04  0.25500000920E-02 0. -1.
    10030    2    1    2    0    0  0.00000000000E+00  0.00000000000E+00 -0.14749910081E+04  0.33409543091E+04  0.29977286772E+04 0.  0.
        4    1    3    3  502    0 -0.16799572353E+03 -0.14877718738E+04 -0.81554981243E+03  0.17049371897E+04  0.12699999809E+01 0. -1.
       -4    1    3    3    0  502  0.16799572353E+03  0.14877718738E+04 -0.65944119564E+03  0.16360171194E+04  0.12699999809E+01 0.  1.
</event>
<event>
 5   0  0.5931588E-07  0.2877334E+04  0.7818609E-02  0.8279653E-01
        1   -1    0    0  501    0  0.00000000000E+00  0.00000000000E+00  0.19093219607E+04  0.19093219607E+04  0.50400001928E-02 0. -1.
       -1   -1    0    0    0  501  0.00000000000E+00  0.00000000000E+00 -0.10840303404E+04  0.10840303404E+04  0.50400001928E-02 0.  1.
    10030    2    1    2    0    0  0.00000000000E+00  0.00000000000E+00  0.82529162034E+03  0.29933523011E+04  0.28773341377E+04 0.  0.
        2    1    3    3  502    0 -0.86030616520E+03 -0.39382479133E+03 -0.71481413471E+03  0.11858262568E+04  0.25500000920E-02 0.  1.
       -2    1    3    3    0  502  0.86030616520E+03  0.39382479133E+03  0.15401057550E+04  0.18075260443E+04  0.25500000920E-02 0. -1.
</event>
<event>
 5   0  0.6291798E-07  0.3062410E+04  0.7818609E-02  0.8226130E-01
       -1   -1    0    0    0  501  0.00000000000E+00  0.00000000000E+00  0.16582363147E+04  0.16582363147E+04  0.50400001928E-02 0.  1.
        1   -1    0    0  501    0  0.00000000000E+00  0.00000000000E+00 -0.14139054749E+04  0.14139054749E+04  0.50400001928E-02 0. -1.
    10030    2    1    2    0    0  0.00000000000E+00  0.00000000000E+00  0.24433083982E+03  0.30721417896E+04  0.30624104259E+04 0.  0.
        1    1    3    3  502    0  0.39828026036E+03  0.11608873127E+04  0.10406636883E+04  0.16091200796E+04  0.50400001928E-02 0.  1.
       -1    1    3    3    0  502 -0.39828026036E+03 -0.11608873127E+04 -0.79633284844E+03  0.14630217100E+04  0.50400001928E-02 0. -1.
</event>
<event>
 5   0  0.5874741E-07  0.3001037E+04  0.7818609E-02  0.8243435E-01
       -1   -1    0    0    0  501  0.00000000000E+00  0.00000000000E+00  0.10198648587E+04  0.10198648587E+04  0.50400001928E-02 0.  1.
        1   -1    0    0  501    0  0.00000000000E+00  0.00000000000E+00 -0.22076997507E+04  0.22076997507E+04  0.50400001928E-02 0. -1.
    10030    2    1    2    0    0  0.00000000000E+00  0.00000000000E+00 -0.11878348920E+04  0.32275646094E+04  0.30010367504E+04 0.  0.
        4    1    3    3  502    0 -0.24385528524E+03  0.60371175298E+03  0.86002307840E+03  0.10786911463E+04  0.12699999809E+01 0.  1.
       -4    1    3    3    0  502  0.24385528524E+03 -0.60371175298E+03 -0.20478579704E+04  0.21488734631E+04  0.12699999809E+01 0. -1.
</event>
<event>
 5   0  0.1625212E-06  0.3002618E+04  0.7818609E-02  0.8242984E-01
       -2   -1    0    0    0  501  0.00000000000E+00  0.00000000000E+00  0.13481879740E+04  0.13481879740E+04  0.25500000920E-02 0.  1.
        2   -1    0    0  501    0  0.00000000000E+00  0.00000000000E+00 -0.16718206774E+04  0.16718206774E+04  0.25500000920E-02 0. -1.
    10030    2    1    2    0    0  0.00000000000E+00  0.00000000000E+00 -0.32363270340E+03  0.30200086514E+04  0.30026178791E+04 0.  0.
        4    1    3    3  502    0  0.87620987868E+02  0.26682943956E+03  0.13215311217E+04  0.13510445980E+04  0.12699999809E+01 0.  1.
       -4    1    3    3    0  502 -0.87620987868E+02 -0.26682943956E+03 -0.16451638251E+04  0.16689640534E+04  0.12699999809E+01 0. -1.
</event>
<event>
 5   0  0.5887179E-07  0.3004981E+04  0.7818609E-02  0.8242310E-01
        1   -1    0    0  501    0  0.00000000000E+00  0.00000000000E+00  0.21748381355E+04  0.21748381355E+04  0.50400001928E-02 0.  1.
       -1   -1    0    0    0  501  0.00000000000E+00  0.00000000000E+00 -0.10379982099E+04  0.10379982100E+04  0.50400001928E-02 0. -1.
    10030    2    1    2    0    0  0.00000000000E+00  0.00000000000E+00  0.11368399256E+04  0.32128363455E+04  0.30049812589E+04 0.  0.
        3    1    3    3  502    0 -0.72736621453E+03  0.13017062639E+04  0.37134062171E+03  0.15366830106E+04  0.10100000352E+00 0.  1.
       -3    1    3    3    0  502  0.72736621453E+03 -0.13017062639E+04  0.76549930387E+03  0.16761533349E+04  0.10100000352E+00 0. -1.
</event>
<event>
 5   0  0.6291798E-07  0.2996749E+04  0.7818609E-02  0.8244660E-01
       -1   -1    0    0    0  501  0.00000000000E+00  0.00000000000E+00  0.19341265756E+04  0.19341265756E+04  0.50400001928E-02 0.  1.
        1   -1    0    0  501    0  0.00000000000E+00  0.00000000000E+00 -0.11607960745E+04  0.11607960745E+04  0.50400001928E-02 0. -1.
    10030    2    1    2    0    0  0.00000000000E+00  0.00000000000E+00  0.77333050111E+03  0.30949226501E+04  0.29967492632E+04 0.  0.
        1    1    3    3  502    0 -0.46176426118E+02  0.13635958795E+03  0.19269672113E+04  0.19323376602E+04  0.50400001928E-02 0.  1.
       -1    1    3    3    0  502  0.46176426118E+02 -0.13635958795E+03 -0.11536367102E+04  0.11625849899E+04  0.50400001928E-02 0. -1.
</event>
<event>
 5   0  0.6291798E-07  0.3000895E+04  0.7818609E-02  0.8243475E-01
       -1   -1    0    0    0  501  0.00000000000E+00  0.00000000000E+00  0.23450697396E+04  0.23450697396E+04  0.50400001928E-02 0.  1.
        1   -1    0    0  501    0  0.00000000000E+00  0.00000000000E+00 -0.96003232326E+03  0.96003232327E+03  0.50400001928E-02 0. -1.
    10030    2    1    2    0    0  0.00000000000E+00  0.00000000000E+00  0.13850374164E+04  0.33051020629E+04  0.30008950334E+04 0.  0.
        1    1    3    3  502    0 -0.14564378720E+04 -0.16888204691E+03  0.10435962111E+04  0.17996737128E+04  0.50400001928E-02 0.  1.
       -1    1    3    3    0  502  0.14564378720E+04  0.16888204691E+03  0.34144120523E+03  0.15054283501E+04  0.50400001928E-02 0. -1.
</event>
<event>
 5   0  0.1625212E-06  0.2991490E+04  0.7818609E-02  0.8246165E-01
        2   -1    0    0  501    0  0.00000000000E+00  0.00000000000E+00  0.17310794277E+04  0.17310794277E+04  0.25500000920E-02 0.  1.
       -2   -1    0    0    0  501  0.00000000000E+00  0.00000000000E+00 -0.12924035307E+04  0.12924035307E+04  0.25500000920E-02 0. -1.
    10030    2    1    2    0    0  0.00000000000E+00  0.00000000000E+00  0.43867589700E+03  0.30234829584E+04  0.29914900396E+04 0.  0.
        4    1    3    3  502    0  0.36701366860E+03 -0.13764598848E+04  0.68018667143E+03  0.15786058306E+04  0.12699999809E+01 0. -1.
       -4    1    3    3    0  502 -0.36701366860E+03  0.13764598848E+04 -0.24151077443E+03  0.14448771278E+04  0.12699999809E+01 0.  1.
</event>
<event>
 5   0  0.1635086E-06  0.3004502E+04  0.7818609E-02  0.8242446E-01
        2   -1    0    0  501    0  0.00000000000E+00  0.00000000000E+00  0.18147024059E+04  0.18147024059E+04  0.25500000920E-02 0.  1.
       -2   -1    0    0    0  501  0.00000000000E+00  0.00000000000E+00 -0.12435968626E+04  0.12435968626E+04  0.25500000920E-02 0. -1.
    10030    2    1    2    0    0  0.00000000000E+00  0.00000000000E+00  0.57110554328E+03  0.30582992685E+04  0.30045021009E+04 0.  0.
        3    1    3    3  502    0 -0.13718838397E+04  0.28224341501E+03 -0.26734104282E+03  0.14259024715E+04  0.10100000352E+00 0. -1.
       -3    1    3    3    0  502  0.13718838397E+04 -0.28224341501E+03  0.83844658610E+03  0.16323967970E+04  0.10100000352E+00 0.  1.
</event>
<event>
 5   0  0.1560174E-06  0.2996087E+04  0.7818609E-02  0.8244849E-01
       -2   -1    0    0    0  501  0.00000000000E+00  0.00000000000E+00  0.13979033518E+04  0.13979033518E+04  0.25500000920E-02 0.  1.
        2   -1    0    0  501    0  0.00000000000E+00  0.00000000000E+00 -0.16053568366E+04  0.16053568366E+04  0.25500000920E-02 0. -1.
    10030    2    1    2    0    0  0.00000000000E+00  0.00000000000E+00 -0.20745348480E+03  0.30032601885E+04  0.29960865828E+04 0.  0.
        5    1    3    3  502    0  0.14735638390E+04  0.19642166189E+03 -0.28893860769E+03  0.15144238066E+04  0.46999998093E+01 0. -1.
       -5    1    3    3    0  502 -0.14735638390E+04 -0.19642166189E+03  0.81485122889E+02  0.14888363819E+04  0.46999998093E+01 0.  1.
</event>
<event>
 5   0  0.1635086E-06  0.3009015E+04  0.7818609E-02  0.8241161E-01
       -2   -1    0    0    0  501  0.00000000000E+00  0.00000000000E+00  0.16497176324E+04  0.16497176324E+04  0.25500000920E-02 0. -1.
        2   -1    0    0  501    0  0.00000000000E+00  0.00000000000E+00 -0.13720786831E+04  0.13720786831E+04  0.25500000920E-02 0.  1.
    10030    2    1    2    0    0  0.00000000000E+00  0.00000000000E+00  0.27763894927E+03  0.30217963155E+04  0.30090147202E+04 0.  0.
        3    1    3    3  502    0 -0.54630504993E+03  0.13596902167E+04 -0.20370954092E+03  0.14794270108E+04  0.10100000352E+00 0.  1.
       -3    1    3    3    0  502  0.54630504993E+03 -0.13596902167E+04  0.48134849019E+03  0.15423693047E+04  0.10100000352E+00 0. -1.
</event>
<event>
 5   0  0.5916703E-07  0.2992758E+04  0.7818609E-02  0.8245802E-01
        1   -1    0    0  501    0  0.00000000000E+00  0.00000000000E+00  0.15802111958E+04  0.15802111959E+04  0.50400001928E-02 0. -1.
       -1   -1    0    0    0  501  0.00000000000E+00  0.00000000000E+00 -0.14169943263E+04  0.14169943263E+04  0.50400001928E-02 0.  1.
    10030    2    1    2    0    0  0.00000000000E+00  0.00000000000E+00  0.16321686958E+03  0.29972055221E+04  0.29927581251E+04 0.  0.
        5    1    3    3  502    0  0.86148445042E+03 -0.40284344102E+02 -0.11430537891E+04  0.14319121277E+04  0.46999998093E+01 0.  1.
       -5    1    3    3    0  502 -0.86148445042E+03  0.40284344102E+02  0.13062706587E+04  0.15652933944E+04  0.46999998093E+01 0. -1.
</event>
<event>
 5   0  0.1560174E-06  0.2996756E+04  0.7818609E-02  0.8244658E-01
        2   -1    0    0  501    0  0.00000000000E+00  0.00000000000E+00  0.14470601205E+04  0.14470601205E+04  0.25500000920E-02 0.  1.
       -2   -1    0    0    0  501  0.00000000000E+00  0.00000000000E+00 -0.15515160726E+04  0.15515160726E+04  0.25500000920E-02 0. -1.
    10030    2    1    2    0    0  0.00000000000E+00  0.00000000000E+00 -0.10445595210E+03  0.29985761932E+04  0.29967562698E+04 0.  0.
        5    1    3    3  502    0  0.79023042061E+03 -0.51617465951E+03 -0.12166419363E+04  0.15398506706E+04  0.46999998093E+01 0. -1.
       -5    1    3    3    0  502 -0.79023042061E+03  0.51617465951E+03  0.11121859842E+04  0.14587255226E+04  0.46999998093E+01 0.  1.
</event>
<event>
 5   0  0.1674806E-06  0.3000752E+04  0.7818609E-02  0.8243516E-01
       -2   -1    0    0    0  501  0.00000000000E+00  0.00000000000E+00  0.10944188531E+04  0.10944188531E+04  0.25500000920E-02 0. -1.
        2   -1    0    0  501    0  0.00000000000E+00  0.00000000000E+00 -0.20569161711E+04  0.20569161711E+04  0.25500000920E-02 0.  1.
    10030    2    1    2    0    0  0.00000000000E+00  0.00000000000E+00 -0.96249731808E+03  0.31513350242E+04  0.30007517970E+04 0.  0.
        2    1    3    3  502    0 -0.75440320108E+02 -0.13936291086E+04  0.97052161787E+02  0.13990398337E+04  0.25500000920E-02 0. -1.
       -2    1    3    3    0  502  0.75440320108E+02  0.13936291086E+04 -0.10595494799E+04  0.17522951905E+04  0.25500000920E-02 0.  1.
</event>
<event>
 5   0  0.1560174E-06  0.2956801E+04  0.7818609E-02  0.8256175E-01
        2   -1    0    0  501    0  0.00000000000E+00  0.00000000000E+00  0.19605159494E+04  0.19605159494E+04  0.25500000920E-02 0. -1.
       -2   -1    0    0    0  501  0.00000000000E+00  0.00000000000E+00 -0.11148433636E+04  0.11148433636E+04  0.25500000920E-02 0.  1.
    10030    2    1    2    0    0  0.00000000000E+00  0.00000000000E+00  0.84567258586E+03  0.30753593130E+04  0.29568011062E+04 0.  0.
        5    1    3    3  502    0  0.11559493776E+04  0.39641383706E+03 -0.44256123897E+03  0.12997097499E+04  0.46999998093E+01 0.  1.
       -5    1    3    3    0  502 -0.11559493776E+04 -0.39641383706E+03  0.12882338248E+04  0.17756495631E+04  0.46999998093E+01 0. -1.
</event>
<event>
 5   0  0.6291798E-07  0.2992849E+04  0.7818609E-02  0.8245776E-01
        1   -1    0    0  501    0  0.00000000000E+00  0.00000000000E+00  0.74178096952E+03  0.74178096954E+03  0.50400001928E-02 0.  1.
       -1   -1    0    0    0  501  0.00000000000E+00  0.00000000000E+00 -0.30187964411E+04  0.30187964411E+04  0.50400001928E-02 0. -1.
    10030    2    1    2    0    0  0.00000000000E+00  0.00000000000E+00 -0.22770154716E+04  0.37605774106E+04  0.29928486436E+04 0.  0.
        1    1    3    3  502    0 -0.25393288353E+03  0.13709222534E+04 -0.18214081777E+04  0.22937823532E+04  0.50400001928E-02 0.  1.
       -1    1    3    3    0  502  0.25393288353E+03 -0.13709222534E+04 -0.45560729391E+03  0.14667950574E+04  0.50400001928E-02 0. -1.
</event>
<event>
 5   0  0.1674806E-06  0.3002386E+04  0.7818609E-02  0.8243050E-01
        2   -1    0    0  501    0  0.00000000000E+00  0.00000000000E+00  0.19140101214E+04  0.19140101214E+04  0.25500000920E-02 0.  1.
       -2   -1    0    0    0  501  0.00000000000E+00  0.00000000000E+00 -0.11774133747E+04  0.11774133747E+04  0.25500000920E-02 0. -1.
    10030    2    1    2    0    0  0.00000000000E+00  0.00000000000E+00  0.73659674663E+03  0.30914234961E+04  0.30023864617E+04 0.  0.
        2    1    3    3  502    0 -0.29739850556E+03  0.41919324109E+03  0.18205915824E+04  0.18917511873E+04  0.25500000920E-02 0.  1.
       -2    1    3    3    0  502  0.29739850556E+03 -0.41919324109E+03 -0.10839948358E+04  0.11996723088E+04  0.25500000920E-02 0. -1.
</event>
<event>
 5   0  0.5916703E-07  0.2998590E+04  0.7818609E-02  0.8244134E-01
       -1   -1    0    0    0  501  0.00000000000E+00  0.00000000000E+00  0.93559682878E+03  0.93559682879E+03  0.50400001928E-02 0.  1.
        1   -1    0    0  501    0  0.00000000000E+00  0.00000000000E+00 -0.24026221352E+04  0.24026221352E+04  0.50400001928E-02 0. -1.
    10030    2    1    2    0    0  0.00000000000E+00  0.00000000000E+00 -0.14670253064E+04  0.33382189640E+04  0.29985901024E+04 0.  0.
        5    1    3    3  502    0 -0.51578127089E+03  0.99206361253E+03  0.37843745935E+03  0.11804480214E+04  0.46999998093E+01 0.  1.
       -5    1    3    3    0  502  0.51578127089E+03 -0.99206361253E+03 -0.18454627658E+04  0.21577709426E+04  0.46999998093E+01 0. -1.
</event>
<event>
 5   0  0.5887179E-07  0.3000032E+04  0.7818609E-02  0.8243722E-01
       -1   -1    0    0    0  501  0.00000000000E+00  0.00000000000E+00  0.10883073583E+04  0.10883073583E+04  0.50400001928E-02 0.  1.
        1   -1    0    0  501    0  0.00000000000E+00  0.00000000000E+00 -0.20674744703E+04  0.20674744703E+04  0.50400001928E-02 0. -1.
    10030    2    1    2    0    0  0.00000000000E+00  0.00000000000E+00 -0.97916711204E+03  0.31557818286E+04  0.30000317859E+04 0.  0.
        3    1    3    3  502    0  0.37633222310E+03  0.52020389327E+03 -0.19156224711E+04  0.20203582590E+04  0.10100000352E+00 0. -1.
       -3    1    3    3    0  502 -0.37633222310E+03 -0.52020389327E+03  0.93645535905E+03  0.11354235696E+04  0.10100000352E+00 0.  1.
</event>
<event>
 5   0  0.1625212E-06  0.3002364E+04  0.7818609E-02  0.8243056E-01
       -2   -1    0    0    0  501  0.00000000000E+00  0.00000000000E+00  0.10470097100E+04  0.10470097100E+04  0.25500000920E-02 0. -1.
        2   -1    0    0  501    0  0.00000000000E+00  0.00000000000E+00 -0.21523653206E+04  0.21523653206E+04  0.25500000920E-02 0.  1.
    10030    2    1    2    0    0  0.00000000000E+00  0.00000000000E+00 -0.11053556107E+04  0.31993750306E+04  0.30023639953E+04 0.  0.
        4    1    3    3  502    0 -0.14732502310E+03  0.10339015497E+04 -0.17018123569E+04  0.19967032799E+04  0.12699999809E+01 0.  1.
       -4    1    3    3    0  502  0.14732502310E+03 -0.10339015497E+04  0.59645674622E+03  0.12026717507E+04  0.12699999809E+01 0. -1.
</event>
<event>
 5   0  0.5916703E-07  0.2997747E+04  0.7818609E-02  0.8244375E-01
       -1   -1    0    0    0  501  0.00000000000E+00  0.00000000000E+00  0.15264652135E+04  0.15264652136E+04  0.50400001928E-02 0. -1.
        1   -1    0    0  501    0  0.00000000000E+00  0.00000000000E+00 -0.14717802044E+04  0.14717802044E+04  0.50400001928E-02 0.  1.
    10030    2    1    2    0    0  0.00000000000E+00  0.00000000000E+00  0.54685009183E+02  0.29982454179E+04  0.29977466764E+04 0.  0.
        5    1    3    3  502    0  0.10165302148E+04  0.25157846781E+03 -0.10452042169E+04  0.14795605254E+04  0.46999998093E+01 0.  1.
       -5    1    3    3    0  502 -0.10165302148E+04 -0.25157846781E+03  0.10998892261E+04  0.15186848926E+04  0.46999998093E+01 0. -1.
</event>
<event>
 5   0  0.5874741E-07  0.2992244E+04  0.7818609E-02  0.8245949E-01
        1   -1    0    0  501    0  0.00000000000E+00  0.00000000000E+00  0.16767461839E+04  0.16767461839E+04  0.50400001928E-02 0.  1.
       -1   -1    0    0    0  501  0.00000000000E+00  0.00000000000E+00 -0.13349554123E+04  0.13349554123E+04  0.50400001928E-02 0. -1.
    10030    2    1    2    0    0  0.00000000000E+00  0.00000000000E+00  0.34179077155E+03  0.30117015962E+04  0.29922442369E+04 0.  0.
        4    1    3    3  502    0 -0.10283166838E+04  0.31023941199E+02  0.12642287678E+04  0.16299305744E+04  0.12699999809E+01 0.  1.
       -4    1    3    3    0  502  0.10283166838E+04 -0.31023941199E+02 -0.92243799620E+03  0.13817710219E+04  0.12699999809E+01 0. -1.
</event>
<event>
 5   0  0.5887179E-07  0.2991706E+04  0.7818609E-02  0.8246103E-01
        1   -1    0    0  501    0  0.00000000000E+00  0.00000000000E+00  0.24358559823E+04  0.24358559823E+04  0.50400001928E-02 0. -1.
       -1   -1    0    0    0  501  0.00000000000E+00  0.00000000000E+00 -0.91859950300E+03  0.91859950301E+03  0.50400001928E-02 0.  1.
    10030    2    1    2    0    0  0.00000000000E+00  0.00000000000E+00  0.15172564793E+04  0.33544554853E+04  0.29917059312E+04 0.  0.
        3    1    3    3  502    0  0.23047696820E+03  0.14779107223E+04  0.77586595228E+03  0.16850245464E+04  0.10100000352E+00 0. -1.
       -3    1    3    3    0  502 -0.23047696820E+03 -0.14779107223E+04  0.74139052703E+03  0.16694309389E+04  0.10100000352E+00 0.  1.
</event>
<event>
 5   0  0.1560174E-06  0.2994280E+04  0.7818609E-02  0.8245366E-01
        2   -1    0    0  501    0  0.00000000000E+00  0.00000000000E+00  0.12592624183E+04  0.12592624183E+04  0.25500000920E-02 0. -1.
       -2   -1    0    0    0  501  0.00000000000E+00  0.00000000000E+00 -0.17799537744E+04  0.17799537744E+04  0.25500000920E-02 0.  1.
    10030    2    1    2    0    0  0.00000000000E+00  0.00000000000E+00 -0.52069135607E+03  0.30392161928E+04  0.29942804775E+04 0.  0.
        5    1    3    3  502    0  0.36811484458E+03  0.14476745323E+04 -0.15815348575E+03  0.15021000983E+04  0.46999998093E+01 0. -1.
       -5    1    3    3    0  502 -0.36811484458E+03 -0.14476745323E+04 -0.36253787032E+03  0.15371160944E+04  0.46999998093E+01 0.  1.
</event>
<event>
 5   0  0.5874741E-07  0.3004781E+04  0.7818609E-02  0.8242367E-01
       -1   -1    0    0    0  501  0.00000000000E+00  0.00000000000E+00  0.16704725787E+04  0.16704725787E+04  0.50400001928E-02 0.  1.
        1   -1    0    0  501    0  0.00000000000E+00  0.00000000000E+00 -0.13512206552E+04  0.13512206552E+04  0.50400001928E-02 0. -1.
    10030    2    1    2    0    0  0.00000000000E+00  0.00000000000E+00  0.31925192350E+03  0.30216932339E+04  0.30047808920E+04 0.  0.
        4    1    3    3  502    0 -0.69383869363E+03  0.12858993673E+04  0.51120225490E+03  0.15479918197E+04  0.12699999809E+01 0. -1.
       -4    1    3    3    0  502  0.69383869363E+03 -0.12858993673E+04 -0.19195033140E+03  0.14737014142E+04  0.12699999809E+01 0.  1.
</event>
<event>
 5   0  0.5916703E-07  0.2994745E+04  0.7818609E-02  0.8245233E-01
       -1   -1    0    0    0  501  0.00000000000E+00  0.00000000000E+00  0.18968985675E+04  0.18968985675E+04  0.50400001928E-02 0. -1.
        1   -1    0    0  501    0  0.00000000000E+00  0.00000000000E+00 -0.11819948708E+04  0.11819948708E+04  0.50400001928E-02 0.  1.
    10030    2    1    2    0    0  0.00000000000E+00  0.00000000000E+00  0.71490369671E+03  0.30788934383E+04  0.29947449823E+04 0.  0.
        5    1    3    3  502    0  0.78786861004E+03  0.11621094090E+04  0.89252469310E+03  0.16636879644E+04  0.46999998093E+01 0. -1.
       -5    1    3    3    0  502 -0.78786861004E+03 -0.11621094090E+04 -0.17762099639E+03  0.14152054739E+04  0.46999998093E+01 0.  1.
</event>
<event>
 5   0  0.1560174E-06  0.2986132E+04  0.7818609E-02  0.8247702E-01
        2   -1    0    0  501    0  0.00000000000E+00  0.00000000000E+00  0.21261795336E+04  0.21261795336E+04  0.25500000920E-02 0.  1.
       -2   -1    0    0    0  501  0.00000000000E+00  0.00000000000E+00 -0.10484750115E+04  0.10484750115E+04  0.25500000920E-02 0. -1.
    10030    2    1    2    0    0  0.00000000000E+00  0.00000000000E+00  0.10777045221E+04  0.31746545451E+04  0.29861320205E+04 0.  0.
        5    1    3    3  502    0 -0.25226518769E+03  0.13169291626E+04  0.12370349565E+04  0.18243403514E+04  0.46999998093E+01 0.  1.
       -5    1    3    3    0  502  0.25226518769E+03 -0.13169291626E+04 -0.15933043445E+03  0.13503141937E+04  0.46999998093E+01 0. -1.
</event>
<event>
 5   0  0.5916703E-07  0.3009074E+04  0.7818609E-02  0.8241144E-01
       -1   -1    0    0    0  501  0.00000000000E+00  0.00000000000E+00  0.90502765317E+03  0.90502765318E+03  0.50400001928E-02 0.  1.
        1   -1    0    0  501    0  0.00000000000E+00  0.00000000000E+00 -0.25011739450E+04  0.25011739450E+04  0.50400001928E-02 0. -1.
    10030    2    1    2    0    0  0.00000000000E+00  0.00000000000E+00 -0.15961462918E+04  0.34062015982E+04  0.30090740008E+04 0.  0.
        5    1    3    3  502    0  0.12691256282E+04 -0.64975082838E+03 -0.13418386153E+04  0.19579093336E+04  0.46999998093E+01 0. -1.
       -5    1    3    3    0  502 -0.12691256282E+04  0.64975082838E+03 -0.25430767654E+03  0.14482922646E+04  0.46999998093E+01 0.  1.
</event>
<event>
 5   0  0.1625212E-06  0.2981165E+04  0.7818609E-02  0.8249130E-01
        2   -1    0    0  501    0  0.00000000000E+00  0.00000000000E+00  0.19769187830E+04  0.19769187830E+04  0.25500000920E-02 0.  1.
       -2   -1    0    0    0  501  0.00000000000E+00  0.00000000000E+00 -0.11238884599E+04  0.11238884599E+04  0.25500000920E-02 0. -1.
    10030    2    1    2    0    0  0.00000000000E+00  0.00000000000E+00  0.85303032306E+03  0.31008072429E+04  0.29811650115E+04 0.  0.
        4    1    3    3  502    0 -0.10278177693E+04  0.10332544868E+04  0.10121726542E+03  0.14609143538E+04  0.12699999809E+01 0. -1.
       -4    1    3    3    0  502  0.10278177693E+04 -0.10332544868E+04  0.75181305765E+03  0.16398928892E+04  0.12699999809E+01 0.  1.
</event>
<event>
 5   0  0.5874741E-07  0.3008757E+04  0.7818609E-02  0.8241235E-01
       -1   -1    0    0    0  501  0.00000000000E+00  0.00000000000E+00  0.15518818121E+04  0.15518818121E+04  0.50400001928E-02 0.  1.
        1   -1    0    0  501    0  0.00000000000E+00  0.00000000000E+00 -0.14583296964E+04  0.14583296964E+04  0.50400001928E-02 0. -1.
    10030    2    1    2    0    0  0.00000000000E+00  0.00000000000E+00  0.93552115711E+02  0.30102115085E+04  0.30087574391E+04 0.  0.
        4    1    3    3  502    0 -0.10444071932E+04  0.80723385474E+03  0.76874855421E+03  0.15275433984E+04  0.12699999809E+01 0.  1.
       -4    1    3    3    0  502  0.10444071932E+04 -0.80723385474E+03 -0.67519643850E+03  0.14826681101E+04  0.12699999809E+01 0. -1.
</event>
<event>
 5   0  0.5931588E-07  0.3005137E+04  0.7818609E-02  0.8242265E-01
       -1   -1    0    0    0  501  0.00000000000E+00  0.00000000000E+00  0.99322719098E+03  0.99322719099E+03  0.50400001928E-02 0. -1.
        1   -1    0    0  501    0  0.00000000000E+00  0.00000000000E+00 -0.22731074768E+04  0.22731074768E+04  0.50400001928E-02 0.  1.
    10030    2    1    2    0    0  0.00000000000E+00  0.00000000000E+00 -0.12798802858E+04  0.32663346678E+04  0.30051370378E+04 0.  0.
        2    1    3    3  502    0 -0.11488759205E+04  0.97467652117E+02 -0.16871644547E+04  0.20435116151E+04  0.25500000920E-02 0.  1.
       -2    1    3    3    0  502  0.11488759205E+04 -0.97467652117E+02  0.40728416888E+03  0.12228230527E+04  0.25500000920E-02 0. -1.
</event>
<event>
 5   0  0.5887179E-07  0.3013766E+04  0.7818609E-02  0.8239811E-01
        1   -1    0    0  501    0  0.00000000000E+00  0.00000000000E+00  0.21764702057E+04  0.21764702057E+04  0.50400001928E-02 0. -1.
       -1   -1    0    0    0  501  0.00000000000E+00  0.00000000000E+00 -0.10432929825E+04  0.10432929825E+04  0.50400001928E-02 0.  1.
    10030    2    1    2    0    0  0.00000000000E+00  0.00000000000E+00  0.11331772232E+04  0.32197631882E+04  0.30137658119E+04 0.  0.
        3    1    3    3  502    0  0.25544219363E+03  0.13311435734E+04 -0.13682385180E+03  0.13623196041E+04  0.10100000352E+00 0.  1.
       -3    1    3    3    0  502 -0.25544219363E+03 -0.13311435734E+04  0.12700010750E+04  0.18574435840E+04  0.10100000352E+00 0. -1.
</event>
<event>
 5   0  0.1635086E-06  0.2998684E+04  0.7818609E-02  0.8244107E-01
       -2   -1    0    0    0  501  0.00000000000E+00  0.00000000000E+00  0.23174670945E+04  0.23174670946E+04  0.25500000920E-02 0.  1.
        2   -1    0    0  501    0  0.00000000000E+00  0.00000000000E+00 -0.97003623217E+03  0.97003623217E+03  0.25500000920E-02 0. -1.
    10030    2    1    2    0    0  0.00000000000E+00  0.00000000000E+00  0.13474308624E+04  0.32875033267E+04  0.29986844106E+04 0.  0.
        3    1    3    3  502    0  0.99422483261E+03  0.29416317219E+03  0.18610870818E+04  0.21304131351E+04  0.10100000352E+00 0.  1.
       -3    1    3    3    0  502 -0.99422483261E+03 -0.29416317219E+03 -0.51365621946E+03  0.11570901917E+04  0.10100000352E+00 0. -1.
</event>
<event>
 5   0  0.5931588E-07  0.2973235E+04  0.7818609E-02  0.8251415E-01
       -1   -1    0    0    0  501  0.00000000000E+00  0.00000000000E+00  0.10345716845E+04  0.10345716845E+04  0.50400001928E-02 0. -1.
        1   -1    0    0  501    0  0.00000000000E+00  0.00000000000E+00 -0.21361807658E+04  0.21361807658E+04  0.50400001928E-02 0.  1.
    10030    2    1    2    0    0  0.00000000000E+00  0.00000000000E+00 -0.11016090812E+04  0.31707524503E+04  0.29732353646E+04 0.  0.
        2    1    3    3  502    0  0.14397417055E+03 -0.13748652235E+04 -0.11339868767E+04  0.17879902631E+04  0.25500000920E-02 0.  1.
       -2    1    3    3    0  502 -0.14397417055E+03  0.13748652235E+04  0.32377795436E+02  0.13827621872E+04  0.25500000920E-02 0. -1.
</event>
<event>
 5   0  0.5931588E-07  0.2994341E+04  0.7818609E-02  0.8245349E-01
       -1   -1    0    0    0  501  0.00000000000E+00  0.00000000000E+00  0.14461147162E+04  0.14461147162E+04  0.50400001928E-02 0. -1.
        1   -1    0    0  501    0  0.00000000000E+00  0.00000000000E+00 -0.15500289864E+04  0.15500289864E+04  0.50400001928E-02 0.  1.
    10030    2    1    2    0    0  0.00000000000E+00  0.00000000000E+00 -0.10391427026E+03  0.29961437026E+04  0.29943411481E+04 0.  0.
        2    1    3    3  502    0 -0.13654392937E+04  0.42900030215E+03 -0.49160074721E+03  0.15133198666E+04  0.25500000920E-02 0.  1.
       -2    1    3    3    0  502  0.13654392937E+04 -0.42900030215E+03  0.38768647695E+03  0.14828238360E+04  0.25500000920E-02 0. -1.
</event>
<event>
 5   0  0.1560174E-06  0.3001219E+04  0.7818609E-02  0.8243383E-01
       -2   -1    0    0    0  501  0.00000000000E+00  0.00000000000E+00  0.16145500617E+04  0.16145500617E+04  0.25500000920E-02 0. -1.
        2   -1    0    0  501    0  0.00000000000E+00  0.00000000000E+00 -0.13947097844E+04  0.13947097844E+04  0.25500000920E-02 0.  1.
    10030    2    1    2    0    0  0.00000000000E+00  0.00000000000E+00  0.21984027738E+03  0.30092598461E+04  0.30012189313E+04 0.  0.
        5    1    3    3  502    0  0.59493292280E+03 -0.11228906254E+04  0.91016754801E+03  0.15630916782E+04  0.46999998093E+01 0. -1.
       -5    1    3    3    0  502 -0.59493292280E+03  0.11228906254E+04 -0.69032727063E+03  0.14461681679E+04  0.46999998093E+01 0.  1.
</event>
<event>
 5   0  0.1625212E-06  0.2842784E+04  0.7818609E-02  0.8290107E-01
       -2   -1    0    0    0  501  0.00000000000E+00  0.00000000000E+00  0.13779800638E+04  0.13779800638E+04  0.25500000920E-02 0.  1.
        2   -1    0    0  501    0  0.00000000000E+00  0.00000000000E+00 -0.14661717680E+04  0.14661717680E+04  0.25500000920E-02 0. -1.
    10030    2    1    2    0    0  0.00000000000E+00  0.00000000000E+00 -0.88191704186E+02  0.28441518318E+04  0.28427841750E+04 0.  0.
        4    1    3    3  502    0  0.14015702630E+04 -0.44384379246E+02 -0.27655366423E+03  0.14292839877E+04  0.12699999809E+01 0. -1.
       -4    1    3    3    0  502 -0.14015702630E+04  0.44384379246E+02  0.18836196004E+03  0.14148678441E+04  0.12699999809E+01 0.  1.
</event>
<event>
 5   0  0.5931588E-07  0.3022818E+04  0.7818609E-02  0.8237245E-01
       -1   -1    0    0    0  501  0.00000000000E+00  0.00000000000E+00  0.16123411600E+04  0.16123411600E+04  0.50400001928E-02 0. -1.
        1   -1    0    0  501    0  0.00000000000E+00  0.00000000000E+00 -0.14167947293E+04  0.14167947294E+04  0.50400001928E-02 0.  1.
    10030    2    1    2    0    0  0.00000000000E+00  0.00000000000E+00  0.19554643067E+03  0.30291358894E+04  0.30228175317E+04 0.  0.
        2    1    3    3  502    0 -0.87172725485E+03 -0.11781818365E+04  0.46778152545E+03  0.15384539000E+04  0.25500000920E-02 0.  1.
       -2    1    3    3    0  502  0.87172725485E+03  0.11781818365E+04 -0.27223509478E+03  0.14906819894E+04  0.25500000920E-02 0. -1.
</event>
<event>
 5   0  0.5887179E-07  0.2985812E+04  0.7818609E-02  0.8247794E-01
        1   -1    0    0  501    0  0.00000000000E+00  0.00000000000E+00  0.25071873022E+04  0.25071873022E+04  0.50400001928E-02 0.  1.
       -1   -1    0    0    0  501  0.00000000000E+00  0.00000000000E+00 -0.88895154531E+03  0.88895154532E+03  0.50400001928E-02 0. -1.
    10030    2    1    2    0    0  0.00000000000E+00  0.00000000000E+00  0.16182357569E+04  0.33961388475E+04  0.29858118003E+04 0.  0.
        3    1    3    3  502    0 -0.33726027821E+03  0.52400809191E+03  0.23521811215E+04  0.24333279710E+04  0.10100000352E+00 0.  1.
       -3    1    3    3    0  502  0.33726027821E+03 -0.52400809191E+03 -0.73394536461E+03  0.96281087659E+03  0.10100000352E+00 0. -1.
</event>
<event>
 5   0  0.5887179E-07  0.3004193E+04  0.7818609E-02  0.8242534E-01
        1   -1    0    0  501    0  0.00000000000E+00  0.00000000000E+00  0.16690965209E+04  0.16690965209E+04  0.50400001928E-02 0. -1.
       -1   -1    0    0    0  501  0.00000000000E+00  0.00000000000E+00 -0.13518057481E+04  0.13518057481E+04  0.50400001928E-02 0.  1.
    10030    2    1    2    0    0  0.00000000000E+00  0.00000000000E+00  0.31729077284E+03  0.30209022690E+04  0.30041932501E+04 0.  0.
        3    1    3    3  502    0 -0.12057636126E+04  0.88478017547E+03  0.17893972072E+02  0.14956677615E+04  0.10100000352E+00 0.  1.
       -3    1    3    3    0  502  0.12057636126E+04 -0.88478017547E+03  0.29939680077E+03  0.15252345075E+04  0.10100000352E+00 0. -1.
</event>
<event>
 5   0  0.1674806E-06  0.2983842E+04  0.7818609E-02  0.8248360E-01
       -2   -1    0    0    0  501  0.00000000000E+00  0.00000000000E+00  0.15865147675E+04  0.15865147675E+04  0.25500000920E-02 0.  1.
        2   -1    0    0  501    0  0.00000000000E+00  0.00000000000E+00 -0.14029672649E+04  0.14029672649E+04  0.25500000920E-02 0. -1.
    10030    2    1    2    0    0  0.00000000000E+00  0.00000000000E+00  0.18354750255E+03  0.29894820324E+04  0.29838420093E+04 0.  0.
        2    1    3    3  502    0 -0.97513194214E+03 -0.62867268398E+03  0.10314787257E+04  0.15524367974E+04  0.25500000920E-02 0.  1.
       -2    1    3    3    0  502  0.97513194214E+03  0.62867268398E+03 -0.84793122320E+03  0.14370452350E+04  0.25500000920E-02 0. -1.
</event>
<event>
 5   0  0.6291798E-07  0.2979786E+04  0.7818609E-02  0.8249527E-01
        1   -1    0    0  501    0  0.00000000000E+00  0.00000000000E+00  0.19684757618E+04  0.19684757618E+04  0.50400001928E-02 0.  1.
       -1   -1    0    0    0  501  0.00000000000E+00  0.00000000000E+00 -0.11276652045E+04  0.11276652045E+04  0.50400001928E-02 0. -1.
    10030    2    1    2    0    0  0.00000000000E+00  0.00000000000E+00  0.84081055727E+03  0.30961409664E+04  0.29797863162E+04 0.  0.
        1    1    3    3  502    0 -0.82020000484E+03 -0.10148805029E+04  0.11675603581E+04  0.17509733502E+04  0.50400001928E-02 0.  1.
       -1    1    3    3    0  502  0.82020000484E+03  0.10148805029E+04 -0.32674980085E+03  0.13451676162E+04  0.50400001928E-02 0. -1.
</event>
<event>
 5   0  0.1560174E-06  0.2877948E+04  0.7818609E-02  0.8279469E-01
       -2   -1    0    0    0  501  0.00000000000E+00  0.00000000000E+00  0.82196710894E+03  0.82196710895E+03  0.25500000920E-02 0.  1.
        2   -1    0    0  501    0  0.00000000000E+00  0.00000000000E+00 -0.25191342361E+04  0.25191342361E+04  0.25500000920E-02 0. -1.
    10030    2    1    2    0    0  0.00000000000E+00  0.00000000000E+00 -0.16971671272E+04  0.33411013451E+04  0.28779475222E+04 0.  0.
        5    1    3    3  502    0  0.11263612265E+04 -0.29626581642E+03 -0.18296640676E+04  0.21689065763E+04  0.46999998093E+01 0. -1.
       -5    1    3    3    0  502 -0.11263612265E+04  0.29626581642E+03  0.13249694040E+03  0.11721947687E+04  0.46999998093E+01 0.  1.
</event>
<event>
 5   0  0.5887179E-07  0.2991320E+04  0.7818609E-02  0.8246214E-01
        1   -1    0    0  501    0  0.00000000000E+00  0.00000000000E+00  0.83243776790E+03  0.83243776792E+03  0.50400001928E-02 0.  1.
       -1   -1    0    0    0  501  0.00000000000E+00  0.00000000000E+00 -0.26872874481E+04  0.26872874481E+04  0.50400001928E-02 0. -1.
    10030    2    1    2    0    0  0.00000000000E+00  0.00000000000E+00 -0.18548496802E+04  0.35197252160E+04  0.29913204877E+04 0.  0.
        3    1    3    3  502    0  0.47502120210E+03 -0.12363964919E+04 -0.10994956984E+03  0.13290637102E+04  0.10100000352E+00 0.  1.
       -3    1    3    3    0  502 -0.47502120210E+03  0.12363964919E+04 -0.17449001104E+04  0.21906615058E+04  0.10100000352E+00 0. -1.
</event>
<event>
 5   0  0.1674806E-06  0.3003980E+04  0.7818609E-02  0.8242595E-01
        2   -1    0    0  501    0  0.00000000000E+00  0.00000000000E+00  0.12954516425E+04  0.12954516425E+04  0.25500000920E-02 0. -1.
       -2   -1    0    0    0  501  0.00000000000E+00  0.00000000000E+00 -0.17414569245E+04  0.17414569245E+04  0.25500000920E-02 0.  1.
    10030    2    1    2    0    0  0.00000000000E+00  0.00000000000E+00 -0.44600528196E+03  0.30369085670E+04  0.30039795161E+04 0.  0.
        2    1    3    3  502    0 -0.83870421379E+03  0.77615474274E+03 -0.12084349307E+04  0.16631764563E+04  0.25500000920E-02 0.  1.
       -2    1    3    3    0  502  0.83870421379E+03 -0.77615474274E+03  0.76242964874E+03  0.13737321108E+04  0.25500000920E-02 0. -1.
</event>
<event>
 5   0  0.5431625E-07  0.3002752E+04  0.7818609E-02  0.8242946E-01
       -3   -1    0    0    0  501  0.00000000000E+00  0.00000000000E+00  0.12481949766E+04  0.12481949807E+04  0.10100000352E+00 0. -1.
        3   -1    0    0  501    0  0.00000000000E+00  0.00000000000E+00 -0.18059112710E+04  0.18059112738E+04  0.10100000352E+00 0.  1.
    10030    2    1    2    0    0  0.00000000000E+00  0.00000000000E+00 -0.55771629444E+03  0.30541062545E+04  0.30027516628E+04 0.  0.
        5    1    3    3  502    0 -0.79403707925E+03  0.25005981501E+03 -0.15496594584E+04  0.17591166310E+04  0.46999998093E+01 0.  1.
       -5    1    3    3    0  502  0.79403707925E+03 -0.25005981501E+03  0.99194316400E+03  0.12949896235E+04  0.46999998093E+01 0. -1.
</event>
<event>
 5   0  0.1560174E-06  0.3108879E+04  0.7818609E-02  0.8213305E-01
        2   -1    0    0  501    0  0.00000000000E+00  0.00000000000E+00  0.18679000931E+04  0.18679000931E+04  0.25500000920E-02 0. -1.
       -2   -1    0    0    0  501  0.00000000000E+00  0.00000000000E+00 -0.12935825092E+04  0.12935825092E+04  0.25500000920E-02 0.  1.
    10030    2    1    2    0    0  0.00000000000E+00  0.00000000000E+00  0.57431758388E+03  0.31614826023E+04  0.31088794698E+04 0.  0.
        5    1    3    3  502    0  0.10149472063E+04  0.69923842953E+03 -0.67607924048E+03  0.14057586715E+04  0.46999998093E+01 0.  1.
       -5    1    3    3    0  502 -0.10149472063E+04 -0.69923842953E+03  0.12503968244E+04  0.17557239308E+04  0.46999998093E+01 0. -1.
</event>
<event>
 5   0  0.6291798E-07  0.3001425E+04  0.7818609E-02  0.8243324E-01
       -1   -1    0    0    0  501  0.00000000000E+00  0.00000000000E+00  0.13631873124E+04  0.13631873124E+04  0.50400001928E-02 0.  1.
        1   -1    0    0  501    0  0.00000000000E+00  0.00000000000E+00 -0.16521122291E+04  0.16521122291E+04  0.50400001928E-02 0. -1.
    10030    2    1    2    0    0  0.00000000000E+00  0.00000000000E+00 -0.28892491670E+03  0.30152995415E+04  0.30014252810E+04 0.  0.
        1    1    3    3  502    0  0.38784824700E+03 -0.88081640319E+03  0.10123265565E+04  0.13968066637E+04  0.50400001928E-02 0.  1.
       -1    1    3    3    0  502 -0.38784824700E+03  0.88081640319E+03 -0.13012514732E+04  0.16184928778E+04  0.50400001928E-02 0. -1.
</event>
<event>
 5   0  0.5874741E-07  0.3009851E+04  0.7818609E-02  0.8240923E-01
        1   -1    0    0  501    0  0.00000000000E+00  0.00000000000E+00  0.18162652912E+04  0.18162652912E+04  0.50400001928E-02 0. -1.
       -1   -1    0    0    0  501  0.00000000000E+00  0.00000000000E+00 -0.12469548943E+04  0.12469548943E+04  0.50400001928E-02 0.  1.
    10030    2    1    2    0    0  0.00000000000E+00  0.00000000000E+00  0.56931039692E+03  0.30632201855E+04  0.30098510888E+04 0.  0.
        4    1    3    3  502    0 -0.17213394766E+03  0.73445762678E+03 -0.10406411123E+04  0.12852990465E+04  0.12699999809E+01 0.  1.
       -4    1    3    3    0  502  0.17213394766E+03 -0.73445762678E+03  0.16099515092E+04  0.17779211390E+04  0.12699999809E+01 0. -1.
</event>
<event>
 5   0  0.1635086E-06  0.2983244E+04  0.7818609E-02  0.8248532E-01
       -2   -1    0    0    0  501  0.00000000000E+00  0.00000000000E+00  0.10931653050E+04  0.10931653051E+04  0.25500000920E-02 0.  1.
        2   -1    0    0  501    0  0.00000000000E+00  0.00000000000E+00 -0.20353157571E+04  0.20353157571E+04  0.25500000920E-02 0. -1.
    10030    2    1    2    0    0  0.00000000000E+00  0.00000000000E+00 -0.94215045205E+03  0.31284810622E+04  0.29832442545E+04 0.  0.
        3    1    3    3  502    0  0.67533342675E+03 -0.12862445533E+04 -0.11632182462E+03  0.14574055940E+04  0.10100000352E+00 0.  1.
       -3    1    3    3    0  502 -0.67533342675E+03  0.12862445533E+04 -0.82582862743E+03  0.16710754682E+04  0.10100000352E+00 0. -1.
</event>
<event>
 5   0  0.5916703E-07  0.3005789E+04  0.7818609E-02  0.8242080E-01
       -1   -1    0    0    0  501  0.00000000000E+00  0.00000000000E+00  0.12699052738E+04  0.12699052738E+04  0.50400001928E-02 0.  1.
        1   -1    0    0  501    0  0.00000000000E+00  0.00000000000E+00 -0.17786305675E+04  0.17786305675E+04  0.50400001928E-02 0. -1.
    10030    2    1    2    0    0  0.00000000000E+00  0.00000000000E+00 -0.50872529368E+03  0.30485358413E+04  0.30057893059E+04 0.  0.
        5    1    3    3  502    0 -0.89245521399E+03  0.19792058879E+03  0.95550672575E+03  0.13223706218E+04  0.46999998093E+01 0.  1.
       -5    1    3    3    0  502  0.89245521399E+03 -0.19792058879E+03 -0.14642320194E+04  0.17261652195E+04  0.46999998093E+01 0. -1.
</event>
<event>
 5   0  0.1723916E-06  0.3012430E+04  0.7818609E-02  0.8240190E-01
        2   -1    0    0  501    0  0.00000000000E+00  0.00000000000E+00  0.19244152106E+04  0.19244152106E+04  0.25500000920E-02 0.  1.
       -2   -1    0    0    0  501  0.00000000000E+00  0.00000000000E+00 -0.11788951414E+04  0.11788951414E+04  0.25500000920E-02 0. -1.
    10030    2    1    2    0    0  0.00000000000E+00  0.00000000000E+00  0.74552006921E+03  0.31033103520E+04  0.30124300767E+04 0.  0.
        1    1    3    3  502    0 -0.40774608999E+03  0.13750278751E+04  0.84677769431E+03  0.16655302444E+04  0.50400001928E-02 0.  1.
       -1    1    3    3    0  502  0.40774608999E+03 -0.13750278751E+04 -0.10125762511E+03  0.14377801076E+04  0.50400001928E-02 0. -1.
</event>
<event>
 5   0  0.6291798E-07  0.3032454E+04  0.7818609E-02  0.8234524E-01
       -1   -1    0    0    0  501  0.00000000000E+00  0.00000000000E+00  0.13781057376E+04  0.13781057376E+04  0.50400001928E-02 0. -1.
        1   -1    0    0  501    0  0.00000000000E+00  0.00000000000E+00 -0.16681917422E+04  0.16681917422E+04  0.50400001928E-02 0.  1.
    10030    2    1    2    0    0  0.00000000000E+00  0.00000000000E+00 -0.29008600460E+03  0.30462974798E+04  0.30324541951E+04 0.  0.
        1    1    3    3  502    0  0.10666871273E+04  0.93568764679E+03  0.39182329759E+03  0.14720252364E+04  0.50400001928E-02 0. -1.
       -1    1    3    3    0  502 -0.10666871273E+04 -0.93568764679E+03 -0.68190930218E+03  0.15742722434E+04  0.50400001928E-02 0.  1.
</event>
<event>
 5   0  0.1674806E-06  0.3006565E+04  0.7818609E-02  0.8241859E-01
        2   -1    0    0  501    0  0.00000000000E+00  0.00000000000E+00  0.20107326781E+04  0.20107326781E+04  0.25500000920E-02 0.  1.
       -2   -1    0    0    0  501  0.00000000000E+00  0.00000000000E+00 -0.11238979234E+04  0.11238979234E+04  0.25500000920E-02 0. -1.
    10030    2    1    2    0    0  0.00000000000E+00  0.00000000000E+00  0.88683475470E+03  0.31346306015E+04  0.30065650045E+04 0.  0.
        2    1    3    3  502    0 -0.66091713583E+03 -0.23571353767E+03  0.18295147999E+04  0.19594633794E+04  0.25500000920E-02 0.  1.
       -2    1    3    3    0  502  0.66091713583E+03  0.23571353767E+03 -0.94268004521E+03  0.11751672221E+04  0.25500000920E-02 0. -1.
</event>
<event>
 5   0  0.5887179E-07  0.2984319E+04  0.7818609E-02  0.8248223E-01
       -1   -1    0    0    0  501  0.00000000000E+00  0.00000000000E+00  0.15289028652E+04  0.15289028652E+04  0.50400001928E-02 0.  1.
        1   -1    0    0  501    0  0.00000000000E+00  0.00000000000E+00 -0.14562992518E+04  0.14562992518E+04  0.50400001928E-02 0. -1.
    10030    2    1    2    0    0  0.00000000000E+00  0.00000000000E+00  0.72603613363E+02  0.29852021170E+04  0.29843190840E+04 0.  0.
        3    1    3    3  502    0 -0.13530611642E+04 -0.62786428475E+03  0.75709077025E+02  0.14935594895E+04  0.10100000352E+00 0.  1.
       -3    1    3    3    0  502  0.13530611642E+04  0.62786428475E+03 -0.31054636627E+01  0.14916426275E+04  0.10100000352E+00 0. -1.
</event>
<event>
 5   0  0.1625212E-06  0.3055032E+04  0.7818609E-02  0.8228189E-01
       -2   -1    0    0    0  501  0.00000000000E+00  0.00000000000E+00  0.22393851188E+04  0.22393851189E+04  0.25500000920E-02 0. -1.
        2   -1    0    0  501    0  0.00000000000E+00  0.00000000000E+00 -0.10419399478E+04  0.10419399478E+04  0.25500000920E-02 0.  1.
    10030    2    1    2    0    0  0.00000000000E+00  0.00000000000E+00  0.11974451710E+04  0.32813250667E+04  0.30550317929E+04 0.  0.
        4    1    3    3  502    0 -0.13915441404E+03  0.77011835764E+03  0.20077060910E+04  0.21548391115E+04  0.12699999809E+01 0. -1.
       -4    1    3    3    0  502  0.13915441404E+03 -0.77011835764E+03 -0.81026092002E+03  0.11264859551E+04  0.12699999809E+01 0.  1.
</event>
<event>
 5   0  0.1723916E-06  0.3011046E+04  0.7818609E-02  0.8240584E-01
       -2   -1    0    0    0  501  0.00000000000E+00  0.00000000000E+00  0.13755725078E+04  0.13755725078E+04  0.25500000920E-02 0.  1.
        2   -1    0    0  501    0  0.00000000000E+00  0.00000000000E+00 -0.16477494609E+04  0.16477494609E+04  0.25500000920E-02 0. -1.
    10030    2    1    2    0    0  0.00000000000E+00  0.00000000000E+00 -0.27217695309E+03  0.30233219687E+04  0.30110455713E+04 0.  0.
        1    1    3    3  502    0  0.54927213355E+03  0.13211107248E+04  0.33440007134E+03  0.14693048804E+04  0.50400001928E-02 0.  1.
       -1    1    3    3    0  502 -0.54927213355E+03 -0.13211107248E+04 -0.60657702444E+03  0.15540170882E+04  0.50400001928E-02 0. -1.
</event>
<event>
 5   0  0.5887179E-07  0.2990857E+04  0.7818609E-02  0.8246346E-01
        1   -1    0    0  501    0  0.00000000000E+00  0.00000000000E+00  0.14911538696E+04  0.14911538696E+04  0.50400001928E-02 0. -1.
       -1   -1    0    0    0  501  0.00000000000E+00  0.00000000000E+00 -0.14997156754E+04  0.14997156754E+04  0.50400001928E-02 0.  1.
    10030    2    1    2    0    0  0.00000000000E+00  0.00000000000E+00 -0.85618058300E+01  0.29908695450E+04  0.29908572902E+04 0.  0.
        3    1    3    3  502    0 -0.11481530848E+04 -0.39351132732E+03  0.86933595007E+03  0.14929339152E+04  0.10100000352E+00 0. -1.
       -3    1    3    3    0  502  0.11481530848E+04  0.39351132732E+03 -0.87789775590E+03  0.14979356298E+04  0.10100000352E+00 0.  1.
</event>
<event>
 5   0  0.5916703E-07  0.2998202E+04  0.7818609E-02  0.8244245E-01
        1   -1    0    0  501    0  0.00000000000E+00  0.00000000000E+00  0.22608167102E+04  0.22608167102E+04  0.50400001928E-02 0. -1.
       -1   -1    0    0    0  501  0.00000000000E+00  0.00000000000E+00 -0.99402295457E+03  0.99402295459E+03  0.50400001928E-02 0.  1.
    10030    2    1    2    0    0  0.00000000000E+00  0.00000000000E+00  0.12667937556E+04  0.32548396648E+04  0.29982019319E+04 0.  0.
        5    1    3    3  502    0  0.12330764934E+04  0.85244850840E+03  0.62075920088E+03  0.16225012091E+04  0.46999998093E+01 0. -1.
       -5    1    3    3    0  502 -0.12330764934E+04 -0.85244850840E+03  0.64603455474E+03  0.16323384557E+04  0.46999998093E+01 0.  1.
</event>
<event>
 5   0  0.5887179E-07  0.2983651E+04  0.7818609E-02  0.8248415E-01
       -1   -1    0    0    0  501  0.00000000000E+00  0.00000000000E+00  0.96587321540E+03  0.96587321541E+03  0.50400001928E-02 0.  1.
        1   -1    0    0  501    0  0.00000000000E+00  0.00000000000E+00 -0.23041773414E+04  0.23041773414E+04  0.50400001928E-02 0. -1.
    10030    2    1    2    0    0  0.00000000000E+00  0.00000000000E+00 -0.13383041260E+04  0.32700505568E+04  0.29836509029E+04 0.  0.
        3    1    3    3  502    0  0.65607628603E+03  0.24413646038E+03 -0.21129929187E+04  0.22259330154E+04  0.10100000352E+00 0. -1.
       -3    1    3    3    0  502 -0.65607628603E+03 -0.24413646038E+03  0.77468879274E+03  0.10441175414E+04  0.10100000352E+00 0.  1.
</event>
<event>
 5   0  0.5916703E-07  0.3001710E+04  0.7818609E-02  0.8243243E-01
       -1   -1    0    0    0  501  0.00000000000E+00  0.00000000000E+00  0.20900985436E+04  0.20900985436E+04  0.50400001928E-02 0.  1.
        1   -1    0    0  501    0  0.00000000000E+00  0.00000000000E+00 -0.10777319869E+04  0.10777319869E+04  0.50400001928E-02 0. -1.
    10030    2    1    2    0    0  0.00000000000E+00  0.00000000000E+00  0.10123665567E+04  0.31678305305E+04  0.30017102167E+04 0.  0.
        5    1    3    3  502    0 -0.78927725563E+03 -0.95413070840E+03  0.14011853609E+04  0.18699375659E+04  0.46999998093E+01 0.  1.
       -5    1    3    3    0  502  0.78927725563E+03  0.95413070840E+03 -0.38881880420E+03  0.12978929646E+04  0.46999998093E+01 0. -1.
</event>
<event>
 5   0  0.1674806E-06  0.3011004E+04  0.7818609E-02  0.8240596E-01
       -2   -1    0    0    0  501  0.00000000000E+00  0.00000000000E+00  0.12880371230E+04  0.12880371230E+04  0.25500000920E-02 0.  1.
        2   -1    0    0  501    0  0.00000000000E+00  0.00000000000E+00 -0.17596822266E+04  0.17596822266E+04  0.25500000920E-02 0. -1.
    10030    2    1    2    0    0  0.00000000000E+00  0.00000000000E+00 -0.47164510358E+03  0.30477193497E+04  0.30110038410E+04 0.  0.
        2    1    3    3  502    0  0.11066377199E+04 -0.39550886235E+03 -0.11882865314E+04  0.16712567678E+04  0.25500000920E-02 0. -1.
       -2    1    3    3    0  502 -0.11066377199E+04  0.39550886235E+03  0.71664142780E+03  0.13764625819E+04  0.25500000920E-02 0.  1.
</event>
<event>
 5   0  0.5887179E-07  0.2988717E+04  0.7818609E-02  0.8246960E-01
        1   -1    0    0  501    0  0.00000000000E+00  0.00000000000E+00  0.16400265878E+04  0.16400265878E+04  0.50400001928E-02 0. -1.
       -1   -1    0    0    0  501  0.00000000000E+00  0.00000000000E+00 -0.13616287969E+04  0.13616287969E+04  0.50400001928E-02 0.  1.
    10030    2    1    2    0    0  0.00000000000E+00  0.00000000000E+00  0.27839779097E+03  0.30016553847E+04  0.29887170690E+04 0.  0.
        3    1    3    3  502    0  0.84308805672E+03 -0.11927484326E+04  0.45625704294E+03  0.15302342286E+04  0.10100000352E+00 0. -1.
       -3    1    3    3    0  502 -0.84308805672E+03  0.11927484326E+04 -0.17785925197E+03  0.14714211561E+04  0.10100000352E+00 0.  1.
</event>
<event>
 5   0  0.1723916E-06  0.3002242E+04  0.7818609E-02  0.8243091E-01
        2   -1    0    0  501    0  0.00000000000E+00  0.00000000000E+00  0.22887091356E+04  0.22887091356E+04  0.25500000920E-02 0. -1.
       -2   -1    0    0    0  501  0.00000000000E+00  0.00000000000E+00 -0.98455692243E+03  0.98455692244E+03  0.25500000920E-02 0.  1.
    10030    2    1    2    0    0  0.00000000000E+00  0.00000000000E+00  0.13041522132E+04  0.32732660581E+04  0.30022421108E+04 0.  0.
        1    1    3    3  502    0 -0.49573705997E+02  0.32227683640E+03  0.22496322105E+04  0.22731398976E+04  0.50400001928E-02 0. -1.
       -1    1    3    3    0  502  0.49573705997E+02 -0.32227683640E+03 -0.94547999727E+03  0.10001261605E+04  0.50400001928E-02 0.  1.
</event>
<event>
 5   0  0.1625212E-06  0.3003561E+04  0.7818609E-02  0.8242715E-01
       -2   -1    0    0    0  501  0.00000000000E+00  0.00000000000E+00  0.18129445384E+04  0.18129445384E+04  0.25500000920E-02 0.  1.
        2   -1    0    0  501    0  0.00000000000E+00  0.00000000000E+00 -0.12440232669E+04  0.12440232669E+04  0.25500000920E-02 0. -1.
    10030    2    1    2    0    0  0.00000000000E+00  0.00000000000E+00  0.56892127154E+03  0.30569678053E+04  0.30035613444E+04 0.  0.
        4    1    3    3  502    0  0.11207675387E+03  0.11264336247E+04  0.12888871205E+04  0.17154140993E+04  0.12699999809E+01 0.  1.
       -4    1    3    3    0  502 -0.11207675387E+03 -0.11264336247E+04 -0.71996584896E+03  0.13415537060E+04  0.12699999809E+01 0. -1.
</event>
<event>
 5   0  0.5887179E-07  0.2991946E+04  0.7818609E-02  0.8246035E-01
        1   -1    0    0  501    0  0.00000000000E+00  0.00000000000E+00  0.18594625948E+04  0.18594625949E+04  0.50400001928E-02 0.  1.
       -1   -1    0    0    0  501  0.00000000000E+00  0.00000000000E+00 -0.12035386284E+04  0.12035386284E+04  0.50400001928E-02 0. -1.
    10030    2    1    2    0    0  0.00000000000E+00  0.00000000000E+00  0.65592396648E+03  0.30630012232E+04  0.29919458959E+04 0.  0.
        3    1    3    3  502    0  0.95531107845E+03  0.44755092129E+03  0.14138183736E+04  0.17640304667E+04  0.10100000352E+00 0.  1.
       -3    1    3    3    0  502 -0.95531107845E+03 -0.44755092129E+03 -0.75789440712E+03  0.12989707565E+04  0.10100000352E+00 0. -1.
</event>
<event>
 5   0  0.1635086E-06  0.2998376E+04  0.7818609E-02  0.8244195E-01
        2   -1    0    0  501    0  0.00000000000E+00  0.00000000000E+00  0.15776296940E+04  0.15776296940E+04  0.25500000920E-02 0.  1.
       -2   -1    0    0    0  501  0.00000000000E+00  0.00000000000E+00 -0.14246463909E+04  0.14246463909E+04  0.25500000920E-02 0. -1.
    10030    2    1    2    0    0  0.00000000000E+00  0.00000000000E+00  0.15298330312E+03  0.30022760849E+04  0.29983758602E+04 0.  0.
        3    1    3    3  502    0  0.43654451866E+03  0.47920349635E+03  0.14300478566E+04  0.15701095472E+04  0.10100000352E+00 0.  1.
       -3    1    3    3    0  502 -0.43654451866E+03 -0.47920349635E+03 -0.12770645535E+04  0.14321665377E+04  0.10100000352E+00 0. -1.
</event>
<event>
 5   0  0.1635086E-06  0.2995184E+04  0.7818609E-02  0.8245108E-01
       -2   -1    0    0    0  501  0.00000000000E+00  0.00000000000E+00  0.15720945278E+04  0.15720945279E+04  0.25500000920E-02 0. -1.
        2   -1    0    0  501    0  0.00000000000E+00  0.00000000000E+00 -0.14266197479E+04  0.14266197479E+04  0.25500000920E-02 0.  1.
    10030    2    1    2    0    0  0.00000000000E+00  0.00000000000E+00  0.14547477998E+03  0.29987142757E+04  0.29951835329E+04 0.  0.
        3    1    3    3  502    0  0.34995900410E+03 -0.12454477345E+04  0.82806010125E+03  0.15359996437E+04  0.10100000352E+00 0. -1.
       -3    1    3    3    0  502 -0.34995900410E+03  0.12454477345E+04 -0.68258532126E+03  0.14627146321E+04  0.10100000352E+00 0.  1.
</event>
<event>
 5   0  0.5931588E-07  0.3004216E+04  0.7818609E-02  0.8242528E-01
        1   -1    0    0  501    0  0.00000000000E+00  0.00000000000E+00  0.13766398723E+04  0.13766398723E+04  0.50400001928E-02 0. -1.
       -1   -1    0    0    0  501  0.00000000000E+00  0.00000000000E+00 -0.16390118919E+04  0.16390118919E+04  0.50400001928E-02 0.  1.
    10030    2    1    2    0    0  0.00000000000E+00  0.00000000000E+00 -0.26237201956E+03  0.30156517642E+04  0.30042164513E+04 0.  0.
        2    1    3    3  502    0  0.10170646721E+04  0.57479304448E+03  0.81661220721E+03  0.14253641949E+04  0.25500000920E-02 0. -1.
       -2    1    3    3    0  502 -0.10170646721E+04 -0.57479304448E+03 -0.10789842268E+04  0.15902875692E+04  0.25500000920E-02 0.  1.
</event>
<event>
 5   0  0.5916703E-07  0.2995554E+04  0.7818609E-02  0.8245002E-01
        1   -1    0    0  501    0  0.00000000000E+00  0.00000000000E+00  0.22287143145E+04  0.22287143145E+04  0.50400001928E-02 0. -1.
       -1   -1    0    0    0  501  0.00000000000E+00  0.00000000000E+00 -0.10065605043E+04  0.10065605043E+04  0.50400001928E-02 0.  1.
    10030    2    1    2    0    0  0.00000000000E+00  0.00000000000E+00  0.12221538102E+04  0.32352748187E+04  0.29955539082E+04 0.  0.
        5    1    3    3  502    0  0.13004501066E+04  0.67582514065E+03  0.27748427247E+03  0.14916198282E+04  0.46999998093E+01 0.  1.
       -5    1    3    3    0  502 -0.13004501066E+04 -0.67582514065E+03  0.94466953773E+03  0.17436549905E+04  0.46999998093E+01 0. -1.
</event>
<event>
 5   0  0.6291798E-07  0.3015996E+04  0.7818609E-02  0.8239178E-01
       -1   -1    0    0    0  501  0.00000000000E+00  0.00000000000E+00  0.12301426494E+04  0.12301426494E+04  0.50400001928E-02 0. -1.
        1   -1    0    0  501    0  0.00000000000E+00  0.00000000000E+00 -0.18486133067E+04  0.18486133067E+04  0.50400001928E-02 0.  1.
    10030    2    1    2    0    0  0.00000000000E+00  0.00000000000E+00 -0.61847065725E+03  0.30787559561E+04  0.30159960682E+04 0.  0.
        1    1    3    3  502    0 -0.11316613487E+04  0.96505924846E+03 -0.54930291618E+02  0.14882923429E+04  0.50400001928E-02 0. -1.
       -1    1    3    3    0  502  0.11316613487E+04 -0.96505924846E+03 -0.56354036563E+03  0.15904636132E+04  0.50400001928E-02 0.  1.
</event>
<event>
 5   0  0.1560174E-06  0.3001935E+04  0.7818609E-02  0.8243179E-01
       -2   -1    0    0    0  501  0.00000000000E+00  0.00000000000E+00  0.24858330543E+04  0.24858330543E+04  0.25500000920E-02 0.  1.
        2   -1    0    0  501    0  0.00000000000E+00  0.00000000000E+00 -0.90629699445E+03  0.90629699446E+03  0.25500000920E-02 0. -1.
    10030    2    1    2    0    0  0.00000000000E+00  0.00000000000E+00  0.15795360599E+04  0.33921300488E+04  0.30019347267E+04 0.  0.
        5    1    3    3  502    0  0.34225700537E+03  0.10662848541E+04  0.19190585052E+04  0.22219160390E+04  0.46999998093E+01 0.  1.
       -5    1    3    3    0  502 -0.34225700537E+03 -0.10662848541E+04 -0.33952244536E+03  0.11702140098E+04  0.46999998093E+01 0. -1.
</event>
<event>
 5   0  0.1635086E-06  0.3010422E+04  0.7818609E-02  0.8240761E-01
       -2   -1    0    0    0  501  0.00000000000E+00  0.00000000000E+00  0.15515671247E+04  0.15515671247E+04  0.25500000920E-02 0.  1.
        2   -1    0    0  501    0  0.00000000000E+00  0.00000000000E+00 -0.14602396098E+04  0.14602396098E+04  0.25500000920E-02 0. -1.
    10030    2    1    2    0    0  0.00000000000E+00  0.00000000000E+00  0.91327514875E+02  0.30118067345E+04  0.30104217463E+04 0.  0.
        3    1    3    3  502    0  0.87858347564E+03  0.66905689638E+03  0.10689313125E+04  0.15369320789E+04  0.10100000352E+00 0.  1.
       -3    1    3    3    0  502 -0.87858347564E+03 -0.66905689638E+03 -0.97760379760E+03  0.14748746555E+04  0.10100000352E+00 0. -1.
</event>
<event>
 5   0  0.1625212E-06  0.2990632E+04  0.7818609E-02  0.8246411E-01
        2   -1    0    0  501    0  0.00000000000E+00  0.00000000000E+00  0.17157006633E+04  0.17157006633E+04  0.25500000920E-02 0. -1.
       -2   -1    0    0    0  501  0.00000000000E+00  0.00000000000E+00 -0.13032400164E+04  0.13032400164E+04  0.25500000920E-02 0.  1.
    10030    2    1    2    0    0  0.00000000000E+00  0.00000000000E+00  0.41246064694E+03  0.30189406797E+04  0.29906318801E+04 0.  0.
        4    1    3    3  502    0 -0.11041120673E+04  0.44253196789E+03 -0.70847614899E+03  0.13844992114E+04  0.12699999809E+01 0.  1.
       -4    1    3    3    0  502  0.11041120673E+04 -0.44253196789E+03  0.11209367959E+04  0.16344414683E+04  0.12699999809E+01 0. -1.
</event>
<event>
 5   0  0.1635086E-06  0.3001673E+04  0.7818609E-02  0.8243253E-01
       -2   -1    0    0    0  501  0.00000000000E+00  0.00000000000E+00  0.18669766732E+04  0.18669766732E+04  0.25500000920E-02 0.  1.
        2   -1    0    0  501    0  0.00000000000E+00  0.00000000000E+00 -0.12065017120E+04  0.12065017120E+04  0.25500000920E-02 0. -1.
    10030    2    1    2    0    0  0.00000000000E+00  0.00000000000E+00  0.66047496122E+03  0.30734783852E+04  0.30016732351E+04 0.  0.
        3    1    3    3  502    0 -0.35443590837E+03  0.41585326115E+03  0.17615144166E+04  0.18443133676E+04  0.10100000352E+00 0.  1.
       -3    1    3    3    0  502  0.35443590837E+03 -0.41585326115E+03 -0.11010394554E+04  0.12291650176E+04  0.10100000352E+00 0. -1.
</event>
<event>
 5   0  0.5916703E-07  0.3004190E+04  0.7818609E-02  0.8242535E-01
        1   -1    0    0  501    0  0.00000000000E+00  0.00000000000E+00  0.19908431990E+04  0.19908431990E+04  0.50400001928E-02 0.  1.
       -1   -1    0    0    0  501  0.00000000000E+00  0.00000000000E+00 -0.11333335260E+04  0.11333335260E+04  0.50400001928E-02 0. -1.
    10030    2    1    2    0    0  0.00000000000E+00  0.00000000000E+00  0.85750967297E+03  0.31241767250E+04  0.30041899690E+04 0.  0.
        5    1    3    3  502    0 -0.11594846326E+04  0.44177325525E+03 -0.45163822122E+03  0.13204421211E+04  0.46999998093E+01 0. -1.
       -5    1    3    3    0  502  0.11594846326E+04 -0.44177325525E+03  0.13091478942E+04  0.18037346039E+04  0.46999998093E+01 0.  1.
</event>
<event>
 5   0  0.5874741E-07  0.2999684E+04  0.7818609E-02  0.8243821E-01
       -1   -1    0    0    0  501  0.00000000000E+00  0.00000000000E+00  0.91264729822E+03  0.91264729823E+03  0.50400001928E-02 0. -1.
        1   -1    0    0  501    0  0.00000000000E+00  0.00000000000E+00 -0.24648359740E+04  0.24648359740E+04  0.50400001928E-02 0.  1.
    10030    2    1    2    0    0  0.00000000000E+00  0.00000000000E+00 -0.15521886758E+04  0.33774832722E+04  0.29996839115E+04 0.  0.
        4    1    3    3  502    0 -0.14195947399E+04 -0.19362064926E+03 -0.12755706770E+04  0.19182857833E+04  0.12699999809E+01 0.  1.
       -4    1    3    3    0  502  0.14195947399E+04  0.19362064926E+03 -0.27661799875E+03  0.14591974889E+04  0.12699999809E+01 0. -1.
</event>
<event>
 5   0  0.5916703E-07  0.3003812E+04  0.7818609E-02  0.8242643E-01
       -1   -1    0    0    0  501  0.00000000000E+00  0.00000000000E+00  0.12567574320E+04  0.12567574320E+04  0.50400001928E-02 0.  1.
        1   -1    0    0  501    0  0.00000000000E+00  0.00000000000E+00 -0.17948743234E+04  0.17948743234E+04  0.50400001928E-02 0. -1.
    10030    2    1    2    0    0  0.00000000000E+00  0.00000000000E+00 -0.53811689140E+03  0.30516317555E+04  0.30038120085E+04 0.  0.
        5    1    3    3  502    0  0.82524872571E+03  0.10938136266E+04 -0.89385801177E+03  0.16359914255E+04  0.46999998093E+01 0. -1.
       -5    1    3    3    0  502 -0.82524872571E+03 -0.10938136266E+04  0.35574112037E+03  0.14156403300E+04  0.46999998093E+01 0.  1.
</event>
<event>
 5   0  0.5874741E-07  0.2995615E+04  0.7818609E-02  0.8244984E-01
       -1   -1    0    0    0  501  0.00000000000E+00  0.00000000000E+00  0.18309719310E+04  0.18309719310E+04  0.50400001928E-02 0. -1.
        1   -1    0    0  501    0  0.00000000000E+00  0.00000000000E+00 -0.12252661970E+04  0.12252661970E+04  0.50400001928E-02 0.  1.
    10030    2    1    2    0    0  0.00000000000E+00  0.00000000000E+00  0.60570573403E+03  0.30562381280E+04  0.29956154725E+04 0.  0.
        4    1    3    3  502    0  0.11073187868E+04 -0.23731269447E+03  0.13029736841E+04  0.17263297035E+04  0.12699999809E+01 0. -1.
       -4    1    3    3    0  502 -0.11073187868E+04  0.23731269447E+03 -0.69726795007E+03  0.13299084246E+04  0.12699999809E+01 0.  1.
</event>
<event>
 5   0  0.1635086E-06  0.3008123E+04  0.7818609E-02  0.8241415E-01
       -2   -1    0    0    0  501  0.00000000000E+00  0.00000000000E+00  0.11565388652E+04  0.11565388652E+04  0.25500000920E-02 0. -1.
        2   -1    0    0  501    0  0.00000000000E+00  0.00000000000E+00 -0.19560100003E+04  0.19560100004E+04  0.25500000920E-02 0.  1.
    10030    2    1    2    0    0  0.00000000000E+00  0.00000000000E+00 -0.79947113515E+03  0.31125488656E+04  0.30081233925E+04 0.  0.
        3    1    3    3  502    0  0.48365455536E+03  0.12329553812E+04 -0.11372924209E+04  0.17457189814E+04  0.10100000352E+00 0.  1.
       -3    1    3    3    0  502 -0.48365455536E+03 -0.12329553812E+04  0.33782128578E+03  0.13668298842E+04  0.10100000352E+00 0. -1.
</event>
<event>
 5   0  0.5887179E-07  0.2984662E+04  0.7818609E-02  0.8248124E-01
        1   -1    0    0  501    0  0.00000000000E+00  0.00000000000E+00  0.19272835108E+04  0.19272835108E+04  0.50400001928E-02 0. -1.
       -1   -1    0    0    0  501  0.00000000000E+00  0.00000000000E+00 -0.11555392067E+04  0.11555392067E+04  0.50400001928E-02 0.  1.
    10030    2    1    2    0    0  0.00000000000E+00  0.00000000000E+00  0.77174430416E+03  0.30828227175E+04  0.29846618965E+04 0.  0.
        3    1    3    3  502    0  0.16566834324E+03 -0.21423246290E+03  0.19016900542E+04  0.19208765241E+04  0.10100000352E+00 0. -1.
       -3    1    3    3    0  502 -0.16566834324E+03  0.21423246290E+03 -0.11299457501E+04  0.11619461934E+04  0.10100000352E+00 0.  1.
</event>
<event>
 5   0  0.1560174E-06  0.3005571E+04  0.7818609E-02  0.8242142E-01
        2   -1    0    0  501    0  0.00000000000E+00  0.00000000000E+00  0.19127007996E+04  0.19127007996E+04  0.25500000920E-02 0.  1.
       -2   -1    0    0    0  501  0.00000000000E+00  0.00000000000E+00 -0.11807202039E+04  0.11807202039E+04  0.25500000920E-02 0. -1.
    10030    2    1    2    0    0  0.00000000000E+00  0.00000000000E+00  0.73198059565E+03  0.30934210035E+04  0.30055711458E+04 0.  0.
        5    1    3    3  502    0  0.42796545678E+03 -0.14333307578E+04  0.51425249435E+03  0.15817930368E+04  0.46999998093E+01 0.  1.
       -5    1    3    3    0  502 -0.42796545678E+03  0.14333307578E+04  0.21772810131E+03  0.15116279667E+04  0.46999998093E+01 0. -1.
</event>
<event>
 5   0  0.1635086E-06  0.2999762E+04  0.7818609E-02  0.8243799E-01
        2   -1    0    0  501    0  0.00000000000E+00  0.00000000000E+00  0.14544914464E+04  0.14544914464E+04  0.25500000920E-02 0.  1.
       -2   -1    0    0    0  501  0.00000000000E+00  0.00000000000E+00 -0.15466868253E+04  0.15466868253E+04  0.25500000920E-02 0. -1.
    10030    2    1    2    0    0  0.00000000000E+00  0.00000000000E+00 -0.92195378819E+02  0.30011782717E+04  0.29997618290E+04 0.  0.
        3    1    3    3  502    0  0.72094241663E+03  0.12431331612E+04 -0.47584064141E+03  0.15137907223E+04  0.10100000352E+00 0. -1.
       -3    1    3    3    0  502 -0.72094241663E+03 -0.12431331612E+04  0.38364526259E+03  0.14873875495E+04  0.10100000352E+00 0.  1.
</event>
<event>
 5   0  0.5887179E-07  0.2992883E+04  0.7818609E-02  0.8245766E-01
       -1   -1    0    0    0  501  0.00000000000E+00  0.00000000000E+00  0.14162609285E+04  0.14162609286E+04  0.50400001928E-02 0.  1.
        1   -1    0    0  501    0  0.00000000000E+00  0.00000000000E+00 -0.15811614650E+04  0.15811614650E+04  0.50400001928E-02 0. -1.
    10030    2    1    2    0    0  0.00000000000E+00  0.00000000000E+00 -0.16490053641E+03  0.29974223935E+04  0.29928830278E+04 0.  0.
        3    1    3    3  502    0 -0.57536789617E+01  0.90568880289E+02  0.14135024090E+04  0.14164126861E+04  0.10100000352E+00 0.  1.
       -3    1    3    3    0  502  0.57536789617E+01 -0.90568880289E+02 -0.15784029454E+04  0.15810097075E+04  0.10100000352E+00 0. -1.
</event>
<event>
 5   0  0.1625212E-06  0.3017526E+04  0.7818609E-02  0.8238744E-01
        2   -1    0    0  501    0  0.00000000000E+00  0.00000000000E+00  0.13718049318E+04  0.13718049318E+04  0.25500000920E-02 0. -1.
       -2   -1    0    0    0  501  0.00000000000E+00  0.00000000000E+00 -0.16593941851E+04  0.16593941851E+04  0.25500000920E-02 0.  1.
    10030    2    1    2    0    0  0.00000000000E+00  0.00000000000E+00 -0.28758925329E+03  0.30311991170E+04  0.30175255605E+04 0.  0.
        4    1    3    3  502    0 -0.11471012352E+04 -0.48885908033E+03 -0.99707829675E+03  0.15965560394E+04  0.12699999809E+01 0.  1.
       -4    1    3    3    0  502  0.11471012352E+04  0.48885908033E+03  0.70948904346E+03  0.14346430775E+04  0.12699999809E+01 0. -1.
</event>
<event>
 5   0  0.1560174E-06  0.2991966E+04  0.7818609E-02  0.8246029E-01
        2   -1    0    0  501    0  0.00000000000E+00  0.00000000000E+00  0.30656084277E+04  0.30656084277E+04  0.25500000920E-02 0.  1.
       -2   -1    0    0    0  501  0.00000000000E+00  0.00000000000E+00 -0.73002325477E+03  0.73002325477E+03  0.25500000920E-02 0. -1.
    10030    2    1    2    0    0  0.00000000000E+00  0.00000000000E+00  0.23355851729E+04  0.37956316825E+04  0.29919662045E+04 0.  0.
        5    1    3    3  502    0 -0.18794638804E+03  0.14584399856E+04  0.81904698018E+03  0.16832204497E+04  0.46999998093E+01 0. -1.
       -5    1    3    3    0  502  0.18794638804E+03 -0.14584399856E+04  0.15165381927E+04  0.21124112328E+04  0.46999998093E+01 0.  1.
</event>
<event>
 5   0  0.5931588E-07  0.3008002E+04  0.7818609E-02  0.8241450E-01
       -1   -1    0    0    0  501  0.00000000000E+00  0.00000000000E+00  0.23264740473E+04  0.23264740473E+04  0.50400001928E-02 0. -1.
        1   -1    0    0  501    0  0.00000000000E+00  0.00000000000E+00 -0.97229485260E+03  0.97229485262E+03  0.50400001928E-02 0.  1.
    10030    2    1    2    0    0  0.00000000000E+00  0.00000000000E+00  0.13541791947E+04  0.32987688999E+04  0.30080018224E+04 0.  0.
        2    1    3    3  502    0 -0.62741882182E+03  0.29153196263E+03 -0.78742919294E+03  0.10481841427E+04  0.25500000920E-02 0.  1.
       -2    1    3    3    0  502  0.62741882182E+03 -0.29153196263E+03  0.21416083876E+04  0.22505847571E+04  0.25500000920E-02 0. -1.
</event>
<event>
 5   0  0.5874741E-07  0.2999114E+04  0.7818609E-02  0.8243984E-01
        1   -1    0    0  501    0  0.00000000000E+00  0.00000000000E+00  0.15063968686E+04  0.15063968686E+04  0.50400001928E-02 0.  1.
       -1   -1    0    0    0  501  0.00000000000E+00  0.00000000000E+00 -0.14927486679E+04  0.14927486679E+04  0.50400001928E-02 0. -1.
    10030    2    1    2    0    0  0.00000000000E+00  0.00000000000E+00  0.13648200740E+02  0.29991455365E+04  0.29991144820E+04 0.  0.
        4    1    3    3  502    0  0.82811513960E+03  0.97412937801E+03  0.79039304525E+03  0.15031385526E+04  0.12699999809E+01 0.  1.
       -4    1    3    3    0  502 -0.82811513960E+03 -0.97412937801E+03 -0.77674484451E+03  0.14960069839E+04  0.12699999809E+01 0. -1.
</event>
<event>
 5   0  0.5887179E-07  0.3029867E+04  0.7818609E-02  0.8235253E-01
       -1   -1    0    0    0  501  0.00000000000E+00  0.00000000000E+00  0.11721142353E+04  0.11721142353E+04  0.50400001928E-02 0. -1.
        1   -1    0    0  501    0  0.00000000000E+00  0.00000000000E+00 -0.19580207439E+04  0.19580207439E+04  0.50400001928E-02 0.  1.
    10030    2    1    2    0    0  0.00000000000E+00  0.00000000000E+00 -0.78590650863E+03  0.31301349792E+04  0.30298673152E+04 0.  0.
        3    1    3    3  502    0  0.69363289044E+03  0.13431226672E+04 -0.29006376495E+03  0.15392342524E+04  0.10100000352E+00 0. -1.
       -3    1    3    3    0  502 -0.69363289044E+03 -0.13431226672E+04 -0.49584274368E+03  0.15909007268E+04  0.10100000352E+00 0.  1.
</event>
<event>
 5   0  0.5916703E-07  0.2937584E+04  0.7818609E-02  0.8261782E-01
        1   -1    0    0  501    0  0.00000000000E+00  0.00000000000E+00  0.14902544407E+04  0.14902544407E+04  0.50400001928E-02 0.  1.
       -1   -1    0    0    0  501  0.00000000000E+00  0.00000000000E+00 -0.14476387278E+04  0.14476387278E+04  0.50400001928E-02 0. -1.
    10030    2    1    2    0    0  0.00000000000E+00  0.00000000000E+00  0.42615712947E+02  0.29378931685E+04  0.29375840703E+04 0.  0.
        5    1    3    3  502    0 -0.65526400486E+03 -0.83547213728E+03 -0.99366017303E+03  0.14542239297E+04  0.46999998093E+01 0. -1.
       -5    1    3    3    0  502  0.65526400486E+03  0.83547213728E+03  0.10362758860E+04  0.14836692388E+04  0.46999998093E+01 0.  1.
</event>
<event>
 5   0  0.1635086E-06  0.3081494E+04  0.7818609E-02  0.8220835E-01
        2   -1    0    0  501    0  0.00000000000E+00  0.00000000000E+00  0.16119489963E+04  0.16119489963E+04  0.25500000920E-02 0. -1.
       -2   -1    0    0    0  501  0.00000000000E+00  0.00000000000E+00 -0.14726896829E+04  0.14726896829E+04  0.25500000920E-02 0.  1.
    10030    2    1    2    0    0  0.00000000000E+00  0.00000000000E+00  0.13925931336E+03  0.30846386792E+04  0.30814935705E+04 0.  0.
        3    1    3    3  502    0 -0.13304170301E+04 -0.74154277718E+02  0.84397740144E+03  0.15772780970E+04  0.10100000352E+00 0. -1.
       -3    1    3    3    0  502  0.13304170301E+04  0.74154277718E+02 -0.70471808809E+03  0.15073605822E+04  0.10100000352E+00 0.  1.
</event>
<event>
 5   0  0.6291798E-07  0.2998123E+04  0.7818609E-02  0.8244267E-01
        1   -1    0    0  501    0  0.00000000000E+00  0.00000000000E+00  0.17697852488E+04  0.17697852488E+04  0.50400001928E-02 0.  1.
       -1   -1    0    0    0  501  0.00000000000E+00  0.00000000000E+00 -0.12697504058E+04  0.12697504058E+04  0.50400001928E-02 0. -1.
    10030    2    1    2    0    0  0.00000000000E+00  0.00000000000E+00  0.50003484296E+03  0.30395356546E+04  0.29981231048E+04 0.  0.
        1    1    3    3  502    0  0.76962342939E+03 -0.34842046989E+03  0.15054552461E+04  0.17263002477E+04  0.50400001928E-02 0.  1.
       -1    1    3    3    0  502 -0.76962342939E+03  0.34842046989E+03 -0.10054204032E+04  0.13132354069E+04  0.50400001928E-02 0. -1.
</event>
<event>
 5   0  0.1723916E-06  0.2942030E+04  0.7818609E-02  0.8260481E-01
       -2   -1    0    0    0  501  0.00000000000E+00  0.00000000000E+00  0.10797608273E+04  0.10797608273E+04  0.25500000920E-02 0.  1.
        2   -1    0    0  501    0  0.00000000000E+00  0.00000000000E+00 -0.20040417778E+04  0.20040417778E+04  0.25500000920E-02 0. -1.
    10030    2    1    2    0    0  0.00000000000E+00  0.00000000000E+00 -0.92428095047E+03  0.30838026051E+04  0.29420304607E+04 0.  0.
        1    1    3    3  502    0  0.13406012733E+04  0.34416739344E+03  0.60087671622E+02  0.13853784670E+04  0.50400001928E-02 0.  1.
       -1    1    3    3    0  502 -0.13406012733E+04 -0.34416739344E+03 -0.98436862209E+03  0.16984241381E+04  0.50400001928E-02 0. -1.
</event>
<event>
 5   0  0.5887179E-07  0.2994144E+04  0.7818609E-02  0.8245405E-01
        1   -1    0    0  501    0  0.00000000000E+00  0.00000000000E+00  0.21178085750E+04  0.21178085750E+04  0.50400001928E-02 0.  1.
       -1   -1    0    0    0  501  0.00000000000E+00  0.00000000000E+00 -0.10582753230E+04  0.10582753231E+04  0.50400001928E-02 0. -1.
    10030    2    1    2    0    0  0.00000000000E+00  0.00000000000E+00  0.10595332520E+04  0.31760838981E+04  0.29941439871E+04 0.  0.
        3    1    3    3  502    0  0.18279342431E+03 -0.22714895450E+03  0.20874000637E+04  0.21076643755E+04  0.10100000352E+00 0.  1.
       -3    1    3    3    0  502 -0.18279342431E+03  0.22714895450E+03 -0.10278668117E+04  0.10684195226E+04  0.10100000352E+00 0. -1.
</event>
<event>
 5   0  0.5931588E-07  0.3011656E+04  0.7818609E-02  0.8240410E-01
       -1   -1    0    0    0  501  0.00000000000E+00  0.00000000000E+00  0.10377172410E+04  0.10377172410E+04  0.50400001928E-02 0.  1.
        1   -1    0    0  501    0  0.00000000000E+00  0.00000000000E+00 -0.21851017329E+04  0.21851017329E+04  0.50400001928E-02 0. -1.
    10030    2    1    2    0    0  0.00000000000E+00  0.00000000000E+00 -0.11473844919E+04  0.32228189739E+04  0.30116558513E+04 0.  0.
        2    1    3    3  502    0  0.14415979473E+04  0.43491563667E+03 -0.56009340485E+03  0.16065680424E+04  0.25500000920E-02 0.  1.
       -2    1    3    3    0  502 -0.14415979473E+04 -0.43491563667E+03 -0.58729108700E+03  0.16162509315E+04  0.25500000920E-02 0. -1.
</event>
<event>
 5   0  0.5916703E-07  0.3002727E+04  0.7818609E-02  0.8242952E-01
        1   -1    0    0  501    0  0.00000000000E+00  0.00000000000E+00  0.18010900049E+04  0.18010900049E+04  0.50400001928E-02 0.  1.
       -1   -1    0    0    0  501  0.00000000000E+00  0.00000000000E+00 -0.12515159978E+04  0.12515159978E+04  0.50400001928E-02 0. -1.
    10030    2    1    2    0    0  0.00000000000E+00  0.00000000000E+00  0.54957400711E+03  0.30526060028E+04  0.30027273967E+04 0.  0.
        5    1    3    3  502    0 -0.99655682202E+03  0.65840739238E+03  0.11995372038E+04  0.16927898237E+04  0.46999998093E+01 0.  1.
       -5    1    3    3    0  502  0.99655682202E+03 -0.65840739238E+03 -0.64996319667E+03  0.13598161791E+04  0.46999998093E+01 0. -1.
</event>
<event>
 5   0  0.1560174E-06  0.2995883E+04  0.7818609E-02  0.8244908E-01
       -2   -1    0    0    0  501  0.00000000000E+00  0.00000000000E+00  0.14519625032E+04  0.14519625032E+04  0.25500000920E-02 0. -1.
        2   -1    0    0  501    0  0.00000000000E+00  0.00000000000E+00 -0.15453761714E+04  0.15453761714E+04  0.25500000920E-02 0.  1.
    10030    2    1    2    0    0  0.00000000000E+00  0.00000000000E+00 -0.93413668208E+02  0.29973386746E+04  0.29958826774E+04 0.  0.
        5    1    3    3  502    0 -0.59445624391E+03 -0.28891807319E+03  0.12981764580E+04  0.14567553278E+04  0.46999998093E+01 0. -1.
       -5    1    3    3    0  502  0.59445624391E+03  0.28891807319E+03 -0.13915901262E+04  0.15405833468E+04  0.46999998093E+01 0.  1.
</event>
<event>
 5   0  0.1560174E-06  0.3003260E+04  0.7818609E-02  0.8242800E-01
       -2   -1    0    0    0  501  0.00000000000E+00  0.00000000000E+00  0.13847598463E+04  0.13847598463E+04  0.25500000920E-02 0. -1.
        2   -1    0    0  501    0  0.00000000000E+00  0.00000000000E+00 -0.16283641492E+04  0.16283641492E+04  0.25500000920E-02 0.  1.
    10030    2    1    2    0    0  0.00000000000E+00  0.00000000000E+00 -0.24360430293E+03  0.30131239955E+04  0.30032604210E+04 0.  0.
        5    1    3    3  502    0 -0.32309490494E+02 -0.39403805875E+03  0.13315967969E+04  0.13890579594E+04  0.46999998093E+01 0. -1.
       -5    1    3    3    0  502  0.32309490494E+02  0.39403805875E+03 -0.15752010998E+04  0.16240660362E+04  0.46999998093E+01 0.  1.
</event>
<event>
 5   0  0.1560174E-06  0.2997904E+04  0.7818609E-02  0.8244330E-01
        2   -1    0    0  501    0  0.00000000000E+00  0.00000000000E+00  0.19505068592E+04  0.19505068592E+04  0.25500000920E-02 0.  1.
       -2   -1    0    0    0  501  0.00000000000E+00  0.00000000000E+00 -0.11519347719E+04  0.11519347719E+04  0.25500000920E-02 0. -1.
    10030    2    1    2    0    0  0.00000000000E+00  0.00000000000E+00  0.79857208728E+03  0.31024416311E+04  0.29979037169E+04 0.  0.
        5    1    3    3  502    0  0.13663731862E+04 -0.28687551149E+03 -0.16522727472E+03  0.14059144303E+04  0.46999998093E+01 0.  1.
       -5    1    3    3    0  502 -0.13663731862E+04  0.28687551149E+03  0.96379936200E+03  0.16965272008E+04  0.46999998093E+01 0. -1.
</event>
<event>
 5   0  0.5874741E-07  0.3001870E+04  0.7818609E-02  0.8243197E-01
       -1   -1    0    0    0  501  0.00000000000E+00  0.00000000000E+00  0.12678401183E+04  0.12678401183E+04  0.50400001928E-02 0. -1.
        1   -1    0    0  501    0  0.00000000000E+00  0.00000000000E+00 -0.17768842549E+04  0.17768842550E+04  0.50400001928E-02 0.  1.
    10030    2    1    2    0    0  0.00000000000E+00  0.00000000000E+00 -0.50904413663E+03  0.30447243733E+04  0.30018695135E+04 0.  0.
        4    1    3    3  502    0  0.24160147221E+03 -0.96044340316E+03  0.88940000268E+03  0.13311111072E+04  0.12699999809E+01 0. -1.
       -4    1    3    3    0  502 -0.24160147221E+03  0.96044340316E+03 -0.13984441393E+04  0.17136132661E+04  0.12699999809E+01 0.  1.
</event>
<event>
 5   0  0.1674806E-06  0.3020922E+04  0.7818609E-02  0.8237782E-01
        2   -1    0    0  501    0  0.00000000000E+00  0.00000000000E+00  0.30713496028E+04  0.30713496028E+04  0.25500000920E-02 0. -1.
       -2   -1    0    0    0  501  0.00000000000E+00  0.00000000000E+00 -0.74283066694E+03  0.74283066694E+03  0.25500000920E-02 0.  1.
    10030    2    1    2    0    0  0.00000000000E+00  0.00000000000E+00  0.23285189359E+04  0.38141802697E+04  0.30209221598E+04 0.  0.
        2    1    3    3  502    0 -0.92367876042E+03  0.99286519581E+03  0.32434993331E+03  0.13943337580E+04  0.25500000920E-02 0.  1.
       -2    1    3    3    0  502  0.92367876042E+03 -0.99286519581E+03  0.20041690025E+04  0.24198465117E+04  0.25500000920E-02 0. -1.
</event>
<event>
 5   0  0.1635086E-06  0.2999883E+04  0.7818609E-02  0.8243764E-01
       -2   -1    0    0    0  501  0.00000000000E+00  0.00000000000E+00  0.15437166389E+04  0.15437166389E+04  0.25500000920E-02 0.  1.
        2   -1    0    0  501    0  0.00000000000E+00  0.00000000000E+00 -0.14574074048E+04  0.14574074048E+04  0.25500000920E-02 0. -1.
    10030    2    1    2    0    0  0.00000000000E+00  0.00000000000E+00  0.86309234097E+02  0.30011240437E+04  0.29998827047E+04 0.  0.
        3    1    3    3  502    0 -0.11096548388E+04  0.61169325482E+03 -0.75987396058E+03  0.14774677477E+04  0.10100000352E+00 0. -1.
       -3    1    3    3    0  502  0.11096548388E+04 -0.61169325482E+03  0.84618319468E+03  0.15236562960E+04  0.10100000352E+00 0.  1.
</event>
<event>
 5   0  0.6291798E-07  0.3009146E+04  0.7818609E-02  0.8241124E-01
       -1   -1    0    0    0  501  0.00000000000E+00  0.00000000000E+00  0.10574162325E+04  0.10574162325E+04  0.50400001928E-02 0.  1.
        1   -1    0    0  501    0  0.00000000000E+00  0.00000000000E+00 -0.21408224708E+04  0.21408224708E+04  0.50400001928E-02 0. -1.
    10030    2    1    2    0    0  0.00000000000E+00  0.00000000000E+00 -0.10834062384E+04  0.31982387033E+04  0.30091463450E+04 0.  0.
        1    1    3    3  502    0 -0.14649612720E+04 -0.12847314066E+03 -0.87968524213E+03  0.17136110999E+04  0.50400001928E-02 0. -1.
       -1    1    3    3    0  502  0.14649612720E+04  0.12847314066E+03 -0.20372099623E+03  0.14846276034E+04  0.50400001928E-02 0.  1.
</event>
<event>
 5   0  0.1635086E-06  0.3004676E+04  0.7818609E-02  0.8242397E-01
       -2   -1    0    0    0  501  0.00000000000E+00  0.00000000000E+00  0.18095750356E+04  0.18095750356E+04  0.25500000920E-02 0. -1.
        2   -1    0    0  501    0  0.00000000000E+00  0.00000000000E+00 -0.12472652241E+04  0.12472652241E+04  0.25500000920E-02 0.  1.
    10030    2    1    2    0    0  0.00000000000E+00  0.00000000000E+00  0.56230981147E+03  0.30568402598E+04  0.30046763635E+04 0.  0.
        3    1    3    3  502    0 -0.78840819167E+03  0.12721364992E+04  0.41419698009E+03  0.15528933955E+04  0.10100000352E+00 0. -1.
       -3    1    3    3    0  502  0.78840819167E+03 -0.12721364992E+04  0.14811283138E+03  0.15039468642E+04  0.10100000352E+00 0.  1.
</event>
<event>
 5   0  0.5874741E-07  0.2996273E+04  0.7818609E-02  0.8244796E-01
       -1   -1    0    0    0  501  0.00000000000E+00  0.00000000000E+00  0.10696473539E+04  0.10696473539E+04  0.50400001928E-02 0. -1.
        1   -1    0    0  501    0  0.00000000000E+00  0.00000000000E+00 -0.20982736708E+04  0.20982736708E+04  0.50400001928E-02 0.  1.
    10030    2    1    2    0    0  0.00000000000E+00  0.00000000000E+00 -0.10286263169E+04  0.31679210247E+04  0.29962729380E+04 0.  0.
        4    1    3    3  502    0 -0.29754089563E+03 -0.48126115321E+03  0.95233451179E+03  0.11077389211E+04  0.12699999809E+01 0. -1.
       -4    1    3    3    0  502  0.29754089563E+03  0.48126115321E+03 -0.19809608287E+04  0.20601821036E+04  0.12699999809E+01 0.  1.
</event>
<event>
 5   0  0.1560174E-06  0.3009289E+04  0.7818609E-02  0.8241083E-01
        2   -1    0    0  501    0  0.00000000000E+00  0.00000000000E+00  0.10953708499E+04  0.10953708499E+04  0.25500000920E-02 0. -1.
       -2   -1    0    0    0  501  0.00000000000E+00  0.00000000000E+00 -0.20668386559E+04  0.20668386559E+04  0.25500000920E-02 0.  1.
    10030    2    1    2    0    0  0.00000000000E+00  0.00000000000E+00 -0.97146780600E+03  0.31622095059E+04  0.30092888298E+04 0.  0.
        5    1    3    3  502    0  0.58398558155E+03 -0.13562177974E+04 -0.78950313806E+03  0.16744262206E+04  0.46999998093E+01 0.  1.
       -5    1    3    3    0  502 -0.58398558155E+03  0.13562177974E+04 -0.18196466794E+03  0.14877832852E+04  0.46999998093E+01 0. -1.
</event>
<event>
 5   0  0.5887179E-07  0.3011685E+04  0.7818609E-02  0.8240402E-01
        1   -1    0    0  501    0  0.00000000000E+00  0.00000000000E+00  0.17380938299E+04  0.17380938299E+04  0.50400001928E-02 0. -1.
       -1   -1    0    0    0  501  0.00000000000E+00  0.00000000000E+00 -0.13046253636E+04  0.13046253636E+04  0.50400001928E-02 0.  1.
    10030    2    1    2    0    0  0.00000000000E+00  0.00000000000E+00  0.43346846630E+03  0.30427191936E+04  0.30116847743E+04 0.  0.
        3    1    3    3  502    0  0.28937520988E+03  0.14010190887E+04 -0.25818288674E+03  0.14537024840E+04  0.10100000352E+00 0.  1.
       -3    1    3    3    0  502 -0.28937520988E+03 -0.14010190887E+04  0.69165135304E+03  0.15890167096E+04  0.10100000352E+00 0. -1.
</event>
<event>
 5   0  0.1674806E-06  0.3006378E+04  0.7818609E-02  0.8241912E-01
        2   -1    0    0  501    0  0.00000000000E+00  0.00000000000E+00  0.24938281937E+04  0.24938281937E+04  0.25500000920E-02 0.  1.
       -2   -1    0    0    0  501  0.00000000000E+00  0.00000000000E+00 -0.90606771291E+03  0.90606771292E+03  0.25500000920E-02 0. -1.
    10030    2    1    2    0    0  0.00000000000E+00  0.00000000000E+00  0.15877604808E+04  0.33998959067E+04  0.30063780254E+04 0.  0.
        2    1    3    3  502    0 -0.12777266961E+04  0.40645448661E+03  0.25382448250E+02  0.13410574292E+04  0.25500000920E-02 0. -1.
       -2    1    3    3    0  502  0.12777266961E+04 -0.40645448661E+03  0.15623780326E+04  0.20588384775E+04  0.25500000920E-02 0.  1.
</event>
<event>
 5   0  0.5916703E-07  0.2994663E+04  0.7818609E-02  0.8245256E-01
       -1   -1    0    0    0  501  0.00000000000E+00  0.00000000000E+00  0.11507031739E+04  0.11507031739E+04  0.50400001928E-02 0. -1.
        1   -1    0    0  501    0  0.00000000000E+00  0.00000000000E+00 -0.19483758744E+04  0.19483758744E+04  0.50400001928E-02 0.  1.
    10030    2    1    2    0    0  0.00000000000E+00  0.00000000000E+00 -0.79767270056E+03  0.30990790483E+04  0.29946634553E+04 0.  0.
        5    1    3    3  502    0 -0.36420332401E+03 -0.33164880091E+03 -0.18621200202E+04  0.19261744594E+04  0.46999998093E+01 0.  1.
       -5    1    3    3    0  502  0.36420332401E+03  0.33164880091E+03  0.10644473196E+04  0.11729045889E+04  0.46999998093E+01 0. -1.
</event>
<event>
 5   0  0.5931588E-07  0.2846418E+04  0.7818609E-02  0.8289001E-01
        1   -1    0    0  501    0  0.00000000000E+00  0.00000000000E+00  0.17737921348E+04  0.17737921348E+04  0.50400001928E-02 0. -1.
       -1   -1    0    0    0  501  0.00000000000E+00  0.00000000000E+00 -0.11419173819E+04  0.11419173819E+04  0.50400001928E-02 0.  1.
    10030    2    1    2    0    0  0.00000000000E+00  0.00000000000E+00  0.63187475287E+03  0.29157095167E+04  0.28464181496E+04 0.  0.
        2    1    3    3  502    0 -0.73987616718E+03 -0.11910738159E+04  0.66177147212E+02  0.14037282474E+04  0.25500000920E-02 0.  1.
       -2    1    3    3    0  502  0.73987616718E+03  0.11910738159E+04  0.56569760566E+03  0.15119812693E+04  0.25500000920E-02 0. -1.
</event>
<event>
 5   0  0.5916703E-07  0.3001632E+04  0.7818609E-02  0.8243265E-01
        1   -1    0    0  501    0  0.00000000000E+00  0.00000000000E+00  0.11015767331E+04  0.11015767331E+04  0.50400001928E-02 0.  1.
       -1   -1    0    0    0  501  0.00000000000E+00  0.00000000000E+00 -0.20447500038E+04  0.20447500038E+04  0.50400001928E-02 0. -1.
    10030    2    1    2    0    0  0.00000000000E+00  0.00000000000E+00 -0.94317327069E+03  0.31463267369E+04  0.30016322421E+04 0.  0.
        5    1    3    3  502    0 -0.14116336566E+04 -0.49985629786E+03 -0.57567632300E+03  0.16043662979E+04  0.46999998093E+01 0.  1.
       -5    1    3    3    0  502  0.14116336566E+04  0.49985629786E+03 -0.36749694769E+03  0.15419604390E+04  0.46999998093E+01 0. -1.
</event>
<event>
 5   0  0.1560174E-06  0.2994940E+04  0.7818609E-02  0.8245177E-01
       -2   -1    0    0    0  501  0.00000000000E+00  0.00000000000E+00  0.17954084314E+04  0.17954084314E+04  0.25500000920E-02 0.  1.
        2   -1    0    0  501    0  0.00000000000E+00  0.00000000000E+00 -0.12489730122E+04  0.12489730122E+04  0.25500000920E-02 0. -1.
    10030    2    1    2    0    0  0.00000000000E+00  0.00000000000E+00  0.54643541916E+03  0.30443814436E+04  0.29949401842E+04 0.  0.
        5    1    3    3  502    0  0.53425634361E+02 -0.58200301202E+03 -0.11282418976E+04  0.12706430160E+04  0.46999998093E+01 0. -1.
       -5    1    3    3    0  502 -0.53425634361E+02  0.58200301202E+03  0.16746773168E+04  0.17737384277E+04  0.46999998093E+01 0.  1.
</event>
<event>
 5   0  0.5916703E-07  0.3004008E+04  0.7818609E-02  0.8242587E-01
       -1   -1    0    0    0  501  0.00000000000E+00  0.00000000000E+00  0.14427411707E+04  0.14427411707E+04  0.50400001928E-02 0. -1.
        1   -1    0    0  501    0  0.00000000000E+00  0.00000000000E+00 -0.15637010753E+04  0.15637010753E+04  0.50400001928E-02 0.  1.
    10030    2    1    2    0    0  0.00000000000E+00  0.00000000000E+00 -0.12095990458E+03  0.30064422460E+04  0.30040079361E+04 0.  0.
        5    1    3    3  502    0  0.13423107731E+04  0.66391278244E+03  0.55438928614E+02  0.14985572926E+04  0.46999998093E+01 0.  1.
       -5    1    3    3    0  502 -0.13423107731E+04 -0.66391278244E+03 -0.17639883319E+03  0.15078849534E+04  0.46999998093E+01 0. -1.
</event>
<event>
 5   0  0.1723916E-06  0.2996599E+04  0.7818609E-02  0.8244703E-01
       -2   -1    0    0    0  501  0.00000000000E+00  0.00000000000E+00  0.78201925535E+03  0.78201925536E+03  0.25500000920E-02 0.  1.
        2   -1    0    0  501    0  0.00000000000E+00  0.00000000000E+00 -0.28706478301E+04  0.28706478301E+04  0.25500000920E-02 0. -1.
    10030    2    1    2    0    0  0.00000000000E+00  0.00000000000E+00 -0.20886285747E+04  0.36526670854E+04  0.29965993249E+04 0.  0.
        1    1    3    3  502    0  0.61108336952E+03  0.12437727313E+04 -0.17386897674E+04  0.22233838173E+04  0.50400001928E-02 0.  1.
       -1    1    3    3    0  502 -0.61108336952E+03 -0.12437727313E+04 -0.34993880733E+03  0.14292832681E+04  0.50400001928E-02 0. -1.
</event>
<event>
 5   0  0.1560174E-06  0.3001733E+04  0.7818609E-02  0.8243236E-01
       -2   -1    0    0    0  501  0.00000000000E+00  0.00000000000E+00  0.12163232321E+04  0.12163232321E+04  0.25500000920E-02 0.  1.
        2   -1    0    0  501    0  0.00000000000E+00  0.00000000000E+00 -0.18519748149E+04  0.18519748149E+04  0.25500000920E-02 0. -1.
    10030    2    1    2    0    0  0.00000000000E+00  0.00000000000E+00 -0.63565158284E+03  0.30682980469E+04  0.30017328279E+04 0.  0.
        5    1    3    3  502    0  0.75688829477E+03 -0.11495068481E+04  0.29405710880E+03  0.14073867833E+04  0.46999998093E+01 0.  1.
       -5    1    3    3    0  502 -0.75688829477E+03  0.11495068481E+04 -0.92970869164E+03  0.16609112637E+04  0.46999998093E+01 0. -1.
</event>
<event>
 5   0  0.1560174E-06  0.2974699E+04  0.7818609E-02  0.8250993E-01
        2   -1    0    0  501    0  0.00000000000E+00  0.00000000000E+00  0.22995032594E+04  0.22995032594E+04  0.25500000920E-02 0. -1.
       -2   -1    0    0    0  501  0.00000000000E+00  0.00000000000E+00 -0.96203755856E+03  0.96203755856E+03  0.25500000920E-02 0.  1.
    10030    2    1    2    0    0  0.00000000000E+00  0.00000000000E+00  0.13374657008E+04  0.32615408179E+04  0.29746989774E+04 0.  0.
        5    1    3    3  502    0  0.14539737378E+04 -0.26728780012E+03  0.84790399199E+03  0.17042434298E+04  0.46999998093E+01 0.  1.
       -5    1    3    3    0  502 -0.14539737378E+04  0.26728780012E+03  0.48956170882E+03  0.15572973881E+04  0.46999998093E+01 0. -1.
</event>
<event>
 5   0  0.5916703E-07  0.2985079E+04  0.7818609E-02  0.8248005E-01
       -1   -1    0    0    0  501  0.00000000000E+00  0.00000000000E+00  0.16018883591E+04  0.16018883591E+04  0.50400001928E-02 0. -1.
        1   -1    0    0  501    0  0.00000000000E+00  0.00000000000E+00 -0.13906549647E+04  0.13906549647E+04  0.50400001928E-02 0.  1.
    10030    2    1    2    0    0  0.00000000000E+00  0.00000000000E+00  0.21123339441E+03  0.29925433239E+04  0.29850788932E+04 0.  0.
        5    1    3    3  502    0 -0.67980692525E+03  0.41503237384E+03  0.13710180994E+04  0.15855920174E+04  0.46999998093E+01 0. -1.
       -5    1    3    3    0  502  0.67980692525E+03 -0.41503237384E+03 -0.11597847049E+04  0.14069513065E+04  0.46999998093E+01 0.  1.
</event>
<event>
 5   0  0.5916703E-07  0.2943026E+04  0.7818609E-02  0.8260190E-01
        1   -1    0    0  501    0  0.00000000000E+00  0.00000000000E+00  0.14588047225E+04  0.14588047225E+04  0.50400001928E-02 0. -1.
       -1   -1    0    0    0  501  0.00000000000E+00  0.00000000000E+00 -0.14843320575E+04  0.14843320575E+04  0.50400001928E-02 0.  1.
    10030    2    1    2    0    0  0.00000000000E+00  0.00000000000E+00 -0.25527334932E+02  0.29431367800E+04  0.29430260721E+04 0.  0.
        5    1    3    3  502    0 -0.14114439309E+04 -0.34872219994E+03 -0.23981269423E+03  0.14735377027E+04  0.46999998093E+01 0.  1.
       -5    1    3    3    0  502  0.14114439309E+04  0.34872219994E+03  0.21428535930E+03  0.14695990773E+04  0.46999998093E+01 0. -1.
</event>
<event>
 5   0  0.1560174E-06  0.3087897E+04  0.7818609E-02  0.8219067E-01
        2   -1    0    0  501    0  0.00000000000E+00  0.00000000000E+00  0.21443556434E+04  0.21443556434E+04  0.25500000920E-02 0. -1.
       -2   -1    0    0    0  501  0.00000000000E+00  0.00000000000E+00 -0.11116521295E+04  0.11116521295E+04  0.25500000920E-02 0.  1.
    10030    2    1    2    0    0  0.00000000000E+00  0.00000000000E+00  0.10327035139E+04  0.32560077729E+04  0.30878973541E+04 0.  0.
        5    1    3    3  502    0 -0.67943165853E+02 -0.61977191062E+03  0.20057005399E+04  0.21003785947E+04  0.46999998093E+01 0. -1.
       -5    1    3    3    0  502  0.67943165853E+02  0.61977191062E+03 -0.97299702604E+03  0.11556291783E+04  0.46999998093E+01 0.  1.
</event>
<event>
 5   0  0.5874741E-07  0.2966734E+04  0.7818609E-02  0.8253294E-01
        1   -1    0    0  501    0  0.00000000000E+00  0.00000000000E+00  0.29620871150E+04  0.29620871150E+04  0.50400001928E-02 0. -1.
       -1   -1    0    0    0  501  0.00000000000E+00  0.00000000000E+00 -0.74284704010E+03  0.74284704012E+03  0.50400001928E-02 0.  1.
    10030    2    1    2    0    0  0.00000000000E+00  0.00000000000E+00  0.22192400749E+04  0.37049341551E+04  0.29667339927E+04 0.  0.
        4    1    3    3  502    0 -0.89062857838E+03 -0.11288295301E+04  0.15648862871E+04  0.21251696584E+04  0.12699999809E+01 0. -1.
       -4    1    3    3    0  502  0.89062857838E+03  0.11288295301E+04  0.65435378780E+03  0.15797644967E+04  0.12699999809E+01 0.  1.
</event>
<event>
 5   0  0.1723916E-06  0.2908028E+04  0.7818609E-02  0.8270493E-01
        2   -1    0    0  501    0  0.00000000000E+00  0.00000000000E+00  0.16666065247E+04  0.16666065247E+04  0.25500000920E-02 0. -1.
       -2   -1    0    0    0  501  0.00000000000E+00  0.00000000000E+00 -0.12685397768E+04  0.12685397768E+04  0.25500000920E-02 0.  1.
    10030    2    1    2    0    0  0.00000000000E+00  0.00000000000E+00  0.39806674784E+03  0.29351463015E+04  0.29080279702E+04 0.  0.
        1    1    3    3  502    0  0.82596507038E+03  0.80927209431E+03  0.10887392276E+04  0.15882357274E+04  0.50400001928E-02 0. -1.
       -1    1    3    3    0  502 -0.82596507038E+03 -0.80927209431E+03 -0.69067247980E+03  0.13469105741E+04  0.50400001928E-02 0.  1.
</event>
<event>
 5   0  0.5916703E-07  0.2968761E+04  0.7818609E-02  0.8252708E-01
        1   -1    0    0  501    0  0.00000000000E+00  0.00000000000E+00  0.17507309485E+04  0.17507309485E+04  0.50400001928E-02 0.  1.
       -1   -1    0    0    0  501  0.00000000000E+00  0.00000000000E+00 -0.12585514941E+04  0.12585514941E+04  0.50400001928E-02 0. -1.
    10030    2    1    2    0    0  0.00000000000E+00  0.00000000000E+00  0.49217945436E+03  0.30092824426E+04  0.29687607186E+04 0.  0.
        5    1    3    3  502    0 -0.56279180147E+02 -0.14761215997E+04  0.39389022607E+03  0.15288145484E+04  0.46999998093E+01 0.  1.
       -5    1    3    3    0  502  0.56279180147E+02  0.14761215997E+04  0.98289228292E+02  0.14804678942E+04  0.46999998093E+01 0. -1.
</event>
<event>
 5   0  0.6291798E-07  0.3008129E+04  0.7818609E-02  0.8241413E-01
        1   -1    0    0  501    0  0.00000000000E+00  0.00000000000E+00  0.13178850522E+04  0.13178850522E+04  0.50400001928E-02 0. -1.
       -1   -1    0    0    0  501  0.00000000000E+00  0.00000000000E+00 -0.17165454456E+04  0.17165454456E+04  0.50400001928E-02 0.  1.
    10030    2    1    2    0    0  0.00000000000E+00  0.00000000000E+00 -0.39866039340E+03  0.30344304977E+04  0.30081287101E+04 0.  0.
        1    1    3    3  502    0  0.78317794247E+03 -0.42625511004E+02  0.10952556968E+04  0.13471338705E+04  0.50400001928E-02 0. -1.
       -1    1    3    3    0  502 -0.78317794247E+03  0.42625511004E+02 -0.14939160902E+04  0.16872966272E+04  0.50400001928E-02 0.  1.
</event>
<event>
 5   0  0.6291798E-07  0.2996427E+04  0.7818609E-02  0.8244752E-01
        1   -1    0    0  501    0  0.00000000000E+00  0.00000000000E+00  0.14382055251E+04  0.14382055251E+04  0.50400001928E-02 0.  1.
       -1   -1    0    0    0  501  0.00000000000E+00  0.00000000000E+00 -0.15607251477E+04  0.15607251477E+04  0.50400001928E-02 0. -1.
    10030    2    1    2    0    0  0.00000000000E+00  0.00000000000E+00 -0.12251962254E+03  0.29989306728E+04  0.29964268926E+04 0.  0.
        1    1    3    3  502    0 -0.96921641982E+03 -0.10311871007E+04 -0.55352059507E+03  0.15195763733E+04  0.50400001928E-02 0. -1.
       -1    1    3    3    0  502  0.96921641982E+03  0.10311871007E+04  0.43100097253E+03  0.14793542995E+04  0.50400001928E-02 0.  1.
</event>
<event>
 5   0  0.5874741E-07  0.2997458E+04  0.7818609E-02  0.8244457E-01
       -1   -1    0    0    0  501  0.00000000000E+00  0.00000000000E+00  0.13383824609E+04  0.13383824609E+04  0.50400001928E-02 0.  1.
        1   -1    0    0  501    0  0.00000000000E+00  0.00000000000E+00 -0.16782857201E+04  0.16782857201E+04  0.50400001928E-02 0. -1.
    10030    2    1    2    0    0  0.00000000000E+00  0.00000000000E+00 -0.33990325924E+03  0.30166681810E+04  0.29974577042E+04 0.  0.
        4    1    3    3  502    0 -0.10634696265E+03  0.22039992286E+03 -0.16580424285E+04  0.16760048061E+04  0.12699999809E+01 0. -1.
       -4    1    3    3    0  502  0.10634696265E+03 -0.22039992286E+03  0.13181391692E+04  0.13406633749E+04  0.12699999809E+01 0.  1.
</event>
<event>
 5   0  0.1625212E-06  0.3023341E+04  0.7818609E-02  0.8237097E-01
        2   -1    0    0  501    0  0.00000000000E+00  0.00000000000E+00  0.15763115068E+04  0.15763115068E+04  0.25500000920E-02 0.  1.
       -2   -1    0    0    0  501  0.00000000000E+00  0.00000000000E+00 -0.14496802836E+04  0.14496802836E+04  0.25500000920E-02 0. -1.
    10030    2    1    2    0    0  0.00000000000E+00  0.00000000000E+00  0.12663122322E+03  0.30259917904E+04  0.30233410077E+04 0.  0.
        4    1    3    3  502    0 -0.39271963782E+03 -0.21944956876E+03  0.15077577482E+04  0.15734426800E+04  0.12699999809E+01 0.  1.
       -4    1    3    3    0  502  0.39271963782E+03  0.21944956876E+03 -0.13811265250E+04  0.14525491104E+04  0.12699999809E+01 0. -1.
</event>
<event>
 5   0  0.1635086E-06  0.3012554E+04  0.7818609E-02  0.8240155E-01
        2   -1    0    0  501    0  0.00000000000E+00  0.00000000000E+00  0.14436131690E+04  0.14436131690E+04  0.25500000920E-02 0.  1.
       -2   -1    0    0    0  501  0.00000000000E+00  0.00000000000E+00 -0.15716612955E+04  0.15716612955E+04  0.25500000920E-02 0. -1.
    10030    2    1    2    0    0  0.00000000000E+00  0.00000000000E+00 -0.12804812650E+03  0.30152744645E+04  0.30125543603E+04 0.  0.
        3    1    3    3  502    0 -0.14367402200E+04 -0.17157660892E+03 -0.48298287486E+03  0.15254289430E+04  0.10100000352E+00 0. -1.
       -3    1    3    3    0  502  0.14367402200E+04  0.17157660892E+03  0.35493474836E+03  0.14898455216E+04  0.10100000352E+00 0.  1.
</event>
<event>
 5   0  0.5874741E-07  0.2995745E+04  0.7818609E-02  0.8244947E-01
        1   -1    0    0  501    0  0.00000000000E+00  0.00000000000E+00  0.25787878987E+04  0.25787878987E+04  0.50400001928E-02 0.  1.
       -1   -1    0    0    0  501  0.00000000000E+00  0.00000000000E+00 -0.87002992219E+03  0.87002992220E+03  0.50400001928E-02 0. -1.
    10030    2    1    2    0    0  0.00000000000E+00  0.00000000000E+00  0.17087579765E+04  0.34488178209E+04  0.29957454063E+04 0.  0.
        4    1    3    3  502    0 -0.65412942905E+03  0.50578308559E+03  0.22922383229E+04  0.24368134893E+04  0.12699999809E+01 0.  1.
       -4    1    3    3    0  502  0.65412942905E+03 -0.50578308559E+03 -0.58348034642E+03  0.10120043316E+04  0.12699999809E+01 0. -1.
</event>
<event>
 5   0  0.1560174E-06  0.2999007E+04  0.7818609E-02  0.8244015E-01
        2   -1    0    0  501    0  0.00000000000E+00  0.00000000000E+00  0.22773061298E+04  0.22773061298E+04  0.25500000920E-02 0.  1.
       -2   -1    0    0    0  501  0.00000000000E+00  0.00000000000E+00 -0.98735525160E+03  0.98735525161E+03  0.25500000920E-02 0. -1.
    10030    2    1    2    0    0  0.00000000000E+00  0.00000000000E+00  0.12899508782E+04  0.32646613814E+04  0.29990066134E+04 0.  0.
        5    1    3    3  502    0 -0.12478281213E+04 -0.81520388274E+03  0.46658201400E+03  0.15618429039E+04  0.46999998093E+01 0.  1.
       -5    1    3    3    0  502  0.12478281213E+04  0.81520388274E+03  0.82336886423E+03  0.17028184775E+04  0.46999998093E+01 0. -1.
</event>
<event>
 5   0  0.1635086E-06  0.3010454E+04  0.7818609E-02  0.8240752E-01
       -2   -1    0    0    0  501  0.00000000000E+00  0.00000000000E+00  0.10047198195E+04  0.10047198195E+04  0.25500000920E-02 0.  1.
        2   -1    0    0  501    0  0.00000000000E+00  0.00000000000E+00 -0.22550642556E+04  0.22550642556E+04  0.25500000920E-02 0. -1.
    10030    2    1    2    0    0  0.00000000000E+00  0.00000000000E+00 -0.12503444361E+04  0.32597840751E+04  0.30104536216E+04 0.  0.
        3    1    3    3  502    0  0.11240126508E+04  0.47116127434E+03 -0.15816845602E+04  0.19967782661E+04  0.10100000352E+00 0. -1.
       -3    1    3    3    0  502 -0.11240126508E+04 -0.47116127434E+03  0.33134012418E+03  0.12630058090E+04  0.10100000352E+00 0.  1.
</event>
<event>
 5   0  0.1625212E-06  0.2997279E+04  0.7818609E-02  0.8244508E-01
        2   -1    0    0  501    0  0.00000000000E+00  0.00000000000E+00  0.27270635729E+04  0.27270635729E+04  0.25500000920E-02 0.  1.
       -2   -1    0    0    0  501  0.00000000000E+00  0.00000000000E+00 -0.82356736152E+03  0.82356736152E+03  0.25500000920E-02 0. -1.
    10030    2    1    2    0    0  0.00000000000E+00  0.00000000000E+00  0.19034962114E+04  0.35506309345E+04  0.29972791338E+04 0.  0.
        4    1    3    3  502    0 -0.37132872664E+03  0.35317330881E+03 -0.71654680558E+03  0.88094117100E+03  0.12699999809E+01 0. -1.
       -4    1    3    3    0  502  0.37132872664E+03 -0.35317330881E+03  0.26200430170E+04  0.26696897635E+04  0.12699999809E+01 0.  1.
</event>
<event>
 5   0  0.1674806E-06  0.3001216E+04  0.7818609E-02  0.8243384E-01
       -2   -1    0    0    0  501  0.00000000000E+00  0.00000000000E+00  0.10290560518E+04  0.10290560518E+04  0.25500000920E-02 0.  1.
        2   -1    0    0  501    0  0.00000000000E+00  0.00000000000E+00 -0.21882433636E+04  0.21882433636E+04  0.25500000920E-02 0. -1.
    10030    2    1    2    0    0  0.00000000000E+00  0.00000000000E+00 -0.11591873118E+04  0.32172994155E+04  0.30012164708E+04 0.  0.
        2    1    3    3  502    0 -0.24154193631E+03  0.85664331753E+03  0.71554942704E+03  0.11420119365E+04  0.25500000920E-02 0.  1.
       -2    1    3    3    0  502  0.24154193631E+03 -0.85664331753E+03 -0.18747367389E+04  0.20752874790E+04  0.25500000920E-02 0. -1.
</event>
<event>
 5   0  0.1674806E-06  0.2999416E+04  0.7818609E-02  0.8243898E-01
       -2   -1    0    0    0  501  0.00000000000E+00  0.00000000000E+00  0.17871917839E+04  0.17871917839E+04  0.25500000920E-02 0.  1.
        2   -1    0    0  501    0  0.00000000000E+00  0.00000000000E+00 -0.12584684591E+04  0.12584684591E+04  0.25500000920E-02 0. -1.
    10030    2    1    2    0    0  0.00000000000E+00  0.00000000000E+00  0.52872332479E+03  0.30456602430E+04  0.29994162702E+04 0.  0.
        2    1    3    3  502    0  0.12916363220E+03 -0.73048134997E+03 -0.10591285254E+04  0.12930736560E+04  0.25500000920E-02 0. -1.
       -2    1    3    3    0  502 -0.12916363220E+03  0.73048134997E+03  0.15878518502E+04  0.17525865870E+04  0.25500000920E-02 0.  1.
</event>
<event>
 5   0  0.1674806E-06  0.3000510E+04  0.7818609E-02  0.8243585E-01
       -2   -1    0    0    0  501  0.00000000000E+00  0.00000000000E+00  0.22925952179E+04  0.22925952179E+04  0.25500000920E-02 0.  1.
        2   -1    0    0  501    0  0.00000000000E+00  0.00000000000E+00 -0.98175418374E+03  0.98175418374E+03  0.25500000920E-02 0. -1.
    10030    2    1    2    0    0  0.00000000000E+00  0.00000000000E+00  0.13108410341E+04  0.32743494016E+04  0.30005099212E+04 0.  0.
        2    1    3    3  502    0 -0.74460716033E+03 -0.11758093083E+04  0.12667210272E+04  0.18819005057E+04  0.25500000920E-02 0.  1.
       -2    1    3    3    0  502  0.74460716033E+03  0.11758093083E+04  0.44120006919E+02  0.13924488959E+04  0.25500000920E-02 0. -1.
</event>
<event>
 5   0  0.1635086E-06  0.2963489E+04  0.7818609E-02  0.8254234E-01
        2   -1    0    0  501    0  0.00000000000E+00  0.00000000000E+00  0.17590755805E+04  0.17590755805E+04  0.25500000920E-02 0.  1.
       -2   -1    0    0    0  501  0.00000000000E+00  0.00000000000E+00 -0.12481366802E+04  0.12481366802E+04  0.25500000920E-02 0. -1.
    10030    2    1    2    0    0  0.00000000000E+00  0.00000000000E+00  0.51093890029E+03  0.30072122606E+04  0.29634889945E+04 0.  0.
        3    1    3    3  502    0 -0.41135859251E+03 -0.32314708208E+03  0.16622591760E+04  0.17426260375E+04  0.10100000352E+00 0.  1.
       -3    1    3    3    0  502  0.41135859251E+03  0.32314708208E+03 -0.11513202757E+04  0.12645862231E+04  0.10100000352E+00 0. -1.
</event>
<event>
 5   0  0.1625212E-06  0.2995465E+04  0.7818609E-02  0.8245027E-01
        2   -1    0    0  501    0  0.00000000000E+00  0.00000000000E+00  0.25031177704E+04  0.25031177704E+04  0.25500000920E-02 0.  1.
       -2   -1    0    0    0  501  0.00000000000E+00  0.00000000000E+00 -0.89616317716E+03  0.89616317716E+03  0.25500000920E-02 0. -1.
    10030    2    1    2    0    0  0.00000000000E+00  0.00000000000E+00  0.16069545932E+04  0.33992809475E+04  0.29954645542E+04 0.  0.
        4    1    3    3  502    0  0.13035238019E+04  0.37010388618E+03  0.15274902115E+04  0.20419057637E+04  0.12699999809E+01 0.  1.
       -4    1    3    3    0  502 -0.13035238019E+04 -0.37010388618E+03  0.79464381691E+02  0.13573751838E+04  0.12699999809E+01 0. -1.
</event>
<event>
 5   0  0.1723916E-06  0.3022252E+04  0.7818609E-02  0.8237405E-01
       -2   -1    0    0    0  501  0.00000000000E+00  0.00000000000E+00  0.13795856704E+04  0.13795856704E+04  0.25500000920E-02 0.  1.
        2   -1    0    0  501    0  0.00000000000E+00  0.00000000000E+00 -0.16552087977E+04  0.16552087977E+04  0.25500000920E-02 0. -1.
    10030    2    1    2    0    0  0.00000000000E+00  0.00000000000E+00 -0.27562312739E+03  0.30347944681E+04  0.30222523646E+04 0.  0.
        1    1    3    3  502    0  0.12609268473E+04  0.82722811094E+03 -0.41186055880E+02  0.15086216069E+04  0.50400001928E-02 0. -1.
       -1    1    3    3    0  502 -0.12609268473E+04 -0.82722811094E+03 -0.23443707151E+03  0.15261728612E+04  0.50400001928E-02 0.  1.
</event>
<event>
 5   0  0.6291798E-07  0.3017613E+04  0.7818609E-02  0.8238719E-01
        1   -1    0    0  501    0  0.00000000000E+00  0.00000000000E+00  0.32984236720E+04  0.32984236720E+04  0.50400001928E-02 0. -1.
       -1   -1    0    0    0  501  0.00000000000E+00  0.00000000000E+00 -0.69017736149E+03  0.69017736151E+03  0.50400001928E-02 0.  1.
    10030    2    1    2    0    0  0.00000000000E+00  0.00000000000E+00  0.26082463105E+04  0.39886010335E+04  0.30176131939E+04 0.  0.
        1    1    3    3  502    0 -0.20149817313E+03 -0.17254482966E+03 -0.65911053622E+03  0.71049273818E+03  0.50400001928E-02 0.  1.
       -1    1    3    3    0  502  0.20149817313E+03  0.17254482966E+03  0.32673568467E+04  0.32781082953E+04  0.50400001928E-02 0. -1.
</event>
<event>
 5   0  0.5887179E-07  0.3000799E+04  0.7818609E-02  0.8243503E-01
       -1   -1    0    0    0  501  0.00000000000E+00  0.00000000000E+00  0.13186317108E+04  0.13186317108E+04  0.50400001928E-02 0. -1.
        1   -1    0    0  501    0  0.00000000000E+00  0.00000000000E+00 -0.17072233733E+04  0.17072233733E+04  0.50400001928E-02 0.  1.
    10030    2    1    2    0    0  0.00000000000E+00  0.00000000000E+00 -0.38859166254E+03  0.30258550841E+04  0.30007991452E+04 0.  0.
        3    1    3    3  502    0 -0.14414182089E+04 -0.40258243288E+03 -0.30214589261E+03  0.15267780516E+04  0.10100000352E+00 0.  1.
       -3    1    3    3    0  502  0.14414182089E+04  0.40258243288E+03 -0.86445769935E+02  0.14990770325E+04  0.10100000352E+00 0. -1.
</event>
<event>
 5   0  0.6291798E-07  0.3003536E+04  0.7818609E-02  0.8242722E-01
        1   -1    0    0  501    0  0.00000000000E+00  0.00000000000E+00  0.17322546970E+04  0.17322546970E+04  0.50400001928E-02 0. -1.
       -1   -1    0    0    0  501  0.00000000000E+00  0.00000000000E+00 -0.13019485360E+04  0.13019485360E+04  0.50400001928E-02 0.  1.
    10030    2    1    2    0    0  0.00000000000E+00  0.00000000000E+00  0.43030616098E+03  0.30342032330E+04  0.30035355612E+04 0.  0.
        1    1    3    3  502    0  0.18442660008E+02 -0.59724695471E+03 -0.11766891594E+04  0.13197126333E+04  0.50400001928E-02 0.  1.
       -1    1    3    3    0  502 -0.18442660008E+02  0.59724695471E+03  0.16069953204E+04  0.17144905997E+04  0.50400001928E-02 0. -1.
</event>
<event>
 5   0  0.1625212E-06  0.3018626E+04  0.7818609E-02  0.8238432E-01
        2   -1    0    0  501    0  0.00000000000E+00  0.00000000000E+00  0.20483832079E+04  0.20483832079E+04  0.25500000920E-02 0.  1.
       -2   -1    0    0    0  501  0.00000000000E+00  0.00000000000E+00 -0.11121090499E+04  0.11121090499E+04  0.25500000920E-02 0. -1.
    10030    2    1    2    0    0  0.00000000000E+00  0.00000000000E+00  0.93627415799E+03  0.31604922578E+04  0.30186258484E+04 0.  0.
        4    1    3    3  502    0 -0.17972804387E+03 -0.14512297983E+04  0.85940280994E+03  0.16961559185E+04  0.12699999809E+01 0.  1.
       -4    1    3    3    0  502  0.17972804387E+03  0.14512297983E+04  0.76871348047E+02  0.14643363392E+04  0.12699999809E+01 0. -1.
</event>
<event>
 5   0  0.1674806E-06  0.2999208E+04  0.7818609E-02  0.8243957E-01
       -2   -1    0    0    0  501  0.00000000000E+00  0.00000000000E+00  0.11449745998E+04  0.11449745998E+04  0.25500000920E-02 0.  1.
        2   -1    0    0  501    0  0.00000000000E+00  0.00000000000E+00 -0.19640713798E+04  0.19640713798E+04  0.25500000920E-02 0. -1.
    10030    2    1    2    0    0  0.00000000000E+00  0.00000000000E+00 -0.81909678004E+03  0.31090459796E+04  0.29992077901E+04 0.  0.
        2    1    3    3  502    0 -0.85162790730E+03 -0.60139526936E+03 -0.15269222666E+04  0.18489018283E+04  0.25500000920E-02 0. -1.
       -2    1    3    3    0  502  0.85162790730E+03  0.60139526936E+03  0.70782548659E+03  0.12601441513E+04  0.25500000920E-02 0.  1.
</event>
<event>
 5   0  0.1674806E-06  0.3005967E+04  0.7818609E-02  0.8242029E-01
        2   -1    0    0  501    0  0.00000000000E+00  0.00000000000E+00  0.17454244576E+04  0.17454244576E+04  0.25500000920E-02 0. -1.
       -2   -1    0    0    0  501  0.00000000000E+00  0.00000000000E+00 -0.12942177158E+04  0.12942177158E+04  0.25500000920E-02 0.  1.
    10030    2    1    2    0    0  0.00000000000E+00  0.00000000000E+00  0.45120674183E+03  0.30396421734E+04  0.30059669025E+04 0.  0.
        2    1    3    3  502    0  0.65839269756E+03 -0.36491525940E+03 -0.10898603949E+04  0.13245526683E+04  0.25500000920E-02 0.  1.
       -2    1    3    3    0  502 -0.65839269756E+03  0.36491525940E+03  0.15410671367E+04  0.17150895051E+04  0.25500000920E-02 0. -1.
</event>
<event>
 5   0  0.1723916E-06  0.2982173E+04  0.7818609E-02  0.8248840E-01
       -2   -1    0    0    0  501  0.00000000000E+00  0.00000000000E+00  0.11836410959E+04  0.11836410959E+04  0.25500000920E-02 0.  1.
        2   -1    0    0  501    0  0.00000000000E+00  0.00000000000E+00 -0.18783900584E+04  0.18783900584E+04  0.25500000920E-02 0. -1.
    10030    2    1    2    0    0  0.00000000000E+00  0.00000000000E+00 -0.69474896247E+03  0.30620311544E+04  0.29821734808E+04 0.  0.
        1    1    3    3  502    0 -0.52737744064E+03 -0.61559038935E+03  0.93764228009E+03  0.12394561460E+04  0.50400001928E-02 0.  1.
       -1    1    3    3    0  502  0.52737744064E+03  0.61559038935E+03 -0.16323912426E+04  0.18225750084E+04  0.50400001928E-02 0. -1.
</event>
<event>
 5   0  0.1560174E-06  0.2999768E+04  0.7818609E-02  0.8243797E-01
       -2   -1    0    0    0  501  0.00000000000E+00  0.00000000000E+00  0.95963974922E+03  0.95963974922E+03  0.25500000920E-02 0. -1.
        2   -1    0    0  501    0  0.00000000000E+00  0.00000000000E+00 -0.23442666512E+04  0.23442666512E+04  0.25500000920E-02 0.  1.
    10030    2    1    2    0    0  0.00000000000E+00  0.00000000000E+00 -0.13846269020E+04  0.33039064004E+04  0.29997676319E+04 0.  0.
        5    1    3    3  502    0 -0.13248370530E+03 -0.11267577436E+04 -0.17728494297E+04  0.21047926585E+04  0.46999998093E+01 0.  1.
       -5    1    3    3    0  502  0.13248370530E+03  0.11267577436E+04  0.38822252773E+03  0.11991137419E+04  0.46999998093E+01 0. -1.
</event>
<event>
 5   0  0.5931588E-07  0.2985153E+04  0.7818609E-02  0.8247983E-01
       -1   -1    0    0    0  501  0.00000000000E+00  0.00000000000E+00  0.28244588332E+04  0.28244588332E+04  0.50400001928E-02 0.  1.
        1   -1    0    0  501    0  0.00000000000E+00  0.00000000000E+00 -0.78874746971E+03  0.78874746972E+03  0.50400001928E-02 0. -1.
    10030    2    1    2    0    0  0.00000000000E+00  0.00000000000E+00  0.20357113634E+04  0.36132063029E+04  0.29851531002E+04 0.  0.
        2    1    3    3  502    0 -0.74307126277E+03  0.93988105344E+03 -0.59497806434E+02  0.11996129731E+04  0.25500000920E-02 0. -1.
       -2    1    3    3    0  502  0.74307126277E+03 -0.93988105344E+03  0.20952091699E+04  0.24135933298E+04  0.25500000920E-02 0.  1.
</event>
<event>
 5   0  0.5887179E-07  0.3007143E+04  0.7818609E-02  0.8241694E-01
       -1   -1    0    0    0  501  0.00000000000E+00  0.00000000000E+00  0.98852843239E+03  0.98852843240E+03  0.50400001928E-02 0.  1.
        1   -1    0    0  501    0  0.00000000000E+00  0.00000000000E+00 -0.22869627085E+04  0.22869627085E+04  0.50400001928E-02 0. -1.
    10030    2    1    2    0    0  0.00000000000E+00  0.00000000000E+00 -0.12984342761E+04  0.32754911409E+04  0.30071432698E+04 0.  0.
        3    1    3    3  502    0 -0.14119632297E+03  0.13583332215E+03 -0.22729987369E+04  0.22814272640E+04  0.10100000352E+00 0. -1.
       -3    1    3    3    0  502  0.14119632297E+03 -0.13583332215E+03  0.97456446074E+03  0.99406387690E+03  0.10100000352E+00 0.  1.
</event>
<event>
 5   0  0.6291798E-07  0.2991888E+04  0.7818609E-02  0.8246051E-01
        1   -1    0    0  501    0  0.00000000000E+00  0.00000000000E+00  0.10858574890E+04  0.10858574890E+04  0.50400001928E-02 0.  1.
       -1   -1    0    0    0  501  0.00000000000E+00  0.00000000000E+00 -0.20609037272E+04  0.20609037272E+04  0.50400001928E-02 0. -1.
    10030    2    1    2    0    0  0.00000000000E+00  0.00000000000E+00 -0.97504623817E+03  0.31467612162E+04  0.29918875289E+04 0.  0.
        1    1    3    3  502    0 -0.22874107522E+03  0.42094387742E+03 -0.19780376952E+04  0.20352271006E+04  0.50400001928E-02 0. -1.
       -1    1    3    3    0  502  0.22874107522E+03 -0.42094387742E+03  0.10029914570E+04  0.11115341157E+04  0.50400001928E-02 0.  1.
</event>
<event>
 5   0  0.5931588E-07  0.2998626E+04  0.7818609E-02  0.8244123E-01
       -1   -1    0    0    0  501  0.00000000000E+00  0.00000000000E+00  0.11463590213E+04  0.11463590213E+04  0.50400001928E-02 0.  1.
        1   -1    0    0  501    0  0.00000000000E+00  0.00000000000E+00 -0.19609389914E+04  0.19609389914E+04  0.50400001928E-02 0. -1.
    10030    2    1    2    0    0  0.00000000000E+00  0.00000000000E+00 -0.81457997009E+03  0.31072980127E+04  0.29986264208E+04 0.  0.
        2    1    3    3  502    0  0.13017942308E+04 -0.12674426403E+03  0.35221685397E+03  0.13545438495E+04  0.25500000920E-02 0.  1.
       -2    1    3    3    0  502 -0.13017942308E+04  0.12674426403E+03 -0.11667968241E+04  0.17527541632E+04  0.25500000920E-02 0. -1.
</event>
<event>
 5   0  0.1635086E-06  0.2996991E+04  0.7818609E-02  0.8244591E-01
       -2   -1    0    0    0  501  0.00000000000E+00  0.00000000000E+00  0.11655970150E+04  0.11655970150E+04  0.25500000920E-02 0.  1.
        2   -1    0    0  501    0  0.00000000000E+00  0.00000000000E+00 -0.19264710634E+04  0.19264710634E+04  0.25500000920E-02 0. -1.
    10030    2    1    2    0    0  0.00000000000E+00  0.00000000000E+00 -0.76087404842E+03  0.30920680784E+04  0.29969911051E+04 0.  0.
        3    1    3    3  502    0 -0.19610093362E+03 -0.62688582323E+03 -0.17700309931E+04  0.18879754073E+04  0.10100000352E+00 0. -1.
       -3    1    3    3    0  502  0.19610093362E+03  0.62688582323E+03  0.10091569447E+04  0.12040926712E+04  0.10100000352E+00 0.  1.
</event>
<event>
 5   0  0.5931588E-07  0.3124358E+04  0.7818609E-02  0.8209085E-01
        1   -1    0    0  501    0  0.00000000000E+00  0.00000000000E+00  0.25409037429E+04  0.25409037429E+04  0.50400001928E-02 0. -1.
       -1   -1    0    0    0  501  0.00000000000E+00  0.00000000000E+00 -0.96044679281E+03  0.96044679282E+03  0.50400001928E-02 0.  1.
    10030    2    1    2    0    0  0.00000000000E+00  0.00000000000E+00  0.15804569501E+04  0.35013505357E+04  0.31243577585E+04 0.  0.
        2    1    3    3  502    0 -0.34248749229E+03 -0.13663918501E+04  0.33404946796E+02  0.14090565145E+04  0.25500000920E-02 0.  1.
       -2    1    3    3    0  502  0.34248749229E+03  0.13663918501E+04  0.15470520033E+04  0.20922940212E+04  0.25500000920E-02 0. -1.
</event>
<event>
 5   0  0.1560174E-06  0.3001915E+04  0.7818609E-02  0.8243184E-01
       -2   -1    0    0    0  501  0.00000000000E+00  0.00000000000E+00  0.13158609321E+04  0.13158609321E+04  0.25500000920E-02 0. -1.
        2   -1    0    0  501    0  0.00000000000E+00  0.00000000000E+00 -0.17120913001E+04  0.17120913001E+04  0.25500000920E-02 0.  1.
    10030    2    1    2    0    0  0.00000000000E+00  0.00000000000E+00 -0.39623036802E+03  0.30279522322E+04  0.30019154245E+04 0.  0.
        5    1    3    3  502    0  0.43192795589E+03 -0.11531474111E+04 -0.10637786825E+04  0.16272547085E+04  0.46999998093E+01 0.  1.
       -5    1    3    3    0  502 -0.43192795589E+03  0.11531474111E+04  0.66754831449E+03  0.14006975237E+04  0.46999998093E+01 0. -1.
</event>
<event>
 5   0  0.1625212E-06  0.2985278E+04  0.7818609E-02  0.8247947E-01
        2   -1    0    0  501    0  0.00000000000E+00  0.00000000000E+00  0.13705564992E+04  0.13705564992E+04  0.25500000920E-02 0. -1.
       -2   -1    0    0    0  501  0.00000000000E+00  0.00000000000E+00 -0.16255958670E+04  0.16255958670E+04  0.25500000920E-02 0.  1.
    10030    2    1    2    0    0  0.00000000000E+00  0.00000000000E+00 -0.25503936783E+03  0.29961523662E+04  0.29852778635E+04 0.  0.
        4    1    3    3  502    0  0.11286172796E+04  0.70159205487E+03 -0.80967267443E+03  0.15561426117E+04  0.12699999809E+01 0.  1.
       -4    1    3    3    0  502 -0.11286172796E+04 -0.70159205487E+03  0.55463330660E+03  0.14400097545E+04  0.12699999809E+01 0. -1.
</event>
<event>
 5   0  0.5916703E-07  0.3006140E+04  0.7818609E-02  0.8241980E-01
       -1   -1    0    0    0  501  0.00000000000E+00  0.00000000000E+00  0.13488922060E+04  0.13488922060E+04  0.50400001928E-02 0. -1.
        1   -1    0    0  501    0  0.00000000000E+00  0.00000000000E+00 -0.16748702553E+04  0.16748702553E+04  0.50400001928E-02 0.  1.
    10030    2    1    2    0    0  0.00000000000E+00  0.00000000000E+00 -0.32597804937E+03  0.30237624613E+04  0.30061400057E+04 0.  0.
        5    1    3    3  502    0 -0.35490827717E+03  0.33371904521E+03  0.12672709355E+04  0.13576914231E+04  0.46999998093E+01 0. -1.
       -5    1    3    3    0  502  0.35490827717E+03 -0.33371904521E+03 -0.15932489849E+04  0.16660710382E+04  0.46999998093E+01 0.  1.
</event>
<event>
 5   0  0.5887179E-07  0.2990821E+04  0.7818609E-02  0.8246357E-01
       -1   -1    0    0    0  501  0.00000000000E+00  0.00000000000E+00  0.17500283544E+04  0.17500283544E+04  0.50400001928E-02 0. -1.
        1   -1    0    0  501    0  0.00000000000E+00  0.00000000000E+00 -0.12778380660E+04  0.12778380660E+04  0.50400001928E-02 0.  1.
    10030    2    1    2    0    0  0.00000000000E+00  0.00000000000E+00  0.47219028833E+03  0.30278664204E+04  0.29908211901E+04 0.  0.
        3    1    3    3  502    0  0.11654559400E+04  0.84580715291E+03  0.64429596911E+03  0.15775913901E+04  0.10100000352E+00 0. -1.
       -3    1    3    3    0  502 -0.11654559400E+04 -0.84580715291E+03 -0.17210568078E+03  0.14502750303E+04  0.10100000352E+00 0.  1.
</event>
<event>
 5   0  0.5874741E-07  0.2999153E+04  0.7818609E-02  0.8243973E-01
       -1   -1    0    0    0  501  0.00000000000E+00  0.00000000000E+00  0.12562400839E+04  0.12562400839E+04  0.50400001928E-02 0.  1.
        1   -1    0    0  501    0  0.00000000000E+00  0.00000000000E+00 -0.17900479252E+04  0.17900479252E+04  0.50400001928E-02 0. -1.
    10030    2    1    2    0    0  0.00000000000E+00  0.00000000000E+00 -0.53380784131E+03  0.30462880091E+04  0.29991531843E+04 0.  0.
        4    1    3    3  502    0 -0.45950327671E+03 -0.20267006496E+03 -0.17020894592E+04  0.17746347671E+04  0.12699999809E+01 0. -1.
       -4    1    3    3    0  502  0.45950327671E+03  0.20267006496E+03  0.11682816179E+04  0.12716532421E+04  0.12699999809E+01 0.  1.
</event>
<event>
 5   0  0.5916703E-07  0.3018744E+04  0.7818609E-02  0.8238398E-01
       -1   -1    0    0    0  501  0.00000000000E+00  0.00000000000E+00  0.86121908505E+03  0.86121908507E+03  0.50400001928E-02 0.  1.
        1   -1    0    0  501    0  0.00000000000E+00  0.00000000000E+00 -0.26453251660E+04  0.26453251660E+04  0.50400001928E-02 0. -1.
    10030    2    1    2    0    0  0.00000000000E+00  0.00000000000E+00 -0.17841060810E+04  0.35065442511E+04  0.30187444537E+04 0.  0.
        5    1    3    3  502    0  0.17442890933E+03  0.10451108033E+04  0.35658919986E+03  0.11179713695E+04  0.46999998093E+01 0.  1.
       -5    1    3    3    0  502 -0.17442890933E+03 -0.10451108033E+04 -0.21406952808E+04  0.23885728816E+04  0.46999998093E+01 0. -1.
</event>
<event>
 5   0  0.1674806E-06  0.3003121E+04  0.7818609E-02  0.8242840E-01
        2   -1    0    0  501    0  0.00000000000E+00  0.00000000000E+00  0.14978296605E+04  0.14978296605E+04  0.25500000920E-02 0.  1.
       -2   -1    0    0    0  501  0.00000000000E+00  0.00000000000E+00 -0.15053003905E+04  0.15053003905E+04  0.25500000920E-02 0. -1.
    10030    2    1    2    0    0  0.00000000000E+00  0.00000000000E+00 -0.74707299665E+01  0.30031300510E+04  0.30031207587E+04 0.  0.
        2    1    3    3  502    0  0.10252399589E+04  0.85433471483E+03  0.68451003161E+03  0.14998529133E+04  0.25500000920E-02 0.  1.
       -2    1    3    3    0  502 -0.10252399589E+04 -0.85433471483E+03 -0.69198076157E+03  0.15032771377E+04  0.25500000920E-02 0. -1.
</event>
<event>
 5   0  0.5931588E-07  0.2979103E+04  0.7818609E-02  0.8249723E-01
       -1   -1    0    0    0  501  0.00000000000E+00  0.00000000000E+00  0.27703552465E+04  0.27703552466E+04  0.50400001928E-02 0.  1.
        1   -1    0    0  501    0  0.00000000000E+00  0.00000000000E+00 -0.80089502997E+03  0.80089502999E+03  0.50400001928E-02 0. -1.
    10030    2    1    2    0    0  0.00000000000E+00  0.00000000000E+00  0.19694602166E+04  0.35712502765E+04  0.29791030518E+04 0.  0.
        2    1    3    3  502    0  0.62955493754E+03 -0.13488366471E+02  0.26029511112E+04  0.26780358180E+04  0.25500000920E-02 0.  1.
       -2    1    3    3    0  502 -0.62955493754E+03  0.13488366471E+02 -0.63349089458E+03  0.89321445854E+03  0.25500000920E-02 0. -1.
</event>
<event>
 5   0  0.1560174E-06  0.3002331E+04  0.7818609E-02  0.8243066E-01
        2   -1    0    0  501    0  0.00000000000E+00  0.00000000000E+00  0.19436455870E+04  0.19436455870E+04  0.25500000920E-02 0.  1.
       -2   -1    0    0    0  501  0.00000000000E+00  0.00000000000E+00 -0.11594179066E+04  0.11594179066E+04  0.25500000920E-02 0. -1.
    10030    2    1    2    0    0  0.00000000000E+00  0.00000000000E+00  0.78422768041E+03  0.31030634936E+04  0.30023307597E+04 0.  0.
        5    1    3    3  502    0 -0.86897822794E+03 -0.53965110023E+03 -0.74344320667E+03  0.12645459114E+04  0.46999998093E+01 0. -1.
       -5    1    3    3    0  502  0.86897822794E+03  0.53965110023E+03  0.15276708871E+04  0.18385175821E+04  0.46999998093E+01 0.  1.
</event>
<event>
 5   0  0.6291798E-07  0.3001990E+04  0.7818609E-02  0.8243163E-01
       -1   -1    0    0    0  501  0.00000000000E+00  0.00000000000E+00  0.11105535339E+04  0.11105535339E+04  0.50400001928E-02 0.  1.
        1   -1    0    0  501    0  0.00000000000E+00  0.00000000000E+00 -0.20287056566E+04  0.20287056566E+04  0.50400001928E-02 0. -1.
    10030    2    1    2    0    0  0.00000000000E+00  0.00000000000E+00 -0.91815212275E+03  0.31392591905E+04  0.30019901640E+04 0.  0.
        1    1    3    3  502    0 -0.45507232375E+02  0.13772322836E+04  0.16323773087E+03  0.13876189059E+04  0.50400001928E-02 0.  1.
       -1    1    3    3    0  502  0.45507232375E+02 -0.13772322836E+04 -0.10813898536E+04  0.17516402846E+04  0.50400001928E-02 0. -1.
</event>
<event>
 5   0  0.1635086E-06  0.2909829E+04  0.7818609E-02  0.8269959E-01
        2   -1    0    0  501    0  0.00000000000E+00  0.00000000000E+00  0.17460439185E+04  0.17460439185E+04  0.25500000920E-02 0.  1.
       -2   -1    0    0    0  501  0.00000000000E+00  0.00000000000E+00 -0.12123266909E+04  0.12123266909E+04  0.25500000920E-02 0. -1.
    10030    2    1    2    0    0  0.00000000000E+00  0.00000000000E+00  0.53371722762E+03  0.29583706095E+04  0.29098286176E+04 0.  0.
        3    1    3    3  502    0  0.90470622899E+03  0.45006626274E+03  0.13310885836E+04  0.16711821652E+04  0.10100000352E+00 0.  1.
       -3    1    3    3    0  502 -0.90470622899E+03 -0.45006626274E+03 -0.79737135595E+03  0.12871884443E+04  0.10100000352E+00 0. -1.
</event>
<event>
 5   0  0.1560174E-06  0.2995455E+04  0.7818609E-02  0.8245030E-01
       -2   -1    0    0    0  501  0.00000000000E+00  0.00000000000E+00  0.13247223868E+04  0.13247223868E+04  0.25500000920E-02 0. -1.
        2   -1    0    0  501    0  0.00000000000E+00  0.00000000000E+00 -0.16933262076E+04  0.16933262076E+04  0.25500000920E-02 0.  1.
    10030    2    1    2    0    0  0.00000000000E+00  0.00000000000E+00 -0.36860382079E+03  0.30180485944E+04  0.29954546469E+04 0.  0.
        5    1    3    3  502    0  0.67245897953E+03 -0.52282176097E+02 -0.15316357994E+04  0.16735784466E+04  0.46999998093E+01 0.  1.
       -5    1    3    3    0  502 -0.67245897953E+03  0.52282176097E+02  0.11630319786E+04  0.13444701478E+04  0.46999998093E+01 0. -1.
</event>
<event>
 5   0  0.1560174E-06  0.2997633E+04  0.7818609E-02  0.8244407E-01
       -2   -1    0    0    0  501  0.00000000000E+00  0.00000000000E+00  0.11671254669E+04  0.11671254669E+04  0.25500000920E-02 0. -1.
        2   -1    0    0  501    0  0.00000000000E+00  0.00000000000E+00 -0.19247718484E+04  0.19247718484E+04  0.25500000920E-02 0.  1.
    10030    2    1    2    0    0  0.00000000000E+00  0.00000000000E+00 -0.75764638152E+03  0.30918973153E+04  0.29976325607E+04 0.  0.
        5    1    3    3  502    0  0.42860692142E+03 -0.48402651268E+03 -0.17735441572E+04  0.18877146303E+04  0.46999998093E+01 0.  1.
       -5    1    3    3    0  502 -0.42860692142E+03  0.48402651268E+03  0.10158977757E+04  0.12041826849E+04  0.46999998093E+01 0. -1.
</event>
<event>
 5   0  0.1635086E-06  0.2987107E+04  0.7818609E-02  0.8247422E-01
        2   -1    0    0  501    0  0.00000000000E+00  0.00000000000E+00  0.11229502479E+04  0.11229502479E+04  0.25500000920E-02 0.  1.
       -2   -1    0    0    0  501  0.00000000000E+00  0.00000000000E+00 -0.19864658050E+04  0.19864658050E+04  0.25500000920E-02 0. -1.
    10030    2    1    2    0    0  0.00000000000E+00  0.00000000000E+00 -0.86351555716E+03  0.31094160529E+04  0.29871071411E+04 0.  0.
        3    1    3    3  502    0 -0.23630024418E+03  0.72187463194E+03  0.90688429478E+03  0.11829538976E+04  0.10100000352E+00 0.  1.
       -3    1    3    3    0  502  0.23630024418E+03 -0.72187463194E+03 -0.17703998519E+04  0.19264621552E+04  0.10100000352E+00 0. -1.
</event>
<event>
 5   0  0.6291798E-07  0.2993944E+04  0.7818609E-02  0.8245462E-01
       -1   -1    0    0    0  501  0.00000000000E+00  0.00000000000E+00  0.94195689506E+03  0.94195689507E+03  0.50400001928E-02 0.  1.
        1   -1    0    0  501    0  0.00000000000E+00  0.00000000000E+00 -0.23790107874E+04  0.23790107874E+04  0.50400001928E-02 0. -1.
    10030    2    1    2    0    0  0.00000000000E+00  0.00000000000E+00 -0.14370538924E+04  0.33209676825E+04  0.29939442979E+04 0.  0.
        1    1    3    3  502    0  0.97453470908E+03  0.15115928764E+03 -0.19677556649E+04  0.22010518817E+04  0.50400001928E-02 0. -1.
       -1    1    3    3    0  502 -0.97453470908E+03 -0.15115928764E+03  0.53070177250E+03  0.11199158008E+04  0.50400001928E-02 0.  1.
</event>
<event>
 5   0  0.5874741E-07  0.3019420E+04  0.7818609E-02  0.8238207E-01
        1   -1    0    0  501    0  0.00000000000E+00  0.00000000000E+00  0.23398008366E+04  0.23398008367E+04  0.50400001928E-02 0.  1.
       -1   -1    0    0    0  501  0.00000000000E+00  0.00000000000E+00 -0.97411009491E+03  0.97411009492E+03  0.50400001928E-02 0. -1.
    10030    2    1    2    0    0  0.00000000000E+00  0.00000000000E+00  0.13656907417E+04  0.33139109316E+04  0.30194195569E+04 0.  0.
        4    1    3    3  502    0  0.32800807756E+03  0.13905914839E+04  0.14753746036E+03  0.14363505454E+04  0.12699999809E+01 0.  1.
       -4    1    3    3    0  502 -0.32800807756E+03 -0.13905914839E+04  0.12181532814E+04  0.18775603862E+04  0.12699999809E+01 0. -1.
</event>
<event>
 5   0  0.5916703E-07  0.3003344E+04  0.7818609E-02  0.8242777E-01
        1   -1    0    0  501    0  0.00000000000E+00  0.00000000000E+00  0.21950417466E+04  0.21950417466E+04  0.50400001928E-02 0. -1.
       -1   -1    0    0    0  501  0.00000000000E+00  0.00000000000E+00 -0.10273241743E+04  0.10273241743E+04  0.50400001928E-02 0.  1.
    10030    2    1    2    0    0  0.00000000000E+00  0.00000000000E+00  0.11677175724E+04  0.32223659209E+04  0.30033444357E+04 0.  0.
        5    1    3    3  502    0  0.40426311728E+03 -0.14177350482E+04  0.89034025146E+03  0.17222453914E+04  0.46999998093E+01 0.  1.
       -5    1    3    3    0  502 -0.40426311728E+03  0.14177350482E+04  0.27737732090E+03  0.15001205295E+04  0.46999998093E+01 0. -1.
</event>
<event>
 5   0  0.1674806E-06  0.2999064E+04  0.7818609E-02  0.8243998E-01
       -2   -1    0    0    0  501  0.00000000000E+00  0.00000000000E+00  0.11106486211E+04  0.11106486211E+04  0.25500000920E-02 0.  1.
        2   -1    0    0  501    0  0.00000000000E+00  0.00000000000E+00 -0.20245788251E+04  0.20245788251E+04  0.25500000920E-02 0. -1.
    10030    2    1    2    0    0  0.00000000000E+00  0.00000000000E+00 -0.91393020404E+03  0.31352274462E+04  0.29990636408E+04 0.  0.
        2    1    3    3  502    0 -0.63436861972E+02  0.35678377177E+03  0.10641854121E+04  0.11241928155E+04  0.25500000920E-02 0.  1.
       -2    1    3    3    0  502  0.63436861972E+02 -0.35678377177E+03 -0.19781156161E+04  0.20110346307E+04  0.25500000920E-02 0. -1.
</event>
<event>
 5   0  0.5887179E-07  0.3011246E+04  0.7818609E-02  0.8240527E-01
       -1   -1    0    0    0  501  0.00000000000E+00  0.00000000000E+00  0.10304245218E+04  0.10304245218E+04  0.50400001928E-02 0. -1.
        1   -1    0    0  501    0  0.00000000000E+00  0.00000000000E+00 -0.21999680679E+04  0.21999680679E+04  0.50400001928E-02 0.  1.
    10030    2    1    2    0    0  0.00000000000E+00  0.00000000000E+00 -0.11695435461E+04  0.32303925897E+04  0.30112462831E+04 0.  0.
        3    1    3    3  502    0 -0.62836729181E+03 -0.16699430466E+03 -0.20416032828E+04  0.21426330824E+04  0.10100000352E+00 0.  1.
       -3    1    3    3    0  502  0.62836729181E+03  0.16699430466E+03  0.87205973672E+03  0.10877595073E+04  0.10100000352E+00 0. -1.
</event>
<event>
 5   0  0.5874741E-07  0.2971757E+04  0.7818609E-02  0.8251842E-01
        1   -1    0    0  501    0  0.00000000000E+00  0.00000000000E+00  0.19706410346E+04  0.19706410346E+04  0.50400001928E-02 0. -1.
       -1   -1    0    0    0  501  0.00000000000E+00  0.00000000000E+00 -0.11203641147E+04  0.11203641147E+04  0.50400001928E-02 0.  1.
    10030    2    1    2    0    0  0.00000000000E+00  0.00000000000E+00  0.85027691988E+03  0.30910051493E+04  0.29717573912E+04 0.  0.
        4    1    3    3  502    0 -0.19269197319E+02 -0.84338048184E+03 -0.84712522393E+03  0.11955269537E+04  0.12699999809E+01 0.  1.
       -4    1    3    3    0  502  0.19269197319E+02  0.84338048184E+03  0.16974021438E+04  0.18954781956E+04  0.12699999809E+01 0. -1.
</event>
<event>
 5   0  0.1625212E-06  0.2988135E+04  0.7818609E-02  0.8247127E-01
        2   -1    0    0  501    0  0.00000000000E+00  0.00000000000E+00  0.15194636108E+04  0.15194636108E+04  0.25500000920E-02 0. -1.
       -2   -1    0    0    0  501  0.00000000000E+00  0.00000000000E+00 -0.14690960615E+04  0.14690960615E+04  0.25500000920E-02 0.  1.
    10030    2    1    2    0    0  0.00000000000E+00  0.00000000000E+00  0.50367549298E+02  0.29885596722E+04  0.29881352085E+04 0.  0.
        4    1    3    3  502    0  0.22936927408E+03 -0.41476817363E+03 -0.13919132185E+04  0.14703968589E+04  0.12699999809E+01 0.  1.
       -4    1    3    3    0  502 -0.22936927408E+03  0.41476817363E+03  0.14422807678E+04  0.15181628134E+04  0.12699999809E+01 0. -1.
</event>
<event>
 5   0  0.5874741E-07  0.3014748E+04  0.7818609E-02  0.8239532E-01
        1   -1    0    0  501    0  0.00000000000E+00  0.00000000000E+00  0.82242906080E+03  0.82242906082E+03  0.50400001928E-02 0.  1.
       -1   -1    0    0    0  501  0.00000000000E+00  0.00000000000E+00 -0.27627629236E+04  0.27627629236E+04  0.50400001928E-02 0. -1.
    10030    2    1    2    0    0  0.00000000000E+00  0.00000000000E+00 -0.19403338628E+04  0.35851919844E+04  0.30147480933E+04 0.  0.
        4    1    3    3  502    0 -0.19338810802E+03 -0.14915482112E+04 -0.85088965242E+03  0.17280421986E+04  0.12699999809E+01 0. -1.
       -4    1    3    3    0  502  0.19338810802E+03  0.14915482112E+04 -0.10894442104E+04  0.18571497858E+04  0.12699999809E+01 0.  1.
</event>
<event>
 5   0  0.5874741E-07  0.3020865E+04  0.7818609E-02  0.8237798E-01
       -1   -1    0    0    0  501  0.00000000000E+00  0.00000000000E+00  0.12569026607E+04  0.12569026607E+04  0.50400001928E-02 0. -1.
        1   -1    0    0  501    0  0.00000000000E+00  0.00000000000E+00 -0.18151020946E+04  0.18151020946E+04  0.50400001928E-02 0.  1.
    10030    2    1    2    0    0  0.00000000000E+00  0.00000000000E+00 -0.55819943389E+03  0.30720047553E+04  0.30208652086E+04 0.  0.
        4    1    3    3  502    0 -0.68598275116E+02  0.12131077605E+04  0.63334603825E+03  0.13702061812E+04  0.12699999809E+01 0. -1.
       -4    1    3    3    0  502  0.68598275116E+02 -0.12131077605E+04 -0.11915454721E+04  0.17017985741E+04  0.12699999809E+01 0.  1.
</event>
<event>
 5   0  0.6291798E-07  0.2972754E+04  0.7818609E-02  0.8251554E-01
        1   -1    0    0  501    0  0.00000000000E+00  0.00000000000E+00  0.17550095213E+04  0.17550095213E+04  0.50400001928E-02 0.  1.
       -1   -1    0    0    0  501  0.00000000000E+00  0.00000000000E+00 -0.12588634044E+04  0.12588634044E+04  0.50400001928E-02 0. -1.
    10030    2    1    2    0    0  0.00000000000E+00  0.00000000000E+00  0.49614611685E+03  0.30138729257E+04  0.29727544539E+04 0.  0.
        1    1    3    3  502    0  0.13508816702E+04 -0.59752964589E+03  0.41587461014E+03  0.15345600855E+04  0.50400001928E-02 0. -1.
       -1    1    3    3    0  502 -0.13508816702E+04  0.59752964589E+03  0.80271506713E+02  0.14793128403E+04  0.50400001928E-02 0.  1.
</event>
<event>
 5   0  0.1723916E-06  0.2944618E+04  0.7818609E-02  0.8259725E-01
        2   -1    0    0  501    0  0.00000000000E+00  0.00000000000E+00  0.16227457516E+04  0.16227457516E+04  0.25500000920E-02 0. -1.
       -2   -1    0    0    0  501  0.00000000000E+00  0.00000000000E+00 -0.13358184318E+04  0.13358184318E+04  0.25500000920E-02 0.  1.
    10030    2    1    2    0    0  0.00000000000E+00  0.00000000000E+00  0.28692731976E+03  0.29585641834E+04  0.29446179277E+04 0.  0.
        1    1    3    3  502    0  0.39622988818E+02 -0.71248907206E+03  0.14373840568E+04  0.16047690132E+04  0.50400001928E-02 0. -1.
       -1    1    3    3    0  502 -0.39622988818E+02  0.71248907206E+03 -0.11504567370E+04  0.13537951702E+04  0.50400001928E-02 0.  1.
</event>
<event>
 5   0  0.5887179E-07  0.3003792E+04  0.7818609E-02  0.8242649E-01
       -1   -1    0    0    0  501  0.00000000000E+00  0.00000000000E+00  0.99313246095E+03  0.99313246096E+03  0.50400001928E-02 0.  1.
        1   -1    0    0  501    0  0.00000000000E+00  0.00000000000E+00 -0.22712903599E+04  0.22712903599E+04  0.50400001928E-02 0. -1.
    10030    2    1    2    0    0  0.00000000000E+00  0.00000000000E+00 -0.12781578989E+04  0.32644228209E+04  0.30037923927E+04 0.  0.
        3    1    3    3  502    0 -0.24606953006E+03 -0.14327541404E+04 -0.22903848172E+03  0.14716634387E+04  0.10100000352E+00 0.  1.
       -3    1    3    3    0  502  0.24606953006E+03  0.14327541404E+04 -0.10491194172E+04  0.17927593822E+04  0.10100000352E+00 0. -1.
</event>
<event>
 5   0  0.1674806E-06  0.2991535E+04  0.7818609E-02  0.8246152E-01
       -2   -1    0    0    0  501  0.00000000000E+00  0.00000000000E+00  0.94164332442E+03  0.94164332442E+03  0.25500000920E-02 0. -1.
        2   -1    0    0  501    0  0.00000000000E+00  0.00000000000E+00 -0.23759746711E+04  0.23759746711E+04  0.25500000920E-02 0.  1.
    10030    2    1    2    0    0  0.00000000000E+00  0.00000000000E+00 -0.14343313467E+04  0.33176179956E+04  0.29915351832E+04 0.  0.
        2    1    3    3  502    0  0.90891232917E+03 -0.10013838779E+04 -0.84194484291E+01  0.13523912822E+04  0.25500000920E-02 0. -1.
       -2    1    3    3    0  502 -0.90891232917E+03  0.10013838779E+04 -0.14259118983E+04  0.19652267133E+04  0.25500000920E-02 0.  1.
</event>
<event>
 5   0  0.1635086E-06  0.2995203E+04  0.7818609E-02  0.8245102E-01
       -2   -1    0    0    0  501  0.00000000000E+00  0.00000000000E+00  0.96191976198E+03  0.96191976199E+03  0.25500000920E-02 0.  1.
        2   -1    0    0  501    0  0.00000000000E+00  0.00000000000E+00 -0.23315983059E+04  0.23315983059E+04  0.25500000920E-02 0. -1.
    10030    2    1    2    0    0  0.00000000000E+00  0.00000000000E+00 -0.13696785439E+04  0.32935180678E+04  0.29952031567E+04 0.  0.
        3    1    3    3  502    0  0.44098689574E+03  0.14035313368E+04 -0.37687181107E+03  0.15186843082E+04  0.10100000352E+00 0.  1.
       -3    1    3    3    0  502 -0.44098689574E+03 -0.14035313368E+04 -0.99280673280E+03  0.17748337597E+04  0.10100000352E+00 0. -1.
</event>
<event>
 5   0  0.5916703E-07  0.3031025E+04  0.7818609E-02  0.8234927E-01
        1   -1    0    0  501    0  0.00000000000E+00  0.00000000000E+00  0.16366942117E+04  0.16366942117E+04  0.50400001928E-02 0. -1.
       -1   -1    0    0    0  501  0.00000000000E+00  0.00000000000E+00 -0.14033029172E+04  0.14033029172E+04  0.50400001928E-02 0.  1.
    10030    2    1    2    0    0  0.00000000000E+00  0.00000000000E+00  0.23339129449E+03  0.30399971289E+04  0.30310247521E+04 0.  0.
        5    1    3    3  502    0  0.14608774450E+04  0.32020976899E+03 -0.12909808798E+03  0.15011281131E+04  0.46999998093E+01 0.  1.
       -5    1    3    3    0  502 -0.14608774450E+04 -0.32020976899E+03  0.36248938247E+03  0.15388690159E+04  0.46999998093E+01 0. -1.
</event>
<event>
 5   0  0.1625212E-06  0.3007291E+04  0.7818609E-02  0.8241652E-01
        2   -1    0    0  501    0  0.00000000000E+00  0.00000000000E+00  0.11310363274E+04  0.11310363274E+04  0.25500000920E-02 0.  1.
       -2   -1    0    0    0  501  0.00000000000E+00  0.00000000000E+00 -0.19990073937E+04  0.19990073937E+04  0.25500000920E-02 0. -1.
    10030    2    1    2    0    0  0.00000000000E+00  0.00000000000E+00 -0.86797106634E+03  0.31300437212E+04  0.30072911273E+04 0.  0.
        4    1    3    3  502    0  0.35436681982E+03  0.14612912630E+04 -0.43335247596E+03  0.15648463118E+04  0.12699999809E+01 0. -1.
       -4    1    3    3    0  502 -0.35436681982E+03 -0.14612912630E+04 -0.43461859038E+03  0.15651974094E+04  0.12699999809E+01 0.  1.
</event>
<event>
 5   0  0.1625212E-06  0.2984643E+04  0.7818609E-02  0.8248130E-01
        2   -1    0    0  501    0  0.00000000000E+00  0.00000000000E+00  0.84847427665E+03  0.84847427665E+03  0.25500000920E-02 0. -1.
       -2   -1    0    0    0  501  0.00000000000E+00  0.00000000000E+00 -0.26247390275E+04  0.26247390275E+04  0.25500000920E-02 0.  1.
    10030    2    1    2    0    0  0.00000000000E+00  0.00000000000E+00 -0.17762647508E+04  0.34732133041E+04  0.29846430592E+04 0.  0.
        4    1    3    3  502    0  0.54545157642E+02  0.10944398549E+04 -0.20670005744E+04  0.23395013908E+04  0.12699999809E+01 0.  1.
       -4    1    3    3    0  502 -0.54545157642E+02 -0.10944398549E+04  0.29073582358E+03  0.11337119133E+04  0.12699999809E+01 0. -1.
</event>
<event>
 5   0  0.1674806E-06  0.2992297E+04  0.7818609E-02  0.8245934E-01
        2   -1    0    0  501    0  0.00000000000E+00  0.00000000000E+00  0.18110660434E+04  0.18110660434E+04  0.25500000920E-02 0. -1.
       -2   -1    0    0    0  501  0.00000000000E+00  0.00000000000E+00 -0.12359905235E+04  0.12359905235E+04  0.25500000920E-02 0.  1.
    10030    2    1    2    0    0  0.00000000000E+00  0.00000000000E+00  0.57507551998E+03  0.30470565669E+04  0.29922970889E+04 0.  0.
        2    1    3    3  502    0 -0.45351700035E+03 -0.13477326339E+04 -0.18616288754E+03  0.14341260554E+04  0.25500000920E-02 0.  1.
       -2    1    3    3    0  502  0.45351700035E+03  0.13477326339E+04  0.76123840752E+03  0.16129305115E+04  0.25500000920E-02 0. -1.
</event>
<event>
 5   0  0.5916703E-07  0.3005929E+04  0.7818609E-02  0.8242040E-01
       -1   -1    0    0    0  501  0.00000000000E+00  0.00000000000E+00  0.13272504863E+04  0.13272504863E+04  0.50400001928E-02 0. -1.
        1   -1    0    0  501    0  0.00000000000E+00  0.00000000000E+00 -0.17019416156E+04  0.17019416156E+04  0.50400001928E-02 0.  1.
    10030    2    1    2    0    0  0.00000000000E+00  0.00000000000E+00 -0.37469112932E+03  0.30291921019E+04  0.30059293650E+04 0.  0.
        5    1    3    3  502    0  0.11972478285E+04 -0.88447740653E+03 -0.39674707786E+03  0.15404976401E+04  0.46999998093E+01 0. -1.
       -5    1    3    3    0  502 -0.11972478285E+04  0.88447740653E+03  0.22055948533E+02  0.14886944617E+04  0.46999998093E+01 0.  1.
</event>
<event>
 5   0  0.1635086E-06  0.3000418E+04  0.7818609E-02  0.8243611E-01
        2   -1    0    0  501    0  0.00000000000E+00  0.00000000000E+00  0.17977087897E+04  0.17977087897E+04  0.25500000920E-02 0.  1.
       -2   -1    0    0    0  501  0.00000000000E+00  0.00000000000E+00 -0.12519422339E+04  0.12519422339E+04  0.25500000920E-02 0. -1.
    10030    2    1    2    0    0  0.00000000000E+00  0.00000000000E+00  0.54576655572E+03  0.30496510236E+04  0.30004183429E+04 0.  0.
        3    1    3    3  502    0 -0.90577257985E+03  0.10178321838E+04  0.91105614570E+03  0.16390331393E+04  0.10100000352E+00 0.  1.
       -3    1    3    3    0  502  0.90577257985E+03 -0.10178321838E+04 -0.36528958999E+03  0.14106178843E+04  0.10100000352E+00 0. -1.
</event>
<event>
 5   0  0.5431625E-07  0.3019552E+04  0.7818609E-02  0.8238170E-01
       -3   -1    0    0    0  501  0.00000000000E+00  0.00000000000E+00  0.14001794579E+04  0.14001794615E+04  0.10100000352E+00 0.  1.
        3   -1    0    0  501    0  0.00000000000E+00  0.00000000000E+00 -0.16279504694E+04  0.16279504726E+04  0.10100000352E+00 0. -1.
    10030    2    1    2    0    0  0.00000000000E+00  0.00000000000E+00 -0.22777101157E+03  0.30281299341E+04  0.30195515005E+04 0.  0.
        4    1    3    3  502    0  0.66194607315E+03  0.14362553010E+02  0.12468194002E+04  0.14117149558E+04  0.12699999809E+01 0.  1.
       -4    1    3    3    0  502 -0.66194607315E+03 -0.14362553010E+02 -0.14745904118E+04  0.16164149783E+04  0.12699999809E+01 0. -1.
</event>
<event>
 5   0  0.5887179E-07  0.2998279E+04  0.7818609E-02  0.8244222E-01
       -1   -1    0    0    0  501  0.00000000000E+00  0.00000000000E+00  0.12859492928E+04  0.12859492929E+04  0.50400001928E-02 0.  1.
        1   -1    0    0  501    0  0.00000000000E+00  0.00000000000E+00 -0.17476738478E+04  0.17476738478E+04  0.50400001928E-02 0. -1.
    10030    2    1    2    0    0  0.00000000000E+00  0.00000000000E+00 -0.46172455496E+03  0.30336231407E+04  0.29982794725E+04 0.  0.
        3    1    3    3  502    0  0.63860666167E+03 -0.35942911713E+03  0.10923816430E+04  0.13154107430E+04  0.10100000352E+00 0.  1.
       -3    1    3    3    0  502 -0.63860666167E+03  0.35942911713E+03 -0.15541061980E+04  0.17182123977E+04  0.10100000352E+00 0. -1.
</event>
<event>
 5   0  0.5431625E-07  0.2997874E+04  0.7818609E-02  0.8244338E-01
        3   -1    0    0  501    0  0.00000000000E+00  0.00000000000E+00  0.17295288392E+04  0.17295288422E+04  0.10100000352E+00 0. -1.
       -3   -1    0    0    0  501  0.00000000000E+00  0.00000000000E+00 -0.12990895444E+04  0.12990895483E+04  0.10100000352E+00 0.  1.
    10030    2    1    2    0    0  0.00000000000E+00  0.00000000000E+00  0.43043929484E+03  0.30286183905E+04  0.29978744751E+04 0.  0.
        3    1    3    3  502    0 -0.22892632124E+03 -0.21768835837E+03 -0.12650774505E+04  0.13039234824E+04  0.10100000352E+00 0.  1.
       -3    1    3    3    0  502  0.22892632124E+03  0.21768835837E+03  0.16955167454E+04  0.17246949081E+04  0.10100000352E+00 0. -1.
</event>
<event>
 5   0  0.1625212E-06  0.3050753E+04  0.7818609E-02  0.8229385E-01
       -2   -1    0    0    0  501  0.00000000000E+00  0.00000000000E+00  0.20675611401E+04  0.20675611401E+04  0.25500000920E-02 0. -1.
        2   -1    0    0  501    0  0.00000000000E+00  0.00000000000E+00 -0.11253710767E+04  0.11253710767E+04  0.25500000920E-02 0.  1.
    10030    2    1    2    0    0  0.00000000000E+00  0.00000000000E+00  0.94219006340E+03  0.31929322169E+04  0.30507530261E+04 0.  0.
        4    1    3    3  502    0 -0.15262004104E+03 -0.21150407913E+03  0.20440498725E+04  0.20606232908E+04  0.12699999809E+01 0. -1.
       -4    1    3    3    0  502  0.15262004104E+03  0.21150407913E+03 -0.11018598091E+04  0.11323089261E+04  0.12699999809E+01 0.  1.
</event>
<event>
 5   0  0.5874741E-07  0.3000748E+04  0.7818609E-02  0.8243517E-01
        1   -1    0    0  501    0  0.00000000000E+00  0.00000000000E+00  0.18781174431E+04  0.18781174431E+04  0.50400001928E-02 0.  1.
       -1   -1    0    0    0  501  0.00000000000E+00  0.00000000000E+00 -0.11986057366E+04  0.11986057366E+04  0.50400001928E-02 0. -1.
    10030    2    1    2    0    0  0.00000000000E+00  0.00000000000E+00  0.67951170653E+03  0.30767231797E+04  0.30007481343E+04 0.  0.
        4    1    3    3  502    0  0.11088114145E+04 -0.10098933100E+04  0.29657693079E+03  0.15288252808E+04  0.12699999809E+01 0. -1.
       -4    1    3    3    0  502 -0.11088114145E+04  0.10098933100E+04  0.38293477574E+03  0.15478978990E+04  0.12699999809E+01 0.  1.
</event>
<event>
 5   0  0.5887179E-07  0.3004556E+04  0.7818609E-02  0.8242431E-01
        1   -1    0    0  501    0  0.00000000000E+00  0.00000000000E+00  0.10599314199E+04  0.10599314199E+04  0.50400001928E-02 0. -1.
       -1   -1    0    0    0  501  0.00000000000E+00  0.00000000000E+00 -0.21292311345E+04  0.21292311345E+04  0.50400001928E-02 0.  1.
    10030    2    1    2    0    0  0.00000000000E+00  0.00000000000E+00 -0.10692997146E+04  0.31891625544E+04  0.30045558605E+04 0.  0.
        3    1    3    3  502    0 -0.15606636134E+03 -0.13445589841E+04 -0.12263351827E+04  0.18264976215E+04  0.10100000352E+00 0.  1.
       -3    1    3    3    0  502  0.15606636134E+03  0.13445589841E+04  0.15703546806E+03  0.13626649329E+04  0.10100000352E+00 0. -1.
</event>
<event>
 5   0  0.1674806E-06  0.3068724E+04  0.7818609E-02  0.8224374E-01
       -2   -1    0    0    0  501  0.00000000000E+00  0.00000000000E+00  0.12341664624E+04  0.12341664624E+04  0.25500000920E-02 0. -1.
        2   -1    0    0  501    0  0.00000000000E+00  0.00000000000E+00 -0.19075765557E+04  0.19075765558E+04  0.25500000920E-02 0.  1.
    10030    2    1    2    0    0  0.00000000000E+00  0.00000000000E+00 -0.67341009336E+03  0.31417430181E+04  0.30687241711E+04 0.  0.
        2    1    3    3  502    0  0.32420925448E+03 -0.13457002156E+04  0.34104870899E+03  0.14255998502E+04  0.25500000920E-02 0. -1.
       -2    1    3    3    0  502 -0.32420925448E+03  0.13457002156E+04 -0.10144588023E+04  0.17161431679E+04  0.25500000920E-02 0.  1.
</event>
<event>
 5   0  0.5887179E-07  0.3010438E+04  0.7818609E-02  0.8240757E-01
        1   -1    0    0  501    0  0.00000000000E+00  0.00000000000E+00  0.17887378237E+04  0.17887378237E+04  0.50400001928E-02 0.  1.
       -1   -1    0    0    0  501  0.00000000000E+00  0.00000000000E+00 -0.12666381727E+04  0.12666381727E+04  0.50400001928E-02 0. -1.
    10030    2    1    2    0    0  0.00000000000E+00  0.00000000000E+00  0.52209965100E+03  0.30553759964E+04  0.30104375817E+04 0.  0.
        3    1    3    3  502    0  0.25938748625E+03 -0.14459398130E+04 -0.71963639761E+02  0.14707829841E+04  0.10100000352E+00 0. -1.
       -3    1    3    3    0  502 -0.25938748625E+03  0.14459398130E+04  0.59406329076E+03  0.15845930122E+04  0.10100000352E+00 0.  1.
</event>
<event>
 5   0  0.1625212E-06  0.2994664E+04  0.7818609E-02  0.8245256E-01
        2   -1    0    0  501    0  0.00000000000E+00  0.00000000000E+00  0.17871163570E+04  0.17871163570E+04  0.25500000920E-02 0. -1.
       -2   -1    0    0    0  501  0.00000000000E+00  0.00000000000E+00 -0.12545369838E+04  0.12545369838E+04  0.25500000920E-02 0.  1.
    10030    2    1    2    0    0  0.00000000000E+00  0.00000000000E+00  0.53257937326E+03  0.30416533408E+04  0.29946642978E+04 0.  0.
        4    1    3    3  502    0  0.19648538611E+02  0.12134129360E+04 -0.62453838253E+03  0.13648468129E+04  0.12699999809E+01 0. -1.
       -4    1    3    3    0  502 -0.19648538611E+02 -0.12134129360E+04  0.11571177558E+04  0.16768065279E+04  0.12699999809E+01 0.  1.
</event>
<event>
 5   0  0.1723916E-06  0.3008877E+04  0.7818609E-02  0.8241201E-01
        2   -1    0    0  501    0  0.00000000000E+00  0.00000000000E+00  0.15663699019E+04  0.15663699019E+04  0.25500000920E-02 0. -1.
       -2   -1    0    0    0  501  0.00000000000E+00  0.00000000000E+00 -0.14449553358E+04  0.14449553358E+04  0.25500000920E-02 0.  1.
    10030    2    1    2    0    0  0.00000000000E+00  0.00000000000E+00  0.12141456609E+03  0.30113252376E+04  0.30088765661E+04 0.  0.
        1    1    3    3  502    0 -0.27158158652E+03  0.15549530651E+03 -0.14120198151E+04  0.14462832733E+04  0.50400001928E-02 0.  1.
       -1    1    3    3    0  502  0.27158158652E+03 -0.15549530651E+03  0.15334343812E+04  0.15650419643E+04  0.50400001928E-02 0. -1.
</event>
<event>
 5   0  0.1635086E-06  0.2994784E+04  0.7818609E-02  0.8245222E-01
       -2   -1    0    0    0  501  0.00000000000E+00  0.00000000000E+00  0.12897432364E+04  0.12897432364E+04  0.25500000920E-02 0.  1.
        2   -1    0    0  501    0  0.00000000000E+00  0.00000000000E+00 -0.17384717951E+04  0.17384717951E+04  0.25500000920E-02 0. -1.
    10030    2    1    2    0    0  0.00000000000E+00  0.00000000000E+00 -0.44872855875E+03  0.30282150315E+04  0.29947836245E+04 0.  0.
        3    1    3    3  502    0  0.42249977958E+03 -0.14271999891E+04 -0.38982579654E+03  0.15386260217E+04  0.10100000352E+00 0. -1.
       -3    1    3    3    0  502 -0.42249977958E+03  0.14271999891E+04 -0.58902762210E+02  0.14895890099E+04  0.10100000352E+00 0.  1.
</event>
<event>
 5   0  0.1635086E-06  0.2995851E+04  0.7818609E-02  0.8244917E-01
        2   -1    0    0  501    0  0.00000000000E+00  0.00000000000E+00  0.17971666044E+04  0.17971666044E+04  0.25500000920E-02 0. -1.
       -2   -1    0    0    0  501  0.00000000000E+00  0.00000000000E+00 -0.12485097923E+04  0.12485097923E+04  0.25500000920E-02 0.  1.
    10030    2    1    2    0    0  0.00000000000E+00  0.00000000000E+00  0.54865681214E+03  0.30456763967E+04  0.29958505330E+04 0.  0.
        3    1    3    3  502    0  0.13109559301E+04  0.25280580306E+03 -0.41613129258E+03  0.13984568236E+04  0.10100000352E+00 0.  1.
       -3    1    3    3    0  502 -0.13109559301E+04 -0.25280580306E+03  0.96478810472E+03  0.16472195731E+04  0.10100000352E+00 0. -1.
</event>
<event>
 5   0  0.1560174E-06  0.3016996E+04  0.7818609E-02  0.8238894E-01
       -2   -1    0    0    0  501  0.00000000000E+00  0.00000000000E+00  0.10713861524E+04  0.10713861524E+04  0.25500000920E-02 0.  1.
        2   -1    0    0  501    0  0.00000000000E+00  0.00000000000E+00 -0.21239455842E+04  0.21239455842E+04  0.25500000920E-02 0. -1.
    10030    2    1    2    0    0  0.00000000000E+00  0.00000000000E+00 -0.10525594318E+04  0.31953317366E+04  0.30169957821E+04 0.  0.
        5    1    3    3  502    0 -0.39381125760E+03  0.12276513189E+04  0.30316587760E+03  0.13244420360E+04  0.46999998093E+01 0.  1.
       -5    1    3    3    0  502  0.39381125760E+03 -0.12276513189E+04 -0.13557253094E+04  0.18708897006E+04  0.46999998093E+01 0. -1.
</event>
<event>
 5   0  0.5887179E-07  0.2992055E+04  0.7818609E-02  0.8246003E-01
       -1   -1    0    0    0  501  0.00000000000E+00  0.00000000000E+00  0.12542500993E+04  0.12542500993E+04  0.50400001928E-02 0.  1.
        1   -1    0    0  501    0  0.00000000000E+00  0.00000000000E+00 -0.17844119873E+04  0.17844119873E+04  0.50400001928E-02 0. -1.
    10030    2    1    2    0    0  0.00000000000E+00  0.00000000000E+00 -0.53016188796E+03  0.30386620866E+04  0.29920554222E+04 0.  0.
        3    1    3    3  502    0  0.86337059572E+02 -0.14903855450E+04 -0.16663942514E+03  0.15021557405E+04  0.10100000352E+00 0. -1.
       -3    1    3    3    0  502 -0.86337059572E+02  0.14903855450E+04 -0.36352246282E+03  0.15365063461E+04  0.10100000352E+00 0.  1.
</event>
<event>
 5   0  0.5874741E-07  0.2998324E+04  0.7818609E-02  0.8244209E-01
        1   -1    0    0  501    0  0.00000000000E+00  0.00000000000E+00  0.27732709283E+04  0.27732709283E+04  0.50400001928E-02 0. -1.
       -1   -1    0    0    0  501  0.00000000000E+00  0.00000000000E+00 -0.81041034416E+03  0.81041034418E+03  0.50400001928E-02 0.  1.
    10030    2    1    2    0    0  0.00000000000E+00  0.00000000000E+00  0.19628605841E+04  0.35836812724E+04  0.29983244971E+04 0.  0.
        4    1    3    3  502    0 -0.61910266566E+03  0.87575036672E+03 -0.27057257600E+03  0.11060912924E+04  0.12699999809E+01 0.  1.
       -4    1    3    3    0  502  0.61910266566E+03 -0.87575036672E+03  0.22334331601E+04  0.24775899800E+04  0.12699999809E+01 0. -1.
</event>
<event>
 5   0  0.1625212E-06  0.2993243E+04  0.7818609E-02  0.8245663E-01
       -2   -1    0    0    0  501  0.00000000000E+00  0.00000000000E+00  0.12247171154E+04  0.12247171154E+04  0.25500000920E-02 0.  1.
        2   -1    0    0  501    0  0.00000000000E+00  0.00000000000E+00 -0.18288921647E+04  0.18288921647E+04  0.25500000920E-02 0. -1.
    10030    2    1    2    0    0  0.00000000000E+00  0.00000000000E+00 -0.60417504927E+03  0.30536092801E+04  0.29932427475E+04 0.  0.
        4    1    3    3  502    0  0.39215718011E+03  0.14611867848E+03  0.11638106129E+04  0.12367678350E+04  0.12699999809E+01 0.  1.
       -4    1    3    3    0  502 -0.39215718011E+03 -0.14611867848E+03 -0.17679856622E+04  0.18168414451E+04  0.12699999809E+01 0. -1.
</event>
<event>
 5   0  0.5887179E-07  0.3005185E+04  0.7818609E-02  0.8242252E-01
        1   -1    0    0  501    0  0.00000000000E+00  0.00000000000E+00  0.13925063858E+04  0.13925063858E+04  0.50400001928E-02 0.  1.
       -1   -1    0    0    0  501  0.00000000000E+00  0.00000000000E+00 -0.16213810616E+04  0.16213810616E+04  0.50400001928E-02 0. -1.
    10030    2    1    2    0    0  0.00000000000E+00  0.00000000000E+00 -0.22887467576E+03  0.30138874474E+04  0.30051845082E+04 0.  0.
        3    1    3    3  502    0  0.18169337310E+03 -0.62356593001E+03 -0.14733286400E+04  0.16101379576E+04  0.10100000352E+00 0. -1.
       -3    1    3    3    0  502 -0.18169337310E+03  0.62356593001E+03  0.12444539642E+04  0.14037494898E+04  0.10100000352E+00 0.  1.
</event>
<event>
 5   0  0.5931588E-07  0.2981113E+04  0.7818609E-02  0.8249145E-01
        1   -1    0    0  501    0  0.00000000000E+00  0.00000000000E+00  0.17383355925E+04  0.17383355925E+04  0.50400001928E-02 0.  1.
       -1   -1    0    0    0  501  0.00000000000E+00  0.00000000000E+00 -0.12780952279E+04  0.12780952279E+04  0.50400001928E-02 0. -1.
    10030    2    1    2    0    0  0.00000000000E+00  0.00000000000E+00  0.46024036462E+03  0.30164308204E+04  0.29811128293E+04 0.  0.
        2    1    3    3  502    0 -0.82253249005E+03 -0.10047413372E+04  0.97070221965E+03  0.16212117848E+04  0.25500000920E-02 0.  1.
       -2    1    3    3    0  502  0.82253249005E+03  0.10047413372E+04 -0.51046185503E+03  0.13952190356E+04  0.25500000920E-02 0. -1.
</event>
<event>
 5   0  0.5887179E-07  0.2988691E+04  0.7818609E-02  0.8246968E-01
        1   -1    0    0  501    0  0.00000000000E+00  0.00000000000E+00  0.18782656145E+04  0.18782656145E+04  0.50400001928E-02 0. -1.
       -1   -1    0    0    0  501  0.00000000000E+00  0.00000000000E+00 -0.11888993805E+04  0.11888993805E+04  0.50400001928E-02 0.  1.
    10030    2    1    2    0    0  0.00000000000E+00  0.00000000000E+00  0.68936623393E+03  0.30671649950E+04  0.29886912357E+04 0.  0.
        3    1    3    3  502    0  0.36058108697E+03  0.20927669778E+03  0.18173719054E+04  0.18645793384E+04  0.10100000352E+00 0. -1.
       -3    1    3    3    0  502 -0.36058108697E+03 -0.20927669778E+03 -0.11280056714E+04  0.12025856566E+04  0.10100000352E+00 0.  1.
</event>
<event>
 5   0  0.5887179E-07  0.2987009E+04  0.7818609E-02  0.8247450E-01
        1   -1    0    0  501    0  0.00000000000E+00  0.00000000000E+00  0.25260428444E+04  0.25260428444E+04  0.50400001928E-02 0.  1.
       -1   -1    0    0    0  501  0.00000000000E+00  0.00000000000E+00 -0.88302356929E+03  0.88302356930E+03  0.50400001928E-02 0. -1.
    10030    2    1    2    0    0  0.00000000000E+00  0.00000000000E+00  0.16430192751E+04  0.34090664137E+04  0.29870087838E+04 0.  0.
        3    1    3    3  502    0  0.62153690138E+03  0.13478034419E+04  0.63165201810E+03  0.16130302291E+04  0.10100000352E+00 0.  1.
       -3    1    3    3    0  502 -0.62153690138E+03 -0.13478034419E+04  0.10113672570E+04  0.17960361846E+04  0.10100000352E+00 0. -1.
</event>
<event>
 5   0  0.5916703E-07  0.2978407E+04  0.7818609E-02  0.8249924E-01
        1   -1    0    0  501    0  0.00000000000E+00  0.00000000000E+00  0.19154434351E+04  0.19154434352E+04  0.50400001928E-02 0.  1.
       -1   -1    0    0    0  501  0.00000000000E+00  0.00000000000E+00 -0.11578135828E+04  0.11578135828E+04  0.50400001928E-02 0. -1.
    10030    2    1    2    0    0  0.00000000000E+00  0.00000000000E+00  0.75762985232E+03  0.30732570180E+04  0.29784065716E+04 0.  0.
        5    1    3    3  502    0 -0.33745606790E+03  0.12998597856E+04 -0.28525818968E+03  0.13729189287E+04  0.46999998093E+01 0. -1.
       -5    1    3    3    0  502  0.33745606790E+03 -0.12998597856E+04  0.10428880420E+04  0.17003380893E+04  0.46999998093E+01 0.  1.
</event>
<event>
 5   0  0.5931588E-07  0.3005159E+04  0.7818609E-02  0.8242259E-01
       -1   -1    0    0    0  501  0.00000000000E+00  0.00000000000E+00  0.14242438623E+04  0.14242438623E+04  0.50400001928E-02 0. -1.
        1   -1    0    0  501    0  0.00000000000E+00  0.00000000000E+00 -0.15852236036E+04  0.15852236036E+04  0.50400001928E-02 0.  1.
    10030    2    1    2    0    0  0.00000000000E+00  0.00000000000E+00 -0.16097974123E+03  0.30094674659E+04  0.30051588895E+04 0.  0.
        2    1    3    3  502    0  0.13924869111E+04  0.56026455302E+03 -0.10900524238E+02  0.15010113219E+04  0.25500000920E-02 0. -1.
       -2    1    3    3    0  502 -0.13924869111E+04 -0.56026455302E+03 -0.15007921699E+03  0.15084561440E+04  0.25500000920E-02 0.  1.
</event>
<event>
 5   0  0.5931588E-07  0.3007755E+04  0.7818609E-02  0.8241520E-01
       -1   -1    0    0    0  501  0.00000000000E+00  0.00000000000E+00  0.13719564033E+04  0.13719564033E+04  0.50400001928E-02 0. -1.
        1   -1    0    0  501    0  0.00000000000E+00  0.00000000000E+00 -0.16484834311E+04  0.16484834311E+04  0.50400001928E-02 0.  1.
    10030    2    1    2    0    0  0.00000000000E+00  0.00000000000E+00 -0.27652702779E+03  0.30204398344E+04  0.30077549096E+04 0.  0.
        2    1    3    3  502    0 -0.84832714782E+03 -0.11115120425E+04  0.41772245633E+03  0.14593183412E+04  0.25500000920E-02 0. -1.
       -2    1    3    3    0  502  0.84832714782E+03  0.11115120425E+04 -0.69424948413E+03  0.15611214932E+04  0.25500000920E-02 0.  1.
</event>
<event>
 5   0  0.1560174E-06  0.3037158E+04  0.7818609E-02  0.8233199E-01
       -2   -1    0    0    0  501  0.00000000000E+00  0.00000000000E+00  0.17942988563E+04  0.17942988563E+04  0.25500000920E-02 0. -1.
        2   -1    0    0  501    0  0.00000000000E+00  0.00000000000E+00 -0.12852273915E+04  0.12852273915E+04  0.25500000920E-02 0.  1.
    10030    2    1    2    0    0  0.00000000000E+00  0.00000000000E+00  0.50907146486E+03  0.30795262478E+04  0.30371579074E+04 0.  0.
        5    1    3    3  502    0  0.12383163895E+04 -0.37227946424E+03  0.10619102294E+04  0.16732288861E+04  0.46999998093E+01 0. -1.
       -5    1    3    3    0  502 -0.12383163895E+04  0.37227946424E+03 -0.55283876450E+03  0.14062973617E+04  0.46999998093E+01 0.  1.
</event>
<event>
 5   0  0.5887179E-07  0.2992074E+04  0.7818609E-02  0.8245998E-01
       -1   -1    0    0    0  501  0.00000000000E+00  0.00000000000E+00  0.88898901155E+03  0.88898901157E+03  0.50400001928E-02 0. -1.
        1   -1    0    0  501    0  0.00000000000E+00  0.00000000000E+00 -0.25176095412E+04  0.25176095412E+04  0.50400001928E-02 0.  1.
    10030    2    1    2    0    0  0.00000000000E+00  0.00000000000E+00 -0.16286205296E+04  0.34065985528E+04  0.29920743424E+04 0.  0.
        3    1    3    3  502    0 -0.19581779623E+03 -0.93201257098E+03 -0.21278997273E+04  0.23312977720E+04  0.10100000352E+00 0.  1.
       -3    1    3    3    0  502  0.19581779623E+03  0.93201257098E+03  0.49927919767E+03  0.10753007808E+04  0.10100000352E+00 0. -1.
</event>
<event>
 5   0  0.1560174E-06  0.3006597E+04  0.7818609E-02  0.8241850E-01
        2   -1    0    0  501    0  0.00000000000E+00  0.00000000000E+00  0.21444845291E+04  0.21444845291E+04  0.25500000920E-02 0.  1.
       -2   -1    0    0    0  501  0.00000000000E+00  0.00000000000E+00 -0.10538228031E+04  0.10538228031E+04  0.25500000920E-02 0. -1.
    10030    2    1    2    0    0  0.00000000000E+00  0.00000000000E+00  0.10906617260E+04  0.31983073321E+04  0.30065972112E+04 0.  0.
        5    1    3    3  502    0  0.19439937763E+03 -0.10487557790E+04  0.16722195150E+04  0.19834364115E+04  0.46999998093E+01 0.  1.
       -5    1    3    3    0  502 -0.19439937763E+03  0.10487557790E+04 -0.58155778901E+03  0.12148709207E+04  0.46999998093E+01 0. -1.
</event>
<event>
 5   0  0.5887179E-07  0.2999354E+04  0.7818609E-02  0.8243915E-01
        1   -1    0    0  501    0  0.00000000000E+00  0.00000000000E+00  0.99554915084E+03  0.99554915085E+03  0.50400001928E-02 0.  1.
       -1   -1    0    0    0  501  0.00000000000E+00  0.00000000000E+00 -0.22590858240E+04  0.22590858240E+04  0.50400001928E-02 0. -1.
    10030    2    1    2    0    0  0.00000000000E+00  0.00000000000E+00 -0.12635366731E+04  0.32546349748E+04  0.29993539129E+04 0.  0.
        3    1    3    3  502    0 -0.46069726351E+03 -0.65266669937E+03  0.74543298013E+03  0.10926509631E+04  0.10100000352E+00 0.  1.
       -3    1    3    3    0  502  0.46069726351E+03  0.65266669937E+03 -0.20089696533E+04  0.21619840117E+04  0.10100000352E+00 0. -1.
</event>
<event>
 5   0  0.1625212E-06  0.2990187E+04  0.7818609E-02  0.8246539E-01
        2   -1    0    0  501    0  0.00000000000E+00  0.00000000000E+00  0.20698174894E+04  0.20698174894E+04  0.25500000920E-02 0.  1.
       -2   -1    0    0    0  501  0.00000000000E+00  0.00000000000E+00 -0.10799524362E+04  0.10799524362E+04  0.25500000920E-02 0. -1.
    10030    2    1    2    0    0  0.00000000000E+00  0.00000000000E+00  0.98986505320E+03  0.31497699256E+04  0.29901869106E+04 0.  0.
        4    1    3    3  502    0 -0.87288227145E+03 -0.97438794856E+03 -0.26754031514E+03  0.13352658040E+04  0.12699999809E+01 0. -1.
       -4    1    3    3    0  502  0.87288227145E+03  0.97438794856E+03  0.12574053683E+04  0.18145041216E+04  0.12699999809E+01 0.  1.
</event>
<event>
 5   0  0.5874741E-07  0.3004401E+04  0.7818609E-02  0.8242475E-01
        1   -1    0    0  501    0  0.00000000000E+00  0.00000000000E+00  0.16571235167E+04  0.16571235168E+04  0.50400001928E-02 0.  1.
       -1   -1    0    0    0  501  0.00000000000E+00  0.00000000000E+00 -0.13617610365E+04  0.13617610366E+04  0.50400001928E-02 0. -1.
    10030    2    1    2    0    0  0.00000000000E+00  0.00000000000E+00  0.29536248021E+03  0.30188845533E+04  0.30044009305E+04 0.  0.
        4    1    3    3  502    0 -0.98109746953E+03 -0.57384170106E+03 -0.83927484775E+03  0.14128801880E+04  0.12699999809E+01 0. -1.
       -4    1    3    3    0  502  0.98109746953E+03  0.57384170106E+03  0.11346373280E+04  0.16060043653E+04  0.12699999809E+01 0.  1.
</event>
<event>
 5   0  0.1625212E-06  0.3000256E+04  0.7818609E-02  0.8243658E-01
        2   -1    0    0  501    0  0.00000000000E+00  0.00000000000E+00  0.10482708306E+04  0.10482708306E+04  0.25500000920E-02 0. -1.
       -2   -1    0    0    0  501  0.00000000000E+00  0.00000000000E+00 -0.21467586320E+04  0.21467586320E+04  0.25500000920E-02 0.  1.
    10030    2    1    2    0    0  0.00000000000E+00  0.00000000000E+00 -0.10984878014E+04  0.31950294626E+04  0.30002562919E+04 0.  0.
        4    1    3    3  502    0  0.35167306127E+03  0.11213372303E+04  0.44365328187E+03  0.12561452836E+04  0.12699999809E+01 0. -1.
       -4    1    3    3    0  502 -0.35167306127E+03 -0.11213372303E+04 -0.15421410832E+04  0.19388841790E+04  0.12699999809E+01 0.  1.
</event>
<event>
 5   0  0.1674806E-06  0.3002626E+04  0.7818609E-02  0.8242982E-01
        2   -1    0    0  501    0  0.00000000000E+00  0.00000000000E+00  0.15856884393E+04  0.15856884393E+04  0.25500000920E-02 0. -1.
       -2   -1    0    0    0  501  0.00000000000E+00  0.00000000000E+00 -0.14214268059E+04  0.14214268059E+04  0.25500000920E-02 0.  1.
    10030    2    1    2    0    0  0.00000000000E+00  0.00000000000E+00  0.16426163345E+03  0.30071152452E+04  0.30026255534E+04 0.  0.
        2    1    3    3  502    0 -0.52003421706E+03 -0.63953134124E+03 -0.11745378833E+04  0.14349129460E+04  0.25500000920E-02 0.  1.
       -2    1    3    3    0  502  0.52003421706E+03  0.63953134124E+03  0.13387995168E+04  0.15722022992E+04  0.25500000920E-02 0. -1.
</event>
<event>
 5   0  0.6291798E-07  0.3003299E+04  0.7818609E-02  0.8242790E-01
       -1   -1    0    0    0  501  0.00000000000E+00  0.00000000000E+00  0.19740897597E+04  0.19740897597E+04  0.50400001928E-02 0. -1.
        1   -1    0    0  501    0  0.00000000000E+00  0.00000000000E+00 -0.11422735478E+04  0.11422735478E+04  0.50400001928E-02 0.  1.
    10030    2    1    2    0    0  0.00000000000E+00  0.00000000000E+00  0.83181621191E+03  0.31163633076E+04  0.30032985290E+04 0.  0.
        1    1    3    3  502    0  0.84501849468E+03 -0.71052342500E+03 -0.64027711767E+03  0.12762658740E+04  0.50400001928E-02 0.  1.
       -1    1    3    3    0  502 -0.84501849468E+03  0.71052342500E+03  0.14720933296E+04  0.18400974335E+04  0.50400001928E-02 0. -1.
</event>
<event>
 5   0  0.5431625E-07  0.2989012E+04  0.7818609E-02  0.8246876E-01
       -3   -1    0    0    0  501  0.00000000000E+00  0.00000000000E+00  0.13195104458E+04  0.13195104496E+04  0.10100000352E+00 0.  1.
        3   -1    0    0  501    0  0.00000000000E+00  0.00000000000E+00 -0.16927091940E+04  0.16927091970E+04  0.10100000352E+00 0. -1.
    10030    2    1    2    0    0  0.00000000000E+00  0.00000000000E+00 -0.37319874823E+03  0.30122196466E+04  0.29890115246E+04 0.  0.
        3    1    3    3  502    0  0.35585991677E+03 -0.92942047253E+03 -0.13101952035E+04  0.16453176522E+04  0.10100000352E+00 0. -1.
       -3    1    3    3    0  502 -0.35585991677E+03  0.92942047253E+03  0.93699645525E+03  0.13669019945E+04  0.10100000352E+00 0.  1.
</event>
<event>
 5   0  0.6291798E-07  0.3003669E+04  0.7818609E-02  0.8242684E-01
       -1   -1    0    0    0  501  0.00000000000E+00  0.00000000000E+00  0.10984648235E+04  0.10984648235E+04  0.50400001928E-02 0.  1.
        1   -1    0    0  501    0  0.00000000000E+00  0.00000000000E+00 -0.20533269631E+04  0.20533269631E+04  0.50400001928E-02 0. -1.
    10030    2    1    2    0    0  0.00000000000E+00  0.00000000000E+00 -0.95486213961E+03  0.31517917865E+04  0.30036693826E+04 0.  0.
        1    1    3    3  502    0  0.44805947390E+03 -0.12497921792E+04 -0.12140237019E+04  0.17990528986E+04  0.50400001928E-02 0. -1.
       -1    1    3    3    0  502 -0.44805947390E+03  0.12497921792E+04  0.25916156225E+03  0.13527388879E+04  0.50400001928E-02 0.  1.
</event>
<event>
 5   0  0.1560174E-06  0.3003673E+04  0.7818609E-02  0.8242683E-01
       -2   -1    0    0    0  501  0.00000000000E+00  0.00000000000E+00  0.14458452985E+04  0.14458452985E+04  0.25500000920E-02 0.  1.
        2   -1    0    0  501    0  0.00000000000E+00  0.00000000000E+00 -0.15599954896E+04  0.15599954896E+04  0.25500000920E-02 0. -1.
    10030    2    1    2    0    0  0.00000000000E+00  0.00000000000E+00 -0.11415019107E+03  0.30058407880E+04  0.30036725149E+04 0.  0.
        5    1    3    3  502    0 -0.13940264313E+04 -0.41363385216E+03 -0.43296226966E+03  0.15171951330E+04  0.46999998093E+01 0.  1.
       -5    1    3    3    0  502  0.13940264313E+04  0.41363385216E+03  0.31881207858E+03  0.14886456550E+04  0.46999998093E+01 0. -1.
</event>
<event>
 5   0  0.1635086E-06  0.3007027E+04  0.7818609E-02  0.8241727E-01
       -2   -1    0    0    0  501  0.00000000000E+00  0.00000000000E+00  0.15539914231E+04  0.15539914231E+04  0.25500000920E-02 0. -1.
        2   -1    0    0  501    0  0.00000000000E+00  0.00000000000E+00 -0.14546756452E+04  0.14546756452E+04  0.25500000920E-02 0.  1.
    10030    2    1    2    0    0  0.00000000000E+00  0.00000000000E+00  0.99315777908E+02  0.30086670682E+04  0.30070274199E+04 0.  0.
        3    1    3    3  502    0 -0.96742973192E+03  0.33585636202E+03 -0.10517755418E+04  0.14679753345E+04  0.10100000352E+00 0.  1.
       -3    1    3    3    0  502  0.96742973192E+03 -0.33585636202E+03  0.11510913197E+04  0.15406917338E+04  0.10100000352E+00 0. -1.
</event>
<event>
 5   0  0.1560174E-06  0.2987306E+04  0.7818609E-02  0.8247365E-01
       -2   -1    0    0    0  501  0.00000000000E+00  0.00000000000E+00  0.17392944869E+04  0.17392944869E+04  0.25500000920E-02 0. -1.
        2   -1    0    0  501    0  0.00000000000E+00  0.00000000000E+00 -0.12827038216E+04  0.12827038216E+04  0.25500000920E-02 0.  1.
    10030    2    1    2    0    0  0.00000000000E+00  0.00000000000E+00  0.45659066529E+03  0.30219983085E+04  0.29873062684E+04 0.  0.
        5    1    3    3  502    0  0.95143960287E+03  0.72373247009E+02 -0.93418084729E+03  0.13353618050E+04  0.46999998093E+01 0.  1.
       -5    1    3    3    0  502 -0.95143960287E+03 -0.72373247009E+02  0.13907715126E+04  0.16866365035E+04  0.46999998093E+01 0. -1.
</event>
<event>
 5   0  0.5931588E-07  0.3009867E+04  0.7818609E-02  0.8240919E-01
       -1   -1    0    0    0  501  0.00000000000E+00  0.00000000000E+00  0.25258086729E+04  0.25258086729E+04  0.50400001928E-02 0.  1.
        1   -1    0    0  501    0  0.00000000000E+00  0.00000000000E+00 -0.89667312480E+03  0.89667312481E+03  0.50400001928E-02 0. -1.
    10030    2    1    2    0    0  0.00000000000E+00  0.00000000000E+00  0.16291355481E+04  0.34224817977E+04  0.30098669442E+04 0.  0.
        2    1    3    3  502    0  0.90666959889E+03 -0.55132395481E+03 -0.39887919054E+03  0.11336280137E+04  0.25500000920E-02 0. -1.
       -2    1    3    3    0  502 -0.90666959889E+03  0.55132395481E+03  0.20280147387E+04  0.22888537841E+04  0.25500000920E-02 0.  1.
</event>
<event>
 5   0  0.1625212E-06  0.2994822E+04  0.7818609E-02  0.8245211E-01
        2   -1    0    0  501    0  0.00000000000E+00  0.00000000000E+00  0.19060455157E+04  0.19060455157E+04  0.25500000920E-02 0.  1.
       -2   -1    0    0    0  501  0.00000000000E+00  0.00000000000E+00 -0.11763832430E+04  0.11763832430E+04  0.25500000920E-02 0. -1.
    10030    2    1    2    0    0  0.00000000000E+00  0.00000000000E+00  0.72966227268E+03  0.30824287587E+04  0.29948222018E+04 0.  0.
        4    1    3    3  502    0  0.13254251117E+04 -0.36752817563E+03  0.97410151921E+03  0.16854388358E+04  0.12699999809E+01 0. -1.
       -4    1    3    3    0  502 -0.13254251117E+04  0.36752817563E+03 -0.24443924653E+03  0.13969899229E+04  0.12699999809E+01 0.  1.
</event>
<event>
 5   0  0.6291798E-07  0.3001284E+04  0.7818609E-02  0.8243364E-01
       -1   -1    0    0    0  501  0.00000000000E+00  0.00000000000E+00  0.13411445597E+04  0.13411445597E+04  0.50400001928E-02 0.  1.
        1   -1    0    0  501    0  0.00000000000E+00  0.00000000000E+00 -0.16791075637E+04  0.16791075637E+04  0.50400001928E-02 0. -1.
    10030    2    1    2    0    0  0.00000000000E+00  0.00000000000E+00 -0.33796300406E+03  0.30202521234E+04  0.30012837081E+04 0.  0.
        1    1    3    3  502    0 -0.17998377524E+03  0.81243554290E+03 -0.14256655275E+04  0.16507476691E+04  0.50400001928E-02 0. -1.
       -1    1    3    3    0  502  0.17998377524E+03 -0.81243554290E+03  0.10877025235E+04  0.13695044543E+04  0.50400001928E-02 0.  1.
</event>
<event>
 5   0  0.1635086E-06  0.2993286E+04  0.7818609E-02  0.8245651E-01
        2   -1    0    0  501    0  0.00000000000E+00  0.00000000000E+00  0.13343867676E+04  0.13343867676E+04  0.25500000920E-02 0. -1.
       -2   -1    0    0    0  501  0.00000000000E+00  0.00000000000E+00 -0.16786290718E+04  0.16786290718E+04  0.25500000920E-02 0.  1.
    10030    2    1    2    0    0  0.00000000000E+00  0.00000000000E+00 -0.34424230416E+03  0.30130158394E+04  0.29932861014E+04 0.  0.
        3    1    3    3  502    0  0.34816534322E+03 -0.13633312620E+04  0.34119026702E+03  0.14478611966E+04  0.10100000352E+00 0. -1.
       -3    1    3    3    0  502 -0.34816534322E+03  0.13633312620E+04 -0.68543257118E+03  0.15651546428E+04  0.10100000352E+00 0.  1.
</event>
<event>
 5   0  0.6291798E-07  0.2998340E+04  0.7818609E-02  0.8244205E-01
        1   -1    0    0  501    0  0.00000000000E+00  0.00000000000E+00  0.14286341751E+04  0.14286341751E+04  0.50400001928E-02 0.  1.
       -1   -1    0    0    0  501  0.00000000000E+00  0.00000000000E+00 -0.15731886872E+04  0.15731886872E+04  0.50400001928E-02 0. -1.
    10030    2    1    2    0    0  0.00000000000E+00  0.00000000000E+00 -0.14455451207E+03  0.30018228623E+04  0.29983402892E+04 0.  0.
        1    1    3    3  502    0 -0.10424039429E+04  0.23997583210E+03 -0.11238861359E+04  0.15515522636E+04  0.50400001928E-02 0. -1.
       -1    1    3    3    0  502  0.10424039429E+04 -0.23997583210E+03  0.97933162385E+03  0.14502705987E+04  0.50400001928E-02 0.  1.
</event>
<event>
 5   0  0.1560174E-06  0.3008597E+04  0.7818609E-02  0.8241280E-01
       -2   -1    0    0    0  501  0.00000000000E+00  0.00000000000E+00  0.16062257264E+04  0.16062257264E+04  0.25500000920E-02 0. -1.
        2   -1    0    0  501    0  0.00000000000E+00  0.00000000000E+00 -0.14088394532E+04  0.14088394532E+04  0.25500000920E-02 0.  1.
    10030    2    1    2    0    0  0.00000000000E+00  0.00000000000E+00  0.19738627325E+03  0.30150651796E+04  0.30085971310E+04 0.  0.
        5    1    3    3  502    0 -0.10708531502E+04  0.55486231536E+03  0.99967737038E+03  0.15665170261E+04  0.46999998093E+01 0. -1.
       -5    1    3    3    0  502  0.10708531502E+04 -0.55486231536E+03 -0.80229109713E+03  0.14485481535E+04  0.46999998093E+01 0.  1.
</event>
<event>
 5   0  0.5874741E-07  0.3020272E+04  0.7818609E-02  0.8237966E-01
        1   -1    0    0  501    0  0.00000000000E+00  0.00000000000E+00  0.18922395169E+04  0.18922395169E+04  0.50400001928E-02 0.  1.
       -1   -1    0    0    0  501  0.00000000000E+00  0.00000000000E+00 -0.12051912000E+04  0.12051912001E+04  0.50400001928E-02 0. -1.
    10030    2    1    2    0    0  0.00000000000E+00  0.00000000000E+00  0.68704831682E+03  0.30974307169E+04  0.30202717852E+04 0.  0.
        4    1    3    3  502    0 -0.54157486996E+03 -0.69904190657E+03  0.15989486489E+04  0.18271839868E+04  0.12699999809E+01 0.  1.
       -4    1    3    3    0  502  0.54157486996E+03  0.69904190657E+03 -0.91190033207E+03  0.12702467301E+04  0.12699999809E+01 0. -1.
</event>
<event>
 5   0  0.1674806E-06  0.2994508E+04  0.7818609E-02  0.8245301E-01
       -2   -1    0    0    0  501  0.00000000000E+00  0.00000000000E+00  0.13513248211E+04  0.13513248211E+04  0.25500000920E-02 0.  1.
        2   -1    0    0  501    0  0.00000000000E+00  0.00000000000E+00 -0.16589421841E+04  0.16589421841E+04  0.25500000920E-02 0. -1.
    10030    2    1    2    0    0  0.00000000000E+00  0.00000000000E+00 -0.30761736303E+03  0.30102670052E+04  0.29945081400E+04 0.  0.
        2    1    3    3  502    0 -0.12590751665E+03  0.13831373717E+04 -0.71608041672E+03  0.15625917109E+04  0.25500000920E-02 0. -1.
       -2    1    3    3    0  502  0.12590751665E+03 -0.13831373717E+04  0.40846305369E+03  0.14476752944E+04  0.25500000920E-02 0.  1.
</event>
<event>
 5   0  0.1635086E-06  0.3001511E+04  0.7818609E-02  0.8243300E-01
        2   -1    0    0  501    0  0.00000000000E+00  0.00000000000E+00  0.13939535370E+04  0.13939535370E+04  0.25500000920E-02 0.  1.
       -2   -1    0    0    0  501  0.00000000000E+00  0.00000000000E+00 -0.16157399403E+04  0.16157399403E+04  0.25500000920E-02 0. -1.
    10030    2    1    2    0    0  0.00000000000E+00  0.00000000000E+00 -0.22178640332E+03  0.30096934772E+04  0.30015105561E+04 0.  0.
        3    1    3    3  502    0  0.11694208262E+04  0.42230027783E+03 -0.95365095674E+03  0.15669501431E+04  0.10100000352E+00 0.  1.
       -3    1    3    3    0  502 -0.11694208262E+04 -0.42230027783E+03  0.73186455342E+03  0.14427433341E+04  0.10100000352E+00 0. -1.
</event>
<event>
 5   0  0.5916703E-07  0.3020386E+04  0.7818609E-02  0.8237933E-01
        1   -1    0    0  501    0  0.00000000000E+00  0.00000000000E+00  0.17800830757E+04  0.17800830757E+04  0.50400001928E-02 0. -1.
       -1   -1    0    0    0  501  0.00000000000E+00  0.00000000000E+00 -0.12812227845E+04  0.12812227845E+04  0.50400001928E-02 0.  1.
    10030    2    1    2    0    0  0.00000000000E+00  0.00000000000E+00  0.49886029119E+03  0.30613058602E+04  0.30203860647E+04 0.  0.
        5    1    3    3  502    0 -0.13275076080E+04  0.66963908389E+03  0.51752831543E+03  0.15743413223E+04  0.46999998093E+01 0. -1.
       -5    1    3    3    0  502  0.13275076080E+04 -0.66963908389E+03 -0.18668024244E+02  0.14869645379E+04  0.46999998093E+01 0.  1.
</event>
<event>
 5   0  0.5431625E-07  0.3003363E+04  0.7818609E-02  0.8242771E-01
       -4   -1    0    0    0  501  0.00000000000E+00  0.00000000000E+00  0.16781858483E+04  0.16781863289E+04  0.12699999809E+01 0.  1.
        4   -1    0    0  501    0  0.00000000000E+00  0.00000000000E+00 -0.13437398495E+04  0.13437404496E+04  0.12699999809E+01 0. -1.
    10030    2    1    2    0    0  0.00000000000E+00  0.00000000000E+00  0.33444599885E+03  0.30219267785E+04  0.30033626701E+04 0.  0.
        2    1    3    3  502    0  0.11124993963E+04  0.63620053386E+03  0.95477478207E+03  0.15981241849E+04  0.25500000920E-02 0.  1.
       -2    1    3    3    0  502 -0.11124993963E+04 -0.63620053386E+03 -0.62032878322E+03  0.14238025935E+04  0.25500000920E-02 0. -1.
</event>
<event>
 5   0  0.1625212E-06  0.2994343E+04  0.7818609E-02  0.8245348E-01
       -2   -1    0    0    0  501  0.00000000000E+00  0.00000000000E+00  0.12497516948E+04  0.12497516948E+04  0.25500000920E-02 0.  1.
        2   -1    0    0  501    0  0.00000000000E+00  0.00000000000E+00 -0.17935737434E+04  0.17935737434E+04  0.25500000920E-02 0. -1.
    10030    2    1    2    0    0  0.00000000000E+00  0.00000000000E+00 -0.54382204864E+03  0.30433254382E+04  0.29943425492E+04 0.  0.
        4    1    3    3  502    0  0.24965514750E+03  0.42206622701E+02 -0.17716550234E+04  0.17896570137E+04  0.12699999809E+01 0. -1.
       -4    1    3    3    0  502 -0.24965514750E+03 -0.42206622701E+02  0.12278329748E+04  0.12536684245E+04  0.12699999809E+01 0.  1.
</event>
<event>
 5   0  0.1674806E-06  0.2996713E+04  0.7818609E-02  0.8244670E-01
        2   -1    0    0  501    0  0.00000000000E+00  0.00000000000E+00  0.19166447943E+04  0.19166447943E+04  0.25500000920E-02 0.  1.
       -2   -1    0    0    0  501  0.00000000000E+00  0.00000000000E+00 -0.11713550667E+04  0.11713550667E+04  0.25500000920E-02 0. -1.
    10030    2    1    2    0    0  0.00000000000E+00  0.00000000000E+00  0.74528972761E+03  0.30879998610E+04  0.29967125928E+04 0.  0.
        2    1    3    3  502    0 -0.18882459075E+01 -0.75470058003E+03  0.17064849190E+04  0.18659226430E+04  0.25500000920E-02 0.  1.
       -2    1    3    3    0  502  0.18882459075E+01  0.75470058003E+03 -0.96119519136E+03  0.12220772180E+04  0.25500000920E-02 0. -1.
</event>
<event>
 5   0  0.5931588E-07  0.3000802E+04  0.7818609E-02  0.8243502E-01
        1   -1    0    0  501    0  0.00000000000E+00  0.00000000000E+00  0.14671234093E+04  0.14671234093E+04  0.50400001928E-02 0. -1.
       -1   -1    0    0    0  501  0.00000000000E+00  0.00000000000E+00 -0.15344332984E+04  0.15344332984E+04  0.50400001928E-02 0.  1.
    10030    2    1    2    0    0  0.00000000000E+00  0.00000000000E+00 -0.67309889123E+02  0.30015567078E+04  0.30008019010E+04 0.  0.
        2    1    3    3  502    0  0.92841336097E+03 -0.16454425429E+03 -0.12010718317E+04  0.15269576698E+04  0.25500000920E-02 0.  1.
       -2    1    3    3    0  502 -0.92841336097E+03  0.16454425429E+03  0.11337619426E+04  0.14745990380E+04  0.25500000920E-02 0. -1.
</event>
<event>
 5   0  0.1625212E-06  0.2991343E+04  0.7818609E-02  0.8246207E-01
        2   -1    0    0  501    0  0.00000000000E+00  0.00000000000E+00  0.10229660970E+04  0.10229660970E+04  0.25500000920E-02 0. -1.
       -2   -1    0    0    0  501  0.00000000000E+00  0.00000000000E+00 -0.21868100759E+04  0.21868100759E+04  0.25500000920E-02 0.  1.
    10030    2    1    2    0    0  0.00000000000E+00  0.00000000000E+00 -0.11638439789E+04  0.32097761729E+04  0.29913425535E+04 0.  0.
        4    1    3    3  502    0 -0.29821831271E+03  0.58878121174E+03 -0.20221051031E+04  0.21270891232E+04  0.12699999809E+01 0.  1.
       -4    1    3    3    0  502  0.29821831271E+03 -0.58878121174E+03  0.85826112415E+03  0.10826870496E+04  0.12699999809E+01 0. -1.
</event>
<event>
 5   0  0.1560174E-06  0.2992997E+04  0.7818609E-02  0.8245734E-01
        2   -1    0    0  501    0  0.00000000000E+00  0.00000000000E+00  0.20959720453E+04  0.20959720453E+04  0.25500000920E-02 0. -1.
       -2   -1    0    0    0  501  0.00000000000E+00  0.00000000000E+00 -0.10684813694E+04  0.10684813694E+04  0.25500000920E-02 0.  1.
    10030    2    1    2    0    0  0.00000000000E+00  0.00000000000E+00  0.10274906760E+04  0.31644534147E+04  0.29929965460E+04 0.  0.
        5    1    3    3  502    0 -0.41187980156E+03  0.83102094420E+02 -0.10048258802E+04  0.10891501589E+04  0.46999998093E+01 0.  1.
       -5    1    3    3    0  502  0.41187980156E+03 -0.83102094420E+02  0.20323165562E+04  0.20753032558E+04  0.46999998093E+01 0. -1.
</event>
<event>
 5   0  0.1625212E-06  0.3004503E+04  0.7818609E-02  0.8242446E-01
       -2   -1    0    0    0  501  0.00000000000E+00  0.00000000000E+00  0.13084668161E+04  0.13084668162E+04  0.25500000920E-02 0. -1.
        2   -1    0    0  501    0  0.00000000000E+00  0.00000000000E+00 -0.17247355506E+04  0.17247355506E+04  0.25500000920E-02 0.  1.
    10030    2    1    2    0    0  0.00000000000E+00  0.00000000000E+00 -0.41626873447E+03  0.30332023668E+04  0.30045027772E+04 0.  0.
        4    1    3    3  502    0  0.19141892369E+03 -0.62287960845E+03  0.11583598487E+04  0.13290671025E+04  0.12699999809E+01 0. -1.
       -4    1    3    3    0  502 -0.19141892369E+03  0.62287960845E+03 -0.15746285832E+04  0.17041352643E+04  0.12699999809E+01 0.  1.
</event>
<event>
 5   0  0.1674806E-06  0.3002843E+04  0.7818609E-02  0.8242919E-01
        2   -1    0    0  501    0  0.00000000000E+00  0.00000000000E+00  0.20567556453E+04  0.20567556453E+04  0.25500000920E-02 0. -1.
       -2   -1    0    0    0  501  0.00000000000E+00  0.00000000000E+00 -0.10960305249E+04  0.10960305249E+04  0.25500000920E-02 0.  1.
    10030    2    1    2    0    0  0.00000000000E+00  0.00000000000E+00  0.96072512037E+03  0.31527861702E+04  0.30028432990E+04 0.  0.
        2    1    3    3  502    0 -0.32643252675E+03  0.12054609558E+04 -0.39466289925E+03  0.13097530739E+04  0.25500000920E-02 0.  1.
       -2    1    3    3    0  502  0.32643252675E+03 -0.12054609558E+04  0.13553880196E+04  0.18430330963E+04  0.25500000920E-02 0. -1.
</event>
<event>
 5   0  0.1560174E-06  0.2994835E+04  0.7818609E-02  0.8245207E-01
        2   -1    0    0  501    0  0.00000000000E+00  0.00000000000E+00  0.24746489655E+04  0.24746489655E+04  0.25500000920E-02 0.  1.
       -2   -1    0    0    0  501  0.00000000000E+00  0.00000000000E+00 -0.90609187100E+03  0.90609187100E+03  0.25500000920E-02 0. -1.
    10030    2    1    2    0    0  0.00000000000E+00  0.00000000000E+00  0.15685570945E+04  0.33807408365E+04  0.29948350948E+04 0.  0.
        5    1    3    3  502    0  0.80216008252E+03  0.10667300817E+04  0.15506248296E+04  0.20459309170E+04  0.46999998093E+01 0.  1.
       -5    1    3    3    0  502 -0.80216008252E+03 -0.10667300817E+04  0.17932264969E+02  0.13348099195E+04  0.46999998093E+01 0. -1.
</event>
<event>
 5   0  0.6291798E-07  0.2991197E+04  0.7818609E-02  0.8246249E-01
       -1   -1    0    0    0  501  0.00000000000E+00  0.00000000000E+00  0.11103299173E+04  0.11103299173E+04  0.50400001928E-02 0. -1.
        1   -1    0    0  501    0  0.00000000000E+00  0.00000000000E+00 -0.20145500492E+04  0.20145500492E+04  0.50400001928E-02 0.  1.
    10030    2    1    2    0    0  0.00000000000E+00  0.00000000000E+00 -0.90422013193E+03  0.31248799665E+04  0.29911972115E+04 0.  0.
        1    1    3    3  502    0  0.27611057190E+03 -0.13611054430E+04 -0.10318624990E+04  0.17301980498E+04  0.50400001928E-02 0.  1.
       -1    1    3    3    0  502 -0.27611057190E+03  0.13611054430E+04  0.12764236705E+03  0.13946819167E+04  0.50400001928E-02 0. -1.
</event>
<event>
 5   0  0.1635086E-06  0.3003399E+04  0.7818609E-02  0.8242761E-01
        2   -1    0    0  501    0  0.00000000000E+00  0.00000000000E+00  0.14124755851E+04  0.14124755851E+04  0.25500000920E-02 0. -1.
       -2   -1    0    0    0  501  0.00000000000E+00  0.00000000000E+00 -0.15965594716E+04  0.15965594716E+04  0.25500000920E-02 0.  1.
    10030    2    1    2    0    0  0.00000000000E+00  0.00000000000E+00 -0.18408388649E+03  0.30090350566E+04  0.30033989237E+04 0.  0.
        3    1    3    3  502    0  0.68116888173E+03 -0.11715033672E+04  0.55623497914E+03  0.14648578590E+04  0.10100000352E+00 0.  1.
       -3    1    3    3    0  502 -0.68116888173E+03  0.11715033672E+04 -0.74031886563E+03  0.15441771977E+04  0.10100000352E+00 0. -1.
</event>
<event>
 5   0  0.6291798E-07  0.3006507E+04  0.7818609E-02  0.8241875E-01
       -1   -1    0    0    0  501  0.00000000000E+00  0.00000000000E+00  0.10116086477E+04  0.10116086477E+04  0.50400001928E-02 0. -1.
        1   -1    0    0  501    0  0.00000000000E+00  0.00000000000E+00 -0.22338391583E+04  0.22338391583E+04  0.50400001928E-02 0.  1.
    10030    2    1    2    0    0  0.00000000000E+00  0.00000000000E+00 -0.12222305106E+04  0.32454478060E+04  0.30065069500E+04 0.  0.
        1    1    3    3  502    0 -0.85854237356E+03 -0.21862519661E+03 -0.19220788056E+04  0.21164307026E+04  0.50400001928E-02 0.  1.
       -1    1    3    3    0  502  0.85854237356E+03  0.21862519661E+03  0.69984829499E+03  0.11290171034E+04  0.50400001928E-02 0. -1.
</event>
<event>
 5   0  0.1674806E-06  0.2919721E+04  0.7818609E-02  0.8267034E-01
        2   -1    0    0  501    0  0.00000000000E+00  0.00000000000E+00  0.20759291052E+04  0.20759291052E+04  0.25500000920E-02 0.  1.
       -2   -1    0    0    0  501  0.00000000000E+00  0.00000000000E+00 -0.10266213857E+04  0.10266213857E+04  0.25500000920E-02 0. -1.
    10030    2    1    2    0    0  0.00000000000E+00  0.00000000000E+00  0.10493077195E+04  0.31025504908E+04  0.29197213665E+04 0.  0.
        2    1    3    3  502    0 -0.74600882780E+03  0.11853685758E+04  0.96222235687E+03  0.16992644573E+04  0.25500000920E-02 0. -1.
       -2    1    3    3    0  502  0.74600882780E+03 -0.11853685758E+04  0.87085362622E+02  0.14032860336E+04  0.25500000920E-02 0.  1.
</event>
<event>
 5   0  0.1560174E-06  0.3001747E+04  0.7818609E-02  0.8243232E-01
       -2   -1    0    0    0  501  0.00000000000E+00  0.00000000000E+00  0.89612091838E+03  0.89612091838E+03  0.25500000920E-02 0.  1.
        2   -1    0    0  501    0  0.00000000000E+00  0.00000000000E+00 -0.25137477093E+04  0.25137477093E+04  0.25500000920E-02 0. -1.
    10030    2    1    2    0    0  0.00000000000E+00  0.00000000000E+00 -0.16176267909E+04  0.34098686277E+04  0.30017474283E+04 0.  0.
        5    1    3    3  502    0  0.10344546338E+04 -0.90609796426E+03 -0.12582773245E+03  0.13809288969E+04  0.46999998093E+01 0.  1.
       -5    1    3    3    0  502 -0.10344546338E+04  0.90609796426E+03 -0.14917990584E+04  0.20289397307E+04  0.46999998093E+01 0. -1.
</event>
<event>
 5   0  0.5887179E-07  0.3004065E+04  0.7818609E-02  0.8242571E-01
        1   -1    0    0  501    0  0.00000000000E+00  0.00000000000E+00  0.18200286444E+04  0.18200286444E+04  0.50400001928E-02 0. -1.
       -1   -1    0    0    0  501  0.00000000000E+00  0.00000000000E+00 -0.12395969300E+04  0.12395969300E+04  0.50400001928E-02 0.  1.
    10030    2    1    2    0    0  0.00000000000E+00  0.00000000000E+00  0.58043171438E+03  0.30596255744E+04  0.30040651925E+04 0.  0.
        3    1    3    3  502    0  0.49626353127E+03  0.60941491151E+03 -0.10134728981E+04  0.12824941919E+04  0.10100000352E+00 0.  1.
       -3    1    3    3    0  502 -0.49626353127E+03 -0.60941491151E+03  0.15939046125E+04  0.17771313825E+04  0.10100000352E+00 0. -1.
</event>
<event>
 5   0  0.5874741E-07  0.2974835E+04  0.7818609E-02  0.8250954E-01
        1   -1    0    0  501    0  0.00000000000E+00  0.00000000000E+00  0.18649047091E+04  0.18649047091E+04  0.50400001928E-02 0. -1.
       -1   -1    0    0    0  501  0.00000000000E+00  0.00000000000E+00 -0.11863396790E+04  0.11863396790E+04  0.50400001928E-02 0.  1.
    10030    2    1    2    0    0  0.00000000000E+00  0.00000000000E+00  0.67856503007E+03  0.30512443881E+04  0.29748347544E+04 0.  0.
        4    1    3    3  502    0  0.54623759068E+03 -0.50280567095E+03  0.16612710707E+04  0.18196187050E+04  0.12699999809E+01 0. -1.
       -4    1    3    3    0  502 -0.54623759068E+03  0.50280567095E+03 -0.98270604064E+03  0.12316256832E+04  0.12699999809E+01 0.  1.
</event>
<event>
 5   0  0.5916703E-07  0.3029325E+04  0.7818609E-02  0.8235406E-01
       -1   -1    0    0    0  501  0.00000000000E+00  0.00000000000E+00  0.14009345408E+04  0.14009345408E+04  0.50400001928E-02 0.  1.
        1   -1    0    0  501    0  0.00000000000E+00  0.00000000000E+00 -0.16376228415E+04  0.16376228415E+04  0.50400001928E-02 0. -1.
    10030    2    1    2    0    0  0.00000000000E+00  0.00000000000E+00 -0.23668830072E+03  0.30385573823E+04  0.30293249436E+04 0.  0.
        5    1    3    3  502    0  0.12888585756E+04  0.39375902447E+02 -0.91541902629E+03  0.15813668054E+04  0.46999998093E+01 0. -1.
       -5    1    3    3    0  502 -0.12888585756E+04 -0.39375902447E+02  0.67873072557E+03  0.14571905769E+04  0.46999998093E+01 0.  1.
</event>
<event>
 5   0  0.5431625E-07  0.2992544E+04  0.7818609E-02  0.8245863E-01
        3   -1    0    0  501    0  0.00000000000E+00  0.00000000000E+00  0.10694414179E+04  0.10694414227E+04  0.10100000352E+00 0. -1.
       -3   -1    0    0    0  501  0.00000000000E+00  0.00000000000E+00 -0.20934575020E+04  0.20934575044E+04  0.10100000352E+00 0.  1.
    10030    2    1    2    0    0  0.00000000000E+00  0.00000000000E+00 -0.10240160841E+04  0.31628989271E+04  0.29925441822E+04 0.  0.
        4    1    3    3  502    0 -0.72864511439E+03 -0.11131887584E+04 -0.12356095562E+04  0.18157217580E+04  0.12699999809E+01 0.  1.
       -4    1    3    3    0  502  0.72864511439E+03  0.11131887584E+04  0.21159347205E+03  0.13471771690E+04  0.12699999809E+01 0. -1.
</event>
<event>
 5   0  0.5887179E-07  0.3007187E+04  0.7818609E-02  0.8241682E-01
        1   -1    0    0  501    0  0.00000000000E+00  0.00000000000E+00  0.14996525061E+04  0.14996525061E+04  0.50400001928E-02 0. -1.
       -1   -1    0    0    0  501  0.00000000000E+00  0.00000000000E+00 -0.15075445595E+04  0.15075445595E+04  0.50400001928E-02 0.  1.
    10030    2    1    2    0    0  0.00000000000E+00  0.00000000000E+00 -0.78920534090E+01  0.30071970656E+04  0.30071867097E+04 0.  0.
        3    1    3    3  502    0  0.77258452125E+02 -0.99121527513E+03  0.11240278823E+04  0.15006382910E+04  0.10100000352E+00 0. -1.
       -3    1    3    3    0  502 -0.77258452125E+02  0.99121527513E+03 -0.11319199357E+04  0.15065587745E+04  0.10100000352E+00 0.  1.
</event>
<event>
 5   0  0.1560174E-06  0.3000808E+04  0.7818609E-02  0.8243500E-01
       -2   -1    0    0    0  501  0.00000000000E+00  0.00000000000E+00  0.10723702109E+04  0.10723702109E+04  0.25500000920E-02 0.  1.
        2   -1    0    0  501    0  0.00000000000E+00  0.00000000000E+00 -0.20992863577E+04  0.20992863577E+04  0.25500000920E-02 0. -1.
    10030    2    1    2    0    0  0.00000000000E+00  0.00000000000E+00 -0.10269161468E+04  0.31716565686E+04  0.30008079940E+04 0.  0.
        5    1    3    3  502    0 -0.74629634618E+03 -0.20266839786E+03 -0.18724129707E+04  0.20258294939E+04  0.46999998093E+01 0. -1.
       -5    1    3    3    0  502  0.74629634618E+03  0.20266839786E+03  0.84549682389E+03  0.11458270747E+04  0.46999998093E+01 0.  1.
</event>
<event>
 5   0  0.5431625E-07  0.2995251E+04  0.7818609E-02  0.8245088E-01
        3   -1    0    0  501    0  0.00000000000E+00  0.00000000000E+00  0.14687369292E+04  0.14687369327E+04  0.10100000352E+00 0. -1.
       -3   -1    0    0    0  501  0.00000000000E+00  0.00000000000E+00 -0.15270825070E+04  0.15270825103E+04  0.10100000352E+00 0.  1.
    10030    2    1    2    0    0  0.00000000000E+00  0.00000000000E+00 -0.58345577769E+02  0.29958194430E+04  0.29952512296E+04 0.  0.
        4    1    3    3  502    0  0.10375484889E+04 -0.86334429412E+03 -0.67814920048E+03  0.15105489691E+04  0.12699999809E+01 0.  1.
       -4    1    3    3    0  502 -0.10375484889E+04  0.86334429412E+03  0.61980362271E+03  0.14852704739E+04  0.12699999809E+01 0. -1.
</event>
<event>
 5   0  0.1560174E-06  0.3001433E+04  0.7818609E-02  0.8243322E-01
       -2   -1    0    0    0  501  0.00000000000E+00  0.00000000000E+00  0.89417820771E+03  0.89417820771E+03  0.25500000920E-02 0. -1.
        2   -1    0    0  501    0  0.00000000000E+00  0.00000000000E+00 -0.25186807625E+04  0.25186807625E+04  0.25500000920E-02 0.  1.
    10030    2    1    2    0    0  0.00000000000E+00  0.00000000000E+00 -0.16245025548E+04  0.34128589702E+04  0.30014326246E+04 0.  0.
        5    1    3    3  502    0 -0.81873077851E+03 -0.12160189297E+04 -0.11773666355E+04  0.18802224362E+04  0.46999998093E+01 0.  1.
       -5    1    3    3    0  502  0.81873077851E+03  0.12160189297E+04 -0.44713591923E+03  0.15326365340E+04  0.46999998093E+01 0. -1.
</event>
<event>
 5   0  0.5874741E-07  0.3000388E+04  0.7818609E-02  0.8243620E-01
       -1   -1    0    0    0  501  0.00000000000E+00  0.00000000000E+00  0.11518656953E+04  0.11518656953E+04  0.50400001928E-02 0.  1.
        1   -1    0    0  501    0  0.00000000000E+00  0.00000000000E+00 -0.19538586440E+04  0.19538586440E+04  0.50400001928E-02 0. -1.
    10030    2    1    2    0    0  0.00000000000E+00  0.00000000000E+00 -0.80199294869E+03  0.31057243393E+04  0.30003884719E+04 0.  0.
        4    1    3    3  502    0  0.70455933927E+03  0.94383913799E+02 -0.17684626669E+04  0.19059837362E+04  0.12699999809E+01 0. -1.
       -4    1    3    3    0  502 -0.70455933927E+03 -0.94383913799E+02  0.96646971818E+03  0.11997406031E+04  0.12699999809E+01 0.  1.
</event>
<event>
 5   0  0.5916703E-07  0.2983726E+04  0.7818609E-02  0.8248393E-01
       -1   -1    0    0    0  501  0.00000000000E+00  0.00000000000E+00  0.12460703530E+04  0.12460703530E+04  0.50400001928E-02 0.  1.
        1   -1    0    0  501    0  0.00000000000E+00  0.00000000000E+00 -0.17861389932E+04  0.17861389932E+04  0.50400001928E-02 0. -1.
    10030    2    1    2    0    0  0.00000000000E+00  0.00000000000E+00 -0.54006864016E+03  0.30322093462E+04  0.29837257554E+04 0.  0.
        5    1    3    3  502    0 -0.36691463881E+03 -0.56640355258E+03 -0.16221400084E+04  0.17569290348E+04  0.46999998093E+01 0. -1.
       -5    1    3    3    0  502  0.36691463881E+03  0.56640355258E+03  0.10820713683E+04  0.12752803114E+04  0.46999998093E+01 0.  1.
</event>
<event>
 5   0  0.1635086E-06  0.3010501E+04  0.7818609E-02  0.8240739E-01
       -2   -1    0    0    0  501  0.00000000000E+00  0.00000000000E+00  0.15916332908E+04  0.15916332908E+04  0.25500000920E-02 0. -1.
        2   -1    0    0  501    0  0.00000000000E+00  0.00000000000E+00 -0.14235560007E+04  0.14235560007E+04  0.25500000920E-02 0.  1.
    10030    2    1    2    0    0  0.00000000000E+00  0.00000000000E+00  0.16807729005E+03  0.30151892915E+04  0.30105010361E+04 0.  0.
        3    1    3    3  502    0 -0.98895821056E+02  0.97418332184E+02 -0.14171311733E+04  0.14239141433E+04  0.10100000352E+00 0.  1.
       -3    1    3    3    0  502  0.98895821056E+02 -0.97418332184E+02  0.15852084634E+04  0.15912751482E+04  0.10100000352E+00 0. -1.
</event>
<event>
 5   0  0.1560174E-06  0.3004804E+04  0.7818609E-02  0.8242360E-01
       -2   -1    0    0    0  501  0.00000000000E+00  0.00000000000E+00  0.84328707356E+03  0.84328707357E+03  0.25500000920E-02 0.  1.
        2   -1    0    0  501    0  0.00000000000E+00  0.00000000000E+00 -0.26766822867E+04  0.26766822867E+04  0.25500000920E-02 0. -1.
    10030    2    1    2    0    0  0.00000000000E+00  0.00000000000E+00 -0.18333952131E+04  0.35199693602E+04  0.30048038687E+04 0.  0.
        5    1    3    3  502    0 -0.23210486625E+03  0.11015800586E+04 -0.20821776885E+04  0.23670313287E+04  0.46999998093E+01 0. -1.
       -5    1    3    3    0  502  0.23210486625E+03 -0.11015800586E+04  0.24878247540E+03  0.11529380315E+04  0.46999998093E+01 0.  1.
</event>
<event>
 5   0  0.5431625E-07  0.2996407E+04  0.7818609E-02  0.8244758E-01
       -3   -1    0    0    0  501  0.00000000000E+00  0.00000000000E+00  0.18711830863E+04  0.18711830891E+04  0.10100000352E+00 0.  1.
        3   -1    0    0  501    0  0.00000000000E+00  0.00000000000E+00 -0.11995690971E+04  0.11995691014E+04  0.10100000352E+00 0. -1.
    10030    2    1    2    0    0  0.00000000000E+00  0.00000000000E+00  0.67161398920E+03  0.30707521904E+04  0.29964067922E+04 0.  0.
        3    1    3    3  502    0  0.18709378151E+03  0.39957803926E+03 -0.11314807276E+04  0.12144609255E+04  0.10100000352E+00 0. -1.
       -3    1    3    3    0  502 -0.18709378151E+03 -0.39957803926E+03  0.18030947167E+04  0.18562912649E+04  0.10100000352E+00 0.  1.
</event>
<event>
 5   0  0.1625212E-06  0.2998930E+04  0.7818609E-02  0.8244036E-01
        2   -1    0    0  501    0  0.00000000000E+00  0.00000000000E+00  0.20947890524E+04  0.20947890524E+04  0.25500000920E-02 0. -1.
       -2   -1    0    0    0  501  0.00000000000E+00  0.00000000000E+00 -0.10733277931E+04  0.10733277931E+04  0.25500000920E-02 0.  1.
    10030    2    1    2    0    0  0.00000000000E+00  0.00000000000E+00  0.10214612593E+04  0.31681168455E+04  0.29989300163E+04 0.  0.
        4    1    3    3  502    0 -0.46865620956E+03  0.92847873774E+03  0.16517976729E+04  0.19519601877E+04  0.12699999809E+01 0. -1.
       -4    1    3    3    0  502  0.46865620956E+03 -0.92847873774E+03 -0.63033641363E+03  0.12161566579E+04  0.12699999809E+01 0.  1.
</event>
<event>
 5   0  0.5887179E-07  0.2999637E+04  0.7818609E-02  0.8243834E-01
       -1   -1    0    0    0  501  0.00000000000E+00  0.00000000000E+00  0.13323575976E+04  0.13323575976E+04  0.50400001928E-02 0. -1.
        1   -1    0    0  501    0  0.00000000000E+00  0.00000000000E+00 -0.16883273934E+04  0.16883273934E+04  0.50400001928E-02 0.  1.
    10030    2    1    2    0    0  0.00000000000E+00  0.00000000000E+00 -0.35596979574E+03  0.30206849910E+04  0.29996371979E+04 0.  0.
        3    1    3    3  502    0  0.62158664025E+03 -0.60888905501E+03  0.10522005776E+04  0.13653724394E+04  0.10100000352E+00 0. -1.
       -3    1    3    3    0  502 -0.62158664025E+03  0.60888905501E+03 -0.14081703734E+04  0.16553125515E+04  0.10100000352E+00 0.  1.
</event>
<event>
 5   0  0.5874741E-07  0.3004509E+04  0.7818609E-02  0.8242444E-01
        1   -1    0    0  501    0  0.00000000000E+00  0.00000000000E+00  0.17861389462E+04  0.17861389462E+04  0.50400001928E-02 0.  1.
       -1   -1    0    0    0  501  0.00000000000E+00  0.00000000000E+00 -0.12634902730E+04  0.12634902730E+04  0.50400001928E-02 0. -1.
    10030    2    1    2    0    0  0.00000000000E+00  0.00000000000E+00  0.52264867318E+03  0.30496292193E+04  0.30045094008E+04 0.  0.
        4    1    3    3  502    0 -0.13815747404E+04  0.19056955233E+03 -0.30536273543E+03  0.14276951813E+04  0.12699999809E+01 0. -1.
       -4    1    3    3    0  502  0.13815747404E+04 -0.19056955233E+03  0.82801140860E+03  0.16219340379E+04  0.12699999809E+01 0.  1.
</event>
<event>
 5   0  0.5874741E-07  0.2999948E+04  0.7818609E-02  0.8243746E-01
        1   -1    0    0  501    0  0.00000000000E+00  0.00000000000E+00  0.20430528463E+04  0.20430528463E+04  0.50400001928E-02 0. -1.
       -1   -1    0    0    0  501  0.00000000000E+00  0.00000000000E+00 -0.11012548764E+04  0.11012548764E+04  0.50400001928E-02 0.  1.
    10030    2    1    2    0    0  0.00000000000E+00  0.00000000000E+00  0.94179796992E+03  0.31443077226E+04  0.29999479393E+04 0.  0.
        4    1    3    3  502    0 -0.18110992887E+03 -0.87530185543E+03  0.17334239222E+04  0.19503113216E+04  0.12699999809E+01 0. -1.
       -4    1    3    3    0  502  0.18110992887E+03  0.87530185543E+03 -0.79162595225E+03  0.11939964010E+04  0.12699999809E+01 0.  1.
</event>
<event>
 5   0  0.5874741E-07  0.3017315E+04  0.7818609E-02  0.8238804E-01
        1   -1    0    0  501    0  0.00000000000E+00  0.00000000000E+00  0.83742335456E+03  0.83742335457E+03  0.50400001928E-02 0.  1.
       -1   -1    0    0    0  501  0.00000000000E+00  0.00000000000E+00 -0.27179168630E+04  0.27179168630E+04  0.50400001928E-02 0. -1.
    10030    2    1    2    0    0  0.00000000000E+00  0.00000000000E+00 -0.18804935085E+04  0.35553402176E+04  0.30173147379E+04 0.  0.
        4    1    3    3  502    0  0.15008363493E+04 -0.14777642801E+03 -0.89169478335E+03  0.17519899599E+04  0.12699999809E+01 0. -1.
       -4    1    3    3    0  502 -0.15008363493E+04  0.14777642801E+03 -0.98879872512E+03  0.18033502577E+04  0.12699999809E+01 0.  1.
</event>
<event>
 5   0  0.6291798E-07  0.2996131E+04  0.7818609E-02  0.8244837E-01
        1   -1    0    0  501    0  0.00000000000E+00  0.00000000000E+00  0.16659517793E+04  0.16659517793E+04  0.50400001928E-02 0.  1.
       -1   -1    0    0    0  501  0.00000000000E+00  0.00000000000E+00 -0.13470981224E+04  0.13470981224E+04  0.50400001928E-02 0. -1.
    10030    2    1    2    0    0  0.00000000000E+00  0.00000000000E+00  0.31885365683E+03  0.30130499017E+04  0.29961311813E+04 0.  0.
        1    1    3    3  502    0  0.14261149690E+04 -0.11212006396E+03  0.60671442580E+03  0.15538588121E+04  0.50400001928E-02 0.  1.
       -1    1    3    3    0  502 -0.14261149690E+04  0.11212006396E+03 -0.28786076897E+03  0.14591910896E+04  0.50400001928E-02 0. -1.
</event>
<event>
 5   0  0.5916703E-07  0.3009833E+04  0.7818609E-02  0.8240929E-01
        1   -1    0    0  501    0  0.00000000000E+00  0.00000000000E+00  0.19561940287E+04  0.19561940287E+04  0.50400001928E-02 0. -1.
       -1   -1    0    0    0  501  0.00000000000E+00  0.00000000000E+00 -0.11577448889E+04  0.11577448889E+04  0.50400001928E-02 0.  1.
    10030    2    1    2    0    0  0.00000000000E+00  0.00000000000E+00  0.79844913982E+03  0.31139389176E+04  0.30098329777E+04 0.  0.
        5    1    3    3  502    0  0.73814439839E+03 -0.49746785206E+03 -0.85617959854E+03  0.12350696384E+04  0.46999998093E+01 0.  1.
       -5    1    3    3    0  502 -0.73814439839E+03  0.49746785206E+03  0.16546287384E+04  0.18788692793E+04  0.46999998093E+01 0. -1.
</event>
<event>
 5   0  0.1625212E-06  0.2993217E+04  0.7818609E-02  0.8245671E-01
        2   -1    0    0  501    0  0.00000000000E+00  0.00000000000E+00  0.94207315425E+03  0.94207315425E+03  0.25500000920E-02 0.  1.
       -2   -1    0    0    0  501  0.00000000000E+00  0.00000000000E+00 -0.23775610138E+04  0.23775610138E+04  0.25500000920E-02 0. -1.
    10030    2    1    2    0    0  0.00000000000E+00  0.00000000000E+00 -0.14354878595E+04  0.33196341680E+04  0.29932166000E+04 0.  0.
        4    1    3    3  502    0  0.46342522668E+03  0.14122272340E+04 -0.52346627348E+03  0.15758068579E+04  0.12699999809E+01 0.  1.
       -4    1    3    3    0  502 -0.46342522668E+03 -0.14122272340E+04 -0.91202158605E+03  0.17438273101E+04  0.12699999809E+01 0. -1.
</event>
<event>
 5   0  0.5916703E-07  0.3004929E+04  0.7818609E-02  0.8242325E-01
        1   -1    0    0  501    0  0.00000000000E+00  0.00000000000E+00  0.25220662679E+04  0.25220662679E+04  0.50400001928E-02 0. -1.
       -1   -1    0    0    0  501  0.00000000000E+00  0.00000000000E+00 -0.89505979621E+03  0.89505979623E+03  0.50400001928E-02 0.  1.
    10030    2    1    2    0    0  0.00000000000E+00  0.00000000000E+00  0.16270064716E+04  0.34171260641E+04  0.30049293634E+04 0.  0.
        5    1    3    3  502    0 -0.11919203750E+03 -0.27274769167E+03  0.24881934468E+04  0.25059383001E+04  0.46999998093E+01 0. -1.
       -5    1    3    3    0  502  0.11919203750E+03  0.27274769167E+03 -0.86118697515E+03  0.91118776401E+03  0.46999998093E+01 0.  1.
</event>
<event>
 5   0  0.1625212E-06  0.3000017E+04  0.7818609E-02  0.8243726E-01
       -2   -1    0    0    0  501  0.00000000000E+00  0.00000000000E+00  0.13874542870E+04  0.13874542870E+04  0.25500000920E-02 0. -1.
        2   -1    0    0  501    0  0.00000000000E+00  0.00000000000E+00 -0.16216939364E+04  0.16216939364E+04  0.25500000920E-02 0.  1.
    10030    2    1    2    0    0  0.00000000000E+00  0.00000000000E+00 -0.23423964939E+03  0.30091482234E+04  0.30000174695E+04 0.  0.
        4    1    3    3  502    0  0.51839096592E+03 -0.18853407203E+03 -0.15162668392E+04  0.16134872266E+04  0.12699999809E+01 0.  1.
       -4    1    3    3    0  502 -0.51839096592E+03  0.18853407203E+03  0.12820271898E+04  0.13956609968E+04  0.12699999809E+01 0. -1.
</event>
<event>
 5   0  0.6291798E-07  0.3002945E+04  0.7818609E-02  0.8242890E-01
        1   -1    0    0  501    0  0.00000000000E+00  0.00000000000E+00  0.16708365079E+04  0.16708365079E+04  0.50400001928E-02 0.  1.
       -1   -1    0    0    0  501  0.00000000000E+00  0.00000000000E+00 -0.13492759802E+04  0.13492759802E+04  0.50400001928E-02 0. -1.
    10030    2    1    2    0    0  0.00000000000E+00  0.00000000000E+00  0.32156052771E+03  0.30201124880E+04  0.30029449325E+04 0.  0.
        1    1    3    3  502    0 -0.87970702066E+03  0.33799976462E+03 -0.10147867727E+04  0.13848900596E+04  0.50400001928E-02 0. -1.
       -1    1    3    3    0  502  0.87970702066E+03 -0.33799976462E+03  0.13363473004E+04  0.16352224284E+04  0.50400001928E-02 0.  1.
</event>
<event>
 5   0  0.1723916E-06  0.2997400E+04  0.7818609E-02  0.8244474E-01
        2   -1    0    0  501    0  0.00000000000E+00  0.00000000000E+00  0.19402860677E+04  0.19402860677E+04  0.25500000920E-02 0. -1.
       -2   -1    0    0    0  501  0.00000000000E+00  0.00000000000E+00 -0.11576138896E+04  0.11576138896E+04  0.25500000920E-02 0.  1.
    10030    2    1    2    0    0  0.00000000000E+00  0.00000000000E+00  0.78267217810E+03  0.30978999573E+04  0.29974002747E+04 0.  0.
        1    1    3    3  502    0 -0.11211885758E+04  0.68409162697E+02  0.14167501920E+04  0.18080167983E+04  0.50400001928E-02 0. -1.
       -1    1    3    3    0  502  0.11211885758E+04 -0.68409162697E+02 -0.63407801394E+03  0.12898831590E+04  0.50400001928E-02 0.  1.
</event>
<event>
 5   0  0.5887179E-07  0.2994844E+04  0.7818609E-02  0.8245205E-01
       -1   -1    0    0    0  501  0.00000000000E+00  0.00000000000E+00  0.88810905497E+03  0.88810905499E+03  0.50400001928E-02 0. -1.
        1   -1    0    0  501    0  0.00000000000E+00  0.00000000000E+00 -0.25247713428E+04  0.25247713428E+04  0.50400001928E-02 0.  1.
    10030    2    1    2    0    0  0.00000000000E+00  0.00000000000E+00 -0.16366622878E+04  0.34128803978E+04  0.29948437631E+04 0.  0.
        3    1    3    3  502    0 -0.92979578852E+03 -0.10941988899E+04 -0.33420060734E+03  0.14742732023E+04  0.10100000352E+00 0. -1.
       -3    1    3    3    0  502  0.92979578852E+03  0.10941988899E+04 -0.13024616805E+04  0.19386071955E+04  0.10100000352E+00 0.  1.
</event>
<event>
 5   0  0.1674806E-06  0.2980355E+04  0.7818609E-02  0.8249363E-01
       -2   -1    0    0    0  501  0.00000000000E+00  0.00000000000E+00  0.14379040413E+04  0.14379040413E+04  0.25500000920E-02 0. -1.
        2   -1    0    0  501    0  0.00000000000E+00  0.00000000000E+00 -0.15443512651E+04  0.15443512651E+04  0.25500000920E-02 0.  1.
    10030    2    1    2    0    0  0.00000000000E+00  0.00000000000E+00 -0.10644722381E+03  0.29822553064E+04  0.29803549623E+04 0.  0.
        2    1    3    3  502    0  0.12192918250E+04 -0.84494675483E+03  0.88363437811E+02  0.14860739114E+04  0.25500000920E-02 0.  1.
       -2    1    3    3    0  502 -0.12192918250E+04  0.84494675483E+03 -0.19481066162E+03  0.14961813950E+04  0.25500000920E-02 0. -1.
</event>
<event>
 5   0  0.6291798E-07  0.3003710E+04  0.7818609E-02  0.8242672E-01
        1   -1    0    0  501    0  0.00000000000E+00  0.00000000000E+00  0.18377533854E+04  0.18377533854E+04  0.50400001928E-02 0.  1.
       -1   -1    0    0    0  501  0.00000000000E+00  0.00000000000E+00 -0.12273506564E+04  0.12273506564E+04  0.50400001928E-02 0. -1.
    10030    2    1    2    0    0  0.00000000000E+00  0.00000000000E+00  0.61040272901E+03  0.30651040418E+04  0.30037095891E+04 0.  0.
        1    1    3    3  502    0  0.10995200743E+04  0.51568810804E+03 -0.59642451118E+03  0.13529969756E+04  0.50400001928E-02 0. -1.
       -1    1    3    3    0  502 -0.10995200743E+04 -0.51568810804E+03  0.12068272402E+04  0.17121070662E+04  0.50400001928E-02 0.  1.
</event>
<event>
 5   0  0.5887179E-07  0.3004066E+04  0.7818609E-02  0.8242571E-01
       -1   -1    0    0    0  501  0.00000000000E+00  0.00000000000E+00  0.10752381264E+04  0.10752381264E+04  0.50400001928E-02 0. -1.
        1   -1    0    0  501    0  0.00000000000E+00  0.00000000000E+00 -0.20982353891E+04  0.20982353891E+04  0.50400001928E-02 0.  1.
    10030    2    1    2    0    0  0.00000000000E+00  0.00000000000E+00 -0.10229972627E+04  0.31734735155E+04  0.30040657040E+04 0.  0.
        3    1    3    3  502    0 -0.61540197485E+02 -0.14203148732E+04 -0.10236270999E+04  0.17518259003E+04  0.10100000352E+00 0.  1.
       -3    1    3    3    0  502  0.61540197485E+02  0.14203148732E+04  0.62983721344E+00  0.14216476152E+04  0.10100000352E+00 0. -1.
</event>
<event>
 5   0  0.6291798E-07  0.3009430E+04  0.7818609E-02  0.8241043E-01
       -1   -1    0    0    0  501  0.00000000000E+00  0.00000000000E+00  0.14096625084E+04  0.14096625085E+04  0.50400001928E-02 0.  1.
        1   -1    0    0  501    0  0.00000000000E+00  0.00000000000E+00 -0.16061770911E+04  0.16061770911E+04  0.50400001928E-02 0. -1.
    10030    2    1    2    0    0  0.00000000000E+00  0.00000000000E+00 -0.19651458262E+03  0.30158395995E+04  0.30094302632E+04 0.  0.
        1    1    3    3  502    0  0.20605806066E+03 -0.12163616489E+03 -0.15869892023E+04  0.16049267925E+04  0.50400001928E-02 0. -1.
       -1    1    3    3    0  502 -0.20605806066E+03  0.12163616489E+03  0.13904746197E+04  0.14109128070E+04  0.50400001928E-02 0.  1.
</event>
<event>
 5   0  0.1560174E-06  0.3003212E+04  0.7818609E-02  0.8242814E-01
       -2   -1    0    0    0  501  0.00000000000E+00  0.00000000000E+00  0.14513427717E+04  0.14513427717E+04  0.25500000920E-02 0. -1.
        2   -1    0    0  501    0  0.00000000000E+00  0.00000000000E+00 -0.15536098385E+04  0.15536098385E+04  0.25500000920E-02 0.  1.
    10030    2    1    2    0    0  0.00000000000E+00  0.00000000000E+00 -0.10226706678E+03  0.30049526102E+04  0.30032118867E+04 0.  0.
        5    1    3    3  502    0  0.32613078479E+03 -0.41725673924E+03 -0.14570578686E+04  0.15503239009E+04  0.46999998093E+01 0.  1.
       -5    1    3    3    0  502 -0.32613078479E+03  0.41725673924E+03  0.13547908018E+04  0.14546287093E+04  0.46999998093E+01 0. -1.
</event>
<event>
 5   0  0.1635086E-06  0.3003870E+04  0.7818609E-02  0.8242627E-01
       -2   -1    0    0    0  501  0.00000000000E+00  0.00000000000E+00  0.11782482985E+04  0.11782482985E+04  0.25500000920E-02 0.  1.
        2   -1    0    0  501    0  0.00000000000E+00  0.00000000000E+00 -0.19145441436E+04  0.19145441436E+04  0.25500000920E-02 0. -1.
    10030    2    1    2    0    0  0.00000000000E+00  0.00000000000E+00 -0.73629584510E+03  0.30927924421E+04  0.30038697573E+04 0.  0.
        3    1    3    3  502    0 -0.11719815154E+04 -0.59221676923E+03 -0.11188031455E+04  0.17251034354E+04  0.10100000352E+00 0. -1.
       -3    1    3    3    0  502  0.11719815154E+04  0.59221676923E+03  0.38250730042E+03  0.13676890068E+04  0.10100000352E+00 0.  1.
</event>
<event>
 5   0  0.1723916E-06  0.2970429E+04  0.7818609E-02  0.8252226E-01
       -2   -1    0    0    0  501  0.00000000000E+00  0.00000000000E+00  0.12311640606E+04  0.12311640606E+04  0.25500000920E-02 0.  1.
        2   -1    0    0  501    0  0.00000000000E+00  0.00000000000E+00 -0.17916881038E+04  0.17916881038E+04  0.25500000920E-02 0. -1.
    10030    2    1    2    0    0  0.00000000000E+00  0.00000000000E+00 -0.56052404325E+03  0.30228521644E+04  0.29704289260E+04 0.  0.
        1    1    3    3  502    0 -0.91669211635E+03  0.75834324337E+03 -0.11850270248E+04  0.16791956290E+04  0.50400001928E-02 0. -1.
       -1    1    3    3    0  502  0.91669211635E+03 -0.75834324337E+03  0.62450298158E+03  0.13436565353E+04  0.50400001928E-02 0.  1.
</event>
<event>
 5   0  0.5931588E-07  0.3002108E+04  0.7818609E-02  0.8243129E-01
        1   -1    0    0  501    0  0.00000000000E+00  0.00000000000E+00  0.14046498084E+04  0.14046498084E+04  0.50400001928E-02 0.  1.
       -1   -1    0    0    0  501  0.00000000000E+00  0.00000000000E+00 -0.16040744461E+04  0.16040744461E+04  0.50400001928E-02 0. -1.
    10030    2    1    2    0    0  0.00000000000E+00  0.00000000000E+00 -0.19942463768E+03  0.30087242545E+04  0.30021078351E+04 0.  0.
        2    1    3    3  502    0  0.14273394999E+04 -0.45506547857E+03 -0.19362169110E+03  0.15105866400E+04  0.25500000920E-02 0.  1.
       -2    1    3    3    0  502 -0.14273394999E+04  0.45506547857E+03 -0.58029465801E+01  0.14981376145E+04  0.25500000920E-02 0. -1.
</event>
<event>
 5   0  0.6291798E-07  0.2973729E+04  0.7818609E-02  0.8251273E-01
       -1   -1    0    0    0  501  0.00000000000E+00  0.00000000000E+00  0.13586350594E+04  0.13586350594E+04  0.50400001928E-02 0.  1.
        1   -1    0    0  501    0  0.00000000000E+00  0.00000000000E+00 -0.16271961120E+04  0.16271961120E+04  0.50400001928E-02 0. -1.
    10030    2    1    2    0    0  0.00000000000E+00  0.00000000000E+00 -0.26856105264E+03  0.29858311714E+04  0.29737287612E+04 0.  0.
        1    1    3    3  502    0  0.45817765609E+03  0.13435437306E+04  0.30993288567E+03  0.14529607407E+04  0.50400001928E-02 0.  1.
       -1    1    3    3    0  502 -0.45817765609E+03 -0.13435437306E+04 -0.57849393831E+03  0.15328704306E+04  0.50400001928E-02 0. -1.
</event>
<event>
 5   0  0.1560174E-06  0.2997698E+04  0.7818609E-02  0.8244389E-01
       -2   -1    0    0    0  501  0.00000000000E+00  0.00000000000E+00  0.12702582708E+04  0.12702582708E+04  0.25500000920E-02 0.  1.
        2   -1    0    0  501    0  0.00000000000E+00  0.00000000000E+00 -0.17685757242E+04  0.17685757242E+04  0.25500000920E-02 0. -1.
    10030    2    1    2    0    0  0.00000000000E+00  0.00000000000E+00 -0.49831745339E+03  0.30388339949E+04  0.29976977440E+04 0.  0.
        5    1    3    3  502    0  0.11570502916E+04  0.66239246558E+03 -0.94338976467E+03  0.16332591631E+04  0.46999998093E+01 0. -1.
       -5    1    3    3    0  502 -0.11570502916E+04 -0.66239246558E+03  0.44507231129E+03  0.14055748319E+04  0.46999998093E+01 0.  1.
</event>
<event>
 5   0  0.5916703E-07  0.3010003E+04  0.7818609E-02  0.8240880E-01
        1   -1    0    0  501    0  0.00000000000E+00  0.00000000000E+00  0.18563638042E+04  0.18563638042E+04  0.50400001928E-02 0.  1.
       -1   -1    0    0    0  501  0.00000000000E+00  0.00000000000E+00 -0.12201430388E+04  0.12201430388E+04  0.50400001928E-02 0. -1.
    10030    2    1    2    0    0  0.00000000000E+00  0.00000000000E+00  0.63622076543E+03  0.30765068430E+04  0.30100029058E+04 0.  0.
        5    1    3    3  502    0  0.11923564689E+03  0.56380459007E+03  0.17391209112E+04  0.18321180063E+04  0.46999998093E+01 0.  1.
       -5    1    3    3    0  502 -0.11923564689E+03 -0.56380459007E+03 -0.11029001458E+04  0.12443888367E+04  0.46999998093E+01 0. -1.
</event>
<event>
 5   0  0.5874741E-07  0.3003243E+04  0.7818609E-02  0.8242806E-01
        1   -1    0    0  501    0  0.00000000000E+00  0.00000000000E+00  0.20215311054E+04  0.20215311054E+04  0.50400001928E-02 0. -1.
       -1   -1    0    0    0  501  0.00000000000E+00  0.00000000000E+00 -0.11154251372E+04  0.11154251372E+04  0.50400001928E-02 0.  1.
    10030    2    1    2    0    0  0.00000000000E+00  0.00000000000E+00  0.90610596823E+03  0.31369562426E+04  0.30032426545E+04 0.  0.
        4    1    3    3  502    0  0.12649224666E+04 -0.16989546875E+03  0.12794626350E+04  0.18071855367E+04  0.12699999809E+01 0. -1.
       -4    1    3    3    0  502 -0.12649224666E+04  0.16989546875E+03 -0.37335666673E+03  0.13297707059E+04  0.12699999809E+01 0.  1.
</event>
<event>
 5   0  0.1560174E-06  0.2980193E+04  0.7818609E-02  0.8249409E-01
        2   -1    0    0  501    0  0.00000000000E+00  0.00000000000E+00  0.19064827877E+04  0.19064827877E+04  0.25500000920E-02 0.  1.
       -2   -1    0    0    0  501  0.00000000000E+00  0.00000000000E+00 -0.11646515748E+04  0.11646515748E+04  0.25500000920E-02 0. -1.
    10030    2    1    2    0    0  0.00000000000E+00  0.00000000000E+00  0.74183121288E+03  0.30711343626E+04  0.29801934039E+04 0.  0.
        5    1    3    3  502    0  0.14856822385E+04 -0.73995624443E+01  0.25314966640E+03  0.15071208680E+04  0.46999998093E+01 0. -1.
       -5    1    3    3    0  502 -0.14856822385E+04  0.73995624443E+01  0.48868154649E+03  0.15640134945E+04  0.46999998093E+01 0.  1.
</event>
<event>
 5   0  0.5916703E-07  0.3001093E+04  0.7818609E-02  0.8243419E-01
       -1   -1    0    0    0  501  0.00000000000E+00  0.00000000000E+00  0.14081053827E+04  0.14081053827E+04  0.50400001928E-02 0. -1.
        1   -1    0    0  501    0  0.00000000000E+00  0.00000000000E+00 -0.15990565105E+04  0.15990565105E+04  0.50400001928E-02 0.  1.
    10030    2    1    2    0    0  0.00000000000E+00  0.00000000000E+00 -0.19095112784E+03  0.30071618932E+04  0.30010931873E+04 0.  0.
        5    1    3    3  502    0  0.12397647984E+04  0.50140860277E+03 -0.77743292136E+03  0.15468844105E+04  0.46999998093E+01 0.  1.
       -5    1    3    3    0  502 -0.12397647984E+04 -0.50140860277E+03  0.58648179352E+03  0.14602774827E+04  0.46999998093E+01 0. -1.
</event>
<event>
 5   0  0.1560174E-06  0.3003594E+04  0.7818609E-02  0.8242705E-01
       -2   -1    0    0    0  501  0.00000000000E+00  0.00000000000E+00  0.11564810732E+04  0.11564810732E+04  0.25500000920E-02 0.  1.
        2   -1    0    0  501    0  0.00000000000E+00  0.00000000000E+00 -0.19502209480E+04  0.19502209480E+04  0.25500000920E-02 0. -1.
    10030    2    1    2    0    0  0.00000000000E+00  0.00000000000E+00 -0.79373987473E+03  0.31067020212E+04  0.30035935910E+04 0.  0.
        5    1    3    3  502    0 -0.17961437137E+03  0.53966301094E+02 -0.19380531471E+04  0.19471121629E+04  0.46999998093E+01 0. -1.
       -5    1    3    3    0  502  0.17961437137E+03 -0.53966301094E+02  0.11443132724E+04  0.11595898583E+04  0.46999998093E+01 0.  1.
</event>
<event>
 5   0  0.1625212E-06  0.3035124E+04  0.7818609E-02  0.8233772E-01
       -2   -1    0    0    0  501  0.00000000000E+00  0.00000000000E+00  0.13375047951E+04  0.13375047951E+04  0.25500000920E-02 0. -1.
        2   -1    0    0  501    0  0.00000000000E+00  0.00000000000E+00 -0.17218585454E+04  0.17218585454E+04  0.25500000920E-02 0.  1.
    10030    2    1    2    0    0  0.00000000000E+00  0.00000000000E+00 -0.38435375027E+03  0.30593633405E+04  0.30351237609E+04 0.  0.
        4    1    3    3  502    0  0.10551796558E+04  0.59883812954E+03  0.72668506370E+03  0.14142432627E+04  0.12699999809E+01 0. -1.
       -4    1    3    3    0  502 -0.10551796558E+04 -0.59883812954E+03 -0.11110388140E+04  0.16451200778E+04  0.12699999809E+01 0.  1.
</event>
<event>
 5   0  0.1723916E-06  0.2905943E+04  0.7818609E-02  0.8271111E-01
        2   -1    0    0  501    0  0.00000000000E+00  0.00000000000E+00  0.17678727328E+04  0.17678727328E+04  0.25500000920E-02 0.  1.
       -2   -1    0    0    0  501  0.00000000000E+00  0.00000000000E+00 -0.11941618846E+04  0.11941618846E+04  0.25500000920E-02 0. -1.
    10030    2    1    2    0    0  0.00000000000E+00  0.00000000000E+00  0.57371084826E+03  0.29620346174E+04  0.29059430375E+04 0.  0.
        1    1    3    3  502    0  0.21628833831E+03  0.87489005706E+03 -0.87484209182E+03  0.12560103275E+04  0.50400001928E-02 0. -1.
       -1    1    3    3    0  502 -0.21628833831E+03 -0.87489005706E+03  0.14485529401E+04  0.17060242898E+04  0.50400001928E-02 0.  1.
</event>
<event>
 5   0  0.1723916E-06  0.2982446E+04  0.7818609E-02  0.8248761E-01
       -2   -1    0    0    0  501  0.00000000000E+00  0.00000000000E+00  0.13562966898E+04  0.13562966898E+04  0.25500000920E-02 0.  1.
        2   -1    0    0  501    0  0.00000000000E+00  0.00000000000E+00 -0.16395718353E+04  0.16395718353E+04  0.25500000920E-02 0. -1.
    10030    2    1    2    0    0  0.00000000000E+00  0.00000000000E+00 -0.28327514552E+03  0.29958685251E+04  0.29824458774E+04 0.  0.
        1    1    3    3  502    0  0.13448690154E+04  0.13397006300E+03  0.49137728811E+03  0.14380793739E+04  0.50400001928E-02 0.  1.
       -1    1    3    3    0  502 -0.13448690154E+04 -0.13397006300E+03 -0.77465243363E+03  0.15577891511E+04  0.50400001928E-02 0. -1.
</event>
<event>
 5   0  0.5931588E-07  0.2995303E+04  0.7818609E-02  0.8245073E-01
        1   -1    0    0  501    0  0.00000000000E+00  0.00000000000E+00  0.17574852647E+04  0.17574852647E+04  0.50400001928E-02 0.  1.
       -1   -1    0    0    0  501  0.00000000000E+00  0.00000000000E+00 -0.12762327234E+04  0.12762327234E+04  0.50400001928E-02 0. -1.
    10030    2    1    2    0    0  0.00000000000E+00  0.00000000000E+00  0.48125254133E+03  0.30337179881E+04  0.29953031270E+04 0.  0.
        2    1    3    3  502    0  0.49377464553E+03 -0.11291283744E+04 -0.62129671037E+03  0.13801282146E+04  0.25500000920E-02 0. -1.
       -2    1    3    3    0  502 -0.49377464553E+03  0.11291283744E+04  0.11025492517E+04  0.16535897735E+04  0.25500000920E-02 0.  1.
</event>
<event>
 5   0  0.1723916E-06  0.3004296E+04  0.7818609E-02  0.8242505E-01
       -2   -1    0    0    0  501  0.00000000000E+00  0.00000000000E+00  0.91799505478E+03  0.91799505478E+03  0.25500000920E-02 0. -1.
        2   -1    0    0  501    0  0.00000000000E+00  0.00000000000E+00 -0.24580189612E+04  0.24580189612E+04  0.25500000920E-02 0.  1.
    10030    2    1    2    0    0  0.00000000000E+00  0.00000000000E+00 -0.15400239064E+04  0.33760140160E+04  0.30042964241E+04 0.  0.
        1    1    3    3  502    0 -0.98396209548E+03  0.59132767139E+03  0.31867145280E+03  0.11913862997E+04  0.50400001928E-02 0. -1.
       -1    1    3    3    0  502  0.98396209548E+03 -0.59132767139E+03 -0.18586953592E+04  0.21846277162E+04  0.50400001928E-02 0.  1.
</event>
<event>
 5   0  0.5916703E-07  0.3008289E+04  0.7818609E-02  0.8241368E-01
        1   -1    0    0  501    0  0.00000000000E+00  0.00000000000E+00  0.13209843919E+04  0.13209843919E+04  0.50400001928E-02 0.  1.
       -1   -1    0    0    0  501  0.00000000000E+00  0.00000000000E+00 -0.17127000487E+04  0.17127000487E+04  0.50400001928E-02 0. -1.
    10030    2    1    2    0    0  0.00000000000E+00  0.00000000000E+00 -0.39171565683E+03  0.30336844406E+04  0.30082885715E+04 0.  0.
        5    1    3    3  502    0 -0.77649405992E+03 -0.37376999037E+02  0.11026802288E+04  0.13491722803E+04  0.46999998093E+01 0.  1.
       -5    1    3    3    0  502  0.77649405992E+03  0.37376999037E+02 -0.14943958856E+04  0.16845121603E+04  0.46999998093E+01 0. -1.
</event>
<event>
 5   0  0.5887179E-07  0.2997218E+04  0.7818609E-02  0.8244526E-01
       -1   -1    0    0    0  501  0.00000000000E+00  0.00000000000E+00  0.13172281951E+04  0.13172281951E+04  0.50400001928E-02 0.  1.
        1   -1    0    0  501    0  0.00000000000E+00  0.00000000000E+00 -0.17049652602E+04  0.17049652602E+04  0.50400001928E-02 0. -1.
    10030    2    1    2    0    0  0.00000000000E+00  0.00000000000E+00 -0.38773706514E+03  0.30221934553E+04  0.29972175846E+04 0.  0.
        3    1    3    3  502    0 -0.64436269969E+03 -0.50424662312E+03  0.10721257403E+04  0.13486740002E+04  0.10100000352E+00 0.  1.
       -3    1    3    3    0  502  0.64436269969E+03  0.50424662312E+03 -0.14598628054E+04  0.16735194551E+04  0.10100000352E+00 0. -1.
</event>
<event>
 5   0  0.1625212E-06  0.2995326E+04  0.7818609E-02  0.8245067E-01
        2   -1    0    0  501    0  0.00000000000E+00  0.00000000000E+00  0.29573577728E+04  0.29573577728E+04  0.25500000920E-02 0.  1.
       -2   -1    0    0    0  501  0.00000000000E+00  0.00000000000E+00 -0.75844541334E+03  0.75844541334E+03  0.25500000920E-02 0. -1.
    10030    2    1    2    0    0  0.00000000000E+00  0.00000000000E+00  0.21989123594E+04  0.37158031861E+04  0.29953259845E+04 0.  0.
        4    1    3    3  502    0 -0.26471298229E+03 -0.13795105655E+04  0.45501054656E+03  0.14765360048E+04  0.12699999809E+01 0. -1.
       -4    1    3    3    0  502  0.26471298229E+03  0.13795105655E+04  0.17439018129E+04  0.22392671813E+04  0.12699999809E+01 0.  1.
</event>
<event>
 5   0  0.5874741E-07  0.2995801E+04  0.7818609E-02  0.8244931E-01
        1   -1    0    0  501    0  0.00000000000E+00  0.00000000000E+00  0.15917855924E+04  0.15917855924E+04  0.50400001928E-02 0.  1.
       -1   -1    0    0    0  501  0.00000000000E+00  0.00000000000E+00 -0.14095529456E+04  0.14095529456E+04  0.50400001928E-02 0. -1.
    10030    2    1    2    0    0  0.00000000000E+00  0.00000000000E+00  0.18223264685E+03  0.30013385380E+04  0.29958011086E+04 0.  0.
        4    1    3    3  502    0  0.17858932400E+03  0.29350836983E+03  0.15517766359E+04  0.15893563636E+04  0.12699999809E+01 0.  1.
       -4    1    3    3    0  502 -0.17858932400E+03 -0.29350836983E+03 -0.13695439891E+04  0.14119821744E+04  0.12699999809E+01 0. -1.
</event>
<event>
 5   0  0.1635086E-06  0.2990353E+04  0.7818609E-02  0.8246491E-01
       -2   -1    0    0    0  501  0.00000000000E+00  0.00000000000E+00  0.22656344339E+04  0.22656344339E+04  0.25500000920E-02 0.  1.
        2   -1    0    0  501    0  0.00000000000E+00  0.00000000000E+00 -0.98672266578E+03  0.98672266578E+03  0.25500000920E-02 0. -1.
    10030    2    1    2    0    0  0.00000000000E+00  0.00000000000E+00  0.12789117681E+04  0.32523570997E+04  0.29903530549E+04 0.  0.
        3    1    3    3  502    0 -0.12338011488E+03 -0.40905194618E+03  0.21978271794E+04  0.22389708502E+04  0.10100000352E+00 0.  1.
       -3    1    3    3    0  502  0.12338011488E+03  0.40905194618E+03 -0.91891541125E+03  0.10133862495E+04  0.10100000352E+00 0. -1.
</event>
<event>
 5   0  0.1635086E-06  0.2997599E+04  0.7818609E-02  0.8244417E-01
        2   -1    0    0  501    0  0.00000000000E+00  0.00000000000E+00  0.15583156272E+04  0.15583156272E+04  0.25500000920E-02 0.  1.
       -2   -1    0    0    0  501  0.00000000000E+00  0.00000000000E+00 -0.14415566579E+04  0.14415566579E+04  0.25500000920E-02 0. -1.
    10030    2    1    2    0    0  0.00000000000E+00  0.00000000000E+00  0.11675896934E+03  0.29998722851E+04  0.29975992177E+04 0.  0.
        3    1    3    3  502    0 -0.93648951729E+03  0.66971224948E+03  0.10187285163E+04  0.15373141882E+04  0.10100000352E+00 0.  1.
       -3    1    3    3    0  502  0.93648951729E+03 -0.66971224948E+03 -0.90196954694E+03  0.14625580969E+04  0.10100000352E+00 0. -1.
</event>
<event>
 5   0  0.1635086E-06  0.2990471E+04  0.7818609E-02  0.8246457E-01
       -2   -1    0    0    0  501  0.00000000000E+00  0.00000000000E+00  0.13835514053E+04  0.13835514053E+04  0.25500000920E-02 0. -1.
        2   -1    0    0  501    0  0.00000000000E+00  0.00000000000E+00 -0.16159346978E+04  0.16159346978E+04  0.25500000920E-02 0.  1.
    10030    2    1    2    0    0  0.00000000000E+00  0.00000000000E+00 -0.23238329247E+03  0.29994861031E+04  0.29904706801E+04 0.  0.
        3    1    3    3  502    0 -0.65205431031E+02  0.13233133578E+04 -0.81133129845E+03  0.15535985573E+04  0.10100000352E+00 0.  1.
       -3    1    3    3    0  502  0.65205431031E+02 -0.13233133578E+04  0.57894800598E+03  0.14458875458E+04  0.10100000352E+00 0. -1.
</event>
<event>
 5   0  0.5931588E-07  0.2997836E+04  0.7818609E-02  0.8244349E-01
       -1   -1    0    0    0  501  0.00000000000E+00  0.00000000000E+00  0.10263646929E+04  0.10263646929E+04  0.50400001928E-02 0. -1.
        1   -1    0    0  501    0  0.00000000000E+00  0.00000000000E+00 -0.21890412029E+04  0.21890412029E+04  0.50400001928E-02 0.  1.
    10030    2    1    2    0    0  0.00000000000E+00  0.00000000000E+00 -0.11626765100E+04  0.32154058959E+04  0.29978356206E+04 0.  0.
        2    1    3    3  502    0  0.10506631620E+04  0.91386242492E+03 -0.11763201167E+04  0.18228457501E+04  0.25500000920E-02 0.  1.
       -2    1    3    3    0  502 -0.10506631620E+04 -0.91386242492E+03  0.13643606648E+02  0.13925601458E+04  0.25500000920E-02 0. -1.
</event>
<event>
 5   0  0.1560174E-06  0.2985008E+04  0.7818609E-02  0.8248025E-01
       -2   -1    0    0    0  501  0.00000000000E+00  0.00000000000E+00  0.12351738568E+04  0.12351738568E+04  0.25500000920E-02 0.  1.
        2   -1    0    0  501    0  0.00000000000E+00  0.00000000000E+00 -0.18034451425E+04  0.18034451425E+04  0.25500000920E-02 0. -1.
    10030    2    1    2    0    0  0.00000000000E+00  0.00000000000E+00 -0.56827128563E+03  0.30386189993E+04  0.29850080685E+04 0.  0.
        5    1    3    3  502    0  0.91443269945E+03 -0.26663280618E+03  0.88552925615E+03  0.13005630968E+04  0.46999998093E+01 0.  1.
       -5    1    3    3    0  502 -0.91443269945E+03  0.26663280618E+03 -0.14538005418E+04  0.17380559026E+04  0.46999998093E+01 0. -1.
</event>
<event>
 5   0  0.1560174E-06  0.3000737E+04  0.7818609E-02  0.8243520E-01
       -2   -1    0    0    0  501  0.00000000000E+00  0.00000000000E+00  0.11128169537E+04  0.11128169537E+04  0.25500000920E-02 0. -1.
        2   -1    0    0  501    0  0.00000000000E+00  0.00000000000E+00 -0.20228894306E+04  0.20228894306E+04  0.25500000920E-02 0.  1.
    10030    2    1    2    0    0  0.00000000000E+00  0.00000000000E+00 -0.91007247693E+03  0.31357063843E+04  0.30007370120E+04 0.  0.
        5    1    3    3  502    0  0.12983910303E+04  0.50793616869E+03  0.12421117639E+03  0.13997388776E+04  0.46999998093E+01 0. -1.
       -5    1    3    3    0  502 -0.12983910303E+04 -0.50793616869E+03 -0.10342836533E+04  0.17359675068E+04  0.46999998093E+01 0.  1.
</event>
<event>
 5   0  0.1625212E-06  0.3002910E+04  0.7818609E-02  0.8242900E-01
        2   -1    0    0  501    0  0.00000000000E+00  0.00000000000E+00  0.26407798733E+04  0.26407798733E+04  0.25500000920E-02 0.  1.
       -2   -1    0    0    0  501  0.00000000000E+00  0.00000000000E+00 -0.85367503014E+03  0.85367503015E+03  0.25500000920E-02 0. -1.
    10030    2    1    2    0    0  0.00000000000E+00  0.00000000000E+00  0.17871048432E+04  0.34944549035E+04  0.30029104802E+04 0.  0.
        4    1    3    3  502    0 -0.14882374623E+04  0.19726325896E+03  0.92212063764E+03  0.17618375694E+04  0.12699999809E+01 0.  1.
       -4    1    3    3    0  502  0.14882374623E+04 -0.19726325896E+03  0.86498420553E+03  0.17326173341E+04  0.12699999809E+01 0. -1.
</event>
<event>
 5   0  0.1625212E-06  0.3014564E+04  0.7818609E-02  0.8239584E-01
       -2   -1    0    0    0  501  0.00000000000E+00  0.00000000000E+00  0.14045483089E+04  0.14045483089E+04  0.25500000920E-02 0.  1.
        2   -1    0    0  501    0  0.00000000000E+00  0.00000000000E+00 -0.16175304313E+04  0.16175304313E+04  0.25500000920E-02 0. -1.
    10030    2    1    2    0    0  0.00000000000E+00  0.00000000000E+00 -0.21298212241E+03  0.30220787401E+04  0.30145644009E+04 0.  0.
        4    1    3    3  502    0 -0.94194183674E+03 -0.42164861365E+03  0.99481731893E+03  0.14334242527E+04  0.12699999809E+01 0.  1.
       -4    1    3    3    0  502  0.94194183674E+03  0.42164861365E+03 -0.12077994413E+04  0.15886544875E+04  0.12699999809E+01 0. -1.
</event>
<event>
 5   0  0.5931588E-07  0.3011464E+04  0.7818609E-02  0.8240465E-01
        1   -1    0    0  501    0  0.00000000000E+00  0.00000000000E+00  0.18698085538E+04  0.18698085538E+04  0.50400001928E-02 0. -1.
       -1   -1    0    0    0  501  0.00000000000E+00  0.00000000000E+00 -0.12125456428E+04  0.12125456428E+04  0.50400001928E-02 0.  1.
    10030    2    1    2    0    0  0.00000000000E+00  0.00000000000E+00  0.65726291101E+03  0.30823541966E+04  0.30114635742E+04 0.  0.
        2    1    3    3  502    0 -0.11888631715E+04  0.53019457453E+02 -0.61559289676E+03  0.13398363026E+04  0.25500000920E-02 0.  1.
       -2    1    3    3    0  502  0.11888631715E+04 -0.53019457453E+02  0.12728558078E+04  0.17425178939E+04  0.25500000920E-02 0. -1.
</event>
<event>
 5   0  0.1635086E-06  0.3003631E+04  0.7818609E-02  0.8242695E-01
        2   -1    0    0  501    0  0.00000000000E+00  0.00000000000E+00  0.12652555995E+04  0.12652555995E+04  0.25500000920E-02 0.  1.
       -2   -1    0    0    0  501  0.00000000000E+00  0.00000000000E+00 -0.17826039545E+04  0.17826039545E+04  0.25500000920E-02 0. -1.
    10030    2    1    2    0    0  0.00000000000E+00  0.00000000000E+00 -0.51734835493E+03  0.30478595540E+04  0.30036308929E+04 0.  0.
        3    1    3    3  502    0 -0.79663552668E+03  0.33137749233E+03  0.98865797685E+03  0.13122057042E+04  0.10100000352E+00 0.  1.
       -3    1    3    3    0  502  0.79663552668E+03 -0.33137749233E+03 -0.15060063318E+04  0.17356538498E+04  0.10100000352E+00 0. -1.
</event>
<event>
 5   0  0.5874741E-07  0.2999087E+04  0.7818609E-02  0.8243992E-01
        1   -1    0    0  501    0  0.00000000000E+00  0.00000000000E+00  0.19594836498E+04  0.19594836498E+04  0.50400001928E-02 0.  1.
       -1   -1    0    0    0  501  0.00000000000E+00  0.00000000000E+00 -0.11475630367E+04  0.11475630367E+04  0.50400001928E-02 0. -1.
    10030    2    1    2    0    0  0.00000000000E+00  0.00000000000E+00  0.81192061312E+03  0.31070466864E+04  0.29990871994E+04 0.  0.
        4    1    3    3  502    0 -0.10183536591E+04 -0.40637260556E+03  0.14657439341E+04  0.18304616256E+04  0.12699999809E+01 0.  1.
       -4    1    3    3    0  502  0.10183536591E+04  0.40637260556E+03 -0.65382332099E+03  0.12765850608E+04  0.12699999809E+01 0. -1.
</event>
<event>
 5   0  0.1723916E-06  0.2987170E+04  0.7818609E-02  0.8247404E-01
        2   -1    0    0  501    0  0.00000000000E+00  0.00000000000E+00  0.95557193270E+03  0.95557193270E+03  0.25500000920E-02 0. -1.
       -2   -1    0    0    0  501  0.00000000000E+00  0.00000000000E+00 -0.23345135128E+04  0.23345135128E+04  0.25500000920E-02 0.  1.
    10030    2    1    2    0    0  0.00000000000E+00  0.00000000000E+00 -0.13789415801E+04  0.32900854455E+04  0.29871696231E+04 0.  0.
        1    1    3    3  502    0  0.52187278709E+03  0.41687018573E+03  0.78191134780E+03  0.10283566081E+04  0.50400001928E-02 0.  1.
       -1    1    3    3    0  502 -0.52187278709E+03 -0.41687018573E+03 -0.21608529279E+04  0.22617288374E+04  0.50400001928E-02 0. -1.
</event>
<event>
 5   0  0.1674806E-06  0.2998632E+04  0.7818609E-02  0.8244122E-01
        2   -1    0    0  501    0  0.00000000000E+00  0.00000000000E+00  0.19098761130E+04  0.19098761130E+04  0.25500000920E-02 0. -1.
       -2   -1    0    0    0  501  0.00000000000E+00  0.00000000000E+00 -0.11770127432E+04  0.11770127432E+04  0.25500000920E-02 0.  1.
    10030    2    1    2    0    0  0.00000000000E+00  0.00000000000E+00  0.73286336981E+03  0.30868888562E+04  0.29986320367E+04 0.  0.
        2    1    3    3  502    0  0.91320433557E+03 -0.41667070960E+03  0.15129401730E+04  0.18156388974E+04  0.25500000920E-02 0. -1.
       -2    1    3    3    0  502 -0.91320433557E+03  0.41667070960E+03 -0.78007680321E+03  0.12712499588E+04  0.25500000920E-02 0.  1.
</event>
<event>
 5   0  0.5874741E-07  0.3011728E+04  0.7818609E-02  0.8240390E-01
       -1   -1    0    0    0  501  0.00000000000E+00  0.00000000000E+00  0.15971623258E+04  0.15971623258E+04  0.50400001928E-02 0. -1.
        1   -1    0    0  501    0  0.00000000000E+00  0.00000000000E+00 -0.14197841808E+04  0.14197841808E+04  0.50400001928E-02 0.  1.
    10030    2    1    2    0    0  0.00000000000E+00  0.00000000000E+00  0.17737814496E+03  0.30169465066E+04  0.30117276134E+04 0.  0.
        4    1    3    3  502    0 -0.95406497272E+03  0.96463042201E+03 -0.56579780096E+03  0.14699933972E+04  0.12699999809E+01 0.  1.
       -4    1    3    3    0  502  0.95406497272E+03 -0.96463042201E+03  0.74317594592E+03  0.15469531094E+04  0.12699999809E+01 0. -1.
</event>
<event>
 5   0  0.5931588E-07  0.2992698E+04  0.7818609E-02  0.8245819E-01
        1   -1    0    0  501    0  0.00000000000E+00  0.00000000000E+00  0.20937956225E+04  0.20937956225E+04  0.50400001928E-02 0.  1.
       -1   -1    0    0    0  501  0.00000000000E+00  0.00000000000E+00 -0.10693786295E+04  0.10693786296E+04  0.50400001928E-02 0. -1.
    10030    2    1    2    0    0  0.00000000000E+00  0.00000000000E+00  0.10244169930E+04  0.31631742521E+04  0.29926979757E+04 0.  0.
        2    1    3    3  502    0 -0.48145017719E+03  0.14093944903E+04  0.66491398620E+03  0.16310419098E+04  0.25500000920E-02 0. -1.
       -2    1    3    3    0  502  0.48145017719E+03 -0.14093944903E+04  0.35950300677E+03  0.15321323423E+04  0.25500000920E-02 0.  1.
</event>
<event>
 5   0  0.1625212E-06  0.2977651E+04  0.7818609E-02  0.8250142E-01
       -2   -1    0    0    0  501  0.00000000000E+00  0.00000000000E+00  0.77237801515E+03  0.77237801515E+03  0.25500000920E-02 0.  1.
        2   -1    0    0  501    0  0.00000000000E+00  0.00000000000E+00 -0.28698398923E+04  0.28698398923E+04  0.25500000920E-02 0. -1.
    10030    2    1    2    0    0  0.00000000000E+00  0.00000000000E+00 -0.20974618772E+04  0.36422179075E+04  0.29776509130E+04 0.  0.
        4    1    3    3  502    0  0.80681137758E+03  0.39904338970E+03  0.40187539087E+03  0.98574117726E+03  0.12699999809E+01 0.  1.
       -4    1    3    3    0  502 -0.80681137758E+03 -0.39904338970E+03 -0.24993372681E+04  0.26564767302E+04  0.12699999809E+01 0. -1.
</event>
<event>
 5   0  0.1625212E-06  0.3001630E+04  0.7818609E-02  0.8243266E-01
        2   -1    0    0  501    0  0.00000000000E+00  0.00000000000E+00  0.13275770360E+04  0.13275770360E+04  0.25500000920E-02 0. -1.
       -2   -1    0    0    0  501  0.00000000000E+00  0.00000000000E+00 -0.16966587009E+04  0.16966587009E+04  0.25500000920E-02 0.  1.
    10030    2    1    2    0    0  0.00000000000E+00  0.00000000000E+00 -0.36908166481E+03  0.30242357369E+04  0.30016296436E+04 0.  0.
        4    1    3    3  502    0 -0.13718120958E+03 -0.65381526935E+03  0.11695116392E+04  0.13468675428E+04  0.12699999809E+01 0. -1.
       -4    1    3    3    0  502  0.13718120958E+03  0.65381526935E+03 -0.15385933040E+04  0.16773681941E+04  0.12699999809E+01 0.  1.
</event>
<event>
 5   0  0.5874741E-07  0.2981085E+04  0.7818609E-02  0.8249153E-01
        1   -1    0    0  501    0  0.00000000000E+00  0.00000000000E+00  0.17998101317E+04  0.17998101317E+04  0.50400001928E-02 0. -1.
       -1   -1    0    0    0  501  0.00000000000E+00  0.00000000000E+00 -0.12344173311E+04  0.12344173311E+04  0.50400001928E-02 0.  1.
    10030    2    1    2    0    0  0.00000000000E+00  0.00000000000E+00  0.56539280060E+03  0.30342274629E+04  0.29810849162E+04 0.  0.
        4    1    3    3  502    0  0.11225756250E+03  0.13062250552E+04 -0.43909232511E+03  0.13826168442E+04  0.12699999809E+01 0.  1.
       -4    1    3    3    0  502 -0.11225756250E+03 -0.13062250552E+04  0.10044851257E+04  0.16516106187E+04  0.12699999809E+01 0. -1.
</event>
<event>
 5   0  0.5931588E-07  0.3020807E+04  0.7818609E-02  0.8237814E-01
        1   -1    0    0  501    0  0.00000000000E+00  0.00000000000E+00  0.20428501497E+04  0.20428501497E+04  0.50400001928E-02 0.  1.
       -1   -1    0    0    0  501  0.00000000000E+00  0.00000000000E+00 -0.11167333617E+04  0.11167333617E+04  0.50400001928E-02 0. -1.
    10030    2    1    2    0    0  0.00000000000E+00  0.00000000000E+00  0.92611678802E+03  0.31595835115E+04  0.30208071208E+04 0.  0.
        2    1    3    3  502    0  0.14343969903E+04  0.40684477830E+03  0.21050874694E+03  0.15057660283E+04  0.25500000920E-02 0. -1.
       -2    1    3    3    0  502 -0.14343969903E+04 -0.40684477830E+03  0.71560804107E+03  0.16538174832E+04  0.25500000920E-02 0.  1.
</event>
<event>
 5   0  0.1560174E-06  0.3001964E+04  0.7818609E-02  0.8243170E-01
        2   -1    0    0  501    0  0.00000000000E+00  0.00000000000E+00  0.24724222145E+04  0.24724222145E+04  0.25500000920E-02 0.  1.
       -2   -1    0    0    0  501  0.00000000000E+00  0.00000000000E+00 -0.91123081450E+03  0.91123081450E+03  0.25500000920E-02 0. -1.
    10030    2    1    2    0    0  0.00000000000E+00  0.00000000000E+00  0.15611914000E+04  0.33836530290E+04  0.30019642292E+04 0.  0.
        5    1    3    3  502    0 -0.12435927169E+04  0.41950658814E+03  0.16014930646E+04  0.20705822247E+04  0.46999998093E+01 0.  1.
       -5    1    3    3    0  502  0.12435927169E+04 -0.41950658814E+03 -0.40301664669E+02  0.13130708043E+04  0.46999998093E+01 0. -1.
</event>
<event>
 5   0  0.1560174E-06  0.3005569E+04  0.7818609E-02  0.8242142E-01
       -2   -1    0    0    0  501  0.00000000000E+00  0.00000000000E+00  0.11751231116E+04  0.11751231116E+04  0.25500000920E-02 0.  1.
        2   -1    0    0  501    0  0.00000000000E+00  0.00000000000E+00 -0.19218079000E+04  0.19218079000E+04  0.25500000920E-02 0. -1.
    10030    2    1    2    0    0  0.00000000000E+00  0.00000000000E+00 -0.74668478839E+03  0.30969310117E+04  0.30055687511E+04 0.  0.
        5    1    3    3  502    0 -0.94400125585E+03 -0.11282851260E+04 -0.68954706522E+03  0.16247039551E+04  0.46999998093E+01 0. -1.
       -5    1    3    3    0  502  0.94400125585E+03  0.11282851260E+04 -0.57137723169E+02  0.14722270565E+04  0.46999998093E+01 0.  1.
</event>
<event>
 5   0  0.5916703E-07  0.2997949E+04  0.7818609E-02  0.8244317E-01
        1   -1    0    0  501    0  0.00000000000E+00  0.00000000000E+00  0.11149827256E+04  0.11149827256E+04  0.50400001928E-02 0.  1.
       -1   -1    0    0    0  501  0.00000000000E+00  0.00000000000E+00 -0.20152106443E+04  0.20152106443E+04  0.50400001928E-02 0. -1.
    10030    2    1    2    0    0  0.00000000000E+00  0.00000000000E+00 -0.90022791873E+03  0.31301933699E+04  0.29979493370E+04 0.  0.
        5    1    3    3  502    0  0.29627886573E+03 -0.83799655984E+03  0.81014356801E+03  0.12026529389E+04  0.46999998093E+01 0.  1.
       -5    1    3    3    0  502 -0.29627886573E+03  0.83799655984E+03 -0.17103714867E+04  0.19275404310E+04  0.46999998093E+01 0. -1.
</event>
<event>
 5   0  0.1674806E-06  0.3003309E+04  0.7818609E-02  0.8242787E-01
       -2   -1    0    0    0  501  0.00000000000E+00  0.00000000000E+00  0.32019423898E+04  0.32019423898E+04  0.25500000920E-02 0.  1.
        2   -1    0    0  501    0  0.00000000000E+00  0.00000000000E+00 -0.70424954688E+03  0.70424954688E+03  0.25500000920E-02 0. -1.
    10030    2    1    2    0    0  0.00000000000E+00  0.00000000000E+00  0.24976928429E+04  0.39061919366E+04  0.30033091597E+04 0.  0.
        2    1    3    3  502    0 -0.14299239311E+04  0.72509285801E+02  0.18377693530E+04  0.23296644051E+04  0.25500000920E-02 0.  1.
       -2    1    3    3    0  502  0.14299239311E+04 -0.72509285801E+02  0.65992348987E+03  0.15765275316E+04  0.25500000920E-02 0. -1.
</event>
<event>
 5   0  0.5874741E-07  0.2992112E+04  0.7818609E-02  0.8245987E-01
        1   -1    0    0  501    0  0.00000000000E+00  0.00000000000E+00  0.25571665921E+04  0.25571665921E+04  0.50400001928E-02 0.  1.
       -1   -1    0    0    0  501  0.00000000000E+00  0.00000000000E+00 -0.87525927281E+03  0.87525927282E+03  0.50400001928E-02 0. -1.
    10030    2    1    2    0    0  0.00000000000E+00  0.00000000000E+00  0.16819073192E+04  0.34324258649E+04  0.29921121449E+04 0.  0.
        4    1    3    3  502    0 -0.28609911381E+03 -0.56993988207E+03  0.23934354748E+04  0.24769374552E+04  0.12699999809E+01 0.  1.
       -4    1    3    3    0  502  0.28609911381E+03  0.56993988207E+03 -0.71152815552E+03  0.95548840971E+03  0.12699999809E+01 0. -1.
</event>
<event>
 5   0  0.1635086E-06  0.2995383E+04  0.7818609E-02  0.8245050E-01
       -2   -1    0    0    0  501  0.00000000000E+00  0.00000000000E+00  0.94771634290E+03  0.94771634290E+03  0.25500000920E-02 0.  1.
        2   -1    0    0  501    0  0.00000000000E+00  0.00000000000E+00 -0.23668268286E+04  0.23668268286E+04  0.25500000920E-02 0. -1.
    10030    2    1    2    0    0  0.00000000000E+00  0.00000000000E+00 -0.14191104857E+04  0.33145431715E+04  0.29953834254E+04 0.  0.
        3    1    3    3  502    0 -0.12668349155E+04  0.79524655153E+03 -0.79377439107E+03  0.16933297302E+04  0.10100000352E+00 0.  1.
       -3    1    3    3    0  502  0.12668349155E+04 -0.79524655153E+03 -0.62533609462E+03  0.16212134413E+04  0.10100000352E+00 0. -1.
</event>
<event>
 5   0  0.1560174E-06  0.3006834E+04  0.7818609E-02  0.8241782E-01
       -2   -1    0    0    0  501  0.00000000000E+00  0.00000000000E+00  0.10443265287E+04  0.10443265287E+04  0.25500000920E-02 0. -1.
        2   -1    0    0  501    0  0.00000000000E+00  0.00000000000E+00 -0.21643250273E+04  0.21643250273E+04  0.25500000920E-02 0.  1.
    10030    2    1    2    0    0  0.00000000000E+00  0.00000000000E+00 -0.11199984985E+04  0.32086515560E+04  0.30068335789E+04 0.  0.
        5    1    3    3  502    0 -0.11220105072E+04 -0.51863151240E+02 -0.16263945123E+04  0.19765572505E+04  0.46999998093E+01 0.  1.
       -5    1    3    3    0  502  0.11220105072E+04  0.51863151240E+02  0.50639601382E+03  0.12320943055E+04  0.46999998093E+01 0. -1.
</event>
<event>
 5   0  0.1674806E-06  0.3027219E+04  0.7818609E-02  0.8236001E-01
        2   -1    0    0  501    0  0.00000000000E+00  0.00000000000E+00  0.23450834619E+04  0.23450834619E+04  0.25500000920E-02 0.  1.
       -2   -1    0    0    0  501  0.00000000000E+00  0.00000000000E+00 -0.97694336781E+03  0.97694336781E+03  0.25500000920E-02 0. -1.
    10030    2    1    2    0    0  0.00000000000E+00  0.00000000000E+00  0.13681400941E+04  0.33220268297E+04  0.30272190109E+04 0.  0.
        2    1    3    3  502    0 -0.30136100518E+03 -0.10794322332E+04 -0.43236624127E+03  0.12012214484E+04  0.25500000920E-02 0. -1.
       -2    1    3    3    0  502  0.30136100518E+03  0.10794322332E+04  0.18005063353E+04  0.21208053812E+04  0.25500000920E-02 0.  1.
</event>
<event>
 5   0  0.5887179E-07  0.2998066E+04  0.7818609E-02  0.8244283E-01
       -1   -1    0    0    0  501  0.00000000000E+00  0.00000000000E+00  0.99786603281E+03  0.99786603282E+03  0.50400001928E-02 0. -1.
        1   -1    0    0  501    0  0.00000000000E+00  0.00000000000E+00 -0.22519055767E+04  0.22519055767E+04  0.50400001928E-02 0.  1.
    10030    2    1    2    0    0  0.00000000000E+00  0.00000000000E+00 -0.12540395439E+04  0.32497716095E+04  0.29980660994E+04 0.  0.
        3    1    3    3  502    0  0.99604556512E+03 -0.11048083655E+04 -0.82803963559E+03  0.17024564431E+04  0.10100000352E+00 0. -1.
       -3    1    3    3    0  502 -0.99604556512E+03  0.11048083655E+04 -0.42599990831E+03  0.15473151665E+04  0.10100000352E+00 0.  1.
</event>
<event>
 5   0  0.1674806E-06  0.2998491E+04  0.7818609E-02  0.8244162E-01
        2   -1    0    0  501    0  0.00000000000E+00  0.00000000000E+00  0.19037633208E+04  0.19037633208E+04  0.25500000920E-02 0. -1.
       -2   -1    0    0    0  501  0.00000000000E+00  0.00000000000E+00 -0.11806812830E+04  0.11806812830E+04  0.25500000920E-02 0.  1.
    10030    2    1    2    0    0  0.00000000000E+00  0.00000000000E+00  0.72308203784E+03  0.30844446037E+04  0.29984914341E+04 0.  0.
        2    1    3    3  502    0  0.10605722327E+04 -0.17784165935E+03  0.14361378710E+04  0.17941385401E+04  0.25500000920E-02 0. -1.
       -2    1    3    3    0  502 -0.10605722327E+04  0.17784165935E+03 -0.71305583317E+03  0.12903060636E+04  0.25500000920E-02 0.  1.
</event>
<event>
 5   0  0.5916703E-07  0.2997953E+04  0.7818609E-02  0.8244316E-01
        1   -1    0    0  501    0  0.00000000000E+00  0.00000000000E+00  0.19822538836E+04  0.19822538836E+04  0.50400001928E-02 0. -1.
       -1   -1    0    0    0  501  0.00000000000E+00  0.00000000000E+00 -0.11335230778E+04  0.11335230778E+04  0.50400001928E-02 0.  1.
    10030    2    1    2    0    0  0.00000000000E+00  0.00000000000E+00  0.84873080586E+03  0.31157769614E+04  0.29979529837E+04 0.  0.
        5    1    3    3  502    0  0.13437211933E+04 -0.65447600805E+03  0.54278623711E+03  0.15901460560E+04  0.46999998093E+01 0. -1.
       -5    1    3    3    0  502 -0.13437211933E+04  0.65447600805E+03  0.30594456875E+03  0.15256309054E+04  0.46999998093E+01 0.  1.
</event>
<event>
 5   0  0.5874741E-07  0.3012539E+04  0.7818609E-02  0.8240159E-01
        1   -1    0    0  501    0  0.00000000000E+00  0.00000000000E+00  0.20748896098E+04  0.20748896098E+04  0.50400001928E-02 0.  1.
       -1   -1    0    0    0  501  0.00000000000E+00  0.00000000000E+00 -0.10934785776E+04  0.10934785776E+04  0.50400001928E-02 0. -1.
    10030    2    1    2    0    0  0.00000000000E+00  0.00000000000E+00  0.98141103213E+03  0.31683681874E+04  0.30125386897E+04 0.  0.
        4    1    3    3  502    0 -0.14877163470E+04 -0.18793170762E+03  0.64028560928E+03  0.16305169518E+04  0.12699999809E+01 0.  1.
       -4    1    3    3    0  502  0.14877163470E+04  0.18793170762E+03  0.34112542285E+03  0.15378512356E+04  0.12699999809E+01 0. -1.
</event>
<event>
 5   0  0.1635086E-06  0.2978054E+04  0.7818609E-02  0.8250025E-01
        2   -1    0    0  501    0  0.00000000000E+00  0.00000000000E+00  0.18740192801E+04  0.18740192801E+04  0.25500000920E-02 0.  1.
       -2   -1    0    0    0  501  0.00000000000E+00  0.00000000000E+00 -0.11831266268E+04  0.11831266268E+04  0.25500000920E-02 0. -1.
    10030    2    1    2    0    0  0.00000000000E+00  0.00000000000E+00  0.69089265329E+03  0.30571459070E+04  0.29780544720E+04 0.  0.
        3    1    3    3  502    0 -0.11580377186E+03 -0.31741878751E+03  0.18341455977E+04  0.18650081190E+04  0.10100000352E+00 0.  1.
       -3    1    3    3    0  502  0.11580377186E+03  0.31741878751E+03 -0.11432529444E+04  0.11921377879E+04  0.10100000352E+00 0. -1.
</event>
<event>
 5   0  0.5887179E-07  0.3010187E+04  0.7818609E-02  0.8240828E-01
        1   -1    0    0  501    0  0.00000000000E+00  0.00000000000E+00  0.14638545359E+04  0.14638545359E+04  0.50400001928E-02 0.  1.
       -1   -1    0    0    0  501  0.00000000000E+00  0.00000000000E+00 -0.15474937356E+04  0.15474937356E+04  0.50400001928E-02 0. -1.
    10030    2    1    2    0    0  0.00000000000E+00  0.00000000000E+00 -0.83639199716E+02  0.30113482715E+04  0.30101865219E+04 0.  0.
        3    1    3    3  502    0  0.49664842165E+03  0.14081102696E+04  0.14765129936E+03  0.15004116444E+04  0.10100000352E+00 0.  1.
       -3    1    3    3    0  502 -0.49664842165E+03 -0.14081102696E+04 -0.23129049907E+03  0.15109366272E+04  0.10100000352E+00 0. -1.
</event>
<event>
 5   0  0.5931588E-07  0.3025442E+04  0.7818609E-02  0.8236503E-01
        1   -1    0    0  501    0  0.00000000000E+00  0.00000000000E+00  0.13304141402E+04  0.13304141402E+04  0.50400001928E-02 0. -1.
       -1   -1    0    0    0  501  0.00000000000E+00  0.00000000000E+00 -0.17200088609E+04  0.17200088609E+04  0.50400001928E-02 0.  1.
    10030    2    1    2    0    0  0.00000000000E+00  0.00000000000E+00 -0.38959472071E+03  0.30504230012E+04  0.30254415280E+04 0.  0.
        2    1    3    3  502    0 -0.26300373612E+03 -0.10772568901E+04 -0.12322105317E+04  0.16577081067E+04  0.25500000920E-02 0.  1.
       -2    1    3    3    0  502  0.26300373612E+03  0.10772568901E+04  0.84261581101E+03  0.13927148945E+04  0.25500000920E-02 0. -1.
</event>
<event>
 5   0  0.5931588E-07  0.2951557E+04  0.7818609E-02  0.8257701E-01
       -1   -1    0    0    0  501  0.00000000000E+00  0.00000000000E+00  0.93164286632E+03  0.93164286633E+03  0.50400001928E-02 0. -1.
        1   -1    0    0  501    0  0.00000000000E+00  0.00000000000E+00 -0.23377229083E+04  0.23377229083E+04  0.50400001928E-02 0.  1.
    10030    2    1    2    0    0  0.00000000000E+00  0.00000000000E+00 -0.14060800420E+04  0.32693657746E+04  0.29515574675E+04 0.  0.
        2    1    3    3  502    0 -0.25674872048E+03 -0.10066434146E+04 -0.18640776543E+04  0.21340188310E+04  0.25500000920E-02 0.  1.
       -2    1    3    3    0  502  0.25674872048E+03  0.10066434146E+04  0.45799761230E+03  0.11353469437E+04  0.25500000920E-02 0. -1.
</event>
<event>
 5   0  0.1625212E-06  0.2992127E+04  0.7818609E-02  0.8245983E-01
        2   -1    0    0  501    0  0.00000000000E+00  0.00000000000E+00  0.99716504375E+03  0.99716504376E+03  0.25500000920E-02 0.  1.
       -2   -1    0    0    0  501  0.00000000000E+00  0.00000000000E+00 -0.22445698020E+04  0.22445698020E+04  0.25500000920E-02 0. -1.
    10030    2    1    2    0    0  0.00000000000E+00  0.00000000000E+00 -0.12474047583E+04  0.32417348458E+04  0.29921273668E+04 0.  0.
        4    1    3    3  502    0 -0.67134915756E+03  0.73525315249E+03  0.58609568302E+03  0.11553426557E+04  0.12699999809E+01 0.  1.
       -4    1    3    3    0  502  0.67134915756E+03 -0.73525315249E+03 -0.18335004413E+04  0.20863921901E+04  0.12699999809E+01 0. -1.
</event>
<event>
 5   0  0.6291798E-07  0.3001888E+04  0.7818609E-02  0.8243192E-01
        1   -1    0    0  501    0  0.00000000000E+00  0.00000000000E+00  0.17134508832E+04  0.17134508832E+04  0.50400001928E-02 0. -1.
       -1   -1    0    0    0  501  0.00000000000E+00  0.00000000000E+00 -0.13147931609E+04  0.13147931609E+04  0.50400001928E-02 0.  1.
    10030    2    1    2    0    0  0.00000000000E+00  0.00000000000E+00  0.39865772233E+03  0.30282440441E+04  0.30018884075E+04 0.  0.
        1    1    3    3  502    0  0.92273845175E+03  0.50128385183E+03 -0.88251468997E+03  0.13717011076E+04  0.50400001928E-02 0.  1.
       -1    1    3    3    0  502 -0.92273845175E+03 -0.50128385183E+03  0.12811724123E+04  0.16565429365E+04  0.50400001928E-02 0. -1.
</event>
<event>
 5   0  0.6291798E-07  0.2999601E+04  0.7818609E-02  0.8243845E-01
        1   -1    0    0  501    0  0.00000000000E+00  0.00000000000E+00  0.25507605007E+04  0.25507605008E+04  0.50400001928E-02 0.  1.
       -1   -1    0    0    0  501  0.00000000000E+00  0.00000000000E+00 -0.88185529736E+03  0.88185529737E+03  0.50400001928E-02 0. -1.
    10030    2    1    2    0    0  0.00000000000E+00  0.00000000000E+00  0.16689052034E+04  0.34326157981E+04  0.29996010801E+04 0.  0.
        1    1    3    3  502    0 -0.19918749728E+03  0.32565697622E+03 -0.82532869833E+03  0.90933799302E+03  0.50400001928E-02 0. -1.
       -1    1    3    3    0  502  0.19918749728E+03 -0.32565697622E+03  0.24942339017E+04  0.25232778051E+04  0.50400001928E-02 0.  1.
</event>
<event>
 5   0  0.1560174E-06  0.2996340E+04  0.7818609E-02  0.8244777E-01
       -2   -1    0    0    0  501  0.00000000000E+00  0.00000000000E+00  0.12113293515E+04  0.12113293515E+04  0.25500000920E-02 0.  1.
        2   -1    0    0  501    0  0.00000000000E+00  0.00000000000E+00 -0.18529339772E+04  0.18529339772E+04  0.25500000920E-02 0. -1.
    10030    2    1    2    0    0  0.00000000000E+00  0.00000000000E+00 -0.64160462576E+03  0.30642633287E+04  0.29963399760E+04 0.  0.
        5    1    3    3  502    0  0.68224867528E+03 -0.53535477346E+03  0.92853869742E+03  0.12705409049E+04  0.46999998093E+01 0.  1.
       -5    1    3    3    0  502 -0.68224867528E+03  0.53535477346E+03 -0.15701433232E+04  0.17937224238E+04  0.46999998093E+01 0. -1.
</event>
<event>
 5   0  0.1723916E-06  0.3008916E+04  0.7818609E-02  0.8241190E-01
       -2   -1    0    0    0  501  0.00000000000E+00  0.00000000000E+00  0.26902217968E+04  0.26902217968E+04  0.25500000920E-02 0. -1.
        2   -1    0    0  501    0  0.00000000000E+00  0.00000000000E+00 -0.84134077807E+03  0.84134077807E+03  0.25500000920E-02 0.  1.
    10030    2    1    2    0    0  0.00000000000E+00  0.00000000000E+00  0.18488810187E+04  0.35315625749E+04  0.30089156184E+04 0.  0.
        1    1    3    3  502    0 -0.98989984882E+03 -0.91862240065E+03  0.17026523386E+04  0.21731989812E+04  0.50400001928E-02 0.  1.
       -1    1    3    3    0  502  0.98989984882E+03  0.91862240065E+03  0.14622868009E+03  0.13583635937E+04  0.50400001928E-02 0. -1.
</event>
<event>
 5   0  0.1723916E-06  0.2994062E+04  0.7818609E-02  0.8245428E-01
       -2   -1    0    0    0  501  0.00000000000E+00  0.00000000000E+00  0.11321867826E+04  0.11321867826E+04  0.25500000920E-02 0. -1.
        2   -1    0    0  501    0  0.00000000000E+00  0.00000000000E+00 -0.19794457766E+04  0.19794457766E+04  0.25500000920E-02 0.  1.
    10030    2    1    2    0    0  0.00000000000E+00  0.00000000000E+00 -0.84725899394E+03  0.31116325592E+04  0.29940623542E+04 0.  0.
        1    1    3    3  502    0  0.15585061542E+03 -0.25245224047E+03 -0.19485866109E+04  0.19710432081E+04  0.50400001928E-02 0.  1.
       -1    1    3    3    0  502 -0.15585061542E+03  0.25245224047E+03  0.11013276169E+04  0.11405893511E+04  0.50400001928E-02 0. -1.
</event>
<event>
 5   0  0.5887179E-07  0.3007257E+04  0.7818609E-02  0.8241662E-01
       -1   -1    0    0    0  501  0.00000000000E+00  0.00000000000E+00  0.12375544131E+04  0.12375544131E+04  0.50400001928E-02 0. -1.
        1   -1    0    0  501    0  0.00000000000E+00  0.00000000000E+00 -0.18269082986E+04  0.18269082986E+04  0.50400001928E-02 0.  1.
    10030    2    1    2    0    0  0.00000000000E+00  0.00000000000E+00 -0.58935388548E+03  0.30644627117E+04  0.30072568412E+04 0.  0.
        3    1    3    3  502    0  0.42433933224E+03 -0.98514184600E+03 -0.13684435026E+04  0.17387368851E+04  0.10100000352E+00 0.  1.
       -3    1    3    3    0  502 -0.42433933224E+03  0.98514184600E+03  0.77908961711E+03  0.13257258266E+04  0.10100000352E+00 0. -1.
</event>
<event>
 5   0  0.1560174E-06  0.3006458E+04  0.7818609E-02  0.8241889E-01
        2   -1    0    0  501    0  0.00000000000E+00  0.00000000000E+00  0.15534654244E+04  0.15534654244E+04  0.25500000920E-02 0.  1.
       -2   -1    0    0    0  501  0.00000000000E+00  0.00000000000E+00 -0.14546168069E+04  0.14546168069E+04  0.25500000920E-02 0. -1.
    10030    2    1    2    0    0  0.00000000000E+00  0.00000000000E+00  0.98848617449E+02  0.30080822313E+04  0.30064576600E+04 0.  0.
        5    1    3    3  502    0  0.29568369600E+03  0.11901695664E+04  0.91922850960E+03  0.15326237594E+04  0.46999998093E+01 0.  1.
       -5    1    3    3    0  502 -0.29568369600E+03 -0.11901695664E+04 -0.82037989215E+03  0.14754584719E+04  0.46999998093E+01 0. -1.
</event>
<event>
 5   0  0.1674806E-06  0.2955605E+04  0.7818609E-02  0.8256523E-01
       -2   -1    0    0    0  501  0.00000000000E+00  0.00000000000E+00  0.12248050445E+04  0.12248050446E+04  0.25500000920E-02 0.  1.
        2   -1    0    0  501    0  0.00000000000E+00  0.00000000000E+00 -0.17830589859E+04  0.17830589859E+04  0.25500000920E-02 0. -1.
    10030    2    1    2    0    0  0.00000000000E+00  0.00000000000E+00 -0.55825394134E+03  0.30078640304E+04  0.29556046019E+04 0.  0.
        2    1    3    3  502    0  0.13748982880E+04 -0.38182979425E+03 -0.67031973786E+03  0.15765366615E+04  0.25500000920E-02 0. -1.
       -2    1    3    3    0  502 -0.13748982880E+04  0.38182979425E+03  0.11206579652E+03  0.14313273689E+04  0.25500000920E-02 0.  1.
</event>
<event>
 5   0  0.5916703E-07  0.2998170E+04  0.7818609E-02  0.8244254E-01
        1   -1    0    0  501    0  0.00000000000E+00  0.00000000000E+00  0.10670535738E+04  0.10670535738E+04  0.50400001928E-02 0. -1.
       -1   -1    0    0    0  501  0.00000000000E+00  0.00000000000E+00 -0.21060379596E+04  0.21060379596E+04  0.50400001928E-02 0.  1.
    10030    2    1    2    0    0  0.00000000000E+00  0.00000000000E+00 -0.10389843858E+04  0.31730915335E+04  0.29981696626E+04 0.  0.
        5    1    3    3  502    0  0.11515182890E+04  0.83247879019E+03 -0.13898926812E+02  0.14209963322E+04  0.46999998093E+01 0. -1.
       -5    1    3    3    0  502 -0.11515182890E+04 -0.83247879019E+03 -0.10250854590E+04  0.17520952013E+04  0.46999998093E+01 0.  1.
</event>
<event>
 5   0  0.1723916E-06  0.3002737E+04  0.7818609E-02  0.8242950E-01
       -2   -1    0    0    0  501  0.00000000000E+00  0.00000000000E+00  0.92542388146E+03  0.92542388146E+03  0.25500000920E-02 0.  1.
        2   -1    0    0  501    0  0.00000000000E+00  0.00000000000E+00 -0.24357570251E+04  0.24357570251E+04  0.25500000920E-02 0. -1.
    10030    2    1    2    0    0  0.00000000000E+00  0.00000000000E+00 -0.15103331436E+04  0.33611809065E+04  0.30027372315E+04 0.  0.
        1    1    3    3  502    0  0.80059590061E+03  0.96598013798E+03  0.16791611600E+03  0.12658069541E+04  0.50400001928E-02 0.  1.
       -1    1    3    3    0  502 -0.80059590061E+03 -0.96598013798E+03 -0.16782492596E+04  0.20953739524E+04  0.50400001928E-02 0. -1.
</event>
<event>
 5   0  0.1625212E-06  0.2987476E+04  0.7818609E-02  0.8247316E-01
        2   -1    0    0  501    0  0.00000000000E+00  0.00000000000E+00  0.27896582764E+04  0.27896582764E+04  0.25500000920E-02 0. -1.
       -2   -1    0    0    0  501  0.00000000000E+00  0.00000000000E+00 -0.79983056110E+03  0.79983056111E+03  0.25500000920E-02 0.  1.
    10030    2    1    2    0    0  0.00000000000E+00  0.00000000000E+00  0.19898277153E+04  0.35894888375E+04  0.29874764899E+04 0.  0.
        4    1    3    3  502    0 -0.14091565596E+04  0.41944269096E+03  0.67793788869E+03  0.16190292691E+04  0.12699999809E+01 0.  1.
       -4    1    3    3    0  502  0.14091565596E+04 -0.41944269096E+03  0.13118898266E+04  0.19704595683E+04  0.12699999809E+01 0. -1.
</event>
<event>
 5   0  0.1723916E-06  0.3001873E+04  0.7818609E-02  0.8243196E-01
       -2   -1    0    0    0  501  0.00000000000E+00  0.00000000000E+00  0.84432058640E+03  0.84432058641E+03  0.25500000920E-02 0. -1.
        2   -1    0    0  501    0  0.00000000000E+00  0.00000000000E+00 -0.26681936930E+04  0.26681936930E+04  0.25500000920E-02 0.  1.
    10030    2    1    2    0    0  0.00000000000E+00  0.00000000000E+00 -0.18238731066E+04  0.35125142794E+04  0.30018733241E+04 0.  0.
        1    1    3    3  502    0 -0.72144615189E+03 -0.74357540856E+03 -0.21826871884E+04  0.24160944312E+04  0.50400001928E-02 0.  1.
       -1    1    3    3    0  502  0.72144615189E+03  0.74357540856E+03  0.35881408174E+03  0.10964198482E+04  0.50400001928E-02 0. -1.
</event>
<event>
 5   0  0.1674806E-06  0.3181498E+04  0.7818609E-02  0.8193721E-01
        2   -1    0    0  501    0  0.00000000000E+00  0.00000000000E+00  0.20728998325E+04  0.20728998325E+04  0.25500000920E-02 0. -1.
       -2   -1    0    0    0  501  0.00000000000E+00  0.00000000000E+00 -0.12207450614E+04  0.12207450614E+04  0.25500000920E-02 0.  1.
    10030    2    1    2    0    0  0.00000000000E+00  0.00000000000E+00  0.85215477109E+03  0.32936448938E+04  0.31814979071E+04 0.  0.
        2    1    3    3  502    0  0.12426869153E+04 -0.97923113629E+03  0.25497015786E+03  0.16025523920E+04  0.25500000920E-02 0.  1.
       -2    1    3    3    0  502 -0.12426869153E+04  0.97923113629E+03  0.59718461323E+03  0.16910925019E+04  0.25500000920E-02 0. -1.
</event>
<event>
 5   0  0.5931588E-07  0.3097338E+04  0.7818609E-02  0.8216469E-01
       -1   -1    0    0    0  501  0.00000000000E+00  0.00000000000E+00  0.11118736627E+04  0.11118736627E+04  0.50400001928E-02 0. -1.
        1   -1    0    0  501    0  0.00000000000E+00  0.00000000000E+00 -0.21570581096E+04  0.21570581096E+04  0.50400001928E-02 0.  1.
    10030    2    1    2    0    0  0.00000000000E+00  0.00000000000E+00 -0.10451844469E+04  0.32689317723E+04  0.30973382773E+04 0.  0.
        2    1    3    3  502    0  0.65396879513E+02  0.41998596090E+03  0.10491079672E+04  0.11319419093E+04  0.25500000920E-02 0. -1.
       -2    1    3    3    0  502 -0.65396879513E+02 -0.41998596090E+03 -0.20942924141E+04  0.21369898631E+04  0.25500000920E-02 0.  1.
</event>
<event>
 5   0  0.5931588E-07  0.3000371E+04  0.7818609E-02  0.8243625E-01
       -1   -1    0    0    0  501  0.00000000000E+00  0.00000000000E+00  0.92736296247E+03  0.92736296249E+03  0.50400001928E-02 0. -1.
        1   -1    0    0  501    0  0.00000000000E+00  0.00000000000E+00 -0.24268347501E+04  0.24268347501E+04  0.50400001928E-02 0.  1.
    10030    2    1    2    0    0  0.00000000000E+00  0.00000000000E+00 -0.14994717876E+04  0.33541977126E+04  0.30003710859E+04 0.  0.
        2    1    3    3  502    0 -0.26028084877E+03 -0.42883539599E+03 -0.23302937153E+04  0.23836767223E+04  0.25500000920E-02 0.  1.
       -2    1    3    3    0  502  0.26028084877E+03  0.42883539599E+03  0.83082192765E+03  0.97052099027E+03  0.25500000920E-02 0. -1.
</event>
<event>
 5   0  0.1723916E-06  0.3002069E+04  0.7818609E-02  0.8243140E-01
       -2   -1    0    0    0  501  0.00000000000E+00  0.00000000000E+00  0.20618696189E+04  0.20618696189E+04  0.25500000920E-02 0.  1.
        2   -1    0    0  501    0  0.00000000000E+00  0.00000000000E+00 -0.10927484427E+04  0.10927484427E+04  0.25500000920E-02 0. -1.
    10030    2    1    2    0    0  0.00000000000E+00  0.00000000000E+00  0.96912117617E+03  0.31546180616E+04  0.30020691632E+04 0.  0.
        1    1    3    3  502    0  0.13732397945E+03  0.13617544422E+04 -0.16309573104E+03  0.13783443886E+04  0.50400001928E-02 0. -1.
       -1    1    3    3    0  502 -0.13732397945E+03 -0.13617544422E+04  0.11322169072E+04  0.17762736729E+04  0.50400001928E-02 0.  1.
</event>
<event>
 5   0  0.6291798E-07  0.2983982E+04  0.7818609E-02  0.8248320E-01
       -1   -1    0    0    0  501  0.00000000000E+00  0.00000000000E+00  0.14685997707E+04  0.14685997707E+04  0.50400001928E-02 0. -1.
        1   -1    0    0  501    0  0.00000000000E+00  0.00000000000E+00 -0.15157548721E+04  0.15157548721E+04  0.50400001928E-02 0.  1.
    10030    2    1    2    0    0  0.00000000000E+00  0.00000000000E+00 -0.47155101415E+02  0.29843546429E+04  0.29839820761E+04 0.  0.
        1    1    3    3  502    0 -0.39350811131E+03 -0.77171886007E+03  0.11913327881E+04  0.14729808026E+04  0.50400001928E-02 0. -1.
       -1    1    3    3    0  502  0.39350811131E+03  0.77171886007E+03 -0.12384878895E+04  0.15113738403E+04  0.50400001928E-02 0.  1.
</event>
<event>
 5   0  0.5916703E-07  0.2962760E+04  0.7818609E-02  0.8254446E-01
        1   -1    0    0  501    0  0.00000000000E+00  0.00000000000E+00  0.16610915022E+04  0.16610915022E+04  0.50400001928E-02 0. -1.
       -1   -1    0    0    0  501  0.00000000000E+00  0.00000000000E+00 -0.13211110524E+04  0.13211110524E+04  0.50400001928E-02 0.  1.
    10030    2    1    2    0    0  0.00000000000E+00  0.00000000000E+00  0.33998044986E+03  0.29822025546E+04  0.29627597557E+04 0.  0.
        5    1    3    3  502    0 -0.63762720716E+03  0.52871093057E+03  0.14062031602E+04  0.16320334313E+04  0.46999998093E+01 0. -1.
       -5    1    3    3    0  502  0.63762720716E+03 -0.52871093057E+03 -0.10662227103E+04  0.13501691232E+04  0.46999998093E+01 0.  1.
</event>
<event>
 5   0  0.1635086E-06  0.3001613E+04  0.7818609E-02  0.8243270E-01
        2   -1    0    0  501    0  0.00000000000E+00  0.00000000000E+00  0.21895883051E+04  0.21895883051E+04  0.25500000920E-02 0.  1.
       -2   -1    0    0    0  501  0.00000000000E+00  0.00000000000E+00 -0.10286957111E+04  0.10286957111E+04  0.25500000920E-02 0. -1.
    10030    2    1    2    0    0  0.00000000000E+00  0.00000000000E+00  0.11608925940E+04  0.32182840163E+04  0.30016129655E+04 0.  0.
        3    1    3    3  502    0  0.48316729274E+03 -0.45153075218E+03 -0.86405750804E+03  0.10880836550E+04  0.10100000352E+00 0. -1.
       -3    1    3    3    0  502 -0.48316729274E+03  0.45153075218E+03  0.20249501021E+04  0.21302003612E+04  0.10100000352E+00 0.  1.
</event>
<event>
 5   0  0.5874741E-07  0.2993523E+04  0.7818609E-02  0.8245583E-01
       -1   -1    0    0    0  501  0.00000000000E+00  0.00000000000E+00  0.17510898445E+04  0.17510898445E+04  0.50400001928E-02 0. -1.
        1   -1    0    0  501    0  0.00000000000E+00  0.00000000000E+00 -0.12793714885E+04  0.12793714885E+04  0.50400001928E-02 0.  1.
    10030    2    1    2    0    0  0.00000000000E+00  0.00000000000E+00  0.47171835605E+03  0.30304613330E+04  0.29935226212E+04 0.  0.
        4    1    3    3  502    0 -0.98900074701E+03  0.10226883486E+04  0.70665570527E+03  0.15885143482E+04  0.12699999809E+01 0. -1.
       -4    1    3    3    0  502  0.98900074701E+03 -0.10226883486E+04 -0.23493734922E+03  0.14419469848E+04  0.12699999809E+01 0.  1.
</event>
<event>
 5   0  0.1674806E-06  0.2999212E+04  0.7818609E-02  0.8243956E-01
       -2   -1    0    0    0  501  0.00000000000E+00  0.00000000000E+00  0.13819203927E+04  0.13819203927E+04  0.25500000920E-02 0.  1.
        2   -1    0    0  501    0  0.00000000000E+00  0.00000000000E+00 -0.16273140943E+04  0.16273140943E+04  0.25500000920E-02 0. -1.
    10030    2    1    2    0    0  0.00000000000E+00  0.00000000000E+00 -0.24539370161E+03  0.30092344869E+04  0.29992122513E+04 0.  0.
        2    1    3    3  502    0 -0.11866380517E+04  0.44719150616E+03  0.68043310318E+03  0.14391244967E+04  0.25500000920E-02 0.  1.
       -2    1    3    3    0  502  0.11866380517E+04 -0.44719150616E+03 -0.92582680479E+03  0.15701099903E+04  0.25500000920E-02 0. -1.
</event>
<event>
 5   0  0.5874741E-07  0.2997031E+04  0.7818609E-02  0.8244579E-01
       -1   -1    0    0    0  501  0.00000000000E+00  0.00000000000E+00  0.10656741317E+04  0.10656741317E+04  0.50400001928E-02 0.  1.
        1   -1    0    0  501    0  0.00000000000E+00  0.00000000000E+00 -0.21071626918E+04  0.21071626918E+04  0.50400001928E-02 0. -1.
    10030    2    1    2    0    0  0.00000000000E+00  0.00000000000E+00 -0.10414885600E+04  0.31728368235E+04  0.29970310456E+04 0.  0.
        4    1    3    3  502    0  0.46914893248E+03 -0.10136708008E+04 -0.15783015910E+04  0.19335632233E+04  0.12699999809E+01 0. -1.
       -4    1    3    3    0  502 -0.46914893248E+03  0.10136708008E+04  0.53681303099E+03  0.12392736003E+04  0.12699999809E+01 0.  1.
</event>
<event>
 5   0  0.6291798E-07  0.2980745E+04  0.7818609E-02  0.8249251E-01
        1   -1    0    0  501    0  0.00000000000E+00  0.00000000000E+00  0.87677502872E+03  0.87677502873E+03  0.50400001928E-02 0. -1.
       -1   -1    0    0    0  501  0.00000000000E+00  0.00000000000E+00 -0.25333863904E+04  0.25333863904E+04  0.50400001928E-02 0.  1.
    10030    2    1    2    0    0  0.00000000000E+00  0.00000000000E+00 -0.16566113616E+04  0.34101614191E+04  0.29807448232E+04 0.  0.
        1    1    3    3  502    0  0.37126433902E+03 -0.13135735882E+04 -0.14387533812E+03  0.13725934919E+04  0.50400001928E-02 0. -1.
       -1    1    3    3    0  502 -0.37126433902E+03  0.13135735882E+04 -0.15127360235E+04  0.20375679272E+04  0.50400001928E-02 0.  1.
</event>
<event>
 5   0  0.1560174E-06  0.3003022E+04  0.7818609E-02  0.8242868E-01
        2   -1    0    0  501    0  0.00000000000E+00  0.00000000000E+00  0.28162851544E+04  0.28162851544E+04  0.25500000920E-02 0.  1.
       -2   -1    0    0    0  501  0.00000000000E+00  0.00000000000E+00 -0.80053521141E+03  0.80053521141E+03  0.25500000920E-02 0. -1.
    10030    2    1    2    0    0  0.00000000000E+00  0.00000000000E+00  0.20157499430E+04  0.36168203658E+04  0.30030220988E+04 0.  0.
        5    1    3    3  502    0 -0.72835578061E+03 -0.17292102678E+03  0.25754890402E+04  0.26820830917E+04  0.46999998093E+01 0.  1.
       -5    1    3    3    0  502  0.72835578061E+03  0.17292102678E+03 -0.55973909721E+03  0.93473727410E+03  0.46999998093E+01 0. -1.
</event>
<event>
 5   0  0.5887179E-07  0.3015603E+04  0.7818609E-02  0.8239289E-01
       -1   -1    0    0    0  501  0.00000000000E+00  0.00000000000E+00  0.15997434127E+04  0.15997434127E+04  0.50400001928E-02 0. -1.
        1   -1    0    0  501    0  0.00000000000E+00  0.00000000000E+00 -0.14211437121E+04  0.14211437121E+04  0.50400001928E-02 0.  1.
    10030    2    1    2    0    0  0.00000000000E+00  0.00000000000E+00  0.17859970057E+03  0.30208871248E+04  0.30156029526E+04 0.  0.
        3    1    3    3  502    0 -0.59454899277E+03 -0.18754707443E+03 -0.12859870482E+04  0.14291343913E+04  0.10100000352E+00 0.  1.
       -3    1    3    3    0  502  0.59454899277E+03  0.18754707443E+03  0.14645867488E+04  0.15917527336E+04  0.10100000352E+00 0. -1.
</event>
<event>
 5   0  0.5887179E-07  0.3000298E+04  0.7818609E-02  0.8243646E-01
        1   -1    0    0  501    0  0.00000000000E+00  0.00000000000E+00  0.26588623296E+04  0.26588623296E+04  0.50400001928E-02 0.  1.
       -1   -1    0    0    0  501  0.00000000000E+00  0.00000000000E+00 -0.84639481980E+03  0.84639481982E+03  0.50400001928E-02 0. -1.
    10030    2    1    2    0    0  0.00000000000E+00  0.00000000000E+00  0.18124675098E+04  0.35052571494E+04  0.30002981867E+04 0.  0.
        3    1    3    3  502    0  0.17014877259E+03 -0.89180984931E+03 -0.48898208715E+03  0.10312026493E+04  0.10100000352E+00 0. -1.
       -3    1    3    3    0  502 -0.17014877259E+03  0.89180984931E+03  0.23014495969E+04  0.24740545001E+04  0.10100000352E+00 0.  1.
</event>
<event>
 5   0  0.1674806E-06  0.2981310E+04  0.7818609E-02  0.8249088E-01
       -2   -1    0    0    0  501  0.00000000000E+00  0.00000000000E+00  0.11273472360E+04  0.11273472360E+04  0.25500000920E-02 0.  1.
        2   -1    0    0  501    0  0.00000000000E+00  0.00000000000E+00 -0.19710457486E+04  0.19710457486E+04  0.25500000920E-02 0. -1.
    10030    2    1    2    0    0  0.00000000000E+00  0.00000000000E+00 -0.84369851265E+03  0.30983929846E+04  0.29813104345E+04 0.  0.
        2    1    3    3  502    0 -0.98652615707E+03  0.11105079065E+04 -0.29208037180E+03  0.15138601694E+04  0.25500000920E-02 0. -1.
       -2    1    3    3    0  502  0.98652615707E+03 -0.11105079065E+04 -0.55161814086E+03  0.15845328152E+04  0.25500000920E-02 0.  1.
</event>
<event>
 5   0  0.1625212E-06  0.3015141E+04  0.7818609E-02  0.8239420E-01
        2   -1    0    0  501    0  0.00000000000E+00  0.00000000000E+00  0.19765583379E+04  0.19765583379E+04  0.25500000920E-02 0. -1.
       -2   -1    0    0    0  501  0.00000000000E+00  0.00000000000E+00 -0.11498619112E+04  0.11498619112E+04  0.25500000920E-02 0.  1.
    10030    2    1    2    0    0  0.00000000000E+00  0.00000000000E+00  0.82669642667E+03  0.31264202490E+04  0.30151412225E+04 0.  0.
        4    1    3    3  502    0 -0.43554745723E+03 -0.32386642388E+03  0.18717332988E+04  0.19488402199E+04  0.12699999809E+01 0. -1.
       -4    1    3    3    0  502  0.43554745723E+03  0.32386642388E+03 -0.10450368721E+04  0.11775800291E+04  0.12699999809E+01 0.  1.
</event>
<event>
 5   0  0.5887179E-07  0.2997973E+04  0.7818609E-02  0.8244310E-01
        1   -1    0    0  501    0  0.00000000000E+00  0.00000000000E+00  0.22376303261E+04  0.22376303261E+04  0.50400001928E-02 0.  1.
       -1   -1    0    0    0  501  0.00000000000E+00  0.00000000000E+00 -0.10041694851E+04  0.10041694852E+04  0.50400001928E-02 0. -1.
    10030    2    1    2    0    0  0.00000000000E+00  0.00000000000E+00  0.12334608409E+04  0.32417998112E+04  0.29979727100E+04 0.  0.
        3    1    3    3  502    0  0.66374457906E+03  0.58905834947E+03 -0.68958391744E+03  0.11238650251E+04  0.10100000352E+00 0. -1.
       -3    1    3    3    0  502 -0.66374457906E+03 -0.58905834947E+03  0.19230447584E+04  0.21179347861E+04  0.10100000352E+00 0.  1.
</event>
<event>
 5   0  0.1674806E-06  0.3000817E+04  0.7818609E-02  0.8243498E-01
       -2   -1    0    0    0  501  0.00000000000E+00  0.00000000000E+00  0.26238059503E+04  0.26238059503E+04  0.25500000920E-02 0.  1.
        2   -1    0    0  501    0  0.00000000000E+00  0.00000000000E+00 -0.85800012842E+03  0.85800012842E+03  0.25500000920E-02 0. -1.
    10030    2    1    2    0    0  0.00000000000E+00  0.00000000000E+00  0.17658058219E+04  0.34818060787E+04  0.30008171169E+04 0.  0.
        2    1    3    3  502    0 -0.22725420788E+03  0.14712048708E+04  0.66540701340E+03  0.16305995034E+04  0.25500000920E-02 0. -1.
       -2    1    3    3    0  502  0.22725420788E+03 -0.14712048708E+04  0.11003988085E+04  0.18512065754E+04  0.25500000920E-02 0.  1.
</event>
<event>
 5   0  0.1625212E-06  0.2974033E+04  0.7818609E-02  0.8251185E-01
        2   -1    0    0  501    0  0.00000000000E+00  0.00000000000E+00  0.17794243991E+04  0.17794243991E+04  0.25500000920E-02 0. -1.
       -2   -1    0    0    0  501  0.00000000000E+00  0.00000000000E+00 -0.12426593970E+04  0.12426593970E+04  0.25500000920E-02 0.  1.
    10030    2    1    2    0    0  0.00000000000E+00  0.00000000000E+00  0.53676500215E+03  0.30220837961E+04  0.29740332552E+04 0.  0.
        4    1    3    3  502    0 -0.14709496225E+04 -0.67856751801E+02  0.47889992450E+03  0.15484327822E+04  0.12699999809E+01 0.  1.
       -4    1    3    3    0  502  0.14709496225E+04  0.67856751801E+02  0.57865077651E+02  0.14736510139E+04  0.12699999809E+01 0. -1.
</event>
<event>
 5   0  0.1635086E-06  0.2998541E+04  0.7818609E-02  0.8244148E-01
       -2   -1    0    0    0  501  0.00000000000E+00  0.00000000000E+00  0.76365406573E+03  0.76365406573E+03  0.25500000920E-02 0. -1.
        2   -1    0    0  501    0  0.00000000000E+00  0.00000000000E+00 -0.29434954143E+04  0.29434954143E+04  0.25500000920E-02 0.  1.
    10030    2    1    2    0    0  0.00000000000E+00  0.00000000000E+00 -0.21798413486E+04  0.37071494800E+04  0.29985411390E+04 0.  0.
        3    1    3    3  502    0 -0.29742643338E+03 -0.93573908098E+03 -0.24906976082E+04  0.26772457296E+04  0.10100000352E+00 0.  1.
       -3    1    3    3    0  502  0.29742643338E+03  0.93573908098E+03  0.31085625958E+03  0.10299037505E+04  0.10100000352E+00 0. -1.
</event>
<event>
 5   0  0.5887179E-07  0.2987908E+04  0.7818609E-02  0.8247192E-01
       -1   -1    0    0    0  501  0.00000000000E+00  0.00000000000E+00  0.12137987862E+04  0.12137987862E+04  0.50400001928E-02 0.  1.
        1   -1    0    0  501    0  0.00000000000E+00  0.00000000000E+00 -0.18387719130E+04  0.18387719130E+04  0.50400001928E-02 0. -1.
    10030    2    1    2    0    0  0.00000000000E+00  0.00000000000E+00 -0.62497312679E+03  0.30525706991E+04  0.29879083761E+04 0.  0.
        3    1    3    3  502    0  0.12677458016E+04 -0.63261673225E+03  0.17159870882E+03  0.14271753482E+04  0.10100000352E+00 0. -1.
       -3    1    3    3    0  502 -0.12677458016E+04  0.63261673225E+03 -0.79657183561E+03  0.16253953510E+04  0.10100000352E+00 0.  1.
</event>
<event>
 5   0  0.1674806E-06  0.3004736E+04  0.7818609E-02  0.8242380E-01
       -2   -1    0    0    0  501  0.00000000000E+00  0.00000000000E+00  0.15830788894E+04  0.15830788894E+04  0.25500000920E-02 0. -1.
        2   -1    0    0  501    0  0.00000000000E+00  0.00000000000E+00 -0.14257720269E+04  0.14257720269E+04  0.25500000920E-02 0.  1.
    10030    2    1    2    0    0  0.00000000000E+00  0.00000000000E+00  0.15730686252E+03  0.30088509164E+04  0.30047359930E+04 0.  0.
        2    1    3    3  502    0  0.25415791034E+03 -0.18361686150E+03  0.15499505151E+04  0.15813468925E+04  0.25500000920E-02 0. -1.
       -2    1    3    3    0  502 -0.25415791034E+03  0.18361686150E+03 -0.13926436525E+04  0.14275040239E+04  0.25500000920E-02 0.  1.
</event>
<event>
 5   0  0.5431625E-07  0.2997136E+04  0.7818609E-02  0.8244549E-01
       -3   -1    0    0    0  501  0.00000000000E+00  0.00000000000E+00  0.17238885844E+04  0.17238885874E+04  0.10100000352E+00 0.  1.
        3   -1    0    0  501    0  0.00000000000E+00  0.00000000000E+00 -0.13026975180E+04  0.13026975219E+04  0.10100000352E+00 0. -1.
    10030    2    1    2    0    0  0.00000000000E+00  0.00000000000E+00  0.42119106643E+03  0.30265861092E+04  0.29971355595E+04 0.  0.
        4    1    3    3  502    0  0.44035069866E+03  0.99494642016E+03  0.12511952081E+04  0.16581068055E+04  0.12699999809E+01 0.  1.
       -4    1    3    3    0  502 -0.44035069866E+03 -0.99494642016E+03 -0.83000414163E+03  0.13684793038E+04  0.12699999809E+01 0. -1.
</event>
<event>
 5   0  0.5874741E-07  0.3001796E+04  0.7818609E-02  0.8243218E-01
       -1   -1    0    0    0  501  0.00000000000E+00  0.00000000000E+00  0.11179458160E+04  0.11179458160E+04  0.50400001928E-02 0.  1.
        1   -1    0    0  501    0  0.00000000000E+00  0.00000000000E+00 -0.20150302604E+04  0.20150302604E+04  0.50400001928E-02 0. -1.
    10030    2    1    2    0    0  0.00000000000E+00  0.00000000000E+00 -0.89708444437E+03  0.31329760764E+04  0.30017958950E+04 0.  0.
        4    1    3    3  502    0  0.30516985462E+03 -0.13676256772E+04 -0.10097818573E+04  0.17271912590E+04  0.12699999809E+01 0. -1.
       -4    1    3    3    0  502 -0.30516985462E+03  0.13676256772E+04  0.11269741289E+03  0.14057848174E+04  0.12699999809E+01 0.  1.
</event>
<event>
 5   0  0.1674806E-06  0.3004267E+04  0.7818609E-02  0.8242513E-01
       -2   -1    0    0    0  501  0.00000000000E+00  0.00000000000E+00  0.18434113152E+04  0.18434113152E+04  0.25500000920E-02 0. -1.
        2   -1    0    0  501    0  0.00000000000E+00  0.00000000000E+00 -0.12240377905E+04  0.12240377905E+04  0.25500000920E-02 0.  1.
    10030    2    1    2    0    0  0.00000000000E+00  0.00000000000E+00  0.61937352466E+03  0.30674491058E+04  0.30042670410E+04 0.  0.
        2    1    3    3  502    0  0.33191092581E+03  0.80147956757E+03 -0.94242786549E+03  0.12808999343E+04  0.25500000920E-02 0.  1.
       -2    1    3    3    0  502 -0.33191092581E+03 -0.80147956757E+03  0.15618013902E+04  0.17865491715E+04  0.25500000920E-02 0. -1.
</event>
<event>
 5   0  0.5916703E-07  0.3007906E+04  0.7818609E-02  0.8241477E-01
        1   -1    0    0  501    0  0.00000000000E+00  0.00000000000E+00  0.18063727248E+04  0.18063727248E+04  0.50400001928E-02 0. -1.
       -1   -1    0    0    0  501  0.00000000000E+00  0.00000000000E+00 -0.12521634570E+04  0.12521634570E+04  0.50400001928E-02 0.  1.
    10030    2    1    2    0    0  0.00000000000E+00  0.00000000000E+00  0.55420926780E+03  0.30585361817E+04  0.30079055275E+04 0.  0.
        5    1    3    3  502    0 -0.10727432724E+03  0.11335926317E+04  0.12761454593E+04  0.17102951088E+04  0.46999998093E+01 0. -1.
       -5    1    3    3    0  502  0.10727432724E+03 -0.11335926317E+04 -0.72193619151E+03  0.13482410729E+04  0.46999998093E+01 0.  1.
</event>
<event>
 5   0  0.5916703E-07  0.3069338E+04  0.7818609E-02  0.8224204E-01
       -1   -1    0    0    0  501  0.00000000000E+00  0.00000000000E+00  0.92986935376E+03  0.92986935377E+03  0.50400001928E-02 0. -1.
        1   -1    0    0  501    0  0.00000000000E+00  0.00000000000E+00 -0.25328380893E+04  0.25328380893E+04  0.50400001928E-02 0.  1.
    10030    2    1    2    0    0  0.00000000000E+00  0.00000000000E+00 -0.16029687355E+04  0.34627074431E+04  0.30693377248E+04 0.  0.
        5    1    3    3  502    0 -0.10296606778E+04 -0.97022841064E+03 -0.13059156563E+03  0.14207816607E+04  0.46999998093E+01 0. -1.
       -5    1    3    3    0  502  0.10296606778E+04  0.97022841064E+03 -0.14723771699E+04  0.20419257824E+04  0.46999998093E+01 0.  1.
</event>
<event>
 5   0  0.5887179E-07  0.2985884E+04  0.7818609E-02  0.8247773E-01
        1   -1    0    0  501    0  0.00000000000E+00  0.00000000000E+00  0.26707903422E+04  0.26707903422E+04  0.50400001928E-02 0.  1.
       -1   -1    0    0    0  501  0.00000000000E+00  0.00000000000E+00 -0.83453807472E+03  0.83453807473E+03  0.50400001928E-02 0. -1.
    10030    2    1    2    0    0  0.00000000000E+00  0.00000000000E+00  0.18362522674E+04  0.35053284169E+04  0.29858842778E+04 0.  0.
        3    1    3    3  502    0  0.14090876853E+04 -0.37075870686E+03  0.13001365549E+04  0.19527788393E+04  0.10100000352E+00 0.  1.
       -3    1    3    3    0  502 -0.14090876853E+04  0.37075870686E+03  0.53611571256E+03  0.15525495776E+04  0.10100000352E+00 0. -1.
</event>
<event>
 5   0  0.5931588E-07  0.2918417E+04  0.7818609E-02  0.8267419E-01
        1   -1    0    0  501    0  0.00000000000E+00  0.00000000000E+00  0.13942358284E+04  0.13942358284E+04  0.50400001928E-02 0.  1.
       -1   -1    0    0    0  501  0.00000000000E+00  0.00000000000E+00 -0.15272094264E+04  0.15272094264E+04  0.50400001928E-02 0. -1.
    10030    2    1    2    0    0  0.00000000000E+00  0.00000000000E+00 -0.13297359807E+03  0.29214452548E+04  0.29184174477E+04 0.  0.
        2    1    3    3  502    0 -0.12481834219E+04 -0.48720506581E+03  0.51200501809E+03  0.14343917769E+04  0.25500000920E-02 0.  1.
       -2    1    3    3    0  502  0.12481834219E+04  0.48720506581E+03 -0.64497861616E+03  0.14870534779E+04  0.25500000920E-02 0. -1.
</event>
<event>
 5   0  0.1560174E-06  0.2998646E+04  0.7818609E-02  0.8244118E-01
       -2   -1    0    0    0  501  0.00000000000E+00  0.00000000000E+00  0.97991323316E+03  0.97991323316E+03  0.25500000920E-02 0. -1.
        2   -1    0    0  501    0  0.00000000000E+00  0.00000000000E+00 -0.22940488931E+04  0.22940488931E+04  0.25500000920E-02 0.  1.
    10030    2    1    2    0    0  0.00000000000E+00  0.00000000000E+00 -0.13141356599E+04  0.32739621262E+04  0.29986456062E+04 0.  0.
        5    1    3    3  502    0  0.93193613393E+03  0.23897126629E+03 -0.19125749576E+04  0.21409290699E+04  0.46999998093E+01 0.  1.
       -5    1    3    3    0  502 -0.93193613393E+03 -0.23897126629E+03  0.59843929766E+03  0.11330330564E+04  0.46999998093E+01 0. -1.
</event>
<event>
 5   0  0.5874741E-07  0.2950703E+04  0.7818609E-02  0.8257950E-01
        1   -1    0    0  501    0  0.00000000000E+00  0.00000000000E+00  0.15804715772E+04  0.15804715772E+04  0.50400001928E-02 0.  1.
       -1   -1    0    0    0  501  0.00000000000E+00  0.00000000000E+00 -0.13772228612E+04  0.13772228612E+04  0.50400001928E-02 0. -1.
    10030    2    1    2    0    0  0.00000000000E+00  0.00000000000E+00  0.20324871604E+03  0.29576944384E+04  0.29507026876E+04 0.  0.
        4    1    3    3  502    0 -0.30954704714E+03  0.14324236833E+04  0.27233054166E+03  0.14905779146E+04  0.12699999809E+01 0.  1.
       -4    1    3    3    0  502  0.30954704714E+03 -0.14324236833E+04 -0.69081825613E+02  0.14671165238E+04  0.12699999809E+01 0. -1.
</event>
<event>
 5   0  0.5916703E-07  0.2958746E+04  0.7818609E-02  0.8255610E-01
        1   -1    0    0  501    0  0.00000000000E+00  0.00000000000E+00  0.16125801761E+04  0.16125801761E+04  0.50400001928E-02 0.  1.
       -1   -1    0    0    0  501  0.00000000000E+00  0.00000000000E+00 -0.13571692601E+04  0.13571692601E+04  0.50400001928E-02 0. -1.
    10030    2    1    2    0    0  0.00000000000E+00  0.00000000000E+00  0.25541091600E+03  0.29697494363E+04  0.29587458455E+04 0.  0.
        5    1    3    3  502    0 -0.54135664234E+03  0.21678200462E+02  0.15094095959E+04  0.16037070732E+04  0.46999998093E+01 0.  1.
       -5    1    3    3    0  502  0.54135664234E+03 -0.21678200462E+02 -0.12539986799E+04  0.13660423631E+04  0.46999998093E+01 0. -1.
</event>
<event>
 5   0  0.1674806E-06  0.3003416E+04  0.7818609E-02  0.8242756E-01
        2   -1    0    0  501    0  0.00000000000E+00  0.00000000000E+00  0.19516668914E+04  0.19516668914E+04  0.25500000920E-02 0.  1.
       -2   -1    0    0    0  501  0.00000000000E+00  0.00000000000E+00 -0.11554873921E+04  0.11554873921E+04  0.25500000920E-02 0. -1.
    10030    2    1    2    0    0  0.00000000000E+00  0.00000000000E+00  0.79617949930E+03  0.31071542836E+04  0.30034157133E+04 0.  0.
        2    1    3    3  502    0  0.21686546863E+03 -0.14815415836E+04  0.27954394073E+03  0.15232008765E+04  0.25500000920E-02 0.  1.
       -2    1    3    3    0  502 -0.21686546863E+03  0.14815415836E+04  0.51663555858E+03  0.15839534071E+04  0.25500000920E-02 0. -1.
</event>
<event>
 5   0  0.5931588E-07  0.2903216E+04  0.7818609E-02  0.8271921E-01
        1   -1    0    0  501    0  0.00000000000E+00  0.00000000000E+00  0.18150779111E+04  0.18150779111E+04  0.50400001928E-02 0.  1.
       -1   -1    0    0    0  501  0.00000000000E+00  0.00000000000E+00 -0.11609232955E+04  0.11609232955E+04  0.50400001928E-02 0. -1.
    10030    2    1    2    0    0  0.00000000000E+00  0.00000000000E+00  0.65415461561E+03  0.29760012067E+04  0.29032163063E+04 0.  0.
        2    1    3    3  502    0 -0.64992106078E+03 -0.86855117505E+03  0.13158254692E+04  0.17053372671E+04  0.25500000920E-02 0.  1.
       -2    1    3    3    0  502  0.64992106078E+03  0.86855117505E+03 -0.66167085364E+03  0.12706639396E+04  0.25500000920E-02 0. -1.
</event>
<event>
 5   0  0.1560174E-06  0.2997027E+04  0.7818609E-02  0.8244580E-01
        2   -1    0    0  501    0  0.00000000000E+00  0.00000000000E+00  0.14541393747E+04  0.14541393747E+04  0.25500000920E-02 0.  1.
       -2   -1    0    0    0  501  0.00000000000E+00  0.00000000000E+00 -0.15442419500E+04  0.15442419500E+04  0.25500000920E-02 0. -1.
    10030    2    1    2    0    0  0.00000000000E+00  0.00000000000E+00 -0.90102575320E+02  0.29983813248E+04  0.29970272095E+04 0.  0.
        5    1    3    3  502    0  0.58951405143E+03  0.12536350092E+04 -0.61661789709E+03  0.15163664709E+04  0.46999998093E+01 0. -1.
       -5    1    3    3    0  502 -0.58951405143E+03 -0.12536350092E+04  0.52651532177E+03  0.14820148539E+04  0.46999998093E+01 0.  1.
</event>
<event>
 5   0  0.6291798E-07  0.2998647E+04  0.7818609E-02  0.8244117E-01
       -1   -1    0    0    0  501  0.00000000000E+00  0.00000000000E+00  0.16497167541E+04  0.16497167541E+04  0.50400001928E-02 0.  1.
        1   -1    0    0  501    0  0.00000000000E+00  0.00000000000E+00 -0.13626404878E+04  0.13626404878E+04  0.50400001928E-02 0. -1.
    10030    2    1    2    0    0  0.00000000000E+00  0.00000000000E+00  0.28707626631E+03  0.30123572419E+04  0.29986469232E+04 0.  0.
        1    1    3    3  502    0 -0.42789199216E+03 -0.14311073310E+04  0.27378854724E+03  0.15185914258E+04  0.50400001928E-02 0. -1.
       -1    1    3    3    0  502  0.42789199216E+03  0.14311073310E+04  0.13287719073E+02  0.14937658161E+04  0.50400001928E-02 0.  1.
</event>
<event>
 5   0  0.1635086E-06  0.2996351E+04  0.7818609E-02  0.8244774E-01
        2   -1    0    0  501    0  0.00000000000E+00  0.00000000000E+00  0.23600607713E+04  0.23600607713E+04  0.25500000920E-02 0. -1.
       -2   -1    0    0    0  501  0.00000000000E+00  0.00000000000E+00 -0.95104753109E+03  0.95104753110E+03  0.25500000920E-02 0.  1.
    10030    2    1    2    0    0  0.00000000000E+00  0.00000000000E+00  0.14090132402E+04  0.33111083024E+04  0.29963510941E+04 0.  0.
        3    1    3    3  502    0 -0.91264126896E+03  0.10733024916E+03 -0.60304730235E+03  0.10991359912E+04  0.10100000352E+00 0.  1.
       -3    1    3    3    0  502  0.91264126896E+03 -0.10733024916E+03  0.20120605426E+04  0.22119723112E+04  0.10100000352E+00 0. -1.
</event>
<event>
 5   0  0.1560174E-06  0.3010703E+04  0.7818609E-02  0.8240681E-01
       -2   -1    0    0    0  501  0.00000000000E+00  0.00000000000E+00  0.14047282793E+04  0.14047282793E+04  0.25500000920E-02 0.  1.
        2   -1    0    0  501    0  0.00000000000E+00  0.00000000000E+00 -0.16131823860E+04  0.16131823860E+04  0.25500000920E-02 0. -1.
    10030    2    1    2    0    0  0.00000000000E+00  0.00000000000E+00 -0.20845410676E+03  0.30179106653E+04  0.30107028530E+04 0.  0.
        5    1    3    3  502    0 -0.92591546760E+03  0.11832431973E+03 -0.12880458393E+04  0.15907244488E+04  0.46999998093E+01 0. -1.
       -5    1    3    3    0  502  0.92591546760E+03 -0.11832431973E+03  0.10795917325E+04  0.14271862166E+04  0.46999998093E+01 0.  1.
</event>
<event>
 5   0  0.6291798E-07  0.2997435E+04  0.7818609E-02  0.8244464E-01
       -1   -1    0    0    0  501  0.00000000000E+00  0.00000000000E+00  0.14093619672E+04  0.14093619672E+04  0.50400001928E-02 0. -1.
        1   -1    0    0  501    0  0.00000000000E+00  0.00000000000E+00 -0.15937379517E+04  0.15937379517E+04  0.50400001928E-02 0.  1.
    10030    2    1    2    0    0  0.00000000000E+00  0.00000000000E+00 -0.18437598449E+03  0.30030999188E+04  0.29974346730E+04 0.  0.
        1    1    3    3  502    0  0.10544593892E+04 -0.79326668875E+03 -0.80416252556E+03  0.15452617935E+04  0.50400001928E-02 0.  1.
       -1    1    3    3    0  502 -0.10544593892E+04  0.79326668875E+03  0.61978654107E+03  0.14578381253E+04  0.50400001928E-02 0. -1.
</event>
<event>
 5   0  0.1674806E-06  0.3008578E+04  0.7818609E-02  0.8241286E-01
       -2   -1    0    0    0  501  0.00000000000E+00  0.00000000000E+00  0.13283383643E+04  0.13283383643E+04  0.25500000920E-02 0.  1.
        2   -1    0    0  501    0  0.00000000000E+00  0.00000000000E+00 -0.17035457984E+04  0.17035457984E+04  0.25500000920E-02 0. -1.
    10030    2    1    2    0    0  0.00000000000E+00  0.00000000000E+00 -0.37520743412E+03  0.30318841627E+04  0.30085778962E+04 0.  0.
        2    1    3    3  502    0  0.45917836953E+03  0.99398145350E+03 -0.12271183175E+04  0.16445860483E+04  0.25500000920E-02 0. -1.
       -2    1    3    3    0  502 -0.45917836953E+03 -0.99398145350E+03  0.85191088343E+03  0.13872981144E+04  0.25500000920E-02 0.  1.
</event>
<event>
 5   0  0.1560174E-06  0.2997391E+04  0.7818609E-02  0.8244476E-01
       -2   -1    0    0    0  501  0.00000000000E+00  0.00000000000E+00  0.15624788187E+04  0.15624788187E+04  0.25500000920E-02 0. -1.
        2   -1    0    0  501    0  0.00000000000E+00  0.00000000000E+00 -0.14375157286E+04  0.14375157286E+04  0.25500000920E-02 0.  1.
    10030    2    1    2    0    0  0.00000000000E+00  0.00000000000E+00  0.12496309015E+03  0.29999945473E+04  0.29973907837E+04 0.  0.
        5    1    3    3  502    0  0.97794263710E+03 -0.65960598798E+03  0.98773790851E+03  0.15385383085E+04  0.46999998093E+01 0. -1.
       -5    1    3    3    0  502 -0.97794263710E+03  0.65960598798E+03 -0.86277481836E+03  0.14614562388E+04  0.46999998093E+01 0.  1.
</event>
<event>
 5   0  0.5931588E-07  0.2868317E+04  0.7818609E-02  0.8282367E-01
        1   -1    0    0  501    0  0.00000000000E+00  0.00000000000E+00  0.25533210735E+04  0.25533210735E+04  0.50400001928E-02 0.  1.
       -1   -1    0    0    0  501  0.00000000000E+00  0.00000000000E+00 -0.80554353348E+03  0.80554353349E+03  0.50400001928E-02 0. -1.
    10030    2    1    2    0    0  0.00000000000E+00  0.00000000000E+00  0.17477775400E+04  0.33588646070E+04  0.28683174717E+04 0.  0.
        2    1    3    3  502    0 -0.11839335693E+04  0.68190977872E+03  0.36330191445E+03  0.14137495973E+04  0.25500000920E-02 0. -1.
       -2    1    3    3    0  502  0.11839335693E+04 -0.68190977872E+03  0.13844756255E+04  0.19451150096E+04  0.25500000920E-02 0.  1.
</event>
<event>
 5   0  0.1560174E-06  0.3001950E+04  0.7818609E-02  0.8243174E-01
        2   -1    0    0  501    0  0.00000000000E+00  0.00000000000E+00  0.22756777609E+04  0.22756777609E+04  0.25500000920E-02 0. -1.
       -2   -1    0    0    0  501  0.00000000000E+00  0.00000000000E+00 -0.99000231810E+03  0.99000231811E+03  0.25500000920E-02 0.  1.
    10030    2    1    2    0    0  0.00000000000E+00  0.00000000000E+00  0.12856754428E+04  0.32656800790E+04  0.30019502052E+04 0.  0.
        5    1    3    3  502    0  0.13962090055E+03  0.11016609804E+04 -0.45570690343E+03  0.12003506919E+04  0.46999998093E+01 0.  1.
       -5    1    3    3    0  502 -0.13962090055E+03 -0.11016609804E+04  0.17413823463E+04  0.20653293872E+04  0.46999998093E+01 0. -1.
</event>
<event>
 5   0  0.5874741E-07  0.2997082E+04  0.7818609E-02  0.8244565E-01
        1   -1    0    0  501    0  0.00000000000E+00  0.00000000000E+00  0.27134098642E+04  0.27134098642E+04  0.50400001928E-02 0.  1.
       -1   -1    0    0    0  501  0.00000000000E+00  0.00000000000E+00 -0.82760279104E+03  0.82760279106E+03  0.50400001928E-02 0. -1.
    10030    2    1    2    0    0  0.00000000000E+00  0.00000000000E+00  0.18858070732E+04  0.35410126553E+04  0.29970822991E+04 0.  0.
        4    1    3    3  502    0 -0.62113803843E+03 -0.98313818452E+03  0.20595495502E+04  0.23651890232E+04  0.12699999809E+01 0.  1.
       -4    1    3    3    0  502  0.62113803843E+03  0.98313818452E+03 -0.17374247701E+03  0.11758236321E+04  0.12699999809E+01 0. -1.
</event>
<event>
 5   0  0.5916703E-07  0.2999249E+04  0.7818609E-02  0.8243945E-01
        1   -1    0    0  501    0  0.00000000000E+00  0.00000000000E+00  0.15404607780E+04  0.15404607780E+04  0.50400001928E-02 0. -1.
       -1   -1    0    0    0  501  0.00000000000E+00  0.00000000000E+00 -0.14598704639E+04  0.14598704639E+04  0.50400001928E-02 0.  1.
    10030    2    1    2    0    0  0.00000000000E+00  0.00000000000E+00  0.80590314030E+02  0.30003312419E+04  0.29992486997E+04 0.  0.
        5    1    3    3  502    0 -0.65283202377E+03 -0.13378844336E+04  0.22126565382E+03  0.15050265740E+04  0.46999998093E+01 0. -1.
       -5    1    3    3    0  502  0.65283202377E+03  0.13378844336E+04 -0.14067533979E+03  0.14953046680E+04  0.46999998093E+01 0.  1.
</event>
<event>
 5   0  0.5916703E-07  0.2996083E+04  0.7818609E-02  0.8244850E-01
       -1   -1    0    0    0  501  0.00000000000E+00  0.00000000000E+00  0.26764773394E+04  0.26764773394E+04  0.50400001928E-02 0. -1.
        1   -1    0    0  501    0  0.00000000000E+00  0.00000000000E+00 -0.83846318113E+03  0.83846318115E+03  0.50400001928E-02 0.  1.
    10030    2    1    2    0    0  0.00000000000E+00  0.00000000000E+00  0.18380141582E+04  0.35149405205E+04  0.29960825784E+04 0.  0.
        5    1    3    3  502    0 -0.33675857678E+03  0.11112719131E+04  0.20293661120E+04  0.23380933494E+04  0.46999998093E+01 0. -1.
       -5    1    3    3    0  502  0.33675857678E+03 -0.11112719131E+04 -0.19135195379E+03  0.11768471711E+04  0.46999998093E+01 0.  1.
</event>
<event>
 5   0  0.5431625E-07  0.3001085E+04  0.7818609E-02  0.8243421E-01
        3   -1    0    0  501    0  0.00000000000E+00  0.00000000000E+00  0.16027044024E+04  0.16027044056E+04  0.10100000352E+00 0. -1.
       -3   -1    0    0    0  501  0.00000000000E+00  0.00000000000E+00 -0.14048923763E+04  0.14048923799E+04  0.10100000352E+00 0.  1.
    10030    2    1    2    0    0  0.00000000000E+00  0.00000000000E+00  0.19781202614E+03  0.30075967855E+04  0.30010846083E+04 0.  0.
        4    1    3    3  502    0  0.36594544540E+03  0.74946035452E+03  0.13490175947E+04  0.15860192230E+04  0.12699999809E+01 0. -1.
       -4    1    3    3    0  502 -0.36594544540E+03 -0.74946035452E+03 -0.11512055686E+04  0.14215775624E+04  0.12699999809E+01 0.  1.
</event>
<event>
 5   0  0.1635086E-06  0.2954089E+04  0.7818609E-02  0.8256964E-01
       -2   -1    0    0    0  501  0.00000000000E+00  0.00000000000E+00  0.26449923232E+04  0.26449923232E+04  0.25500000920E-02 0.  1.
        2   -1    0    0  501    0  0.00000000000E+00  0.00000000000E+00 -0.82482662285E+03  0.82482662286E+03  0.25500000920E-02 0. -1.
    10030    2    1    2    0    0  0.00000000000E+00  0.00000000000E+00  0.18201657003E+04  0.34698189460E+04  0.29540887498E+04 0.  0.
        3    1    3    3  502    0  0.48083042201E+03  0.12438647621E+04  0.16418858753E+03  0.13436351230E+04  0.10100000352E+00 0. -1.
       -3    1    3    3    0  502 -0.48083042201E+03 -0.12438647621E+04  0.16559771128E+04  0.21261838231E+04  0.10100000352E+00 0.  1.
</event>
<event>
 5   0  0.5916703E-07  0.3007752E+04  0.7818609E-02  0.8241521E-01
        1   -1    0    0  501    0  0.00000000000E+00  0.00000000000E+00  0.19288072061E+04  0.19288072061E+04  0.50400001928E-02 0. -1.
       -1   -1    0    0    0  501  0.00000000000E+00  0.00000000000E+00 -0.11725602635E+04  0.11725602635E+04  0.50400001928E-02 0.  1.
    10030    2    1    2    0    0  0.00000000000E+00  0.00000000000E+00  0.75624694266E+03  0.31013674696E+04  0.30077517755E+04 0.  0.
        5    1    3    3  502    0  0.16370432753E+03 -0.73094681310E+03  0.17227585512E+04  0.18785636710E+04  0.46999998093E+01 0. -1.
       -5    1    3    3    0  502 -0.16370432753E+03  0.73094681310E+03 -0.96651160851E+03  0.12228037986E+04  0.46999998093E+01 0.  1.
</event>
<event>
 5   0  0.5916703E-07  0.2987901E+04  0.7818609E-02  0.8247194E-01
       -1   -1    0    0    0  501  0.00000000000E+00  0.00000000000E+00  0.15039367190E+04  0.15039367190E+04  0.50400001928E-02 0.  1.
        1   -1    0    0  501    0  0.00000000000E+00  0.00000000000E+00 -0.14840310290E+04  0.14840310290E+04  0.50400001928E-02 0. -1.
    10030    2    1    2    0    0  0.00000000000E+00  0.00000000000E+00  0.19905690052E+02  0.29879677480E+04  0.29879014419E+04 0.  0.
        5    1    3    3  502    0 -0.59351726834E+03 -0.12997615644E+04  0.44610905266E+03  0.14968895246E+04  0.46999998093E+01 0.  1.
       -5    1    3    3    0  502  0.59351726834E+03  0.12997615644E+04 -0.42620336261E+03  0.14910782234E+04  0.46999998093E+01 0. -1.
</event>
<event>
 5   0  0.1635086E-06  0.2851412E+04  0.7818609E-02  0.8287482E-01
       -2   -1    0    0    0  501  0.00000000000E+00  0.00000000000E+00  0.80832887176E+03  0.80832887176E+03  0.25500000920E-02 0.  1.
        2   -1    0    0  501    0  0.00000000000E+00  0.00000000000E+00 -0.25146169449E+04  0.25146169449E+04  0.25500000920E-02 0. -1.
    10030    2    1    2    0    0  0.00000000000E+00  0.00000000000E+00 -0.17062880731E+04  0.33229458166E+04  0.28514119155E+04 0.  0.
        3    1    3    3  502    0  0.92236843891E+03 -0.79932518338E+03 -0.17118500238E+04  0.21024069064E+04  0.10100000352E+00 0.  1.
       -3    1    3    3    0  502 -0.92236843891E+03  0.79932518338E+03  0.55619507043E+01  0.12205389102E+04  0.10100000352E+00 0. -1.
</event>
<event>
 5   0  0.1723916E-06  0.2992257E+04  0.7818609E-02  0.8245945E-01
        2   -1    0    0  501    0  0.00000000000E+00  0.00000000000E+00  0.21860844219E+04  0.21860844219E+04  0.25500000920E-02 0.  1.
       -2   -1    0    0    0  501  0.00000000000E+00  0.00000000000E+00 -0.10239314459E+04  0.10239314459E+04  0.25500000920E-02 0. -1.
    10030    2    1    2    0    0  0.00000000000E+00  0.00000000000E+00  0.11621529760E+04  0.32100158678E+04  0.29922570631E+04 0.  0.
        1    1    3    3  502    0  0.20178200326E+03 -0.54204938126E+03 -0.89914460996E+03  0.10691092265E+04  0.50400001928E-02 0. -1.
       -1    1    3    3    0  502 -0.20178200326E+03  0.54204938126E+03  0.20612975860E+04  0.21409066412E+04  0.50400001928E-02 0.  1.
</event>
<event>
 5   0  0.1625212E-06  0.2993672E+04  0.7818609E-02  0.8245540E-01
        2   -1    0    0  501    0  0.00000000000E+00  0.00000000000E+00  0.16753190229E+04  0.16753190230E+04  0.25500000920E-02 0. -1.
       -2   -1    0    0    0  501  0.00000000000E+00  0.00000000000E+00 -0.13373681393E+04  0.13373681393E+04  0.25500000920E-02 0.  1.
    10030    2    1    2    0    0  0.00000000000E+00  0.00000000000E+00  0.33795088361E+03  0.30126871623E+04  0.29936721828E+04 0.  0.
        4    1    3    3  502    0  0.10568965207E+04  0.44660596790E+03  0.11363456739E+04  0.16148592043E+04  0.12699999809E+01 0. -1.
       -4    1    3    3    0  502 -0.10568965207E+04 -0.44660596790E+03 -0.79839479033E+03  0.13978279580E+04  0.12699999809E+01 0.  1.
</event>
<event>
 5   0  0.5931588E-07  0.3000233E+04  0.7818609E-02  0.8243664E-01
        1   -1    0    0  501    0  0.00000000000E+00  0.00000000000E+00  0.18082069720E+04  0.18082069720E+04  0.50400001928E-02 0. -1.
       -1   -1    0    0    0  501  0.00000000000E+00  0.00000000000E+00 -0.12445198590E+04  0.12445198590E+04  0.50400001928E-02 0.  1.
    10030    2    1    2    0    0  0.00000000000E+00  0.00000000000E+00  0.56368711298E+03  0.30527268310E+04  0.30002329816E+04 0.  0.
        2    1    3    3  502    0 -0.80680848592E+03 -0.61179675373E+02  0.15671421734E+04  0.17636942698E+04  0.25500000920E-02 0. -1.
       -2    1    3    3    0  502  0.80680848592E+03  0.61179675373E+02 -0.10034550604E+04  0.12890325612E+04  0.25500000920E-02 0.  1.
</event>
<event>
 5   0  0.1560174E-06  0.3007699E+04  0.7818609E-02  0.8241536E-01
       -2   -1    0    0    0  501  0.00000000000E+00  0.00000000000E+00  0.13345812496E+04  0.13345812496E+04  0.25500000920E-02 0.  1.
        2   -1    0    0  501    0  0.00000000000E+00  0.00000000000E+00 -0.16945868371E+04  0.16945868371E+04  0.25500000920E-02 0. -1.
    10030    2    1    2    0    0  0.00000000000E+00  0.00000000000E+00 -0.36000558750E+03  0.30291680868E+04  0.30076993325E+04 0.  0.
        5    1    3    3  502    0 -0.21085505115E+02  0.86122857509E+03 -0.14214335742E+04  0.16621235673E+04  0.46999998093E+01 0. -1.
       -5    1    3    3    0  502  0.21085505115E+02 -0.86122857509E+03  0.10614279867E+04  0.13670445194E+04  0.46999998093E+01 0.  1.
</event>
<event>
 5   0  0.5874741E-07  0.2941416E+04  0.7818609E-02  0.8260660E-01
       -1   -1    0    0    0  501  0.00000000000E+00  0.00000000000E+00  0.14113475690E+04  0.14113475691E+04  0.50400001928E-02 0.  1.
        1   -1    0    0  501    0  0.00000000000E+00  0.00000000000E+00 -0.15325654429E+04  0.15325654429E+04  0.50400001928E-02 0. -1.
    10030    2    1    2    0    0  0.00000000000E+00  0.00000000000E+00 -0.12121787383E+03  0.29439130119E+04  0.29414163338E+04 0.  0.
        4    1    3    3  502    0 -0.11461081163E+04 -0.33406538691E+03  0.79908313273E+03  0.14365580263E+04  0.12699999809E+01 0.  1.
       -4    1    3    3    0  502  0.11461081163E+04  0.33406538691E+03 -0.92030100656E+03  0.15073549856E+04  0.12699999809E+01 0. -1.
</event>
<event>
 5   0  0.1723916E-06  0.3020068E+04  0.7818609E-02  0.8238024E-01
       -2   -1    0    0    0  501  0.00000000000E+00  0.00000000000E+00  0.90198694701E+03  0.90198694701E+03  0.25500000920E-02 0.  1.
        2   -1    0    0  501    0  0.00000000000E+00  0.00000000000E+00 -0.25279770068E+04  0.25279770068E+04  0.25500000920E-02 0. -1.
    10030    2    1    2    0    0  0.00000000000E+00  0.00000000000E+00 -0.16259900598E+04  0.34299639538E+04  0.30200677227E+04 0.  0.
        1    1    3    3  502    0 -0.34482342953E+03  0.14695410486E+04 -0.86048095041E+03  0.17374928942E+04  0.50400001928E-02 0.  1.
       -1    1    3    3    0  502  0.34482342953E+03 -0.14695410486E+04 -0.76550910935E+03  0.16924710596E+04  0.50400001928E-02 0. -1.
</event>
<event>
 5   0  0.1560174E-06  0.2991867E+04  0.7818609E-02  0.8246057E-01
       -2   -1    0    0    0  501  0.00000000000E+00  0.00000000000E+00  0.21659502162E+04  0.21659502162E+04  0.25500000920E-02 0.  1.
        2   -1    0    0  501    0  0.00000000000E+00  0.00000000000E+00 -0.10331800837E+04  0.10331800837E+04  0.25500000920E-02 0. -1.
    10030    2    1    2    0    0  0.00000000000E+00  0.00000000000E+00  0.11327701325E+04  0.31991302999E+04  0.29918667254E+04 0.  0.
        5    1    3    3  502    0  0.70454045416E+03 -0.12941907778E+04  0.84209964787E+03  0.16971920716E+04  0.46999998093E+01 0.  1.
       -5    1    3    3    0  502 -0.70454045416E+03  0.12941907778E+04  0.29067048461E+03  0.15019382283E+04  0.46999998093E+01 0. -1.
</event>
<event>
 5   0  0.1674806E-06  0.2997141E+04  0.7818609E-02  0.8244548E-01
       -2   -1    0    0    0  501  0.00000000000E+00  0.00000000000E+00  0.10310238286E+04  0.10310238286E+04  0.25500000920E-02 0. -1.
        2   -1    0    0  501    0  0.00000000000E+00  0.00000000000E+00 -0.21781392488E+04  0.21781392488E+04  0.25500000920E-02 0.  1.
    10030    2    1    2    0    0  0.00000000000E+00  0.00000000000E+00 -0.11471154202E+04  0.32091630774E+04  0.29971409493E+04 0.  0.
        2    1    3    3  502    0 -0.10798534089E+04 -0.57796542436E+03  0.35099889721E+03  0.12740987569E+04  0.25500000920E-02 0.  1.
       -2    1    3    3    0  502  0.10798534089E+04  0.57796542436E+03 -0.14981143174E+04  0.19350643205E+04  0.25500000920E-02 0. -1.
</event>
<event>
 5   0  0.6291798E-07  0.2926276E+04  0.7818609E-02  0.8265102E-01
        1   -1    0    0  501    0  0.00000000000E+00  0.00000000000E+00  0.18633310474E+04  0.18633310475E+04  0.50400001928E-02 0. -1.
       -1   -1    0    0    0  501  0.00000000000E+00  0.00000000000E+00 -0.11488953451E+04  0.11488953451E+04  0.50400001928E-02 0.  1.
    10030    2    1    2    0    0  0.00000000000E+00  0.00000000000E+00  0.71443570235E+03  0.30122263926E+04  0.29262756991E+04 0.  0.
        1    1    3    3  502    0  0.12930473299E+04 -0.67916080987E+03  0.26782494186E+03  0.14849111093E+04  0.50400001928E-02 0. -1.
       -1    1    3    3    0  502 -0.12930473299E+04  0.67916080987E+03  0.44661076048E+03  0.15273152833E+04  0.50400001928E-02 0.  1.
</event>
<event>
 5   0  0.5874741E-07  0.2985120E+04  0.7818609E-02  0.8247993E-01
       -1   -1    0    0    0  501  0.00000000000E+00  0.00000000000E+00  0.11807722404E+04  0.11807722405E+04  0.50400001928E-02 0. -1.
        1   -1    0    0  501    0  0.00000000000E+00  0.00000000000E+00 -0.18866770507E+04  0.18866770507E+04  0.50400001928E-02 0.  1.
    10030    2    1    2    0    0  0.00000000000E+00  0.00000000000E+00 -0.70590481021E+03  0.30674492911E+04  0.29851203581E+04 0.  0.
        4    1    3    3  502    0 -0.65460965623E+03 -0.21829573258E+03 -0.17129213091E+04  0.18466910551E+04  0.12699999809E+01 0.  1.
       -4    1    3    3    0  502  0.65460965623E+03  0.21829573258E+03  0.10070164989E+04  0.12207582360E+04  0.12699999809E+01 0. -1.
</event>
<event>
 5   0  0.1674806E-06  0.2999146E+04  0.7818609E-02  0.8243975E-01
        2   -1    0    0  501    0  0.00000000000E+00  0.00000000000E+00  0.17519788374E+04  0.17519788374E+04  0.25500000920E-02 0.  1.
       -2   -1    0    0    0  501  0.00000000000E+00  0.00000000000E+00 -0.12835312804E+04  0.12835312804E+04  0.25500000920E-02 0. -1.
    10030    2    1    2    0    0  0.00000000000E+00  0.00000000000E+00  0.46844755696E+03  0.30355101178E+04  0.29991463054E+04 0.  0.
        2    1    3    3  502    0 -0.10576844950E+04  0.13257343018E+03 -0.83329071994E+03  0.13530135362E+04  0.25500000920E-02 0. -1.
       -2    1    3    3    0  502  0.10576844950E+04 -0.13257343018E+03  0.13017382769E+04  0.16824965815E+04  0.25500000920E-02 0.  1.
</event>
<event>
 5   0  0.1560174E-06  0.2990792E+04  0.7818609E-02  0.8246365E-01
        2   -1    0    0  501    0  0.00000000000E+00  0.00000000000E+00  0.72187708822E+03  0.72187708822E+03  0.25500000920E-02 0. -1.
       -2   -1    0    0    0  501  0.00000000000E+00  0.00000000000E+00 -0.30977703522E+04  0.30977703522E+04  0.25500000920E-02 0.  1.
    10030    2    1    2    0    0  0.00000000000E+00  0.00000000000E+00 -0.23758932639E+04  0.38196474404E+04  0.29907921638E+04 0.  0.
        5    1    3    3  502    0 -0.44811131411E+03  0.44727400652E+03 -0.29181377368E+04  0.29860354532E+04  0.46999998093E+01 0.  1.
       -5    1    3    3    0  502  0.44811131411E+03 -0.44727400652E+03  0.54224447290E+03  0.83361198716E+03  0.46999998093E+01 0. -1.
</event>
<event>
 5   0  0.5874741E-07  0.3005858E+04  0.7818609E-02  0.8242060E-01
       -1   -1    0    0    0  501  0.00000000000E+00  0.00000000000E+00  0.21080781103E+04  0.21080781103E+04  0.50400001928E-02 0. -1.
        1   -1    0    0  501    0  0.00000000000E+00  0.00000000000E+00 -0.10714950872E+04  0.10714950872E+04  0.50400001928E-02 0.  1.
    10030    2    1    2    0    0  0.00000000000E+00  0.00000000000E+00  0.10365830231E+04  0.31795731975E+04  0.30058578400E+04 0.  0.
        4    1    3    3  502    0  0.30737790528E+03 -0.35058694356E+03  0.20296399043E+04  0.20825062151E+04  0.12699999809E+01 0. -1.
       -4    1    3    3    0  502 -0.30737790528E+03  0.35058694356E+03 -0.99305688124E+03  0.10970669824E+04  0.12699999809E+01 0.  1.
</event>
<event>
 5   0  0.5931588E-07  0.3000082E+04  0.7818609E-02  0.8243707E-01
       -1   -1    0    0    0  501  0.00000000000E+00  0.00000000000E+00  0.14552477746E+04  0.14552477747E+04  0.50400001928E-02 0.  1.
        1   -1    0    0  501    0  0.00000000000E+00  0.00000000000E+00 -0.15462132239E+04  0.15462132239E+04  0.50400001928E-02 0. -1.
    10030    2    1    2    0    0  0.00000000000E+00  0.00000000000E+00 -0.90965449280E+02  0.30014609986E+04  0.30000822344E+04 0.  0.
        2    1    3    3  502    0 -0.11864346091E+04  0.47996514587E+03  0.73726404106E+03  0.14770077485E+04  0.25500000920E-02 0.  1.
       -2    1    3    3    0  502  0.11864346091E+04 -0.47996514587E+03 -0.82822949034E+03  0.15244532501E+04  0.25500000920E-02 0. -1.
</event>
<event>
 5   0  0.1625212E-06  0.2994826E+04  0.7818609E-02  0.8245210E-01
        2   -1    0    0  501    0  0.00000000000E+00  0.00000000000E+00  0.13275950106E+04  0.13275950106E+04  0.25500000920E-02 0. -1.
       -2   -1    0    0    0  501  0.00000000000E+00  0.00000000000E+00 -0.16889531146E+04  0.16889531146E+04  0.25500000920E-02 0.  1.
    10030    2    1    2    0    0  0.00000000000E+00  0.00000000000E+00 -0.36135810404E+03  0.30165481252E+04  0.29948260237E+04 0.  0.
        4    1    3    3  502    0  0.47990171329E+02 -0.12268212024E+04 -0.10441311409E+04  0.16117086497E+04  0.12699999809E+01 0.  1.
       -4    1    3    3    0  502 -0.47990171329E+02  0.12268212024E+04  0.68277303686E+03  0.14048394755E+04  0.12699999809E+01 0. -1.
</event>
<event>
 5   0  0.5916703E-07  0.2992015E+04  0.7818609E-02  0.8246015E-01
       -1   -1    0    0    0  501  0.00000000000E+00  0.00000000000E+00  0.14423009690E+04  0.14423009690E+04  0.50400001928E-02 0. -1.
        1   -1    0    0  501    0  0.00000000000E+00  0.00000000000E+00 -0.15517137761E+04  0.15517137761E+04  0.50400001928E-02 0.  1.
    10030    2    1    2    0    0  0.00000000000E+00  0.00000000000E+00 -0.10941280709E+03  0.29940147452E+04  0.29920148950E+04 0.  0.
        5    1    3    3  502    0 -0.78311231074E+03  0.81197514365E+03 -0.10379351162E+04  0.15329383290E+04  0.46999998093E+01 0.  1.
       -5    1    3    3    0  502  0.78311231074E+03 -0.81197514365E+03  0.92852230915E+03  0.14610764161E+04  0.46999998093E+01 0. -1.
</event>
<event>
 5   0  0.1625212E-06  0.3007455E+04  0.7818609E-02  0.8241605E-01
        2   -1    0    0  501    0  0.00000000000E+00  0.00000000000E+00  0.22142058626E+04  0.22142058626E+04  0.25500000920E-02 0. -1.
       -2   -1    0    0    0  501  0.00000000000E+00  0.00000000000E+00 -0.10212224782E+04  0.10212224782E+04  0.25500000920E-02 0.  1.
    10030    2    1    2    0    0  0.00000000000E+00  0.00000000000E+00  0.11929833844E+04  0.32354283408E+04  0.30074552687E+04 0.  0.
        4    1    3    3  502    0 -0.13463989151E+04 -0.11245720978E+02 -0.12379709022E+03  0.13521256737E+04  0.12699999809E+01 0.  1.
       -4    1    3    3    0  502  0.13463989151E+04  0.11245720978E+02  0.13167804746E+04  0.18833026672E+04  0.12699999809E+01 0. -1.
</event>
<event>
 5   0  0.1625212E-06  0.2996108E+04  0.7818609E-02  0.8244843E-01
       -2   -1    0    0    0  501  0.00000000000E+00  0.00000000000E+00  0.16620863814E+04  0.16620863814E+04  0.25500000920E-02 0.  1.
        2   -1    0    0  501    0  0.00000000000E+00  0.00000000000E+00 -0.13502097582E+04  0.13502097582E+04  0.25500000920E-02 0. -1.
    10030    2    1    2    0    0  0.00000000000E+00  0.00000000000E+00  0.31187662316E+03  0.30122961396E+04  0.29961076423E+04 0.  0.
        4    1    3    3  502    0  0.84909353598E+03 -0.13560100991E+03  0.13892759284E+04  0.16338410831E+04  0.12699999809E+01 0.  1.
       -4    1    3    3    0  502 -0.84909353598E+03  0.13560100991E+03 -0.10773993053E+04  0.13784550564E+04  0.12699999809E+01 0. -1.
</event>
<event>
 5   0  0.1635086E-06  0.3011835E+04  0.7818609E-02  0.8240359E-01
        2   -1    0    0  501    0  0.00000000000E+00  0.00000000000E+00  0.12089114190E+04  0.12089114190E+04  0.25500000920E-02 0. -1.
       -2   -1    0    0    0  501  0.00000000000E+00  0.00000000000E+00 -0.18758917505E+04  0.18758917505E+04  0.25500000920E-02 0.  1.
    10030    2    1    2    0    0  0.00000000000E+00  0.00000000000E+00 -0.66698033148E+03  0.30848031696E+04  0.30118346290E+04 0.  0.
        3    1    3    3  502    0 -0.13499344640E+03  0.11704766505E+04 -0.12940537991E+04  0.17500897306E+04  0.10100000352E+00 0.  1.
       -3    1    3    3    0  502  0.13499344640E+03 -0.11704766505E+04  0.62707346764E+03  0.13347134389E+04  0.10100000352E+00 0. -1.
</event>
<event>
 5   0  0.5931588E-07  0.2947890E+04  0.7818609E-02  0.8258770E-01
       -1   -1    0    0    0  501  0.00000000000E+00  0.00000000000E+00  0.17631578712E+04  0.17631578712E+04  0.50400001928E-02 0. -1.
        1   -1    0    0  501    0  0.00000000000E+00  0.00000000000E+00 -0.12321717928E+04  0.12321717928E+04  0.50400001928E-02 0.  1.
    10030    2    1    2    0    0  0.00000000000E+00  0.00000000000E+00  0.53098607834E+03  0.29953296640E+04  0.29478896826E+04 0.  0.
        2    1    3    3  502    0  0.59436128358E+03  0.16592994463E+03  0.16255838398E+04  0.17387699394E+04  0.25500000920E-02 0. -1.
       -2    1    3    3    0  502 -0.59436128358E+03 -0.16592994463E+03 -0.10945977615E+04  0.12565597246E+04  0.25500000920E-02 0.  1.
</event>
<event>
 5   0  0.6291798E-07  0.2975016E+04  0.7818609E-02  0.8250902E-01
        1   -1    0    0  501    0  0.00000000000E+00  0.00000000000E+00  0.12637249292E+04  0.12637249292E+04  0.50400001928E-02 0.  1.
       -1   -1    0    0    0  501  0.00000000000E+00  0.00000000000E+00 -0.17509185187E+04  0.17509185187E+04  0.50400001928E-02 0. -1.
    10030    2    1    2    0    0  0.00000000000E+00  0.00000000000E+00 -0.48719358950E+03  0.30146434480E+04  0.29750155503E+04 0.  0.
        1    1    3    3  502    0 -0.10620118843E+04  0.42349160775E+03  0.72063744031E+03  0.13514927690E+04  0.50400001928E-02 0.  1.
       -1    1    3    3    0  502  0.10620118843E+04 -0.42349160775E+03 -0.12078310298E+04  0.16631506789E+04  0.50400001928E-02 0. -1.
</event>
<event>
 5   0  0.5916703E-07  0.2996508E+04  0.7818609E-02  0.8244729E-01
       -1   -1    0    0    0  501  0.00000000000E+00  0.00000000000E+00  0.22477558100E+04  0.22477558100E+04  0.50400001928E-02 0. -1.
        1   -1    0    0  501    0  0.00000000000E+00  0.00000000000E+00 -0.99866952186E+03  0.99866952187E+03  0.50400001928E-02 0.  1.
    10030    2    1    2    0    0  0.00000000000E+00  0.00000000000E+00  0.12490862882E+04  0.32464253319E+04  0.29965081145E+04 0.  0.
        5    1    3    3  502    0  0.14962418350E+04  0.52748048985E+02  0.56305447855E+03  0.15995544446E+04  0.46999998093E+01 0.  1.
       -5    1    3    3    0  502 -0.14962418350E+04 -0.52748048985E+02  0.68603180960E+03  0.16468708873E+04  0.46999998093E+01 0. -1.
</event>
<event>
 5   0  0.1723916E-06  0.2998818E+04  0.7818609E-02  0.8244068E-01
       -2   -1    0    0    0  501  0.00000000000E+00  0.00000000000E+00  0.13611154931E+04  0.13611154931E+04  0.25500000920E-02 0. -1.
        2   -1    0    0  501    0  0.00000000000E+00  0.00000000000E+00 -0.16517538747E+04  0.16517538747E+04  0.25500000920E-02 0.  1.
    10030    2    1    2    0    0  0.00000000000E+00  0.00000000000E+00 -0.29063838161E+03  0.30128693678E+04  0.29988182937E+04 0.  0.
        1    1    3    3  502    0 -0.13561507265E+04  0.26765353436E+03  0.43830244059E+03  0.14501352478E+04  0.50400001928E-02 0.  1.
       -1    1    3    3    0  502  0.13561507265E+04 -0.26765353436E+03 -0.72894082220E+03  0.15627341200E+04  0.50400001928E-02 0. -1.
</event>
<event>
 5   0  0.1560174E-06  0.3011103E+04  0.7818609E-02  0.8240568E-01
        2   -1    0    0  501    0  0.00000000000E+00  0.00000000000E+00  0.13071330111E+04  0.13071330111E+04  0.25500000920E-02 0. -1.
       -2   -1    0    0    0  501  0.00000000000E+00  0.00000000000E+00 -0.17340889649E+04  0.17340889649E+04  0.25500000920E-02 0.  1.
    10030    2    1    2    0    0  0.00000000000E+00  0.00000000000E+00 -0.42695595387E+03  0.30412219760E+04  0.30111027417E+04 0.  0.
        5    1    3    3  502    0  0.64564076664E+03  0.21260347370E+03  0.11433172222E+04  0.13301310451E+04  0.46999998093E+01 0. -1.
       -5    1    3    3    0  502 -0.64564076664E+03 -0.21260347370E+03 -0.15702731760E+04  0.17110909309E+04  0.46999998093E+01 0.  1.
</event>
<event>
 5   0  0.1625212E-06  0.3004751E+04  0.7818609E-02  0.8242376E-01
       -2   -1    0    0    0  501  0.00000000000E+00  0.00000000000E+00  0.19101125671E+04  0.19101125671E+04  0.25500000920E-02 0. -1.
        2   -1    0    0  501    0  0.00000000000E+00  0.00000000000E+00 -0.11816746738E+04  0.11816746738E+04  0.25500000920E-02 0.  1.
    10030    2    1    2    0    0  0.00000000000E+00  0.00000000000E+00  0.72843789333E+03  0.30917872408E+04  0.30047506682E+04 0.  0.
        4    1    3    3  502    0 -0.12016022209E+04 -0.83313187258E+03  0.71943358673E+03  0.16295836624E+04  0.12699999809E+01 0. -1.
       -4    1    3    3    0  502  0.12016022209E+04  0.83313187258E+03  0.90043066024E+01  0.14622035784E+04  0.12699999809E+01 0.  1.
</event>
<event>
 5   0  0.5916703E-07  0.3031568E+04  0.7818609E-02  0.8234774E-01
       -1   -1    0    0    0  501  0.00000000000E+00  0.00000000000E+00  0.68658172994E+03  0.68658172996E+03  0.50400001928E-02 0.  1.
        1   -1    0    0  501    0  0.00000000000E+00  0.00000000000E+00 -0.33464343309E+04  0.33464343309E+04  0.50400001928E-02 0. -1.
    10030    2    1    2    0    0  0.00000000000E+00  0.00000000000E+00 -0.26598526010E+04  0.40330160609E+04  0.30315676948E+04 0.  0.
        5    1    3    3  502    0 -0.90329992340E+03 -0.11124266742E+04 -0.67260537291E+03  0.15829920829E+04  0.46999998093E+01 0.  1.
       -5    1    3    3    0  502  0.90329992340E+03  0.11124266742E+04 -0.19872472281E+04  0.24500239780E+04  0.46999998093E+01 0. -1.
</event>
<event>
 5   0  0.6291798E-07  0.3047320E+04  0.7818609E-02  0.8230346E-01
       -1   -1    0    0    0  501  0.00000000000E+00  0.00000000000E+00  0.21682332778E+04  0.21682332778E+04  0.50400001928E-02 0. -1.
        1   -1    0    0  501    0  0.00000000000E+00  0.00000000000E+00 -0.10707055506E+04  0.10707055506E+04  0.50400001928E-02 0.  1.
    10030    2    1    2    0    0  0.00000000000E+00  0.00000000000E+00  0.10975277272E+04  0.32389388284E+04  0.30473197440E+04 0.  0.
        1    1    3    3  502    0  0.75632754648E+03 -0.13104643378E+04  0.73946520933E+03  0.16840893486E+04  0.50400001928E-02 0.  1.
       -1    1    3    3    0  502 -0.75632754648E+03  0.13104643378E+04  0.35806251791E+03  0.15548494798E+04  0.50400001928E-02 0. -1.
</event>
<event>
 5   0  0.5931588E-07  0.2998423E+04  0.7818609E-02  0.8244181E-01
        1   -1    0    0  501    0  0.00000000000E+00  0.00000000000E+00  0.16849081950E+04  0.16849081950E+04  0.50400001928E-02 0. -1.
       -1   -1    0    0    0  501  0.00000000000E+00  0.00000000000E+00 -0.13339810056E+04  0.13339810056E+04  0.50400001928E-02 0.  1.
    10030    2    1    2    0    0  0.00000000000E+00  0.00000000000E+00  0.35092718945E+03  0.30188892006E+04  0.29984232712E+04 0.  0.
        2    1    3    3  502    0 -0.10952505243E+04  0.95923481263E+03 -0.18465131165E+03  0.14675834707E+04  0.25500000920E-02 0.  1.
       -2    1    3    3    0  502  0.10952505243E+04 -0.95923481263E+03  0.53557850110E+03  0.15513057299E+04  0.25500000920E-02 0. -1.
</event>
<event>
 5   0  0.5931588E-07  0.2951586E+04  0.7818609E-02  0.8257692E-01
        1   -1    0    0  501    0  0.00000000000E+00  0.00000000000E+00  0.18477262170E+04  0.18477262170E+04  0.50400001928E-02 0. -1.
       -1   -1    0    0    0  501  0.00000000000E+00  0.00000000000E+00 -0.11787274095E+04  0.11787274095E+04  0.50400001928E-02 0.  1.
    10030    2    1    2    0    0  0.00000000000E+00  0.00000000000E+00  0.66899880755E+03  0.30264536265E+04  0.29515863783E+04 0.  0.
        2    1    3    3  502    0  0.34134737477E+03  0.10110551889E+04  0.13797759630E+04  0.17442856227E+04  0.25500000920E-02 0. -1.
       -2    1    3    3    0  502 -0.34134737477E+03 -0.10110551889E+04 -0.71077715545E+03  0.12821680038E+04  0.25500000920E-02 0.  1.
</event>
<event>
 5   0  0.5916703E-07  0.2998334E+04  0.7818609E-02  0.8244207E-01
        1   -1    0    0  501    0  0.00000000000E+00  0.00000000000E+00  0.14335526797E+04  0.14335526797E+04  0.50400001928E-02 0. -1.
       -1   -1    0    0    0  501  0.00000000000E+00  0.00000000000E+00 -0.15677845319E+04  0.15677845319E+04  0.50400001928E-02 0.  1.
    10030    2    1    2    0    0  0.00000000000E+00  0.00000000000E+00 -0.13423185217E+03  0.30013372116E+04  0.29983340153E+04 0.  0.
        5    1    3    3  502    0 -0.36015833195E+03  0.97461332998E+03 -0.11488900283E+04  0.15490498876E+04  0.46999998093E+01 0.  1.
       -5    1    3    3    0  502  0.36015833195E+03 -0.97461332998E+03  0.10146581761E+04  0.14522873240E+04  0.46999998093E+01 0. -1.
</event>
<event>
 5   0  0.1723916E-06  0.2997961E+04  0.7818609E-02  0.8244313E-01
        2   -1    0    0  501    0  0.00000000000E+00  0.00000000000E+00  0.21205045107E+04  0.21205045107E+04  0.25500000920E-02 0.  1.
       -2   -1    0    0    0  501  0.00000000000E+00  0.00000000000E+00 -0.10596261495E+04  0.10596261495E+04  0.25500000920E-02 0. -1.
    10030    2    1    2    0    0  0.00000000000E+00  0.00000000000E+00  0.10608783612E+04  0.31801306601E+04  0.29979606599E+04 0.  0.
        1    1    3    3  502    0 -0.12800243381E+03  0.30641067472E+03  0.20809962337E+04  0.21073247138E+04  0.50400001928E-02 0.  1.
       -1    1    3    3    0  502  0.12800243381E+03 -0.30641067472E+03 -0.10201178725E+04  0.10728059463E+04  0.50400001928E-02 0. -1.
</event>
<event>
 5   0  0.5931588E-07  0.3007376E+04  0.7818609E-02  0.8241628E-01
        1   -1    0    0  501    0  0.00000000000E+00  0.00000000000E+00  0.25627797552E+04  0.25627797552E+04  0.50400001928E-02 0. -1.
       -1   -1    0    0    0  501  0.00000000000E+00  0.00000000000E+00 -0.88227527268E+03  0.88227527269E+03  0.50400001928E-02 0.  1.
    10030    2    1    2    0    0  0.00000000000E+00  0.00000000000E+00  0.16805044825E+04  0.34450550279E+04  0.30073757380E+04 0.  0.
        2    1    3    3  502    0  0.22292168580E+02 -0.36922917272E+03 -0.82934336694E+03  0.90809555833E+03  0.25500000920E-02 0.  1.
       -2    1    3    3    0  502 -0.22292168580E+02  0.36922917272E+03  0.25098478494E+04  0.25369594695E+04  0.25500000920E-02 0. -1.
</event>
<event>
 5   0  0.6291798E-07  0.2983223E+04  0.7818609E-02  0.8248538E-01
       -1   -1    0    0    0  501  0.00000000000E+00  0.00000000000E+00  0.17043407984E+04  0.17043407984E+04  0.50400001928E-02 0.  1.
        1   -1    0    0  501    0  0.00000000000E+00  0.00000000000E+00 -0.13054338915E+04  0.13054338915E+04  0.50400001928E-02 0. -1.
    10030    2    1    2    0    0  0.00000000000E+00  0.00000000000E+00  0.39890690688E+03  0.30097746900E+04  0.29832225804E+04 0.  0.
        1    1    3    3  502    0 -0.13081508252E+04 -0.63153444191E+03 -0.14239845813E+03  0.14595792729E+04  0.50400001928E-02 0.  1.
       -1    1    3    3    0  502  0.13081508252E+04  0.63153444191E+03  0.54130536501E+03  0.15501954171E+04  0.50400001928E-02 0. -1.
</event>
<event>
 5   0  0.1625212E-06  0.2979627E+04  0.7818609E-02  0.8249572E-01
       -2   -1    0    0    0  501  0.00000000000E+00  0.00000000000E+00  0.98326909722E+03  0.98326909723E+03  0.25500000920E-02 0.  1.
        2   -1    0    0  501    0  0.00000000000E+00  0.00000000000E+00 -0.22573115334E+04  0.22573115334E+04  0.25500000920E-02 0. -1.
    10030    2    1    2    0    0  0.00000000000E+00  0.00000000000E+00 -0.12740424361E+04  0.32405806306E+04  0.29796272744E+04 0.  0.
        4    1    3    3  502    0  0.39819586711E+03  0.71337609018E+03 -0.19919535794E+04  0.21529853855E+04  0.12699999809E+01 0. -1.
       -4    1    3    3    0  502 -0.39819586711E+03 -0.71337609018E+03  0.71791114329E+03  0.10875952451E+04  0.12699999809E+01 0.  1.
</event>
<event>
 5   0  0.5916703E-07  0.2999259E+04  0.7818609E-02  0.8243943E-01
        1   -1    0    0  501    0  0.00000000000E+00  0.00000000000E+00  0.18102216190E+04  0.18102216190E+04  0.50400001928E-02 0. -1.
       -1   -1    0    0    0  501  0.00000000000E+00  0.00000000000E+00 -0.12423274003E+04  0.12423274003E+04  0.50400001928E-02 0.  1.
    10030    2    1    2    0    0  0.00000000000E+00  0.00000000000E+00  0.56789421870E+03  0.30525490194E+04  0.29992585204E+04 0.  0.
        5    1    3    3  502    0  0.84402890555E+03 -0.75796822127E+03  0.12821720774E+04  0.17119836284E+04  0.46999998093E+01 0. -1.
       -5    1    3    3    0  502 -0.84402890555E+03  0.75796822127E+03 -0.71427785873E+03  0.13405653909E+04  0.46999998093E+01 0.  1.
</event>
<event>
 5   0  0.5916703E-07  0.2999366E+04  0.7818609E-02  0.8243912E-01
        1   -1    0    0  501    0  0.00000000000E+00  0.00000000000E+00  0.19129768062E+04  0.19129768062E+04  0.50400001928E-02 0.  1.
       -1   -1    0    0    0  501  0.00000000000E+00  0.00000000000E+00 -0.11756806228E+04  0.11756806228E+04  0.50400001928E-02 0. -1.
    10030    2    1    2    0    0  0.00000000000E+00  0.00000000000E+00  0.73729618340E+03  0.30886574290E+04  0.29993664417E+04 0.  0.
        5    1    3    3  502    0  0.89543368124E+03 -0.81518369686E+00  0.16074684161E+04  0.18400486245E+04  0.46999998093E+01 0.  1.
       -5    1    3    3    0  502 -0.89543368124E+03  0.81518369686E+00 -0.87017223267E+03  0.12486088044E+04  0.46999998093E+01 0. -1.
</event>
<event>
 5   0  0.5931588E-07  0.3043267E+04  0.7818609E-02  0.8231482E-01
       -1   -1    0    0    0  501  0.00000000000E+00  0.00000000000E+00  0.85579674845E+03  0.85579674846E+03  0.50400001928E-02 0. -1.
        1   -1    0    0  501    0  0.00000000000E+00  0.00000000000E+00 -0.27055125260E+04  0.27055125260E+04  0.50400001928E-02 0.  1.
    10030    2    1    2    0    0  0.00000000000E+00  0.00000000000E+00 -0.18497157776E+04  0.35613092745E+04  0.30432672066E+04 0.  0.
        2    1    3    3  502    0 -0.11704801757E+04  0.63710257801E+03 -0.17843527921E+04  0.22270694698E+04  0.25500000920E-02 0. -1.
       -2    1    3    3    0  502  0.11704801757E+04 -0.63710257801E+03 -0.65362985460E+02  0.13342398047E+04  0.25500000920E-02 0.  1.
</event>
<event>
 5   0  0.1723916E-06  0.3004423E+04  0.7818609E-02  0.8242469E-01
        2   -1    0    0  501    0  0.00000000000E+00  0.00000000000E+00  0.22850299045E+04  0.22850299045E+04  0.25500000920E-02 0. -1.
       -2   -1    0    0    0  501  0.00000000000E+00  0.00000000000E+00 -0.98757524464E+03  0.98757524464E+03  0.25500000920E-02 0.  1.
    10030    2    1    2    0    0  0.00000000000E+00  0.00000000000E+00  0.12974546598E+04  0.32726051491E+04  0.30044227179E+04 0.  0.
        1    1    3    3  502    0 -0.49844498805E+03  0.11573776900E+04  0.15394407303E+04  0.19894341621E+04  0.50400001928E-02 0. -1.
       -1    1    3    3    0  502  0.49844498805E+03 -0.11573776900E+04 -0.24198607047E+03  0.12831709869E+04  0.50400001928E-02 0.  1.
</event>
<event>
 5   0  0.5874741E-07  0.3003798E+04  0.7818609E-02  0.8242647E-01
       -1   -1    0    0    0  501  0.00000000000E+00  0.00000000000E+00  0.14792516848E+04  0.14792516848E+04  0.50400001928E-02 0. -1.
        1   -1    0    0  501    0  0.00000000000E+00  0.00000000000E+00 -0.15248929132E+04  0.15248929132E+04  0.50400001928E-02 0.  1.
    10030    2    1    2    0    0  0.00000000000E+00  0.00000000000E+00 -0.45641228407E+02  0.30041445980E+04  0.30037978700E+04 0.  0.
        4    1    3    3  502    0 -0.35678849700E+03 -0.58711907881E+03 -0.13585240843E+04  0.15223653126E+04  0.12699999809E+01 0.  1.
       -4    1    3    3    0  502  0.35678849700E+03  0.58711907881E+03  0.13128828559E+04  0.14817792854E+04  0.12699999809E+01 0. -1.
</event>
<event>
 5   0  0.1723916E-06  0.3002287E+04  0.7818609E-02  0.8243078E-01
       -2   -1    0    0    0  501  0.00000000000E+00  0.00000000000E+00  0.12808626412E+04  0.12808626412E+04  0.25500000920E-02 0.  1.
        2   -1    0    0  501    0  0.00000000000E+00  0.00000000000E+00 -0.17593074688E+04  0.17593074688E+04  0.25500000920E-02 0. -1.
    10030    2    1    2    0    0  0.00000000000E+00  0.00000000000E+00 -0.47844482758E+03  0.30401701100E+04  0.30022866027E+04 0.  0.
        1    1    3    3  502    0 -0.99349008884E+02 -0.14435054095E+04 -0.64408373960E+03  0.15837998473E+04  0.50400001928E-02 0. -1.
       -1    1    3    3    0  502  0.99349008884E+02  0.14435054095E+04  0.16563891203E+03  0.14563702627E+04  0.50400001928E-02 0.  1.
</event>
<event>
 5   0  0.1635086E-06  0.2955223E+04  0.7818609E-02  0.8256634E-01
        2   -1    0    0  501    0  0.00000000000E+00  0.00000000000E+00  0.18933647315E+04  0.18933647315E+04  0.25500000920E-02 0. -1.
       -2   -1    0    0    0  501  0.00000000000E+00  0.00000000000E+00 -0.11531514585E+04  0.11531514585E+04  0.25500000920E-02 0.  1.
    10030    2    1    2    0    0  0.00000000000E+00  0.00000000000E+00  0.74021327293E+03  0.30465161900E+04  0.29552233767E+04 0.  0.
        3    1    3    3  502    0  0.10456968788E+03 -0.11838835982E+03 -0.11444227389E+04  0.11552722791E+04  0.10100000352E+00 0.  1.
       -3    1    3    3    0  502 -0.10456968788E+03  0.11838835982E+03  0.18846360118E+04  0.18912439109E+04  0.10100000352E+00 0. -1.
</event>
<event>
 5   0  0.1635086E-06  0.3010962E+04  0.7818609E-02  0.8240607E-01
        2   -1    0    0  501    0  0.00000000000E+00  0.00000000000E+00  0.27242861942E+04  0.27242861942E+04  0.25500000920E-02 0.  1.
       -2   -1    0    0    0  501  0.00000000000E+00  0.00000000000E+00 -0.83195125218E+03  0.83195125219E+03  0.25500000920E-02 0. -1.
    10030    2    1    2    0    0  0.00000000000E+00  0.00000000000E+00  0.18923349420E+04  0.35562374463E+04  0.30109621788E+04 0.  0.
        3    1    3    3  502    0  0.23025652496E+02  0.13891303375E+04  0.26127392944E+03  0.14136751224E+04  0.10100000352E+00 0. -1.
       -3    1    3    3    0  502 -0.23025652496E+02 -0.13891303375E+04  0.16310610125E+04  0.21425623240E+04  0.10100000352E+00 0.  1.
</event>
<event>
 5   0  0.6291798E-07  0.2996204E+04  0.7818609E-02  0.8244816E-01
        1   -1    0    0  501    0  0.00000000000E+00  0.00000000000E+00  0.25869100376E+04  0.25869100377E+04  0.50400001928E-02 0. -1.
       -1   -1    0    0    0  501  0.00000000000E+00  0.00000000000E+00 -0.86756373365E+03  0.86756373366E+03  0.50400001928E-02 0.  1.
    10030    2    1    2    0    0  0.00000000000E+00  0.00000000000E+00  0.17193463040E+04  0.34544737713E+04  0.29962038188E+04 0.  0.
        1    1    3    3  502    0 -0.46434768947E+03  0.99333236557E+03  0.20365757526E+04  0.23129999484E+04  0.50400001928E-02 0. -1.
       -1    1    3    3    0  502  0.46434768947E+03 -0.99333236557E+03 -0.31722944864E+03  0.11414738229E+04  0.50400001928E-02 0.  1.
</event>
<event>
 5   0  0.5916703E-07  0.3008282E+04  0.7818609E-02  0.8241370E-01
        1   -1    0    0  501    0  0.00000000000E+00  0.00000000000E+00  0.20392776481E+04  0.20392776481E+04  0.50400001928E-02 0. -1.
       -1   -1    0    0    0  501  0.00000000000E+00  0.00000000000E+00 -0.11094323392E+04  0.11094323392E+04  0.50400001928E-02 0.  1.
    10030    2    1    2    0    0  0.00000000000E+00  0.00000000000E+00  0.92984530892E+03  0.31487099873E+04  0.30082822816E+04 0.  0.
        5    1    3    3  502    0  0.54132452160E+03  0.36315900329E+03 -0.95389949726E+03  0.11553627310E+04  0.46999998093E+01 0.  1.
       -5    1    3    3    0  502 -0.54132452160E+03 -0.36315900329E+03  0.18837448062E+04  0.19933472563E+04  0.46999998093E+01 0. -1.
</event>
<event>
 5   0  0.1635086E-06  0.2993490E+04  0.7818609E-02  0.8245592E-01
       -2   -1    0    0    0  501  0.00000000000E+00  0.00000000000E+00  0.18793027248E+04  0.18793027248E+04  0.25500000920E-02 0.  1.
        2   -1    0    0  501    0  0.00000000000E+00  0.00000000000E+00 -0.11920622794E+04  0.11920622794E+04  0.25500000920E-02 0. -1.
    10030    2    1    2    0    0  0.00000000000E+00  0.00000000000E+00  0.68724044544E+03  0.30713650042E+04  0.29934901969E+04 0.  0.
        3    1    3    3  502    0  0.43267749037E+03  0.60803842711E+02  0.18124128696E+04  0.18643356291E+04  0.10100000352E+00 0.  1.
       -3    1    3    3    0  502 -0.43267749037E+03 -0.60803842711E+02 -0.11251724242E+04  0.12070293751E+04  0.10100000352E+00 0. -1.
</event>
<event>
 5   0  0.5916703E-07  0.2994272E+04  0.7818609E-02  0.8245368E-01
       -1   -1    0    0    0  501  0.00000000000E+00  0.00000000000E+00  0.14196214270E+04  0.14196214270E+04  0.50400001928E-02 0. -1.
        1   -1    0    0  501    0  0.00000000000E+00  0.00000000000E+00 -0.15788830873E+04  0.15788830873E+04  0.50400001928E-02 0.  1.
    10030    2    1    2    0    0  0.00000000000E+00  0.00000000000E+00 -0.15926166030E+03  0.29985045142E+04  0.29942720393E+04 0.  0.
        5    1    3    3  502    0  0.13963440330E+04 -0.29302935376E+03  0.37460852362E+03  0.14751259257E+04  0.46999998093E+01 0. -1.
       -5    1    3    3    0  502 -0.13963440330E+04  0.29302935376E+03 -0.53387018392E+03  0.15233785885E+04  0.46999998093E+01 0.  1.
</event>
<event>
 5   0  0.1674806E-06  0.2997908E+04  0.7818609E-02  0.8244328E-01
       -2   -1    0    0    0  501  0.00000000000E+00  0.00000000000E+00  0.11736274051E+04  0.11736274051E+04  0.25500000920E-02 0. -1.
        2   -1    0    0  501    0  0.00000000000E+00  0.00000000000E+00 -0.19144606528E+04  0.19144606528E+04  0.25500000920E-02 0.  1.
    10030    2    1    2    0    0  0.00000000000E+00  0.00000000000E+00 -0.74083324776E+03  0.30880880579E+04  0.29979082628E+04 0.  0.
        2    1    3    3  502    0 -0.77223626262E+03  0.66604769406E+03 -0.15020509198E+04  0.18155234347E+04  0.25500000920E-02 0.  1.
       -2    1    3    3    0  502  0.77223626262E+03 -0.66604769406E+03  0.76121767206E+03  0.12725646232E+04  0.25500000920E-02 0. -1.
</event>
<event>
 5   0  0.5887179E-07  0.3068138E+04  0.7818609E-02  0.8224537E-01
       -1   -1    0    0    0  501  0.00000000000E+00  0.00000000000E+00  0.21648742073E+04  0.21648742073E+04  0.50400001928E-02 0.  1.
        1   -1    0    0  501    0  0.00000000000E+00  0.00000000000E+00 -0.10870693115E+04  0.10870693115E+04  0.50400001928E-02 0. -1.
    10030    2    1    2    0    0  0.00000000000E+00  0.00000000000E+00  0.10778048958E+04  0.32519435188E+04  0.30681384023E+04 0.  0.
        3    1    3    3  502    0  0.13201676857E+04  0.46695110101E+03  0.12029177082E+04  0.18460490437E+04  0.10100000352E+00 0.  1.
       -3    1    3    3    0  502 -0.13201676857E+04 -0.46695110101E+03 -0.12511281237E+03  0.14058944751E+04  0.10100000352E+00 0. -1.
</event>
<event>
 5   0  0.6291798E-07  0.2989127E+04  0.7818609E-02  0.8246843E-01
        1   -1    0    0  501    0  0.00000000000E+00  0.00000000000E+00  0.16155790966E+04  0.16155790966E+04  0.50400001928E-02 0. -1.
       -1   -1    0    0    0  501  0.00000000000E+00  0.00000000000E+00 -0.13826123301E+04  0.13826123301E+04  0.50400001928E-02 0.  1.
    10030    2    1    2    0    0  0.00000000000E+00  0.00000000000E+00  0.23296676656E+03  0.29981914267E+04  0.29891266813E+04 0.  0.
        1    1    3    3  502    0  0.43970234724E+03  0.32917242343E+03  0.15106722997E+04  0.16074275834E+04  0.50400001928E-02 0. -1.
       -1    1    3    3    0  502 -0.43970234724E+03 -0.32917242343E+03 -0.12777055332E+04  0.13907638434E+04  0.50400001928E-02 0.  1.
</event>
<event>
 5   0  0.5874741E-07  0.3008181E+04  0.7818609E-02  0.8241399E-01
       -1   -1    0    0    0  501  0.00000000000E+00  0.00000000000E+00  0.10844413007E+04  0.10844413007E+04  0.50400001928E-02 0.  1.
        1   -1    0    0  501    0  0.00000000000E+00  0.00000000000E+00 -0.20861326105E+04  0.20861326105E+04  0.50400001928E-02 0. -1.
    10030    2    1    2    0    0  0.00000000000E+00  0.00000000000E+00 -0.10016913098E+04  0.31705739112E+04  0.30081810860E+04 0.  0.
        4    1    3    3  502    0  0.34495516790E+03 -0.14423470229E+04 -0.76524172440E+03  0.16688185977E+04  0.12699999809E+01 0.  1.
       -4    1    3    3    0  502 -0.34495516790E+03  0.14423470229E+04 -0.23644958541E+03  0.15017553135E+04  0.12699999809E+01 0. -1.
</event>
<event>
 5   0  0.1625212E-06  0.3022333E+04  0.7818609E-02  0.8237382E-01
        2   -1    0    0  501    0  0.00000000000E+00  0.00000000000E+00  0.15380477588E+04  0.15380477588E+04  0.25500000920E-02 0. -1.
       -2   -1    0    0    0  501  0.00000000000E+00  0.00000000000E+00 -0.14847554055E+04  0.14847554055E+04  0.25500000920E-02 0.  1.
    10030    2    1    2    0    0  0.00000000000E+00  0.00000000000E+00  0.53292353216E+02  0.30228031643E+04  0.30223333528E+04 0.  0.
        4    1    3    3  502    0  0.33396154262E+03 -0.14530972466E+04  0.27285753485E+03  0.15157423156E+04  0.12699999809E+01 0. -1.
       -4    1    3    3    0  502 -0.33396154262E+03  0.14530972466E+04 -0.21956518163E+03  0.15070608487E+04  0.12699999809E+01 0.  1.
</event>
<event>
 5   0  0.5887179E-07  0.3000689E+04  0.7818609E-02  0.8243534E-01
       -1   -1    0    0    0  501  0.00000000000E+00  0.00000000000E+00  0.30888728456E+04  0.30888728456E+04  0.50400001928E-02 0. -1.
        1   -1    0    0  501    0  0.00000000000E+00  0.00000000000E+00 -0.72875544746E+03  0.72875544748E+03  0.50400001928E-02 0.  1.
    10030    2    1    2    0    0  0.00000000000E+00  0.00000000000E+00  0.23601173981E+04  0.38176282931E+04  0.30006885295E+04 0.  0.
        3    1    3    3  502    0  0.68233363770E+03 -0.13197163494E+04  0.14463285564E+04  0.20734263284E+04  0.10100000352E+00 0. -1.
       -3    1    3    3    0  502 -0.68233363770E+03  0.13197163494E+04  0.91378884176E+03  0.17442019647E+04  0.10100000352E+00 0.  1.
</event>
<event>
 5   0  0.5916703E-07  0.2960970E+04  0.7818609E-02  0.8254965E-01
        1   -1    0    0  501    0  0.00000000000E+00  0.00000000000E+00  0.14669508877E+04  0.14669508877E+04  0.50400001928E-02 0.  1.
       -1   -1    0    0    0  501  0.00000000000E+00  0.00000000000E+00 -0.14941443882E+04  0.14941443882E+04  0.50400001928E-02 0. -1.
    10030    2    1    2    0    0  0.00000000000E+00  0.00000000000E+00 -0.27193500567E+02  0.29610952759E+04  0.29609704062E+04 0.  0.
        5    1    3    3  502    0 -0.39919220914E+03 -0.53420207605E+03  0.13082335822E+04  0.14684084832E+04  0.46999998093E+01 0.  1.
       -5    1    3    3    0  502  0.39919220914E+03  0.53420207605E+03 -0.13354270827E+04  0.14926867927E+04  0.46999998093E+01 0. -1.
</event>
<event>
 5   0  0.5874741E-07  0.2988796E+04  0.7818609E-02  0.8246937E-01
        1   -1    0    0  501    0  0.00000000000E+00  0.00000000000E+00  0.13767080802E+04  0.13767080802E+04  0.50400001928E-02 0.  1.
       -1   -1    0    0    0  501  0.00000000000E+00  0.00000000000E+00 -0.16221492035E+04  0.16221492035E+04  0.50400001928E-02 0. -1.
    10030    2    1    2    0    0  0.00000000000E+00  0.00000000000E+00 -0.24544112324E+03  0.29988572837E+04  0.29887963569E+04 0.  0.
        4    1    3    3  502    0 -0.14642167961E+03 -0.27647649565E+03 -0.15889217749E+04  0.16194297085E+04  0.12699999809E+01 0. -1.
       -4    1    3    3    0  502  0.14642167961E+03  0.27647649565E+03  0.13434806517E+04  0.13794275752E+04  0.12699999809E+01 0.  1.
</event>
<event>
 5   0  0.1674806E-06  0.3004728E+04  0.7818609E-02  0.8242382E-01
        2   -1    0    0  501    0  0.00000000000E+00  0.00000000000E+00  0.11734187188E+04  0.11734187188E+04  0.25500000920E-02 0. -1.
       -2   -1    0    0    0  501  0.00000000000E+00  0.00000000000E+00 -0.19235222851E+04  0.19235222851E+04  0.25500000920E-02 0.  1.
    10030    2    1    2    0    0  0.00000000000E+00  0.00000000000E+00 -0.75010356630E+03  0.30969410038E+04  0.30047276450E+04 0.  0.
        2    1    3    3  502    0  0.10823307420E+04 -0.93300865681E+03  0.10302822175E+03  0.14326757495E+04  0.25500000920E-02 0. -1.
       -2    1    3    3    0  502 -0.10823307420E+04  0.93300865681E+03 -0.85313178805E+03  0.16642652543E+04  0.25500000920E-02 0.  1.
</event>
<event>
 5   0  0.1625212E-06  0.2972444E+04  0.7818609E-02  0.8251644E-01
        2   -1    0    0  501    0  0.00000000000E+00  0.00000000000E+00  0.13811165605E+04  0.13811165605E+04  0.25500000920E-02 0. -1.
       -2   -1    0    0    0  501  0.00000000000E+00  0.00000000000E+00 -0.15993261917E+04  0.15993261917E+04  0.25500000920E-02 0.  1.
    10030    2    1    2    0    0  0.00000000000E+00  0.00000000000E+00 -0.21820963117E+03  0.29804427522E+04  0.29724440374E+04 0.  0.
        4    1    3    3  502    0 -0.18285693363E+03 -0.50592743975E+03 -0.14982769716E+04  0.15919279912E+04  0.12699999809E+01 0.  1.
       -4    1    3    3    0  502  0.18285693363E+03  0.50592743975E+03  0.12800673405E+04  0.13885147610E+04  0.12699999809E+01 0. -1.
</event>
<event>
 5   0  0.1625212E-06  0.3013839E+04  0.7818609E-02  0.8239790E-01
       -2   -1    0    0    0  501  0.00000000000E+00  0.00000000000E+00  0.12137789620E+04  0.12137789620E+04  0.25500000920E-02 0. -1.
        2   -1    0    0  501    0  0.00000000000E+00  0.00000000000E+00 -0.18708567080E+04  0.18708567080E+04  0.25500000920E-02 0.  1.
    10030    2    1    2    0    0  0.00000000000E+00  0.00000000000E+00 -0.65707774603E+03  0.30846356700E+04  0.30138390886E+04 0.  0.
        4    1    3    3  502    0  0.21442236346E+03  0.13963146679E+04 -0.86539188303E+03  0.16566762888E+04  0.12699999809E+01 0.  1.
       -4    1    3    3    0  502 -0.21442236346E+03 -0.13963146679E+04  0.20831413699E+03  0.14279593812E+04  0.12699999809E+01 0. -1.
</event>
<event>
 5   0  0.5874741E-07  0.2998060E+04  0.7818609E-02  0.8244285E-01
        1   -1    0    0  501    0  0.00000000000E+00  0.00000000000E+00  0.22134774057E+04  0.22134774057E+04  0.50400001928E-02 0.  1.
       -1   -1    0    0    0  501  0.00000000000E+00  0.00000000000E+00 -0.10151861688E+04  0.10151861688E+04  0.50400001928E-02 0. -1.
    10030    2    1    2    0    0  0.00000000000E+00  0.00000000000E+00  0.11982912369E+04  0.32286635745E+04  0.29980604712E+04 0.  0.
        4    1    3    3  502    0  0.45640150039E+03  0.74582444203E+03 -0.71210189947E+03  0.11276733375E+04  0.12699999809E+01 0. -1.
       -4    1    3    3    0  502 -0.45640150039E+03 -0.74582444203E+03  0.19103931363E+04  0.21009902370E+04  0.12699999809E+01 0.  1.
</event>
<event>
 5   0  0.1674806E-06  0.3054940E+04  0.7818609E-02  0.8228214E-01
       -2   -1    0    0    0  501  0.00000000000E+00  0.00000000000E+00  0.12265862616E+04  0.12265862616E+04  0.25500000920E-02 0. -1.
        2   -1    0    0  501    0  0.00000000000E+00  0.00000000000E+00 -0.19021605061E+04  0.19021605061E+04  0.25500000920E-02 0.  1.
    10030    2    1    2    0    0  0.00000000000E+00  0.00000000000E+00 -0.67557424452E+03  0.31287467677E+04  0.30549395700E+04 0.  0.
        2    1    3    3  502    0 -0.10103460749E+04  0.25461248792E+03 -0.14817042122E+04  0.18113735348E+04  0.25500000920E-02 0.  1.
       -2    1    3    3    0  502  0.10103460749E+04 -0.25461248792E+03  0.80612996764E+03  0.13173732329E+04  0.25500000920E-02 0. -1.
</event>
<event>
 5   0  0.1625212E-06  0.3002172E+04  0.7818609E-02  0.8243111E-01
       -2   -1    0    0    0  501  0.00000000000E+00  0.00000000000E+00  0.17295335403E+04  0.17295335403E+04  0.25500000920E-02 0.  1.
        2   -1    0    0  501    0  0.00000000000E+00  0.00000000000E+00 -0.13028130610E+04  0.13028130610E+04  0.25500000920E-02 0. -1.
    10030    2    1    2    0    0  0.00000000000E+00  0.00000000000E+00  0.42672047934E+03  0.30323466013E+04  0.30021718044E+04 0.  0.
        4    1    3    3  502    0  0.13075775446E+04 -0.46161916212E+03  0.79394716625E+03  0.15978751521E+04  0.12699999809E+01 0. -1.
       -4    1    3    3    0  502 -0.13075775446E+04  0.46161916212E+03 -0.36722668691E+03  0.14344714492E+04  0.12699999809E+01 0.  1.
</event>
<event>
 5   0  0.1560174E-06  0.2999350E+04  0.7818609E-02  0.8243916E-01
       -2   -1    0    0    0  501  0.00000000000E+00  0.00000000000E+00  0.14138332039E+04  0.14138332039E+04  0.25500000920E-02 0.  1.
        2   -1    0    0  501    0  0.00000000000E+00  0.00000000000E+00 -0.15907289542E+04  0.15907289542E+04  0.25500000920E-02 0. -1.
    10030    2    1    2    0    0  0.00000000000E+00  0.00000000000E+00 -0.17689575026E+03  0.30045621581E+04  0.29993502055E+04 0.  0.
        5    1    3    3  502    0 -0.78797122903E+03 -0.72282087045E+03 -0.11417666792E+04  0.15642959785E+04  0.46999998093E+01 0. -1.
       -5    1    3    3    0  502  0.78797122903E+03  0.72282087045E+03  0.96487092898E+03  0.14402661796E+04  0.46999998093E+01 0.  1.
</event>
<event>
 5   0  0.5431625E-07  0.2993607E+04  0.7818609E-02  0.8245559E-01
        4   -1    0    0  501    0  0.00000000000E+00  0.00000000000E+00  0.12061899399E+04  0.12061906084E+04  0.12699999809E+01 0. -1.
       -4   -1    0    0    0  501  0.00000000000E+00  0.00000000000E+00 -0.18574342106E+04  0.18574346448E+04  0.12699999809E+01 0.  1.
    10030    2    1    2    0    0  0.00000000000E+00  0.00000000000E+00 -0.65124427074E+03  0.30636252532E+04  0.29936066194E+04 0.  0.
        5    1    3    3  502    0 -0.39755924349E+03  0.20189040642E+03 -0.17878822702E+04  0.18426497743E+04  0.46999998093E+01 0.  1.
       -5    1    3    3    0  502  0.39755924349E+03 -0.20189040642E+03  0.11366379995E+04  0.12209754790E+04  0.46999998093E+01 0. -1.
</event>
<event>
 5   0  0.1560174E-06  0.3001177E+04  0.7818609E-02  0.8243395E-01
        2   -1    0    0  501    0  0.00000000000E+00  0.00000000000E+00  0.16944868195E+04  0.16944868195E+04  0.25500000920E-02 0.  1.
       -2   -1    0    0    0  501  0.00000000000E+00  0.00000000000E+00 -0.13288775805E+04  0.13288775805E+04  0.25500000920E-02 0. -1.
    10030    2    1    2    0    0  0.00000000000E+00  0.00000000000E+00  0.36560923900E+03  0.30233644000E+04  0.30011767991E+04 0.  0.
        5    1    3    3  502    0 -0.14813872258E+04  0.28694564336E+02 -0.56463328849E+02  0.14827480191E+04  0.46999998093E+01 0. -1.
       -5    1    3    3    0  502  0.14813872258E+04 -0.28694564336E+02  0.42207256785E+03  0.15406163809E+04  0.46999998093E+01 0.  1.
</event>
<event>
 5   0  0.5916703E-07  0.3002674E+04  0.7818609E-02  0.8242968E-01
       -1   -1    0    0    0  501  0.00000000000E+00  0.00000000000E+00  0.10679941537E+04  0.10679941537E+04  0.50400001928E-02 0.  1.
        1   -1    0    0  501    0  0.00000000000E+00  0.00000000000E+00 -0.21105108903E+04  0.21105108903E+04  0.50400001928E-02 0. -1.
    10030    2    1    2    0    0  0.00000000000E+00  0.00000000000E+00 -0.10425167366E+04  0.31785050440E+04  0.30026743361E+04 0.  0.
        5    1    3    3  502    0  0.11713493358E+04 -0.34364379826E+03 -0.14464168197E+04  0.18926949128E+04  0.46999998093E+01 0. -1.
       -5    1    3    3    0  502 -0.11713493358E+04  0.34364379826E+03  0.40390008303E+03  0.12858101313E+04  0.46999998093E+01 0.  1.
</event>
<event>
 5   0  0.5931588E-07  0.2999325E+04  0.7818609E-02  0.8243924E-01
        1   -1    0    0  501    0  0.00000000000E+00  0.00000000000E+00  0.17544734550E+04  0.17544734550E+04  0.50400001928E-02 0. -1.
       -1   -1    0    0    0  501  0.00000000000E+00  0.00000000000E+00 -0.12818590154E+04  0.12818590154E+04  0.50400001928E-02 0.  1.
    10030    2    1    2    0    0  0.00000000000E+00  0.00000000000E+00  0.47261443963E+03  0.30363324703E+04  0.29993250011E+04 0.  0.
        2    1    3    3  502    0  0.44088000752E+03 -0.12929530935E+04  0.86271886216E+03  0.16156691240E+04  0.25500000920E-02 0.  1.
       -2    1    3    3    0  502 -0.44088000752E+03  0.12929530935E+04 -0.39010442254E+03  0.14206633463E+04  0.25500000920E-02 0. -1.
</event>
<event>
 5   0  0.1723916E-06  0.2988885E+04  0.7818609E-02  0.8246912E-01
        2   -1    0    0  501    0  0.00000000000E+00  0.00000000000E+00  0.28789542409E+04  0.28789542409E+04  0.25500000920E-02 0. -1.
       -2   -1    0    0    0  501  0.00000000000E+00  0.00000000000E+00 -0.77575309056E+03  0.77575309057E+03  0.25500000920E-02 0.  1.
    10030    2    1    2    0    0  0.00000000000E+00  0.00000000000E+00  0.21032011504E+04  0.36547073315E+04  0.29888845076E+04 0.  0.
        1    1    3    3  502    0  0.91005979147E+03 -0.15349038862E+03  0.24888527902E+04  0.26544597067E+04  0.50400001928E-02 0. -1.
       -1    1    3    3    0  502 -0.91005979147E+03  0.15349038862E+03 -0.38565163984E+03  0.10002476247E+04  0.50400001928E-02 0.  1.
</event>
<event>
 5   0  0.5874741E-07  0.2994160E+04  0.7818609E-02  0.8245400E-01
        1   -1    0    0  501    0  0.00000000000E+00  0.00000000000E+00  0.13406459497E+04  0.13406459497E+04  0.50400001928E-02 0.  1.
       -1   -1    0    0    0  501  0.00000000000E+00  0.00000000000E+00 -0.16717681861E+04  0.16717681861E+04  0.50400001928E-02 0. -1.
    10030    2    1    2    0    0  0.00000000000E+00  0.00000000000E+00 -0.33112223641E+03  0.30124141359E+04  0.29941604818E+04 0.  0.
        4    1    3    3  502    0  0.10688196341E+04 -0.98732435526E+03 -0.51993398814E+03  0.15451594602E+04  0.12699999809E+01 0. -1.
       -4    1    3    3    0  502 -0.10688196341E+04  0.98732435526E+03  0.18881175173E+03  0.14672546756E+04  0.12699999809E+01 0.  1.
</event>
<event>
 5   0  0.1635086E-06  0.2971820E+04  0.7818609E-02  0.8251824E-01
       -2   -1    0    0    0  501  0.00000000000E+00  0.00000000000E+00  0.13154174595E+04  0.13154174595E+04  0.25500000920E-02 0. -1.
        2   -1    0    0  501    0  0.00000000000E+00  0.00000000000E+00 -0.16785006619E+04  0.16785006619E+04  0.25500000920E-02 0.  1.
    10030    2    1    2    0    0  0.00000000000E+00  0.00000000000E+00 -0.36308320235E+03  0.29939181214E+04  0.29718203690E+04 0.  0.
        3    1    3    3  502    0 -0.86074096173E+03  0.36877022995E+03  0.98075401866E+03  0.13560032968E+04  0.10100000352E+00 0. -1.
       -3    1    3    3    0  502  0.86074096173E+03 -0.36877022995E+03 -0.13438372210E+04  0.16379148246E+04  0.10100000352E+00 0.  1.
</event>
<event>
 5   0  0.5916703E-07  0.2982996E+04  0.7818609E-02  0.8248603E-01
        1   -1    0    0  501    0  0.00000000000E+00  0.00000000000E+00  0.12666216368E+04  0.12666216368E+04  0.50400001928E-02 0.  1.
       -1   -1    0    0    0  501  0.00000000000E+00  0.00000000000E+00 -0.17562985070E+04  0.17562985070E+04  0.50400001928E-02 0. -1.
    10030    2    1    2    0    0  0.00000000000E+00  0.00000000000E+00 -0.48967687018E+03  0.30229201438E+04  0.29829956015E+04 0.  0.
        5    1    3    3  502    0  0.12434878146E+04 -0.76043888713E+03 -0.56532160496E+03  0.15633745083E+04  0.46999998093E+01 0.  1.
       -5    1    3    3    0  502 -0.12434878146E+04  0.76043888713E+03  0.75644734775E+02  0.14595456355E+04  0.46999998093E+01 0. -1.
</event>
<event>
 5   0  0.5887179E-07  0.2994840E+04  0.7818609E-02  0.8245206E-01
        1   -1    0    0  501    0  0.00000000000E+00  0.00000000000E+00  0.15533854770E+04  0.15533854770E+04  0.50400001928E-02 0. -1.
       -1   -1    0    0    0  501  0.00000000000E+00  0.00000000000E+00 -0.14434707095E+04  0.14434707095E+04  0.50400001928E-02 0.  1.
    10030    2    1    2    0    0  0.00000000000E+00  0.00000000000E+00  0.10991476752E+03  0.29968561866E+04  0.29948398533E+04 0.  0.
        3    1    3    3  502    0 -0.56860915100E+03  0.24465950427E+02  0.14409355512E+04  0.15492611859E+04  0.10100000352E+00 0. -1.
       -3    1    3    3    0  502  0.56860915100E+03 -0.24465950427E+02 -0.13310207836E+04  0.14475950007E+04  0.10100000352E+00 0.  1.
</event>
<event>
 5   0  0.5431625E-07  0.3001500E+04  0.7818609E-02  0.8243303E-01
        3   -1    0    0  501    0  0.00000000000E+00  0.00000000000E+00  0.13577512652E+04  0.13577512690E+04  0.10100000352E+00 0.  1.
       -3   -1    0    0    0  501  0.00000000000E+00  0.00000000000E+00 -0.16588097861E+04  0.16588097891E+04  0.10100000352E+00 0. -1.
    10030    2    1    2    0    0  0.00000000000E+00  0.00000000000E+00 -0.30105852087E+03  0.30165610581E+04  0.30015003555E+04 0.  0.
        1    1    3    3  502    0 -0.10658224090E+04 -0.51671142861E+03 -0.10767189319E+04  0.16007160167E+04  0.50400001928E-02 0. -1.
       -1    1    3    3    0  502  0.10658224090E+04  0.51671142861E+03  0.77566041099E+03  0.14158450414E+04  0.50400001928E-02 0.  1.
</event>
<event>
 5   0  0.1674806E-06  0.3008041E+04  0.7818609E-02  0.8241439E-01
        2   -1    0    0  501    0  0.00000000000E+00  0.00000000000E+00  0.19633157401E+04  0.19633157401E+04  0.25500000920E-02 0.  1.
       -2   -1    0    0    0  501  0.00000000000E+00  0.00000000000E+00 -0.11521718584E+04  0.11521718584E+04  0.25500000920E-02 0. -1.
    10030    2    1    2    0    0  0.00000000000E+00  0.00000000000E+00  0.81114388170E+03  0.31154875986E+04  0.30080406547E+04 0.  0.
        2    1    3    3  502    0 -0.37236684027E+03  0.55554233991E+02  0.19137216141E+04  0.19504034846E+04  0.25500000920E-02 0.  1.
       -2    1    3    3    0  502  0.37236684027E+03 -0.55554233991E+02 -0.11025777324E+04  0.11650841140E+04  0.25500000920E-02 0. -1.
</event>
<event>
 5   0  0.1560174E-06  0.3003132E+04  0.7818609E-02  0.8242837E-01
        2   -1    0    0  501    0  0.00000000000E+00  0.00000000000E+00  0.14407383509E+04  0.14407383509E+04  0.25500000920E-02 0.  1.
       -2   -1    0    0    0  501  0.00000000000E+00  0.00000000000E+00 -0.15649612678E+04  0.15649612678E+04  0.25500000920E-02 0. -1.
    10030    2    1    2    0    0  0.00000000000E+00  0.00000000000E+00 -0.12422291685E+03  0.30056996187E+04  0.30031315098E+04 0.  0.
        5    1    3    3  502    0 -0.94100492465E+03  0.71281539963E+03  0.86662687433E+03  0.14644658724E+04  0.46999998093E+01 0.  1.
       -5    1    3    3    0  502  0.94100492465E+03 -0.71281539963E+03 -0.99084979118E+03  0.15412337463E+04  0.46999998093E+01 0. -1.
</event>
<event>
 5   0  0.5874741E-07  0.3021234E+04  0.7818609E-02  0.8237693E-01
       -1   -1    0    0    0  501  0.00000000000E+00  0.00000000000E+00  0.12819454421E+04  0.12819454421E+04  0.50400001928E-02 0.  1.
        1   -1    0    0  501    0  0.00000000000E+00  0.00000000000E+00 -0.17800785823E+04  0.17800785823E+04  0.50400001928E-02 0. -1.
    10030    2    1    2    0    0  0.00000000000E+00  0.00000000000E+00 -0.49813314022E+03  0.30620240244E+04  0.30212339367E+04 0.  0.
        4    1    3    3  502    0  0.11394176142E+03  0.15060168275E+04 -0.21878674869E+03  0.15260860605E+04  0.12699999809E+01 0.  1.
       -4    1    3    3    0  502 -0.11394176142E+03 -0.15060168275E+04 -0.27934639153E+03  0.15359379639E+04  0.12699999809E+01 0. -1.
</event>
<event>
 5   0  0.1625212E-06  0.3003456E+04  0.7818609E-02  0.8242745E-01
        2   -1    0    0  501    0  0.00000000000E+00  0.00000000000E+00  0.18232226033E+04  0.18232226033E+04  0.25500000920E-02 0. -1.
       -2   -1    0    0    0  501  0.00000000000E+00  0.00000000000E+00 -0.12369232739E+04  0.12369232739E+04  0.25500000920E-02 0.  1.
    10030    2    1    2    0    0  0.00000000000E+00  0.00000000000E+00  0.58629932938E+03  0.30601458772E+04  0.30034556574E+04 0.  0.
        4    1    3    3  502    0 -0.13688872124E+03 -0.49993242919E+03 -0.11428909063E+04  0.12549391190E+04  0.12699999809E+01 0.  1.
       -4    1    3    3    0  502  0.13688872124E+03  0.49993242919E+03  0.17291902357E+04  0.18052067582E+04  0.12699999809E+01 0. -1.
</event>
<event>
 5   0  0.5916703E-07  0.2999291E+04  0.7818609E-02  0.8243933E-01
        1   -1    0    0  501    0  0.00000000000E+00  0.00000000000E+00  0.17798636854E+04  0.17798636854E+04  0.50400001928E-02 0.  1.
       -1   -1    0    0    0  501  0.00000000000E+00  0.00000000000E+00 -0.12635439883E+04  0.12635439883E+04  0.50400001928E-02 0. -1.
    10030    2    1    2    0    0  0.00000000000E+00  0.00000000000E+00  0.51631969715E+03  0.30434076737E+04  0.29992906226E+04 0.  0.
        5    1    3    3  502    0 -0.30639984883E+03  0.43953989311E+03  0.16794185251E+04  0.17628229796E+04  0.46999998093E+01 0.  1.
       -5    1    3    3    0  502  0.30639984883E+03 -0.43953989311E+03 -0.11630988280E+04  0.12805846940E+04  0.46999998093E+01 0. -1.
</event>
<event>
 5   0  0.1674806E-06  0.2989889E+04  0.7818609E-02  0.8246624E-01
       -2   -1    0    0    0  501  0.00000000000E+00  0.00000000000E+00  0.11605286753E+04  0.11605286753E+04  0.25500000920E-02 0. -1.
        2   -1    0    0  501    0  0.00000000000E+00  0.00000000000E+00 -0.19257255479E+04  0.19257255479E+04  0.25500000920E-02 0.  1.
    10030    2    1    2    0    0  0.00000000000E+00  0.00000000000E+00 -0.76519687259E+03  0.30862542232E+04  0.29898894422E+04 0.  0.
        2    1    3    3  502    0  0.11379984695E+04 -0.94755433655E+03 -0.59404187517E+03  0.15955517813E+04  0.25500000920E-02 0.  1.
       -2    1    3    3    0  502 -0.11379984695E+04  0.94755433655E+03 -0.17115499742E+03  0.14907024419E+04  0.25500000920E-02 0. -1.
</event>
<event>
 5   0  0.1635086E-06  0.3003491E+04  0.7818609E-02  0.8242735E-01
       -2   -1    0    0    0  501  0.00000000000E+00  0.00000000000E+00  0.78294331188E+03  0.78294331188E+03  0.25500000920E-02 0. -1.
        2   -1    0    0  501    0  0.00000000000E+00  0.00000000000E+00 -0.28804624460E+04  0.28804624460E+04  0.25500000920E-02 0.  1.
    10030    2    1    2    0    0  0.00000000000E+00  0.00000000000E+00 -0.20975191341E+04  0.36634057579E+04  0.30034905075E+04 0.  0.
        3    1    3    3  502    0  0.72133419934E+02 -0.89745220794E+03 -0.25147624865E+04  0.26710773238E+04  0.10100000352E+00 0.  1.
       -3    1    3    3    0  502 -0.72133419934E+02  0.89745220794E+03  0.41724335240E+03  0.99232843410E+03  0.10100000352E+00 0. -1.
</event>
<event>
 5   0  0.5931588E-07  0.3012303E+04  0.7818609E-02  0.8240226E-01
        1   -1    0    0  501    0  0.00000000000E+00  0.00000000000E+00  0.20644311814E+04  0.20644311814E+04  0.50400001928E-02 0. -1.
       -1   -1    0    0    0  501  0.00000000000E+00  0.00000000000E+00 -0.10988459497E+04  0.10988459497E+04  0.50400001928E-02 0.  1.
    10030    2    1    2    0    0  0.00000000000E+00  0.00000000000E+00  0.96558523165E+03  0.31632771311E+04  0.30123026689E+04 0.  0.
        2    1    3    3  502    0  0.39319422573E+02 -0.81325139893E+03 -0.84782413152E+03  0.11754699540E+04  0.25500000920E-02 0.  1.
       -2    1    3    3    0  502 -0.39319422573E+02  0.81325139893E+03  0.18134093632E+04  0.19878071771E+04  0.25500000920E-02 0. -1.
</event>
<event>
 5   0  0.5916703E-07  0.2987130E+04  0.7818609E-02  0.8247415E-01
       -1   -1    0    0    0  501  0.00000000000E+00  0.00000000000E+00  0.11432588919E+04  0.11432588919E+04  0.50400001928E-02 0.  1.
        1   -1    0    0  501    0  0.00000000000E+00  0.00000000000E+00 -0.19512088794E+04  0.19512088794E+04  0.50400001928E-02 0. -1.
    10030    2    1    2    0    0  0.00000000000E+00  0.00000000000E+00 -0.80794998751E+03  0.30944677713E+04  0.29871303295E+04 0.  0.
        5    1    3    3  502    0  0.37730979580E+03  0.23778669017E+03  0.10726604837E+04  0.11616917816E+04  0.46999998093E+01 0.  1.
       -5    1    3    3    0  502 -0.37730979580E+03 -0.23778669017E+03 -0.18806104712E+04  0.19327759898E+04  0.46999998093E+01 0. -1.
</event>
<event>
 5   0  0.1635086E-06  0.2980829E+04  0.7818609E-02  0.8249227E-01
       -2   -1    0    0    0  501  0.00000000000E+00  0.00000000000E+00  0.13655653874E+04  0.13655653874E+04  0.25500000920E-02 0.  1.
        2   -1    0    0  501    0  0.00000000000E+00  0.00000000000E+00 -0.16266776571E+04  0.16266776572E+04  0.25500000920E-02 0. -1.
    10030    2    1    2    0    0  0.00000000000E+00  0.00000000000E+00 -0.26111226977E+03  0.29922430445E+04  0.29808285459E+04 0.  0.
        3    1    3    3  502    0  0.10262172158E+04 -0.10360652562E+04 -0.43960142541E+03  0.15230897585E+04  0.10100000352E+00 0. -1.
       -3    1    3    3    0  502 -0.10262172158E+04  0.10360652562E+04  0.17848915564E+03  0.14691532860E+04  0.10100000352E+00 0.  1.
</event>
<event>
 5   0  0.1635086E-06  0.3009230E+04  0.7818609E-02  0.8241100E-01
       -2   -1    0    0    0  501  0.00000000000E+00  0.00000000000E+00  0.15942049326E+04  0.15942049326E+04  0.25500000920E-02 0. -1.
        2   -1    0    0  501    0  0.00000000000E+00  0.00000000000E+00 -0.14200597646E+04  0.14200597646E+04  0.25500000920E-02 0.  1.
    10030    2    1    2    0    0  0.00000000000E+00  0.00000000000E+00  0.17414516806E+03  0.30142646972E+04  0.30092299888E+04 0.  0.
        3    1    3    3  502    0 -0.14771143022E+04  0.22900114072E+03 -0.85139715829E+02  0.14971830101E+04  0.10100000352E+00 0. -1.
       -3    1    3    3    0  502  0.14771143022E+04 -0.22900114072E+03  0.25928488389E+03  0.15170816871E+04  0.10100000352E+00 0.  1.
</event>
<event>
 5   0  0.1674806E-06  0.2976189E+04  0.7818609E-02  0.8250563E-01
        2   -1    0    0  501    0  0.00000000000E+00  0.00000000000E+00  0.15593439173E+04  0.15593439173E+04  0.25500000920E-02 0. -1.
       -2   -1    0    0    0  501  0.00000000000E+00  0.00000000000E+00 -0.14201005244E+04  0.14201005244E+04  0.25500000920E-02 0.  1.
    10030    2    1    2    0    0  0.00000000000E+00  0.00000000000E+00  0.13924339286E+03  0.29794444417E+04  0.29761889152E+04 0.  0.
        2    1    3    3  502    0  0.11501726456E+04 -0.41077974165E+03  0.92072105771E+03  0.15294980801E+04  0.25500000920E-02 0. -1.
       -2    1    3    3    0  502 -0.11501726456E+04  0.41077974165E+03 -0.78147766485E+03  0.14499463616E+04  0.25500000920E-02 0.  1.
</event>
<event>
 5   0  0.6291798E-07  0.3005661E+04  0.7818609E-02  0.8242116E-01
        1   -1    0    0  501    0  0.00000000000E+00  0.00000000000E+00  0.14561677744E+04  0.14561677744E+04  0.50400001928E-02 0.  1.
       -1   -1    0    0    0  501  0.00000000000E+00  0.00000000000E+00 -0.15509882968E+04  0.15509882968E+04  0.50400001928E-02 0. -1.
    10030    2    1    2    0    0  0.00000000000E+00  0.00000000000E+00 -0.94820522396E+02  0.30071560712E+04  0.30056607768E+04 0.  0.
        1    1    3    3  502    0  0.34218192522E+03 -0.11077835519E+04 -0.10040377627E+04  0.15337420568E+04  0.50400001928E-02 0. -1.
       -1    1    3    3    0  502 -0.34218192522E+03  0.11077835519E+04  0.90921724033E+03  0.14734140144E+04  0.50400001928E-02 0.  1.
</event>
<event>
 5   0  0.1625212E-06  0.3002625E+04  0.7818609E-02  0.8242982E-01
        2   -1    0    0  501    0  0.00000000000E+00  0.00000000000E+00  0.15166433654E+04  0.15166433655E+04  0.25500000920E-02 0. -1.
       -2   -1    0    0    0  501  0.00000000000E+00  0.00000000000E+00 -0.14861369517E+04  0.14861369517E+04  0.25500000920E-02 0.  1.
    10030    2    1    2    0    0  0.00000000000E+00  0.00000000000E+00  0.30506413788E+02  0.30027803171E+04  0.30026253499E+04 0.  0.
        4    1    3    3  502    0  0.11636650802E+04 -0.82675562153E+03 -0.44984805659E+03  0.14966650138E+04  0.12699999809E+01 0.  1.
       -4    1    3    3    0  502 -0.11636650802E+04  0.82675562153E+03  0.48035447038E+03  0.15061153033E+04  0.12699999809E+01 0. -1.
</event>
<event>
 5   0  0.1635086E-06  0.2994763E+04  0.7818609E-02  0.8245228E-01
        2   -1    0    0  501    0  0.00000000000E+00  0.00000000000E+00  0.23873744263E+04  0.23873744263E+04  0.25500000920E-02 0. -1.
       -2   -1    0    0    0  501  0.00000000000E+00  0.00000000000E+00 -0.93917038258E+03  0.93917038258E+03  0.25500000920E-02 0.  1.
    10030    2    1    2    0    0  0.00000000000E+00  0.00000000000E+00  0.14482040437E+04  0.33265448088E+04  0.29947629978E+04 0.  0.
        3    1    3    3  502    0 -0.95994812324E+03  0.11059944865E+03  0.19946886823E+04  0.22164195421E+04  0.10100000352E+00 0. -1.
       -3    1    3    3    0  502  0.95994812324E+03 -0.11059944865E+03 -0.54648463859E+03  0.11101252667E+04  0.10100000352E+00 0.  1.
</event>
<event>
 5   0  0.5931588E-07  0.2995267E+04  0.7818609E-02  0.8245084E-01
        1   -1    0    0  501    0  0.00000000000E+00  0.00000000000E+00  0.10779996128E+04  0.10779996129E+04  0.50400001928E-02 0.  1.
       -1   -1    0    0    0  501  0.00000000000E+00  0.00000000000E+00 -0.20806188818E+04  0.20806188819E+04  0.50400001928E-02 0. -1.
    10030    2    1    2    0    0  0.00000000000E+00  0.00000000000E+00 -0.10026192690E+04  0.31586184947E+04  0.29952671661E+04 0.  0.
        2    1    3    3  502    0 -0.74233581476E+03  0.12243330259E+04 -0.38210171496E+02  0.14323106637E+04  0.25500000920E-02 0.  1.
       -2    1    3    3    0  502  0.74233581476E+03 -0.12243330259E+04 -0.96440909751E+03  0.17263078310E+04  0.25500000920E-02 0. -1.
</event>
<event>
 5   0  0.6291798E-07  0.3006881E+04  0.7818609E-02  0.8241769E-01
        1   -1    0    0  501    0  0.00000000000E+00  0.00000000000E+00  0.11675728303E+04  0.11675728303E+04  0.50400001928E-02 0.  1.
       -1   -1    0    0    0  501  0.00000000000E+00  0.00000000000E+00 -0.19359245022E+04  0.19359245022E+04  0.50400001928E-02 0. -1.
    10030    2    1    2    0    0  0.00000000000E+00  0.00000000000E+00 -0.76835167191E+03  0.31034973325E+04  0.30068806762E+04 0.  0.
        1    1    3    3  502    0  0.32332749440E+03 -0.52782411006E+03 -0.17983071798E+04  0.19018537464E+04  0.50400001928E-02 0. -1.
       -1    1    3    3    0  502 -0.32332749440E+03  0.52782411006E+03  0.10299555079E+04  0.12016435861E+04  0.50400001928E-02 0.  1.
</event>
<event>
 5   0  0.1723916E-06  0.2992816E+04  0.7818609E-02  0.8245785E-01
        2   -1    0    0  501    0  0.00000000000E+00  0.00000000000E+00  0.19345779850E+04  0.19345779850E+04  0.25500000920E-02 0. -1.
       -2   -1    0    0    0  501  0.00000000000E+00  0.00000000000E+00 -0.11574811156E+04  0.11574811156E+04  0.25500000920E-02 0.  1.
    10030    2    1    2    0    0  0.00000000000E+00  0.00000000000E+00  0.77709686940E+03  0.30920591006E+04  0.29928163888E+04 0.  0.
        1    1    3    3  502    0 -0.30556794314E+03 -0.11455194764E+04 -0.55477323357E+03  0.13089537728E+04  0.50400001928E-02 0.  1.
       -1    1    3    3    0  502  0.30556794314E+03  0.11455194764E+04  0.13318701030E+04  0.17831053278E+04  0.50400001928E-02 0. -1.
</event>
<event>
 5   0  0.5916703E-07  0.2998057E+04  0.7818609E-02  0.8244286E-01
       -1   -1    0    0    0  501  0.00000000000E+00  0.00000000000E+00  0.98562967729E+03  0.98562967730E+03  0.50400001928E-02 0. -1.
        1   -1    0    0  501    0  0.00000000000E+00  0.00000000000E+00 -0.22798493511E+04  0.22798493511E+04  0.50400001928E-02 0.  1.
    10030    2    1    2    0    0  0.00000000000E+00  0.00000000000E+00 -0.12942196739E+04  0.32654790285E+04  0.29980574913E+04 0.  0.
        5    1    3    3  502    0 -0.95448629552E+03  0.45336326388E+02  0.61088616412E+03  0.11341531935E+04  0.46999998093E+01 0. -1.
       -5    1    3    3    0  502  0.95448629552E+03 -0.45336326388E+02 -0.19051058380E+04  0.21313258349E+04  0.46999998093E+01 0.  1.
</event>
<event>
 5   0  0.6291798E-07  0.2976804E+04  0.7818609E-02  0.8250386E-01
       -1   -1    0    0    0  501  0.00000000000E+00  0.00000000000E+00  0.18616662818E+04  0.18616662819E+04  0.50400001928E-02 0.  1.
        1   -1    0    0  501    0  0.00000000000E+00  0.00000000000E+00 -0.11899769155E+04  0.11899769155E+04  0.50400001928E-02 0. -1.
    10030    2    1    2    0    0  0.00000000000E+00  0.00000000000E+00  0.67168936633E+03  0.30516431974E+04  0.29768035876E+04 0.  0.
        1    1    3    3  502    0  0.63200226470E+03  0.12109099811E+04 -0.27029892633E+03  0.13924048816E+04  0.50400001928E-02 0. -1.
       -1    1    3    3    0  502 -0.63200226470E+03 -0.12109099811E+04  0.94198829266E+03  0.16592383157E+04  0.50400001928E-02 0.  1.
</event>
<event>
 5   0  0.1635086E-06  0.2963668E+04  0.7818609E-02  0.8254183E-01
       -2   -1    0    0    0  501  0.00000000000E+00  0.00000000000E+00  0.97180788664E+03  0.97180788665E+03  0.25500000920E-02 0.  1.
        2   -1    0    0  501    0  0.00000000000E+00  0.00000000000E+00 -0.22595327052E+04  0.22595327052E+04  0.25500000920E-02 0. -1.
    10030    2    1    2    0    0  0.00000000000E+00  0.00000000000E+00 -0.12877248186E+04  0.32313405919E+04  0.29636677972E+04 0.  0.
        3    1    3    3  502    0  0.15816732247E+03  0.43206076459E+03 -0.21796783953E+04  0.22277098832E+04  0.10100000352E+00 0. -1.
       -3    1    3    3    0  502 -0.15816732247E+03 -0.43206076459E+03  0.89195357675E+03  0.10036307087E+04  0.10100000352E+00 0.  1.
</event>
<event>
 5   0  0.5874741E-07  0.3007574E+04  0.7818609E-02  0.8241571E-01
       -1   -1    0    0    0  501  0.00000000000E+00  0.00000000000E+00  0.12738023348E+04  0.12738023349E+04  0.50400001928E-02 0.  1.
        1   -1    0    0  501    0  0.00000000000E+00  0.00000000000E+00 -0.17752954640E+04  0.17752954640E+04  0.50400001928E-02 0. -1.
    10030    2    1    2    0    0  0.00000000000E+00  0.00000000000E+00 -0.50149312918E+03  0.30490977989E+04  0.30075741102E+04 0.  0.
        4    1    3    3  502    0  0.54624494558E+02 -0.57499192108E+03 -0.16583590666E+04  0.17560626274E+04  0.12699999809E+01 0. -1.
       -4    1    3    3    0  502 -0.54624494558E+02  0.57499192108E+03  0.11568659374E+04  0.12930351715E+04  0.12699999809E+01 0.  1.
</event>
<event>
 5   0  0.6291798E-07  0.3004594E+04  0.7818609E-02  0.8242420E-01
       -1   -1    0    0    0  501  0.00000000000E+00  0.00000000000E+00  0.17535251959E+04  0.17535251959E+04  0.50400001928E-02 0. -1.
        1   -1    0    0  501    0  0.00000000000E+00  0.00000000000E+00 -0.12870626855E+04  0.12870626855E+04  0.50400001928E-02 0.  1.
    10030    2    1    2    0    0  0.00000000000E+00  0.00000000000E+00  0.46646251035E+03  0.30405878814E+04  0.30045943805E+04 0.  0.
        1    1    3    3  502    0  0.12182040894E+04 -0.60644563897E+03 -0.41086751914E+03  0.14214814930E+04  0.50400001928E-02 0.  1.
       -1    1    3    3    0  502 -0.12182040894E+04  0.60644563897E+03  0.87733002949E+03  0.16191063885E+04  0.50400001928E-02 0. -1.
</event>
<event>
 5   0  0.5931588E-07  0.3003571E+04  0.7818609E-02  0.8242712E-01
       -1   -1    0    0    0  501  0.00000000000E+00  0.00000000000E+00  0.10593430350E+04  0.10593430350E+04  0.50400001928E-02 0. -1.
        1   -1    0    0  501    0  0.00000000000E+00  0.00000000000E+00 -0.21290178053E+04  0.21290178053E+04  0.50400001928E-02 0.  1.
    10030    2    1    2    0    0  0.00000000000E+00  0.00000000000E+00 -0.10696747702E+04  0.31883608403E+04  0.30035713299E+04 0.  0.
        2    1    3    3  502    0  0.14931025486E+04  0.95937502632E+02 -0.39724431973E+03  0.15480188224E+04  0.25500000920E-02 0. -1.
       -2    1    3    3    0  502 -0.14931025486E+04 -0.95937502632E+02 -0.67243045051E+03  0.16403420179E+04  0.25500000920E-02 0.  1.
</event>
<event>
 5   0  0.1723916E-06  0.2983173E+04  0.7818609E-02  0.8248552E-01
       -2   -1    0    0    0  501  0.00000000000E+00  0.00000000000E+00  0.10957565795E+04  0.10957565795E+04  0.25500000920E-02 0.  1.
        2   -1    0    0  501    0  0.00000000000E+00  0.00000000000E+00 -0.20304058240E+04  0.20304058240E+04  0.25500000920E-02 0. -1.
    10030    2    1    2    0    0  0.00000000000E+00  0.00000000000E+00 -0.93464924452E+03  0.31261624036E+04  0.29831731702E+04 0.  0.
        1    1    3    3  502    0  0.27162454202E+03  0.12413236869E+04  0.35124783531E+03  0.13183472340E+04  0.50400001928E-02 0.  1.
       -1    1    3    3    0  502 -0.27162454202E+03 -0.12413236869E+04 -0.12858970798E+04  0.18078151696E+04  0.50400001928E-02 0. -1.
</event>
<event>
 5   0  0.5431625E-07  0.3026061E+04  0.7818609E-02  0.8236328E-01
        3   -1    0    0  501    0  0.00000000000E+00  0.00000000000E+00  0.16097603179E+04  0.16097603211E+04  0.10100000352E+00 0. -1.
       -3   -1    0    0    0  501  0.00000000000E+00  0.00000000000E+00 -0.14221133713E+04  0.14221133749E+04  0.10100000352E+00 0.  1.
    10030    2    1    2    0    0  0.00000000000E+00  0.00000000000E+00  0.18764694668E+03  0.30318736960E+04  0.30260612571E+04 0.  0.
        1    1    3    3  502    0 -0.57014405788E+03 -0.13066837891E+03 -0.13042503581E+04  0.14294080833E+04  0.50400001928E-02 0.  1.
       -1    1    3    3    0  502  0.57014405788E+03  0.13066837891E+03  0.14918973047E+04  0.16024656127E+04  0.50400001928E-02 0. -1.
</event>
<event>
 5   0  0.1635086E-06  0.2996163E+04  0.7818609E-02  0.8244828E-01
       -2   -1    0    0    0  501  0.00000000000E+00  0.00000000000E+00  0.11922559015E+04  0.11922559015E+04  0.25500000920E-02 0. -1.
        2   -1    0    0  501    0  0.00000000000E+00  0.00000000000E+00 -0.18823538827E+04  0.18823538827E+04  0.25500000920E-02 0.  1.
    10030    2    1    2    0    0  0.00000000000E+00  0.00000000000E+00 -0.69009798120E+03  0.30746097842E+04  0.29961625625E+04 0.  0.
        3    1    3    3  502    0  0.70377902181E+03 -0.49483344510E+03  0.91347197794E+03  0.12548291177E+04  0.10100000352E+00 0. -1.
       -3    1    3    3    0  502 -0.70377902181E+03  0.49483344510E+03 -0.16035699591E+04  0.18197806665E+04  0.10100000352E+00 0.  1.
</event>
<event>
 5   0  0.1674806E-06  0.2962436E+04  0.7818609E-02  0.8254540E-01
       -2   -1    0    0    0  501  0.00000000000E+00  0.00000000000E+00  0.95254685284E+03  0.95254685284E+03  0.25500000920E-02 0.  1.
        2   -1    0    0  501    0  0.00000000000E+00  0.00000000000E+00 -0.23033055185E+04  0.23033055185E+04  0.25500000920E-02 0. -1.
    10030    2    1    2    0    0  0.00000000000E+00  0.00000000000E+00 -0.13507586656E+04  0.32558523713E+04  0.29624357699E+04 0.  0.
        2    1    3    3  502    0 -0.11014828038E+04  0.30884225850E+02  0.41250286140E+03  0.11765954331E+04  0.25500000920E-02 0.  1.
       -2    1    3    3    0  502  0.11014828038E+04 -0.30884225850E+02 -0.17632615270E+04  0.20792569382E+04  0.25500000920E-02 0. -1.
</event>
<event>
 5   0  0.1625212E-06  0.3006739E+04  0.7818609E-02  0.8241809E-01
       -2   -1    0    0    0  501  0.00000000000E+00  0.00000000000E+00  0.12741585299E+04  0.12741585299E+04  0.25500000920E-02 0.  1.
        2   -1    0    0  501    0  0.00000000000E+00  0.00000000000E+00 -0.17738142179E+04  0.17738142179E+04  0.25500000920E-02 0. -1.
    10030    2    1    2    0    0  0.00000000000E+00  0.00000000000E+00 -0.49965568801E+03  0.30479727478E+04  0.30067394408E+04 0.  0.
        4    1    3    3  502    0  0.80019523628E+03 -0.10467911640E+04  0.48400192749E+03  0.14036892946E+04  0.12699999809E+01 0.  1.
       -4    1    3    3    0  502 -0.80019523628E+03  0.10467911640E+04 -0.98365761550E+03  0.16442834532E+04  0.12699999809E+01 0. -1.
</event>
<event>
 5   0  0.1635086E-06  0.2975636E+04  0.7818609E-02  0.8250722E-01
       -2   -1    0    0    0  501  0.00000000000E+00  0.00000000000E+00  0.18684968467E+04  0.18684968467E+04  0.25500000920E-02 0. -1.
        2   -1    0    0  501    0  0.00000000000E+00  0.00000000000E+00 -0.11846971454E+04  0.11846971455E+04  0.25500000920E-02 0.  1.
    10030    2    1    2    0    0  0.00000000000E+00  0.00000000000E+00  0.68379970126E+03  0.30531939922E+04  0.29756363223E+04 0.  0.
        3    1    3    3  502    0 -0.22073922036E+03 -0.58371631569E+03 -0.10439146424E+04  0.12162270888E+04  0.10100000352E+00 0.  1.
       -3    1    3    3    0  502  0.22073922036E+03  0.58371631569E+03  0.17277143437E+04  0.18369669034E+04  0.10100000352E+00 0. -1.
</event>
<event>
 5   0  0.6291798E-07  0.3002766E+04  0.7818609E-02  0.8242942E-01
       -1   -1    0    0    0  501  0.00000000000E+00  0.00000000000E+00  0.25742085414E+04  0.25742085414E+04  0.50400001928E-02 0.  1.
        1   -1    0    0  501    0  0.00000000000E+00  0.00000000000E+00 -0.87566746358E+03  0.87566746360E+03  0.50400001928E-02 0. -1.
    10030    2    1    2    0    0  0.00000000000E+00  0.00000000000E+00  0.16985410779E+04  0.34498760050E+04  0.30027658345E+04 0.  0.
        1    1    3    3  502    0  0.66288876845E+03 -0.13422242251E+04  0.98108528210E+03  0.17898367860E+04  0.50400001928E-02 0. -1.
       -1    1    3    3    0  502 -0.66288876845E+03  0.13422242251E+04  0.71745579575E+03  0.16600392190E+04  0.50400001928E-02 0.  1.
</event>
<event>
 5   0  0.5431625E-07  0.3006870E+04  0.7818609E-02  0.8241772E-01
        3   -1    0    0  501    0  0.00000000000E+00  0.00000000000E+00  0.14951484358E+04  0.14951484392E+04  0.10100000352E+00 0. -1.
       -3   -1    0    0    0  501  0.00000000000E+00  0.00000000000E+00 -0.15117675338E+04  0.15117675372E+04  0.10100000352E+00 0.  1.
    10030    2    1    2    0    0  0.00000000000E+00  0.00000000000E+00 -0.16619098051E+02  0.30069159764E+04  0.30068700495E+04 0.  0.
        4    1    3    3  502    0 -0.28711674164E+03  0.13725092992E+04  0.53400626773E+03  0.15004606315E+04  0.12699999809E+01 0. -1.
       -4    1    3    3    0  502  0.28711674164E+03 -0.13725092992E+04 -0.55062536578E+03  0.15064553449E+04  0.12699999809E+01 0.  1.
</event>
<event>
 5   0  0.1625212E-06  0.3011142E+04  0.7818609E-02  0.8240556E-01
        2   -1    0    0  501    0  0.00000000000E+00  0.00000000000E+00  0.26002810782E+04  0.26002810782E+04  0.25500000920E-02 0.  1.
       -2   -1    0    0    0  501  0.00000000000E+00  0.00000000000E+00 -0.87173027262E+03  0.87173027263E+03  0.25500000920E-02 0. -1.
    10030    2    1    2    0    0  0.00000000000E+00  0.00000000000E+00  0.17285508056E+04  0.34720113509E+04  0.30111417989E+04 0.  0.
        4    1    3    3  502    0 -0.72069889133E+03 -0.71530612147E+03 -0.41746949883E+03  0.10978853013E+04  0.12699999809E+01 0. -1.
       -4    1    3    3    0  502  0.72069889133E+03  0.71530612147E+03  0.21460203044E+04  0.23741260496E+04  0.12699999809E+01 0.  1.
</event>
<event>
 5   0  0.1674806E-06  0.2987127E+04  0.7818609E-02  0.8247416E-01
        2   -1    0    0  501    0  0.00000000000E+00  0.00000000000E+00  0.19110649242E+04  0.19110649242E+04  0.25500000920E-02 0.  1.
       -2   -1    0    0    0  501  0.00000000000E+00  0.00000000000E+00 -0.11672719055E+04  0.11672719055E+04  0.25500000920E-02 0. -1.
    10030    2    1    2    0    0  0.00000000000E+00  0.00000000000E+00  0.74379301869E+03  0.30783368297E+04  0.29871273127E+04 0.  0.
        2    1    3    3  502    0  0.49988238608E+03 -0.36044901843E+03  0.17739254947E+04  0.18779290603E+04  0.25500000920E-02 0.  1.
       -2    1    3    3    0  502 -0.49988238608E+03  0.36044901843E+03 -0.10301324760E+04  0.12004077694E+04  0.25500000920E-02 0. -1.
</event>
<event>
 5   0  0.5931588E-07  0.3002097E+04  0.7818609E-02  0.8243132E-01
       -1   -1    0    0    0  501  0.00000000000E+00  0.00000000000E+00  0.15316127825E+04  0.15316127825E+04  0.50400001928E-02 0.  1.
        1   -1    0    0  501    0  0.00000000000E+00  0.00000000000E+00 -0.14710941853E+04  0.14710941853E+04  0.50400001928E-02 0. -1.
    10030    2    1    2    0    0  0.00000000000E+00  0.00000000000E+00  0.60518597199E+02  0.30027069678E+04  0.30020970393E+04 0.  0.
        2    1    3    3  502    0 -0.96587344341E+03 -0.62559219365E+03 -0.93371530036E+03  0.14819248846E+04  0.25500000920E-02 0. -1.
       -2    1    3    3    0  502  0.96587344341E+03  0.62559219365E+03  0.99423389756E+03  0.15207820832E+04  0.25500000920E-02 0.  1.
</event>
<event>
 5   0  0.5931588E-07  0.2992305E+04  0.7818609E-02  0.8245932E-01
       -1   -1    0    0    0  501  0.00000000000E+00  0.00000000000E+00  0.10764142999E+04  0.10764142999E+04  0.50400001928E-02 0. -1.
        1   -1    0    0  501    0  0.00000000000E+00  0.00000000000E+00 -0.20795636705E+04  0.20795636705E+04  0.50400001928E-02 0.  1.
    10030    2    1    2    0    0  0.00000000000E+00  0.00000000000E+00 -0.10031493707E+04  0.31559779704E+04  0.29923048457E+04 0.  0.
        2    1    3    3  502    0 -0.58051080680E+03 -0.13777035675E+04 -0.43996591334E+03  0.15584062120E+04  0.25500000920E-02 0. -1.
       -2    1    3    3    0  502  0.58051080680E+03  0.13777035675E+04 -0.56318345734E+03  0.15975717584E+04  0.25500000920E-02 0.  1.
</event>
<event>
 5   0  0.1723916E-06  0.3011144E+04  0.7818609E-02  0.8240556E-01
       -2   -1    0    0    0  501  0.00000000000E+00  0.00000000000E+00  0.97735725951E+03  0.97735725951E+03  0.25500000920E-02 0.  1.
        2   -1    0    0  501    0  0.00000000000E+00  0.00000000000E+00 -0.23192612442E+04  0.23192612442E+04  0.25500000920E-02 0. -1.
    10030    2    1    2    0    0  0.00000000000E+00  0.00000000000E+00 -0.13419039847E+04  0.32966185037E+04  0.30111438449E+04 0.  0.
        1    1    3    3  502    0  0.51040116200E+03  0.88600185173E+03  0.53891429985E+03  0.11558275174E+04  0.50400001928E-02 0.  1.
       -1    1    3    3    0  502 -0.51040116200E+03 -0.88600185173E+03 -0.18808182845E+04  0.21407909863E+04  0.50400001928E-02 0. -1.
</event>
<event>
 5   0  0.6291798E-07  0.3010215E+04  0.7818609E-02  0.8240820E-01
        1   -1    0    0  501    0  0.00000000000E+00  0.00000000000E+00  0.28382342838E+04  0.28382342838E+04  0.50400001928E-02 0. -1.
       -1   -1    0    0    0  501  0.00000000000E+00  0.00000000000E+00 -0.79815437234E+03  0.79815437236E+03  0.50400001928E-02 0.  1.
    10030    2    1    2    0    0  0.00000000000E+00  0.00000000000E+00  0.20400799115E+04  0.36363886562E+04  0.30102153434E+04 0.  0.
        1    1    3    3  502    0  0.49743001031E+02  0.77753886136E+03 -0.53558655079E+03  0.94545967682E+03  0.50400001928E-02 0.  1.
       -1    1    3    3    0  502 -0.49743001031E+02 -0.77753886136E+03  0.25756664623E+04  0.26909289794E+04  0.50400001928E-02 0. -1.
</event>
<event>
 5   0  0.5916703E-07  0.2994598E+04  0.7818609E-02  0.8245275E-01
        1   -1    0    0  501    0  0.00000000000E+00  0.00000000000E+00  0.20183477905E+04  0.20183477905E+04  0.50400001928E-02 0. -1.
       -1   -1    0    0    0  501  0.00000000000E+00  0.00000000000E+00 -0.11107619195E+04  0.11107619195E+04  0.50400001928E-02 0.  1.
    10030    2    1    2    0    0  0.00000000000E+00  0.00000000000E+00  0.90758587095E+03  0.31291097100E+04  0.29945977132E+04 0.  0.
        5    1    3    3  502    0 -0.17955395760E+03 -0.42316197029E+03  0.19427834690E+04  0.19964306585E+04  0.46999998093E+01 0. -1.
       -5    1    3    3    0  502  0.17955395760E+03  0.42316197029E+03 -0.10351975980E+04  0.11326790515E+04  0.46999998093E+01 0.  1.
</event>
<event>
 5   0  0.6291798E-07  0.3006132E+04  0.7818609E-02  0.8241982E-01
       -1   -1    0    0    0  501  0.00000000000E+00  0.00000000000E+00  0.10673400380E+04  0.10673400381E+04  0.50400001928E-02 0.  1.
        1   -1    0    0  501    0  0.00000000000E+00  0.00000000000E+00 -0.21166708683E+04  0.21166708683E+04  0.50400001928E-02 0. -1.
    10030    2    1    2    0    0  0.00000000000E+00  0.00000000000E+00 -0.10493308303E+04  0.31840109064E+04  0.30061321097E+04 0.  0.
        1    1    3    3  502    0 -0.35140668745E+03 -0.57024448317E+03 -0.19498489695E+04  0.20616926139E+04  0.50400001928E-02 0. -1.
       -1    1    3    3    0  502  0.35140668745E+03  0.57024448317E+03  0.90051813919E+03  0.11223182925E+04  0.50400001928E-02 0.  1.
</event>
<event>
 5   0  0.5887179E-07  0.2996651E+04  0.7818609E-02  0.8244688E-01
        1   -1    0    0  501    0  0.00000000000E+00  0.00000000000E+00  0.16639876137E+04  0.16639876137E+04  0.50400001928E-02 0.  1.
       -1   -1    0    0    0  501  0.00000000000E+00  0.00000000000E+00 -0.13491559679E+04  0.13491559680E+04  0.50400001928E-02 0. -1.
    10030    2    1    2    0    0  0.00000000000E+00  0.00000000000E+00  0.31483164579E+03  0.30131435817E+04  0.29966506768E+04 0.  0.
        3    1    3    3  502    0 -0.71632310743E+03 -0.17984147071E+03  0.14682461233E+04  0.16435353472E+04  0.10100000352E+00 0.  1.
       -3    1    3    3    0  502  0.71632310743E+03  0.17984147071E+03 -0.11534144775E+04  0.13696082345E+04  0.10100000352E+00 0. -1.
</event>
<event>
 5   0  0.1635086E-06  0.2977260E+04  0.7818609E-02  0.8250254E-01
        2   -1    0    0  501    0  0.00000000000E+00  0.00000000000E+00  0.22879468026E+04  0.22879468026E+04  0.25500000920E-02 0. -1.
       -2   -1    0    0    0  501  0.00000000000E+00  0.00000000000E+00 -0.96856245816E+03  0.96856245817E+03  0.25500000920E-02 0.  1.
    10030    2    1    2    0    0  0.00000000000E+00  0.00000000000E+00  0.13193843445E+04  0.32565092608E+04  0.29772600688E+04 0.  0.
        3    1    3    3  502    0  0.52085897291E+03 -0.80953165683E+03  0.19017066231E+04  0.21314604532E+04  0.10100000352E+00 0. -1.
       -3    1    3    3    0  502 -0.52085897291E+03  0.80953165683E+03 -0.58232227863E+03  0.11250488076E+04  0.10100000352E+00 0.  1.
</event>
<event>
 5   0  0.1723916E-06  0.3009999E+04  0.7818609E-02  0.8240881E-01
        2   -1    0    0  501    0  0.00000000000E+00  0.00000000000E+00  0.14549962284E+04  0.14549962284E+04  0.25500000920E-02 0.  1.
       -2   -1    0    0    0  501  0.00000000000E+00  0.00000000000E+00 -0.15567211961E+04  0.15567211961E+04  0.25500000920E-02 0. -1.
    10030    2    1    2    0    0  0.00000000000E+00  0.00000000000E+00 -0.10172496775E+03  0.30117174245E+04  0.30099989827E+04 0.  0.
        1    1    3    3  502    0  0.52552481352E+03 -0.11507286829E+04  0.76487631618E+03  0.14783059935E+04  0.50400001928E-02 0.  1.
       -1    1    3    3    0  502 -0.52552481352E+03  0.11507286829E+04 -0.86660128393E+03  0.15334114310E+04  0.50400001928E-02 0. -1.
</event>
<event>
 5   0  0.5431625E-07  0.3007057E+04  0.7818609E-02  0.8241719E-01
       -3   -1    0    0    0  501  0.00000000000E+00  0.00000000000E+00  0.16272489032E+04  0.16272489063E+04  0.10100000352E+00 0. -1.
        3   -1    0    0  501    0  0.00000000000E+00  0.00000000000E+00 -0.13892145348E+04  0.13892145385E+04  0.10100000352E+00 0.  1.
    10030    2    1    2    0    0  0.00000000000E+00  0.00000000000E+00  0.23803436836E+03  0.30164634449E+04  0.30070569256E+04 0.  0.
        3    1    3    3  502    0  0.11097974741E+04 -0.84258662896E+03 -0.44754615472E+03  0.14635232256E+04  0.10100000352E+00 0.  1.
       -3    1    3    3    0  502 -0.11097974741E+04  0.84258662896E+03  0.68558052308E+03  0.15529402193E+04  0.10100000352E+00 0. -1.
</event>
<event>
 5   0  0.1625212E-06  0.3009251E+04  0.7818609E-02  0.8241094E-01
        2   -1    0    0  501    0  0.00000000000E+00  0.00000000000E+00  0.19511156727E+04  0.19511156727E+04  0.25500000920E-02 0. -1.
       -2   -1    0    0    0  501  0.00000000000E+00  0.00000000000E+00 -0.11603096027E+04  0.11603096027E+04  0.25500000920E-02 0.  1.
    10030    2    1    2    0    0  0.00000000000E+00  0.00000000000E+00  0.79080607008E+03  0.31114252754E+04  0.30092512364E+04 0.  0.
        4    1    3    3  502    0  0.12348496149E+04  0.52754960907E+03  0.10972239129E+04  0.17340888355E+04  0.12699999809E+01 0. -1.
       -4    1    3    3    0  502 -0.12348496149E+04 -0.52754960907E+03 -0.30641784284E+03  0.13773364399E+04  0.12699999809E+01 0.  1.
</event>
<event>
 5   0  0.5931588E-07  0.2998693E+04  0.7818609E-02  0.8244104E-01
       -1   -1    0    0    0  501  0.00000000000E+00  0.00000000000E+00  0.13865754620E+04  0.13865754621E+04  0.50400001928E-02 0. -1.
        1   -1    0    0  501    0  0.00000000000E+00  0.00000000000E+00 -0.16212887367E+04  0.16212887367E+04  0.50400001928E-02 0.  1.
    10030    2    1    2    0    0  0.00000000000E+00  0.00000000000E+00 -0.23471327465E+03  0.30078641988E+04  0.29986925012E+04 0.  0.
        2    1    3    3  502    0 -0.97894190311E+03  0.83873160763E+03  0.65064910386E+03  0.14440021522E+04  0.25500000920E-02 0. -1.
       -2    1    3    3    0  502  0.97894190311E+03 -0.83873160763E+03 -0.88536237852E+03  0.15638620465E+04  0.25500000920E-02 0.  1.
</event>
<event>
 5   0  0.1560174E-06  0.3070747E+04  0.7818609E-02  0.8223812E-01
       -2   -1    0    0    0  501  0.00000000000E+00  0.00000000000E+00  0.14373537233E+04  0.14373537233E+04  0.25500000920E-02 0.  1.
        2   -1    0    0  501    0  0.00000000000E+00  0.00000000000E+00 -0.16400773152E+04  0.16400773152E+04  0.25500000920E-02 0. -1.
    10030    2    1    2    0    0  0.00000000000E+00  0.00000000000E+00 -0.20272359197E+03  0.30774310385E+04  0.30707466424E+04 0.  0.
        5    1    3    3  502    0  0.18044258356E+03  0.65740672877E+03  0.12773530489E+04  0.14478936545E+04  0.46999998093E+01 0.  1.
       -5    1    3    3    0  502 -0.18044258356E+03 -0.65740672877E+03 -0.14800766409E+04  0.16295373840E+04  0.46999998093E+01 0. -1.
</event>
<event>
 5   0  0.1560174E-06  0.3004118E+04  0.7818609E-02  0.8242556E-01
       -2   -1    0    0    0  501  0.00000000000E+00  0.00000000000E+00  0.16693599183E+04  0.16693599183E+04  0.25500000920E-02 0. -1.
        2   -1    0    0  501    0  0.00000000000E+00  0.00000000000E+00 -0.13515249030E+04  0.13515249030E+04  0.25500000920E-02 0.  1.
    10030    2    1    2    0    0  0.00000000000E+00  0.00000000000E+00  0.31783501528E+03  0.30208848213E+04  0.30041181746E+04 0.  0.
        5    1    3    3  502    0  0.98652240462E+03  0.59374189685E+02 -0.97850450255E+03  0.13907713330E+04  0.46999998093E+01 0.  1.
       -5    1    3    3    0  502 -0.98652240462E+03 -0.59374189685E+02  0.12963395178E+04  0.16301134883E+04  0.46999998093E+01 0. -1.
</event>
<event>
 5   0  0.1635086E-06  0.3015709E+04  0.7818609E-02  0.8239259E-01
       -2   -1    0    0    0  501  0.00000000000E+00  0.00000000000E+00  0.25379069492E+04  0.25379069492E+04  0.25500000920E-02 0.  1.
        2   -1    0    0  501    0  0.00000000000E+00  0.00000000000E+00 -0.89586626524E+03  0.89586626525E+03  0.25500000920E-02 0. -1.
    10030    2    1    2    0    0  0.00000000000E+00  0.00000000000E+00  0.16420406839E+04  0.34337732144E+04  0.30157090179E+04 0.  0.
        3    1    3    3  502    0  0.34983790494E+03  0.12853222453E+04  0.16254963577E+04  0.21015894587E+04  0.10100000352E+00 0.  1.
       -3    1    3    3    0  502 -0.34983790494E+03 -0.12853222453E+04  0.16544326196E+02  0.13321837557E+04  0.10100000352E+00 0. -1.
</event>
<event>
 5   0  0.1560174E-06  0.2995561E+04  0.7818609E-02  0.8245000E-01
        2   -1    0    0  501    0  0.00000000000E+00  0.00000000000E+00  0.14757554755E+04  0.14757554755E+04  0.25500000920E-02 0.  1.
       -2   -1    0    0    0  501  0.00000000000E+00  0.00000000000E+00 -0.15201342033E+04  0.15201342033E+04  0.25500000920E-02 0. -1.
    10030    2    1    2    0    0  0.00000000000E+00  0.00000000000E+00 -0.44378727782E+02  0.29958896789E+04  0.29955609652E+04 0.  0.
        5    1    3    3  502    0  0.86587641835E+03 -0.57735005725E+03  0.10550774899E+04  0.14819870648E+04  0.46999998093E+01 0.  1.
       -5    1    3    3    0  502 -0.86587641835E+03  0.57735005725E+03 -0.10994562177E+04  0.15139026141E+04  0.46999998093E+01 0. -1.
</event>
<event>
 5   0  0.1674806E-06  0.2995328E+04  0.7818609E-02  0.8245066E-01
        2   -1    0    0  501    0  0.00000000000E+00  0.00000000000E+00  0.18361645015E+04  0.18361645015E+04  0.25500000920E-02 0.  1.
       -2   -1    0    0    0  501  0.00000000000E+00  0.00000000000E+00 -0.12215667935E+04  0.12215667935E+04  0.25500000920E-02 0. -1.
    10030    2    1    2    0    0  0.00000000000E+00  0.00000000000E+00  0.61459770801E+03  0.30577312950E+04  0.29953280838E+04 0.  0.
        2    1    3    3  502    0 -0.61707690930E+03  0.39413105834E+03 -0.10263936171E+04  0.12607962010E+04  0.25500000920E-02 0. -1.
       -2    1    3    3    0  502  0.61707690930E+03 -0.39413105834E+03  0.16409913251E+04  0.17969350940E+04  0.25500000920E-02 0.  1.
</event>
<event>
 5   0  0.1560174E-06  0.3000736E+04  0.7818609E-02  0.8243521E-01
       -2   -1    0    0    0  501  0.00000000000E+00  0.00000000000E+00  0.65377761825E+03  0.65377761826E+03  0.25500000920E-02 0. -1.
        2   -1    0    0  501    0  0.00000000000E+00  0.00000000000E+00 -0.34432271636E+04  0.34432271636E+04  0.25500000920E-02 0.  1.
    10030    2    1    2    0    0  0.00000000000E+00  0.00000000000E+00 -0.27894495454E+04  0.40970047819E+04  0.30007364790E+04 0.  0.
        5    1    3    3  502    0 -0.62882600409E+03 -0.13211433400E+04 -0.94139944949E+03  0.17398554198E+04  0.46999998093E+01 0. -1.
       -5    1    3    3    0  502  0.62882600409E+03  0.13211433400E+04 -0.18480500959E+04  0.23571493621E+04  0.46999998093E+01 0.  1.
</event>
<event>
 5   0  0.1674806E-06  0.3002382E+04  0.7818609E-02  0.8243051E-01
        2   -1    0    0  501    0  0.00000000000E+00  0.00000000000E+00  0.26002077685E+04  0.26002077685E+04  0.25500000920E-02 0. -1.
       -2   -1    0    0    0  501  0.00000000000E+00  0.00000000000E+00 -0.86669001601E+03  0.86669001602E+03  0.25500000920E-02 0.  1.
    10030    2    1    2    0    0  0.00000000000E+00  0.00000000000E+00  0.17335177525E+04  0.34668977845E+04  0.30023817962E+04 0.  0.
        2    1    3    3  502    0 -0.34951665942E+03 -0.14575169534E+04  0.76975898169E+03  0.16849470183E+04  0.25500000920E-02 0.  1.
       -2    1    3    3    0  502  0.34951665942E+03  0.14575169534E+04  0.96375877077E+03  0.17819507661E+04  0.25500000920E-02 0. -1.
</event>
<event>
 5   0  0.1625212E-06  0.2978539E+04  0.7818609E-02  0.8249886E-01
        2   -1    0    0  501    0  0.00000000000E+00  0.00000000000E+00  0.12003450382E+04  0.12003450382E+04  0.25500000920E-02 0. -1.
       -2   -1    0    0    0  501  0.00000000000E+00  0.00000000000E+00 -0.18477384449E+04  0.18477384449E+04  0.25500000920E-02 0.  1.
    10030    2    1    2    0    0  0.00000000000E+00  0.00000000000E+00 -0.64739340676E+03  0.30480834831E+04  0.29785390206E+04 0.  0.
        4    1    3    3  502    0 -0.98267502891E+03  0.11104209091E+04 -0.46563353249E+03  0.15541882149E+04  0.12699999809E+01 0. -1.
       -4    1    3    3    0  502  0.98267502891E+03 -0.11104209091E+04 -0.18175987427E+03  0.14938952683E+04  0.12699999809E+01 0.  1.
</event>
<event>
 5   0  0.1723916E-06  0.3008687E+04  0.7818609E-02  0.8241255E-01
       -2   -1    0    0    0  501  0.00000000000E+00  0.00000000000E+00  0.85368489585E+03  0.85368489586E+03  0.25500000920E-02 0.  1.
        2   -1    0    0  501    0  0.00000000000E+00  0.00000000000E+00 -0.26509183296E+04  0.26509183296E+04  0.25500000920E-02 0. -1.
    10030    2    1    2    0    0  0.00000000000E+00  0.00000000000E+00 -0.17972334337E+04  0.35046032254E+04  0.30086867156E+04 0.  0.
        1    1    3    3  502    0  0.21703045297E+03  0.96686676744E+03  0.41981004361E+03  0.10761849452E+04  0.50400001928E-02 0.  1.
       -1    1    3    3    0  502 -0.21703045297E+03 -0.96686676744E+03 -0.22170434773E+04  0.24284182802E+04  0.50400001928E-02 0. -1.
</event>
<event>
 5   0  0.6291798E-07  0.2997566E+04  0.7818609E-02  0.8244426E-01
        1   -1    0    0  501    0  0.00000000000E+00  0.00000000000E+00  0.21613077542E+04  0.21613077542E+04  0.50400001928E-02 0.  1.
       -1   -1    0    0    0  501  0.00000000000E+00  0.00000000000E+00 -0.10393477171E+04  0.10393477171E+04  0.50400001928E-02 0. -1.
    10030    2    1    2    0    0  0.00000000000E+00  0.00000000000E+00  0.11219600371E+04  0.32006554713E+04  0.29975658661E+04 0.  0.
        1    1    3    3  502    0  0.94925391664E+03 -0.95757024705E+03  0.12597876955E+04  0.18452882740E+04  0.50400001928E-02 0. -1.
       -1    1    3    3    0  502 -0.94925391664E+03  0.95757024705E+03 -0.13782765841E+03  0.13553671974E+04  0.50400001928E-02 0.  1.
</event>
<event>
 5   0  0.5916703E-07  0.3034483E+04  0.7818609E-02  0.8233952E-01
        1   -1    0    0  501    0  0.00000000000E+00  0.00000000000E+00  0.15955505916E+04  0.15955505916E+04  0.50400001928E-02 0.  1.
       -1   -1    0    0    0  501  0.00000000000E+00  0.00000000000E+00 -0.14427759469E+04  0.14427759469E+04  0.50400001928E-02 0. -1.
    10030    2    1    2    0    0  0.00000000000E+00  0.00000000000E+00  0.15277464469E+03  0.30383265385E+04  0.30344831623E+04 0.  0.
        5    1    3    3  502    0  0.35952406541E+00  0.75744407097E+03 -0.12399177368E+04  0.14529761642E+04  0.46999998093E+01 0.  1.
       -5    1    3    3    0  502 -0.35952406541E+00 -0.75744407097E+03  0.13926923814E+04  0.15853503743E+04  0.46999998093E+01 0. -1.
</event>
<event>
 5   0  0.5931588E-07  0.2993182E+04  0.7818609E-02  0.8245681E-01
       -1   -1    0    0    0  501  0.00000000000E+00  0.00000000000E+00  0.96940378538E+03  0.96940378539E+03  0.50400001928E-02 0.  1.
        1   -1    0    0  501    0  0.00000000000E+00  0.00000000000E+00 -0.23104760320E+04  0.23104760320E+04  0.50400001928E-02 0. -1.
    10030    2    1    2    0    0  0.00000000000E+00  0.00000000000E+00 -0.13410722466E+04  0.32798798174E+04  0.29931817262E+04 0.  0.
        2    1    3    3  502    0  0.10662541738E+04  0.61030752165E+03  0.26596540638E+03  0.12570245946E+04  0.25500000920E-02 0.  1.
       -2    1    3    3    0  502 -0.10662541738E+04 -0.61030752165E+03 -0.16070376530E+04  0.20228552227E+04  0.25500000920E-02 0. -1.
</event>
<event>
 5   0  0.5916703E-07  0.3001918E+04  0.7818609E-02  0.8243183E-01
       -1   -1    0    0    0  501  0.00000000000E+00  0.00000000000E+00  0.99688621625E+03  0.99688621626E+03  0.50400001928E-02 0.  1.
        1   -1    0    0  501    0  0.00000000000E+00  0.00000000000E+00 -0.22599144490E+04  0.22599144490E+04  0.50400001928E-02 0. -1.
    10030    2    1    2    0    0  0.00000000000E+00  0.00000000000E+00 -0.12630282327E+04  0.32568006652E+04  0.30019177631E+04 0.  0.
        5    1    3    3  502    0  0.11265184988E+03 -0.13315325001E+04  0.11003070627E+03  0.13408199299E+04  0.46999998093E+01 0.  1.
       -5    1    3    3    0  502 -0.11265184988E+03  0.13315325001E+04 -0.13730589390E+04  0.19159807353E+04  0.46999998093E+01 0. -1.
</event>
<event>
 5   0  0.1723916E-06  0.3049304E+04  0.7818609E-02  0.8229790E-01
       -2   -1    0    0    0  501  0.00000000000E+00  0.00000000000E+00  0.10916814979E+04  0.10916814979E+04  0.25500000920E-02 0. -1.
        2   -1    0    0  501    0  0.00000000000E+00  0.00000000000E+00 -0.21293427575E+04  0.21293427575E+04  0.25500000920E-02 0.  1.
    10030    2    1    2    0    0  0.00000000000E+00  0.00000000000E+00 -0.10376612596E+04  0.32210242554E+04  0.30493042427E+04 0.  0.
        1    1    3    3  502    0 -0.15034485920E+03 -0.60211473784E+03 -0.19898858929E+04  0.20844163694E+04  0.50400001928E-02 0.  1.
       -1    1    3    3    0  502  0.15034485920E+03  0.60211473784E+03  0.95222463332E+03  0.11366078860E+04  0.50400001928E-02 0. -1.
</event>
<event>
 5   0  0.1625212E-06  0.3012910E+04  0.7818609E-02  0.8240054E-01
       -2   -1    0    0    0  501  0.00000000000E+00  0.00000000000E+00  0.13093438364E+04  0.13093438364E+04  0.25500000920E-02 0.  1.
        2   -1    0    0  501    0  0.00000000000E+00  0.00000000000E+00 -0.17332393778E+04  0.17332393778E+04  0.25500000920E-02 0. -1.
    10030    2    1    2    0    0  0.00000000000E+00  0.00000000000E+00 -0.42389554136E+03  0.30425832142E+04  0.30129097540E+04 0.  0.
        4    1    3    3  502    0  0.84757564201E+03  0.73379597343E+03  0.80422491049E+03  0.13797174780E+04  0.12699999809E+01 0.  1.
       -4    1    3    3    0  502 -0.84757564201E+03 -0.73379597343E+03 -0.12281204518E+04  0.16628657362E+04  0.12699999809E+01 0. -1.
</event>
<event>
 5   0  0.5874741E-07  0.3002665E+04  0.7818609E-02  0.8242970E-01
        1   -1    0    0  501    0  0.00000000000E+00  0.00000000000E+00  0.13729696161E+04  0.13729696161E+04  0.50400001928E-02 0.  1.
       -1   -1    0    0    0  501  0.00000000000E+00  0.00000000000E+00 -0.16416962576E+04  0.16416962576E+04  0.50400001928E-02 0. -1.
    10030    2    1    2    0    0  0.00000000000E+00  0.00000000000E+00 -0.26872664146E+03  0.30146658737E+04  0.30026648701E+04 0.  0.
        4    1    3    3  502    0  0.86502076039E+03  0.12190629149E+04  0.62756698623E+01  0.14947964087E+04  0.12699999809E+01 0. -1.
       -4    1    3    3    0  502 -0.86502076039E+03 -0.12190629149E+04 -0.27500231133E+03  0.15198694650E+04  0.12699999809E+01 0.  1.
</event>
<event>
 5   0  0.5931588E-07  0.3007512E+04  0.7818609E-02  0.8241589E-01
        1   -1    0    0  501    0  0.00000000000E+00  0.00000000000E+00  0.22856955837E+04  0.22856955837E+04  0.50400001928E-02 0.  1.
       -1   -1    0    0    0  501  0.00000000000E+00  0.00000000000E+00 -0.98931886544E+03  0.98931886545E+03  0.50400001928E-02 0. -1.
    10030    2    1    2    0    0  0.00000000000E+00  0.00000000000E+00  0.12963767183E+04  0.32750144492E+04  0.30075117700E+04 0.  0.
        2    1    3    3  502    0 -0.12141470209E+04 -0.85648779702E+03  0.39617954176E+03  0.15377524392E+04  0.25500000920E-02 0. -1.
       -2    1    3    3    0  502  0.12141470209E+04  0.85648779702E+03  0.90019717654E+03  0.17372620100E+04  0.25500000920E-02 0.  1.
</event>
<event>
 5   0  0.5931588E-07  0.2991609E+04  0.7818609E-02  0.8246131E-01
       -1   -1    0    0    0  501  0.00000000000E+00  0.00000000000E+00  0.19396136657E+04  0.19396136657E+04  0.50400001928E-02 0.  1.
        1   -1    0    0  501    0  0.00000000000E+00  0.00000000000E+00 -0.11535444716E+04  0.11535444716E+04  0.50400001928E-02 0. -1.
    10030    2    1    2    0    0  0.00000000000E+00  0.00000000000E+00  0.78606919409E+03  0.30931581373E+04  0.29916086783E+04 0.  0.
        2    1    3    3  502    0 -0.76237303707E+03  0.12217361711E+04  0.81121215074E+03  0.16528511951E+04  0.25500000920E-02 0.  1.
       -2    1    3    3    0  502  0.76237303707E+03 -0.12217361711E+04 -0.25142956651E+02  0.14403069422E+04  0.25500000920E-02 0. -1.
</event>
<event>
 5   0  0.1674806E-06  0.2941571E+04  0.7818609E-02  0.8260615E-01
        2   -1    0    0  501    0  0.00000000000E+00  0.00000000000E+00  0.15751262383E+04  0.15751262383E+04  0.25500000920E-02 0.  1.
       -2   -1    0    0    0  501  0.00000000000E+00  0.00000000000E+00 -0.13733562157E+04  0.13733562157E+04  0.25500000920E-02 0. -1.
    10030    2    1    2    0    0  0.00000000000E+00  0.00000000000E+00  0.20177002259E+03  0.29484824540E+04  0.29415706076E+04 0.  0.
        2    1    3    3  502    0 -0.56828482044E+03 -0.16584944291E+03  0.14504348083E+04  0.15665933767E+04  0.25500000920E-02 0.  1.
       -2    1    3    3    0  502  0.56828482044E+03  0.16584944291E+03 -0.12486647857E+04  0.13818890773E+04  0.25500000920E-02 0. -1.
</event>
<event>
 5   0  0.6291798E-07  0.2998853E+04  0.7818609E-02  0.8244059E-01
       -1   -1    0    0    0  501  0.00000000000E+00  0.00000000000E+00  0.78314470380E+03  0.78314470382E+03  0.50400001928E-02 0. -1.
        1   -1    0    0  501    0  0.00000000000E+00  0.00000000000E+00 -0.28708349866E+04  0.28708349866E+04  0.50400001928E-02 0.  1.
    10030    2    1    2    0    0  0.00000000000E+00  0.00000000000E+00 -0.20876902828E+04  0.36539796904E+04  0.29988525908E+04 0.  0.
        1    1    3    3  502    0  0.37286883384E+03 -0.15267707658E+03 -0.28036385368E+04  0.28324424975E+04  0.50400001928E-02 0.  1.
       -1    1    3    3    0  502 -0.37286883384E+03  0.15267707658E+03  0.71594825395E+03  0.82153719290E+03  0.50400001928E-02 0. -1.
</event>
<event>
 5   0  0.5931588E-07  0.2958843E+04  0.7818609E-02  0.8255582E-01
       -1   -1    0    0    0  501  0.00000000000E+00  0.00000000000E+00  0.91038258965E+03  0.91038258967E+03  0.50400001928E-02 0.  1.
        1   -1    0    0  501    0  0.00000000000E+00  0.00000000000E+00 -0.24041404445E+04  0.24041404445E+04  0.50400001928E-02 0. -1.
    10030    2    1    2    0    0  0.00000000000E+00  0.00000000000E+00 -0.14937578548E+04  0.33145230342E+04  0.29588427493E+04 0.  0.
        2    1    3    3  502    0 -0.63585855531E+03 -0.22789656824E+03  0.72756271505E+03  0.99277411958E+03  0.25500000920E-02 0.  1.
       -2    1    3    3    0  502  0.63585855531E+03  0.22789656824E+03 -0.22213205699E+04  0.23217489146E+04  0.25500000920E-02 0. -1.
</event>
<event>
 5   0  0.5887179E-07  0.3014778E+04  0.7818609E-02  0.8239524E-01
        1   -1    0    0  501    0  0.00000000000E+00  0.00000000000E+00  0.15162223210E+04  0.15162223210E+04  0.50400001928E-02 0.  1.
       -1   -1    0    0    0  501  0.00000000000E+00  0.00000000000E+00 -0.14986071069E+04  0.14986071069E+04  0.50400001928E-02 0. -1.
    10030    2    1    2    0    0  0.00000000000E+00  0.00000000000E+00  0.17615214068E+02  0.30148294279E+04  0.30147779659E+04 0.  0.
        3    1    3    3  502    0  0.81676232756E+03 -0.12619729644E+04  0.12081431019E+03  0.15080691530E+04  0.10100000352E+00 0. -1.
       -3    1    3    3    0  502 -0.81676232756E+03  0.12619729644E+04 -0.10319909613E+03  0.15067602749E+04  0.10100000352E+00 0.  1.
</event>
<event>
 5   0  0.5874741E-07  0.2995931E+04  0.7818609E-02  0.8244894E-01
        1   -1    0    0  501    0  0.00000000000E+00  0.00000000000E+00  0.85971845499E+03  0.85971845501E+03  0.50400001928E-02 0.  1.
       -1   -1    0    0    0  501  0.00000000000E+00  0.00000000000E+00 -0.26100407602E+04  0.26100407602E+04  0.50400001928E-02 0. -1.
    10030    2    1    2    0    0  0.00000000000E+00  0.00000000000E+00 -0.17503223052E+04  0.34697592152E+04  0.29959307134E+04 0.  0.
        4    1    3    3  502    0 -0.61868024043E+03 -0.10432355182E+04  0.14295930819E+03  0.12212880753E+04  0.12699999809E+01 0.  1.
       -4    1    3    3    0  502  0.61868024043E+03  0.10432355182E+04 -0.18932816134E+04  0.22484711399E+04  0.12699999809E+01 0. -1.
</event>
<event>
 5   0  0.1625212E-06  0.3006702E+04  0.7818609E-02  0.8241820E-01
       -2   -1    0    0    0  501  0.00000000000E+00  0.00000000000E+00  0.15089830442E+04  0.15089830442E+04  0.25500000920E-02 0.  1.
        2   -1    0    0  501    0  0.00000000000E+00  0.00000000000E+00 -0.14977403256E+04  0.14977403256E+04  0.25500000920E-02 0. -1.
    10030    2    1    2    0    0  0.00000000000E+00  0.00000000000E+00  0.11242718623E+02  0.30067233698E+04  0.30067023504E+04 0.  0.
        4    1    3    3  502    0  0.10495129997E+04 -0.98208378084E+03 -0.43494619252E+03  0.15017143179E+04  0.12699999809E+01 0. -1.
       -4    1    3    3    0  502 -0.10495129997E+04  0.98208378084E+03  0.44618891114E+03  0.15050090520E+04  0.12699999809E+01 0.  1.
</event>
<event>
 5   0  0.1674806E-06  0.3001579E+04  0.7818609E-02  0.8243280E-01
        2   -1    0    0  501    0  0.00000000000E+00  0.00000000000E+00  0.30846551745E+04  0.30846551745E+04  0.25500000920E-02 0.  1.
       -2   -1    0    0    0  501  0.00000000000E+00  0.00000000000E+00 -0.73018486338E+03  0.73018486339E+03  0.25500000920E-02 0. -1.
    10030    2    1    2    0    0  0.00000000000E+00  0.00000000000E+00  0.23544703111E+04  0.38148400378E+04  0.30015785961E+04 0.  0.
        2    1    3    3  502    0 -0.19379412578E+03 -0.54824315179E+03  0.29356648538E+04  0.29927002607E+04  0.25500000920E-02 0.  1.
       -2    1    3    3    0  502  0.19379412578E+03  0.54824315179E+03 -0.58119454271E+03  0.82213977714E+03  0.25500000920E-02 0. -1.
</event>
<event>
 5   0  0.1560174E-06  0.3004060E+04  0.7818609E-02  0.8242572E-01
        2   -1    0    0  501    0  0.00000000000E+00  0.00000000000E+00  0.20657559452E+04  0.20657559452E+04  0.25500000920E-02 0. -1.
       -2   -1    0    0    0  501  0.00000000000E+00  0.00000000000E+00 -0.10921397892E+04  0.10921397892E+04  0.25500000920E-02 0.  1.
    10030    2    1    2    0    0  0.00000000000E+00  0.00000000000E+00  0.97361615604E+03  0.31578957344E+04  0.30040600943E+04 0.  0.
        5    1    3    3  502    0 -0.94644794383E+03  0.10880437793E+04  0.45213609538E+02  0.14427991324E+04  0.46999998093E+01 0.  1.
       -5    1    3    3    0  502  0.94644794383E+03 -0.10880437793E+04  0.92840254650E+03  0.17150966020E+04  0.46999998093E+01 0. -1.
</event>
<event>
 5   0  0.1635086E-06  0.2831969E+04  0.7818609E-02  0.8293411E-01
       -2   -1    0    0    0  501  0.00000000000E+00  0.00000000000E+00  0.10199379192E+04  0.10199379192E+04  0.25500000920E-02 0. -1.
        2   -1    0    0  501    0  0.00000000000E+00  0.00000000000E+00 -0.19658175936E+04  0.19658175936E+04  0.25500000920E-02 0.  1.
    10030    2    1    2    0    0  0.00000000000E+00  0.00000000000E+00 -0.94587967441E+03  0.29857555128E+04  0.28319688599E+04 0.  0.
        3    1    3    3  502    0 -0.15272195263E+03 -0.72556059127E+03  0.79890617565E+03  0.10899602076E+04  0.10100000352E+00 0. -1.
       -3    1    3    3    0  502  0.15272195263E+03  0.72556059127E+03 -0.17447858501E+04  0.18957953052E+04  0.10100000352E+00 0.  1.
</event>
<event>
 5   0  0.1723916E-06  0.2997699E+04  0.7818609E-02  0.8244388E-01
        2   -1    0    0  501    0  0.00000000000E+00  0.00000000000E+00  0.86997206647E+03  0.86997206648E+03  0.25500000920E-02 0.  1.
       -2   -1    0    0    0  501  0.00000000000E+00  0.00000000000E+00 -0.25823232548E+04  0.25823232548E+04  0.25500000920E-02 0. -1.
    10030    2    1    2    0    0  0.00000000000E+00  0.00000000000E+00 -0.17123511883E+04  0.34522953212E+04  0.29976985160E+04 0.  0.
        1    1    3    3  502    0  0.12209526820E+04  0.85359311533E+03 -0.10461188671E+04  0.18203602233E+04  0.50400001928E-02 0.  1.
       -1    1    3    3    0  502 -0.12209526820E+04 -0.85359311533E+03 -0.66623232118E+03  0.16319350980E+04  0.50400001928E-02 0. -1.
</event>
<event>
 5   0  0.5887179E-07  0.3022627E+04  0.7818609E-02  0.8237299E-01
        1   -1    0    0  501    0  0.00000000000E+00  0.00000000000E+00  0.19520139508E+04  0.19520139508E+04  0.50400001928E-02 0.  1.
       -1   -1    0    0    0  501  0.00000000000E+00  0.00000000000E+00 -0.11701088321E+04  0.11701088322E+04  0.50400001928E-02 0. -1.
    10030    2    1    2    0    0  0.00000000000E+00  0.00000000000E+00  0.78190511862E+03  0.31221227829E+04  0.30226271780E+04 0.  0.
        3    1    3    3  502    0 -0.11351664246E+04  0.20011629064E+03 -0.61867785783E+03  0.13082093270E+04  0.10100000352E+00 0. -1.
       -3    1    3    3    0  502  0.11351664246E+04 -0.20011629064E+03  0.14005829764E+04  0.18139134559E+04  0.10100000352E+00 0.  1.
</event>
<event>
 5   0  0.5887179E-07  0.3126841E+04  0.7818609E-02  0.8208410E-01
        1   -1    0    0  501    0  0.00000000000E+00  0.00000000000E+00  0.20018719388E+04  0.20018719388E+04  0.50400001928E-02 0. -1.
       -1   -1    0    0    0  501  0.00000000000E+00  0.00000000000E+00 -0.12209990107E+04  0.12209990107E+04  0.50400001928E-02 0.  1.
    10030    2    1    2    0    0  0.00000000000E+00  0.00000000000E+00  0.78087292810E+03  0.32228709495E+04  0.31268409981E+04 0.  0.
        3    1    3    3  502    0  0.11106743845E+04  0.87177734391E+03  0.10823888860E+04  0.17790893840E+04  0.10100000352E+00 0. -1.
       -3    1    3    3    0  502 -0.11106743845E+04 -0.87177734391E+03 -0.30151595788E+03  0.14437815655E+04  0.10100000352E+00 0.  1.
</event>
<event>
 5   0  0.1560174E-06  0.3007960E+04  0.7818609E-02  0.8241461E-01
        2   -1    0    0  501    0  0.00000000000E+00  0.00000000000E+00  0.18859547932E+04  0.18859547932E+04  0.25500000920E-02 0. -1.
       -2   -1    0    0    0  501  0.00000000000E+00  0.00000000000E+00 -0.11993692795E+04  0.11993692795E+04  0.25500000920E-02 0.  1.
    10030    2    1    2    0    0  0.00000000000E+00  0.00000000000E+00  0.68658551368E+03  0.30853240727E+04  0.30079602667E+04 0.  0.
        5    1    3    3  502    0 -0.17732666682E+03 -0.24933152270E+03  0.18536883173E+04  0.18787744470E+04  0.46999998093E+01 0. -1.
       -5    1    3    3    0  502  0.17732666682E+03  0.24933152270E+03 -0.11671028036E+04  0.12065496257E+04  0.46999998093E+01 0.  1.
</event>
<event>
 5   0  0.5874741E-07  0.3012448E+04  0.7818609E-02  0.8240185E-01
        1   -1    0    0  501    0  0.00000000000E+00  0.00000000000E+00  0.21225241555E+04  0.21225241555E+04  0.50400001928E-02 0.  1.
       -1   -1    0    0    0  501  0.00000000000E+00  0.00000000000E+00 -0.10688736399E+04  0.10688736399E+04  0.50400001928E-02 0. -1.
    10030    2    1    2    0    0  0.00000000000E+00  0.00000000000E+00  0.10536505156E+04  0.31913977955E+04  0.30124475896E+04 0.  0.
        4    1    3    3  502    0  0.59858851548E+03 -0.28461545310E+02  0.19907930886E+04  0.20790327090E+04  0.12699999809E+01 0.  1.
       -4    1    3    3    0  502 -0.59858851548E+03  0.28461545310E+02 -0.93714257305E+03  0.11123650864E+04  0.12699999809E+01 0. -1.
</event>
<event>
 5   0  0.1723916E-06  0.3018445E+04  0.7818609E-02  0.8238483E-01
       -2   -1    0    0    0  501  0.00000000000E+00  0.00000000000E+00  0.10930626836E+04  0.10930626836E+04  0.25500000920E-02 0. -1.
        2   -1    0    0  501    0  0.00000000000E+00  0.00000000000E+00 -0.20838262643E+04  0.20838262643E+04  0.25500000920E-02 0.  1.
    10030    2    1    2    0    0  0.00000000000E+00  0.00000000000E+00 -0.99076358069E+03  0.31768889478E+04  0.30184451153E+04 0.  0.
        1    1    3    3  502    0  0.81289280079E+03  0.98989251745E+03 -0.13354462458E+04  0.18504319974E+04  0.50400001928E-02 0. -1.
       -1    1    3    3    0  502 -0.81289280079E+03 -0.98989251745E+03  0.34468266506E+03  0.13264569504E+04  0.50400001928E-02 0.  1.
</event>
<event>
 5   0  0.1635086E-06  0.3000944E+04  0.7818609E-02  0.8243461E-01
        2   -1    0    0  501    0  0.00000000000E+00  0.00000000000E+00  0.74731376512E+03  0.74731376512E+03  0.25500000920E-02 0. -1.
       -2   -1    0    0    0  501  0.00000000000E+00  0.00000000000E+00 -0.30126782087E+04  0.30126782087E+04  0.25500000920E-02 0.  1.
    10030    2    1    2    0    0  0.00000000000E+00  0.00000000000E+00 -0.22653644436E+04  0.37599919738E+04  0.30009437817E+04 0.  0.
        3    1    3    3  502    0 -0.14319714117E+04 -0.34550455179E+03 -0.77499054297E+03  0.16644896729E+04  0.10100000352E+00 0.  1.
       -3    1    3    3    0  502  0.14319714117E+04  0.34550455179E+03 -0.14903739006E+04  0.20955023009E+04  0.10100000352E+00 0. -1.
</event>
<event>
 5   0  0.5887179E-07  0.3003430E+04  0.7818609E-02  0.8242752E-01
       -1   -1    0    0    0  501  0.00000000000E+00  0.00000000000E+00  0.81510334755E+03  0.81510334756E+03  0.50400001928E-02 0.  1.
        1   -1    0    0  501    0  0.00000000000E+00  0.00000000000E+00 -0.27667021596E+04  0.27667021596E+04  0.50400001928E-02 0. -1.
    10030    2    1    2    0    0  0.00000000000E+00  0.00000000000E+00 -0.19515988120E+04  0.35818055071E+04  0.30034301670E+04 0.  0.
        3    1    3    3  502    0 -0.15839177297E+03 -0.47434771477E+03 -0.26644801429E+04  0.27110050074E+04  0.10100000352E+00 0. -1.
       -3    1    3    3    0  502  0.15839177297E+03  0.47434771477E+03  0.71288133085E+03  0.87080049973E+03  0.10100000352E+00 0.  1.
</event>
<event>
 5   0  0.1635086E-06  0.2998532E+04  0.7818609E-02  0.8244150E-01
        2   -1    0    0  501    0  0.00000000000E+00  0.00000000000E+00  0.19190841922E+04  0.19190841922E+04  0.25500000920E-02 0. -1.
       -2   -1    0    0    0  501  0.00000000000E+00  0.00000000000E+00 -0.11712869070E+04  0.11712869070E+04  0.25500000920E-02 0.  1.
    10030    2    1    2    0    0  0.00000000000E+00  0.00000000000E+00  0.74779728519E+03  0.30903710992E+04  0.29985317659E+04 0.  0.
        3    1    3    3  502    0 -0.12349829114E+04  0.69310987046E+03  0.88112484996E+03  0.16679223889E+04  0.10100000352E+00 0. -1.
       -3    1    3    3    0  502  0.12349829114E+04 -0.69310987046E+03 -0.13332756477E+03  0.14224487104E+04  0.10100000352E+00 0.  1.
</event>
<event>
 5   0  0.1723916E-06  0.2997336E+04  0.7818609E-02  0.8244492E-01
        2   -1    0    0  501    0  0.00000000000E+00  0.00000000000E+00  0.20500396690E+04  0.20500396690E+04  0.25500000920E-02 0. -1.
       -2   -1    0    0    0  501  0.00000000000E+00  0.00000000000E+00 -0.10955912171E+04  0.10955912171E+04  0.25500000920E-02 0.  1.
    10030    2    1    2    0    0  0.00000000000E+00  0.00000000000E+00  0.95444845190E+03  0.31456308860E+04  0.29973357877E+04 0.  0.
        1    1    3    3  502    0 -0.79324438957E+03  0.99324366813E+03  0.13103755702E+04  0.18256105228E+04  0.50400001928E-02 0. -1.
       -1    1    3    3    0  502  0.79324438957E+03 -0.99324366813E+03 -0.35592711831E+03  0.13200203633E+04  0.50400001928E-02 0.  1.
</event>
<event>
 5   0  0.5931588E-07  0.2995532E+04  0.7818609E-02  0.8245008E-01
        1   -1    0    0  501    0  0.00000000000E+00  0.00000000000E+00  0.18741936812E+04  0.18741936812E+04  0.50400001928E-02 0. -1.
       -1   -1    0    0    0  501  0.00000000000E+00  0.00000000000E+00 -0.11969433321E+04  0.11969433321E+04  0.50400001928E-02 0.  1.
    10030    2    1    2    0    0  0.00000000000E+00  0.00000000000E+00  0.67725034917E+03  0.30711370133E+04  0.29955324266E+04 0.  0.
        2    1    3    3  502    0 -0.11617202075E+04 -0.16000022585E+03  0.12938651212E+04  0.17462190197E+04  0.25500000920E-02 0. -1.
       -2    1    3    3    0  502  0.11617202075E+04  0.16000022585E+03 -0.61661477202E+03  0.13249179936E+04  0.25500000920E-02 0.  1.
</event>
<event>
 5   0  0.1625212E-06  0.2877946E+04  0.7818609E-02  0.8279470E-01
        2   -1    0    0  501    0  0.00000000000E+00  0.00000000000E+00  0.14242589011E+04  0.14242589011E+04  0.25500000920E-02 0.  1.
       -2   -1    0    0    0  501  0.00000000000E+00  0.00000000000E+00 -0.14538388973E+04  0.14538388973E+04  0.25500000920E-02 0. -1.
    10030    2    1    2    0    0  0.00000000000E+00  0.00000000000E+00 -0.29579996188E+02  0.28780977983E+04  0.28779457883E+04 0.  0.
        4    1    3    3  502    0  0.87901062506E+03  0.18338668230E+03  0.11097030387E+04  0.14274917868E+04  0.12699999809E+01 0.  1.
       -4    1    3    3    0  502 -0.87901062506E+03 -0.18338668230E+03 -0.11392830349E+04  0.14506060116E+04  0.12699999809E+01 0. -1.
</event>
<event>
 5   0  0.1674806E-06  0.2999064E+04  0.7818609E-02  0.8243998E-01
       -2   -1    0    0    0  501  0.00000000000E+00  0.00000000000E+00  0.12776581813E+04  0.12776581813E+04  0.25500000920E-02 0.  1.
        2   -1    0    0  501    0  0.00000000000E+00  0.00000000000E+00 -0.17599358156E+04  0.17599358156E+04  0.25500000920E-02 0. -1.
    10030    2    1    2    0    0  0.00000000000E+00  0.00000000000E+00 -0.48227763423E+03  0.30375939969E+04  0.29990641163E+04 0.  0.
        2    1    3    3  502    0 -0.99966742232E+03  0.10757711703E+04 -0.54831359180E+03  0.15675670197E+04  0.25500000920E-02 0. -1.
       -2    1    3    3    0  502  0.99966742232E+03 -0.10757711703E+04  0.66035957571E+02  0.14700269773E+04  0.25500000920E-02 0.  1.
</event>
<event>
 5   0  0.5887179E-07  0.3003364E+04  0.7818609E-02  0.8242771E-01
        1   -1    0    0  501    0  0.00000000000E+00  0.00000000000E+00  0.19647130322E+04  0.19647130322E+04  0.50400001928E-02 0.  1.
       -1   -1    0    0    0  501  0.00000000000E+00  0.00000000000E+00 -0.11477754869E+04  0.11477754869E+04  0.50400001928E-02 0. -1.
    10030    2    1    2    0    0  0.00000000000E+00  0.00000000000E+00  0.81693754527E+03  0.31124885191E+04  0.30033644183E+04 0.  0.
        3    1    3    3  502    0 -0.36732373743E+03 -0.65601029276E+02  0.19159052015E+04  0.19519023988E+04  0.10100000352E+00 0.  1.
       -3    1    3    3    0  502  0.36732373743E+03  0.65601029276E+02 -0.10989676562E+04  0.11605861203E+04  0.10100000352E+00 0. -1.
</event>
<event>
 5   0  0.5874741E-07  0.3003532E+04  0.7818609E-02  0.8242723E-01
        1   -1    0    0  501    0  0.00000000000E+00  0.00000000000E+00  0.16379041419E+04  0.16379041419E+04  0.50400001928E-02 0.  1.
       -1   -1    0    0    0  501  0.00000000000E+00  0.00000000000E+00 -0.13769437260E+04  0.13769437260E+04  0.50400001928E-02 0. -1.
    10030    2    1    2    0    0  0.00000000000E+00  0.00000000000E+00  0.26096041598E+03  0.30148478679E+04  0.30035324749E+04 0.  0.
        4    1    3    3  502    0 -0.51070448342E+03 -0.12097366957E+04 -0.60097511482E+03  0.14441103295E+04  0.12699999809E+01 0. -1.
       -4    1    3    3    0  502  0.51070448342E+03  0.12097366957E+04  0.86193553081E+03  0.15707375384E+04  0.12699999809E+01 0.  1.
</event>
<event>
 5   0  0.5916703E-07  0.3020921E+04  0.7818609E-02  0.8237782E-01
       -1   -1    0    0    0  501  0.00000000000E+00  0.00000000000E+00  0.73239907458E+03  0.73239907460E+03  0.50400001928E-02 0.  1.
        1   -1    0    0  501    0  0.00000000000E+00  0.00000000000E+00 -0.31150919576E+04  0.31150919576E+04  0.50400001928E-02 0. -1.
    10030    2    1    2    0    0  0.00000000000E+00  0.00000000000E+00 -0.23826928830E+04  0.38474910322E+04  0.30209206988E+04 0.  0.
        5    1    3    3  502    0  0.52871271191E+03 -0.97930362741E+03 -0.24919912730E+04  0.27292151475E+04  0.46999998093E+01 0. -1.
       -5    1    3    3    0  502 -0.52871271191E+03  0.97930362741E+03  0.10929838997E+03  0.11182758848E+04  0.46999998093E+01 0.  1.
</event>
<event>
 5   0  0.5874741E-07  0.3003478E+04  0.7818609E-02  0.8242738E-01
        1   -1    0    0  501    0  0.00000000000E+00  0.00000000000E+00  0.72268909340E+03  0.72268909342E+03  0.50400001928E-02 0.  1.
       -1   -1    0    0    0  501  0.00000000000E+00  0.00000000000E+00 -0.31205952272E+04  0.31205952272E+04  0.50400001928E-02 0. -1.
    10030    2    1    2    0    0  0.00000000000E+00  0.00000000000E+00 -0.23979061338E+04  0.38432843206E+04  0.30034780743E+04 0.  0.
        4    1    3    3  502    0 -0.13558164218E+04  0.62958258849E+03 -0.13826390995E+04  0.20362477496E+04  0.12699999809E+01 0. -1.
       -4    1    3    3    0  502  0.13558164218E+04 -0.62958258849E+03 -0.10152670343E+04  0.18070365710E+04  0.12699999809E+01 0.  1.
</event>
<event>
 5   0  0.6291798E-07  0.3009347E+04  0.7818609E-02  0.8241067E-01
       -1   -1    0    0    0  501  0.00000000000E+00  0.00000000000E+00  0.89204965643E+03  0.89204965644E+03  0.50400001928E-02 0.  1.
        1   -1    0    0  501    0  0.00000000000E+00  0.00000000000E+00 -0.25380232045E+04  0.25380232045E+04  0.50400001928E-02 0. -1.
    10030    2    1    2    0    0  0.00000000000E+00  0.00000000000E+00 -0.16459735481E+04  0.34300728609E+04  0.30093472565E+04 0.  0.
        1    1    3    3  502    0 -0.39973709819E+02 -0.12018694082E+04  0.20786371480E+03  0.12203668694E+04  0.50400001928E-02 0. -1.
       -1    1    3    3    0  502  0.39973709819E+02  0.12018694082E+04 -0.18538372629E+04  0.22097059916E+04  0.50400001928E-02 0.  1.
</event>
<event>
 5   0  0.1560174E-06  0.2997140E+04  0.7818609E-02  0.8244548E-01
        2   -1    0    0  501    0  0.00000000000E+00  0.00000000000E+00  0.28513593272E+04  0.28513593272E+04  0.25500000920E-02 0. -1.
       -2   -1    0    0    0  501  0.00000000000E+00  0.00000000000E+00 -0.78759322820E+03  0.78759322820E+03  0.25500000920E-02 0.  1.
    10030    2    1    2    0    0  0.00000000000E+00  0.00000000000E+00  0.20637660990E+04  0.36389525554E+04  0.29971395011E+04 0.  0.
        5    1    3    3  502    0 -0.20296581749E+02  0.94104609319E+03  0.24476523887E+04  0.26224042416E+04  0.46999998093E+01 0. -1.
       -5    1    3    3    0  502  0.20296581749E+02 -0.94104609319E+03 -0.38388628971E+03  0.10165483137E+04  0.46999998093E+01 0.  1.
</event>
<event>
 5   0  0.5874741E-07  0.3009687E+04  0.7818609E-02  0.8240970E-01
        1   -1    0    0  501    0  0.00000000000E+00  0.00000000000E+00  0.19532718066E+04  0.19532718066E+04  0.50400001928E-02 0. -1.
       -1   -1    0    0    0  501  0.00000000000E+00  0.00000000000E+00 -0.11593645928E+04  0.11593645928E+04  0.50400001928E-02 0.  1.
    10030    2    1    2    0    0  0.00000000000E+00  0.00000000000E+00  0.79390721376E+03  0.31126363994E+04  0.30096871416E+04 0.  0.
        4    1    3    3  502    0 -0.10525565846E+04 -0.59547279597E+03 -0.52927547439E+03  0.13200747537E+04  0.12699999809E+01 0.  1.
       -4    1    3    3    0  502  0.10525565846E+04  0.59547279597E+03  0.13231826881E+04  0.17925616457E+04  0.12699999809E+01 0. -1.
</event>
<event>
 5   0  0.1560174E-06  0.3005773E+04  0.7818609E-02  0.8242084E-01
       -2   -1    0    0    0  501  0.00000000000E+00  0.00000000000E+00  0.12834216036E+04  0.12834216036E+04  0.25500000920E-02 0. -1.
        2   -1    0    0  501    0  0.00000000000E+00  0.00000000000E+00 -0.17598797618E+04  0.17598797618E+04  0.25500000920E-02 0.  1.
    10030    2    1    2    0    0  0.00000000000E+00  0.00000000000E+00 -0.47645815819E+03  0.30433013654E+04  0.30057729163E+04 0.  0.
        5    1    3    3  502    0  0.41226709349E+03  0.17085411927E+03  0.12147811526E+04  0.12941679277E+04  0.46999998093E+01 0. -1.
       -5    1    3    3    0  502 -0.41226709349E+03 -0.17085411927E+03 -0.16912393108E+04  0.17491334377E+04  0.46999998093E+01 0.  1.
</event>
<event>
 5   0  0.1635086E-06  0.2995445E+04  0.7818609E-02  0.8245033E-01
       -2   -1    0    0    0  501  0.00000000000E+00  0.00000000000E+00  0.15126753977E+04  0.15126753977E+04  0.25500000920E-02 0.  1.
        2   -1    0    0  501    0  0.00000000000E+00  0.00000000000E+00 -0.14829170205E+04  0.14829170205E+04  0.25500000920E-02 0. -1.
    10030    2    1    2    0    0  0.00000000000E+00  0.00000000000E+00  0.29758377189E+02  0.29955924182E+04  0.29954446039E+04 0.  0.
        3    1    3    3  502    0 -0.97550557900E+03  0.94709329440E+03 -0.61330405164E+03  0.14915558028E+04  0.10100000352E+00 0. -1.
       -3    1    3    3    0  502  0.97550557900E+03 -0.94709329440E+03  0.64306242883E+03  0.15040366154E+04  0.10100000352E+00 0.  1.
</event>
<event>
 5   0  0.1635086E-06  0.3002592E+04  0.7818609E-02  0.8242991E-01
       -2   -1    0    0    0  501  0.00000000000E+00  0.00000000000E+00  0.11102848888E+04  0.11102848888E+04  0.25500000920E-02 0.  1.
        2   -1    0    0  501    0  0.00000000000E+00  0.00000000000E+00 -0.20300100224E+04  0.20300100224E+04  0.25500000920E-02 0. -1.
    10030    2    1    2    0    0  0.00000000000E+00  0.00000000000E+00 -0.91972513359E+03  0.31402949112E+04  0.30025918484E+04 0.  0.
        3    1    3    3  502    0 -0.35863578430E+03 -0.81252620969E+02 -0.19821812243E+04  0.20160019916E+04  0.10100000352E+00 0. -1.
       -3    1    3    3    0  502  0.35863578430E+03  0.81252620969E+02  0.10624560907E+04  0.11242929196E+04  0.10100000352E+00 0.  1.
</event>
<event>
 5   0  0.5916703E-07  0.2992689E+04  0.7818609E-02  0.8245822E-01
        1   -1    0    0  501    0  0.00000000000E+00  0.00000000000E+00  0.16760284169E+04  0.16760284169E+04  0.50400001928E-02 0.  1.
       -1   -1    0    0    0  501  0.00000000000E+00  0.00000000000E+00 -0.13359244978E+04  0.13359244979E+04  0.50400001928E-02 0. -1.
    10030    2    1    2    0    0  0.00000000000E+00  0.00000000000E+00  0.34010391905E+03  0.30119529148E+04  0.29926893733E+04 0.  0.
        5    1    3    3  502    0 -0.25367435022E+03  0.12241255237E+04 -0.65754968436E+03  0.14125252746E+04  0.46999998093E+01 0. -1.
       -5    1    3    3    0  502  0.25367435022E+03 -0.12241255237E+04  0.99765360340E+03  0.15994276402E+04  0.46999998093E+01 0.  1.
</event>
<event>
 5   0  0.1560174E-06  0.3000655E+04  0.7818609E-02  0.8243544E-01
        2   -1    0    0  501    0  0.00000000000E+00  0.00000000000E+00  0.19758910622E+04  0.19758910622E+04  0.25500000920E-02 0.  1.
       -2   -1    0    0    0  501  0.00000000000E+00  0.00000000000E+00 -0.11392238705E+04  0.11392238705E+04  0.25500000920E-02 0. -1.
    10030    2    1    2    0    0  0.00000000000E+00  0.00000000000E+00  0.83666719168E+03  0.31151149326E+04  0.30006547709E+04 0.  0.
        5    1    3    3  502    0 -0.23994131417E+03 -0.12269301778E+04  0.12794501616E+04  0.17888388137E+04  0.46999998093E+01 0.  1.
       -5    1    3    3    0  502  0.23994131417E+03  0.12269301778E+04 -0.44278296988E+03  0.13262761190E+04  0.46999998093E+01 0. -1.
</event>
<event>
 5   0  0.1635086E-06  0.3004232E+04  0.7818609E-02  0.8242523E-01
       -2   -1    0    0    0  501  0.00000000000E+00  0.00000000000E+00  0.10849934517E+04  0.10849934517E+04  0.25500000920E-02 0. -1.
        2   -1    0    0  501    0  0.00000000000E+00  0.00000000000E+00 -0.20795998387E+04  0.20795998387E+04  0.25500000920E-02 0.  1.
    10030    2    1    2    0    0  0.00000000000E+00  0.00000000000E+00 -0.99460638698E+03  0.31645932904E+04  0.30042318201E+04 0.  0.
        3    1    3    3  502    0  0.15418840042E+03 -0.83448920330E+03  0.80829390456E+03  0.11719579086E+04  0.10100000352E+00 0. -1.
       -3    1    3    3    0  502 -0.15418840042E+03  0.83448920330E+03 -0.18029002915E+04  0.19926353818E+04  0.10100000352E+00 0.  1.
</event>
<event>
 5   0  0.5887179E-07  0.3003966E+04  0.7818609E-02  0.8242599E-01
        1   -1    0    0  501    0  0.00000000000E+00  0.00000000000E+00  0.78867204239E+03  0.78867204240E+03  0.50400001928E-02 0. -1.
       -1   -1    0    0    0  501  0.00000000000E+00  0.00000000000E+00 -0.28604447483E+04  0.28604447483E+04  0.50400001928E-02 0.  1.
    10030    2    1    2    0    0  0.00000000000E+00  0.00000000000E+00 -0.20717727059E+04  0.36491167907E+04  0.30039659131E+04 0.  0.
        3    1    3    3  502    0  0.11738049885E+03 -0.14434437144E+04 -0.55204191079E+03  0.15498574837E+04  0.10100000352E+00 0. -1.
       -3    1    3    3    0  502 -0.11738049885E+03  0.14434437144E+04 -0.15197307951E+04  0.20992593070E+04  0.10100000352E+00 0.  1.
</event>
<event>
 5   0  0.5887179E-07  0.2999395E+04  0.7818609E-02  0.8243904E-01
       -1   -1    0    0    0  501  0.00000000000E+00  0.00000000000E+00  0.10359485839E+04  0.10359485839E+04  0.50400001928E-02 0. -1.
        1   -1    0    0  501    0  0.00000000000E+00  0.00000000000E+00 -0.21710462375E+04  0.21710462375E+04  0.50400001928E-02 0.  1.
    10030    2    1    2    0    0  0.00000000000E+00  0.00000000000E+00 -0.11350976536E+04  0.32069948214E+04  0.29993947892E+04 0.  0.
        3    1    3    3  502    0  0.10776875548E+04  0.39170034465E+03  0.46591859947E+03  0.12377074684E+04  0.10100000352E+00 0. -1.
       -3    1    3    3    0  502 -0.10776875548E+04 -0.39170034465E+03 -0.16010162530E+04  0.19692873530E+04  0.10100000352E+00 0.  1.
</event>
<event>
 5   0  0.5874741E-07  0.3000768E+04  0.7818609E-02  0.8243512E-01
       -1   -1    0    0    0  501  0.00000000000E+00  0.00000000000E+00  0.12290234814E+04  0.12290234814E+04  0.50400001928E-02 0.  1.
        1   -1    0    0  501    0  0.00000000000E+00  0.00000000000E+00 -0.18316587125E+04  0.18316587125E+04  0.50400001928E-02 0. -1.
    10030    2    1    2    0    0  0.00000000000E+00  0.00000000000E+00 -0.60263523115E+03  0.30606821939E+04  0.30007676135E+04 0.  0.
        4    1    3    3  502    0  0.91470196167E+03  0.41786256617E+03 -0.14370405590E+04  0.17539600862E+04  0.12699999809E+01 0. -1.
       -4    1    3    3    0  502 -0.91470196167E+03 -0.41786256617E+03  0.83440532782E+03  0.13067221078E+04  0.12699999809E+01 0.  1.
</event>
<event>
 5   0  0.1723916E-06  0.2983607E+04  0.7818609E-02  0.8248427E-01
       -2   -1    0    0    0  501  0.00000000000E+00  0.00000000000E+00  0.13719892052E+04  0.13719892052E+04  0.25500000920E-02 0. -1.
        2   -1    0    0  501    0  0.00000000000E+00  0.00000000000E+00 -0.16220812990E+04  0.16220812990E+04  0.25500000920E-02 0.  1.
    10030    2    1    2    0    0  0.00000000000E+00  0.00000000000E+00 -0.25009209381E+03  0.29940705041E+04  0.29836072343E+04 0.  0.
        1    1    3    3  502    0  0.67154940543E+02  0.11569323724E+04  0.81765015404E+03  0.14182926619E+04  0.50400001928E-02 0. -1.
       -1    1    3    3    0  502 -0.67154940543E+02 -0.11569323724E+04 -0.10677422479E+04  0.15757778423E+04  0.50400001928E-02 0.  1.
</event>
<event>
 5   0  0.1560174E-06  0.3004192E+04  0.7818609E-02  0.8242535E-01
        2   -1    0    0  501    0  0.00000000000E+00  0.00000000000E+00  0.19464879559E+04  0.19464879559E+04  0.25500000920E-02 0. -1.
       -2   -1    0    0    0  501  0.00000000000E+00  0.00000000000E+00 -0.11591604198E+04  0.11591604198E+04  0.25500000920E-02 0.  1.
    10030    2    1    2    0    0  0.00000000000E+00  0.00000000000E+00  0.78732753612E+03  0.31056483757E+04  0.30041916025E+04 0.  0.
        5    1    3    3  502    0 -0.92313591547E+03  0.43675691741E+03  0.15323778533E+04  0.18415049548E+04  0.46999998093E+01 0. -1.
       -5    1    3    3    0  502  0.92313591547E+03 -0.43675691741E+03 -0.74505031722E+03  0.12641434209E+04  0.46999998093E+01 0.  1.
</event>
<event>
 5   0  0.1674806E-06  0.2986208E+04  0.7818609E-02  0.8247680E-01
       -2   -1    0    0    0  501  0.00000000000E+00  0.00000000000E+00  0.12417238346E+04  0.12417238346E+04  0.25500000920E-02 0. -1.
        2   -1    0    0  501    0  0.00000000000E+00  0.00000000000E+00 -0.17953742820E+04  0.17953742820E+04  0.25500000920E-02 0.  1.
    10030    2    1    2    0    0  0.00000000000E+00  0.00000000000E+00 -0.55365044738E+03  0.30370981166E+04  0.29862076539E+04 0.  0.
        2    1    3    3  502    0 -0.28014429367E+03 -0.10225792921E+04 -0.13460307201E+04  0.17134608059E+04  0.25500000920E-02 0.  1.
       -2    1    3    3    0  502  0.28014429367E+03  0.10225792921E+04  0.79238027269E+03  0.13236373108E+04  0.25500000920E-02 0. -1.
</event>
<event>
 5   0  0.1635086E-06  0.3000308E+04  0.7818609E-02  0.8243643E-01
        2   -1    0    0  501    0  0.00000000000E+00  0.00000000000E+00  0.20177006801E+04  0.20177006801E+04  0.25500000920E-02 0. -1.
       -2   -1    0    0    0  501  0.00000000000E+00  0.00000000000E+00 -0.11153596691E+04  0.11153596691E+04  0.25500000920E-02 0.  1.
    10030    2    1    2    0    0  0.00000000000E+00  0.00000000000E+00  0.90234101097E+03  0.31330603493E+04  0.30003079595E+04 0.  0.
        3    1    3    3  502    0 -0.12707710268E+04 -0.21830774134E+03 -0.34953194727E+03  0.13359228514E+04  0.10100000352E+00 0.  1.
       -3    1    3    3    0  502  0.12707710268E+04  0.21830774134E+03  0.12518729582E+04  0.17971374979E+04  0.10100000352E+00 0. -1.
</event>
<event>
 5   0  0.5931588E-07  0.3009072E+04  0.7818609E-02  0.8241145E-01
        1   -1    0    0  501    0  0.00000000000E+00  0.00000000000E+00  0.15756103571E+04  0.15756103571E+04  0.50400001928E-02 0.  1.
       -1   -1    0    0    0  501  0.00000000000E+00  0.00000000000E+00 -0.14366674238E+04  0.14366674238E+04  0.50400001928E-02 0. -1.
    10030    2    1    2    0    0  0.00000000000E+00  0.00000000000E+00  0.13894293333E+03  0.30122777809E+04  0.30090716659E+04 0.  0.
        2    1    3    3  502    0 -0.56449878330E+03 -0.12339731380E+04  0.71999420554E+03  0.15361446018E+04  0.25500000920E-02 0.  1.
       -2    1    3    3    0  502  0.56449878330E+03  0.12339731380E+04 -0.58105127221E+03  0.14761331791E+04  0.25500000920E-02 0. -1.
</event>
<event>
 5   0  0.6291798E-07  0.2993063E+04  0.7818609E-02  0.8245714E-01
        1   -1    0    0  501    0  0.00000000000E+00  0.00000000000E+00  0.17895707527E+04  0.17895707527E+04  0.50400001928E-02 0. -1.
       -1   -1    0    0    0  501  0.00000000000E+00  0.00000000000E+00 -0.12514772071E+04  0.12514772071E+04  0.50400001928E-02 0.  1.
    10030    2    1    2    0    0  0.00000000000E+00  0.00000000000E+00  0.53809354556E+03  0.30410479598E+04  0.29930633188E+04 0.  0.
        1    1    3    3  502    0 -0.36253864246E+03 -0.98033368917E+03  0.13572537982E+04  0.17130750953E+04  0.50400001928E-02 0. -1.
       -1    1    3    3    0  502  0.36253864246E+03  0.98033368917E+03 -0.81916025263E+03  0.13279728645E+04  0.50400001928E-02 0.  1.
</event>
<event>
 5   0  0.1635086E-06  0.2950628E+04  0.7818609E-02  0.8257972E-01
        2   -1    0    0  501    0  0.00000000000E+00  0.00000000000E+00  0.20519737260E+04  0.20519737260E+04  0.25500000920E-02 0. -1.
       -2   -1    0    0    0  501  0.00000000000E+00  0.00000000000E+00 -0.10607111584E+04  0.10607111584E+04  0.25500000920E-02 0.  1.
    10030    2    1    2    0    0  0.00000000000E+00  0.00000000000E+00  0.99126256766E+03  0.31126848844E+04  0.29506280198E+04 0.  0.
        3    1    3    3  502    0 -0.92121624765E+03  0.98842609089E+03  0.11205570180E+04  0.17553556770E+04  0.10100000352E+00 0. -1.
       -3    1    3    3    0  502  0.92121624765E+03 -0.98842609089E+03 -0.12929445029E+03  0.13573292074E+04  0.10100000352E+00 0.  1.
</event>
<event>
 5   0  0.1560174E-06  0.2999920E+04  0.7818609E-02  0.8243754E-01
       -2   -1    0    0    0  501  0.00000000000E+00  0.00000000000E+00  0.15406673250E+04  0.15406673250E+04  0.25500000920E-02 0. -1.
        2   -1    0    0  501    0  0.00000000000E+00  0.00000000000E+00 -0.14603285582E+04  0.14603285582E+04  0.25500000920E-02 0.  1.
    10030    2    1    2    0    0  0.00000000000E+00  0.00000000000E+00  0.80338766798E+02  0.30009958832E+04  0.29999203278E+04 0.  0.
        5    1    3    3  502    0 -0.70651658646E+03 -0.39774587426E+03  0.13025611790E+04  0.15342930563E+04  0.46999998093E+01 0. -1.
       -5    1    3    3    0  502  0.70651658646E+03  0.39774587426E+03 -0.12222224122E+04  0.14667028269E+04  0.46999998093E+01 0.  1.
</event>
<event>
 5   0  0.5887179E-07  0.2999259E+04  0.7818609E-02  0.8243942E-01
       -1   -1    0    0    0  501  0.00000000000E+00  0.00000000000E+00  0.19339257868E+04  0.19339257868E+04  0.50400001928E-02 0. -1.
        1   -1    0    0  501    0  0.00000000000E+00  0.00000000000E+00 -0.11628620957E+04  0.11628620957E+04  0.50400001928E-02 0.  1.
    10030    2    1    2    0    0  0.00000000000E+00  0.00000000000E+00  0.77106369114E+03  0.30967878825E+04  0.29992592374E+04 0.  0.
        3    1    3    3  502    0 -0.47481578275E+03  0.13519604269E+04  0.84222915830E+03  0.16621061905E+04  0.10100000352E+00 0.  1.
       -3    1    3    3    0  502  0.47481578275E+03 -0.13519604269E+04 -0.71165467164E+02  0.14346816920E+04  0.10100000352E+00 0. -1.
</event>
<event>
 5   0  0.5931588E-07  0.2987622E+04  0.7818609E-02  0.8247274E-01
        1   -1    0    0  501    0  0.00000000000E+00  0.00000000000E+00  0.17618169722E+04  0.17618169722E+04  0.50400001928E-02 0.  1.
       -1   -1    0    0    0  501  0.00000000000E+00  0.00000000000E+00 -0.12665735047E+04  0.12665735047E+04  0.50400001928E-02 0. -1.
    10030    2    1    2    0    0  0.00000000000E+00  0.00000000000E+00  0.49524346745E+03  0.30283904769E+04  0.29876215939E+04 0.  0.
        2    1    3    3  502    0 -0.10313619452E+04  0.10466702083E+04  0.52007329968E+03  0.15587502122E+04  0.25500000920E-02 0. -1.
       -2    1    3    3    0  502  0.10313619452E+04 -0.10466702083E+04 -0.24829832228E+02  0.14696402647E+04  0.25500000920E-02 0.  1.
</event>
<event>
 5   0  0.5931588E-07  0.3012318E+04  0.7818609E-02  0.8240222E-01
        1   -1    0    0  501    0  0.00000000000E+00  0.00000000000E+00  0.88425171154E+03  0.88425171155E+03  0.50400001928E-02 0.  1.
       -1   -1    0    0    0  501  0.00000000000E+00  0.00000000000E+00 -0.25654629650E+04  0.25654629650E+04  0.50400001928E-02 0. -1.
    10030    2    1    2    0    0  0.00000000000E+00  0.00000000000E+00 -0.16812112534E+04  0.34497146765E+04  0.30123180560E+04 0.  0.
        2    1    3    3  502    0 -0.73256134362E+03 -0.78069646812E+03  0.37265102914E+03  0.11335792372E+04  0.25500000920E-02 0.  1.
       -2    1    3    3    0  502  0.73256134362E+03  0.78069646812E+03 -0.20538622826E+04  0.23161354393E+04  0.25500000920E-02 0. -1.
</event>
<event>
 5   0  0.1625212E-06  0.2969214E+04  0.7818609E-02  0.8252577E-01
       -2   -1    0    0    0  501  0.00000000000E+00  0.00000000000E+00  0.10702130381E+04  0.10702130381E+04  0.25500000920E-02 0. -1.
        2   -1    0    0  501    0  0.00000000000E+00  0.00000000000E+00 -0.20594572612E+04  0.20594572612E+04  0.25500000920E-02 0.  1.
    10030    2    1    2    0    0  0.00000000000E+00  0.00000000000E+00 -0.98924422303E+03  0.31296702993E+04  0.29692140458E+04 0.  0.
        4    1    3    3  502    0 -0.13744948923E+04  0.37972507275E+03 -0.93001725539E+03  0.17024573557E+04  0.12699999809E+01 0.  1.
       -4    1    3    3    0  502  0.13744948923E+04 -0.37972507275E+03 -0.59226967640E+02  0.14272129436E+04  0.12699999809E+01 0. -1.
</event>
<event>
 5   0  0.5916703E-07  0.2998065E+04  0.7818609E-02  0.8244284E-01
        1   -1    0    0  501    0  0.00000000000E+00  0.00000000000E+00  0.12700286461E+04  0.12700286461E+04  0.50400001928E-02 0. -1.
       -1   -1    0    0    0  501  0.00000000000E+00  0.00000000000E+00 -0.17693286683E+04  0.17693286683E+04  0.50400001928E-02 0.  1.
    10030    2    1    2    0    0  0.00000000000E+00  0.00000000000E+00 -0.49930002223E+03  0.30393573144E+04  0.29980647712E+04 0.  0.
        5    1    3    3  502    0  0.12208886817E+04  0.72615832786E+03 -0.73499317845E+03  0.15994099389E+04  0.46999998093E+01 0.  1.
       -5    1    3    3    0  502 -0.12208886817E+04 -0.72615832786E+03  0.23569315622E+03  0.14399473755E+04  0.46999998093E+01 0. -1.
</event>
<event>
 5   0  0.1560174E-06  0.3031408E+04  0.7818609E-02  0.8234819E-01
        2   -1    0    0  501    0  0.00000000000E+00  0.00000000000E+00  0.20795883462E+04  0.20795883462E+04  0.25500000920E-02 0. -1.
       -2   -1    0    0    0  501  0.00000000000E+00  0.00000000000E+00 -0.11047177963E+04  0.11047177963E+04  0.25500000920E-02 0.  1.
    10030    2    1    2    0    0  0.00000000000E+00  0.00000000000E+00  0.97487054989E+03  0.31843061425E+04  0.30314077621E+04 0.  0.
        5    1    3    3  502    0  0.69852568135E+03 -0.50839328990E+03 -0.82074367545E+03  0.11916560475E+04  0.46999998093E+01 0.  1.
       -5    1    3    3    0  502 -0.69852568135E+03  0.50839328990E+03  0.17956142253E+04  0.19926500950E+04  0.46999998093E+01 0. -1.
</event>
<event>
 5   0  0.5931588E-07  0.2985445E+04  0.7818609E-02  0.8247899E-01
        1   -1    0    0  501    0  0.00000000000E+00  0.00000000000E+00  0.23369700169E+04  0.23369700169E+04  0.50400001928E-02 0. -1.
       -1   -1    0    0    0  501  0.00000000000E+00  0.00000000000E+00 -0.95346546586E+03  0.95346546588E+03  0.50400001928E-02 0.  1.
    10030    2    1    2    0    0  0.00000000000E+00  0.00000000000E+00  0.13835045510E+04  0.32904354828E+04  0.29854448284E+04 0.  0.
        2    1    3    3  502    0  0.21971778846E+03 -0.87478252848E+03  0.20026731538E+04  0.21964107402E+04  0.25500000920E-02 0. -1.
       -2    1    3    3    0  502 -0.21971778846E+03  0.87478252848E+03 -0.61916860278E+03  0.10940247426E+04  0.25500000920E-02 0.  1.
</event>
<event>
 5   0  0.1723916E-06  0.3004464E+04  0.7818609E-02  0.8242457E-01
       -2   -1    0    0    0  501  0.00000000000E+00  0.00000000000E+00  0.90945871613E+03  0.90945871613E+03  0.25500000920E-02 0. -1.
        2   -1    0    0  501    0  0.00000000000E+00  0.00000000000E+00 -0.24813677635E+04  0.24813677635E+04  0.25500000920E-02 0.  1.
    10030    2    1    2    0    0  0.00000000000E+00  0.00000000000E+00 -0.15719090474E+04  0.33908264797E+04  0.30044643719E+04 0.  0.
        1    1    3    3  502    0 -0.10148266593E+04  0.63499158192E+03 -0.18101913567E+04  0.21702258421E+04  0.50400001928E-02 0.  1.
       -1    1    3    3    0  502  0.10148266593E+04 -0.63499158192E+03  0.23828230934E+03  0.12206006376E+04  0.50400001928E-02 0. -1.
</event>
<event>
 5   0  0.5916703E-07  0.3001597E+04  0.7818609E-02  0.8243275E-01
        1   -1    0    0  501    0  0.00000000000E+00  0.00000000000E+00  0.19080483953E+04  0.19080483953E+04  0.50400001928E-02 0. -1.
       -1   -1    0    0    0  501  0.00000000000E+00  0.00000000000E+00 -0.11804710597E+04  0.11804710597E+04  0.50400001928E-02 0.  1.
    10030    2    1    2    0    0  0.00000000000E+00  0.00000000000E+00  0.72757733565E+03  0.30885194550E+04  0.30015968491E+04 0.  0.
        5    1    3    3  502    0  0.10793730800E+03  0.12422880670E+03 -0.11711511193E+04  0.11826666027E+04  0.46999998093E+01 0.  1.
       -5    1    3    3    0  502 -0.10793730800E+03 -0.12422880670E+03  0.18987284550E+04  0.19058528523E+04  0.46999998093E+01 0. -1.
</event>
<event>
 5   0  0.5931588E-07  0.2949799E+04  0.7818609E-02  0.8258213E-01
        1   -1    0    0  501    0  0.00000000000E+00  0.00000000000E+00  0.21468314928E+04  0.21468314929E+04  0.50400001928E-02 0. -1.
       -1   -1    0    0    0  501  0.00000000000E+00  0.00000000000E+00 -0.10132739323E+04  0.10132739323E+04  0.50400001928E-02 0.  1.
    10030    2    1    2    0    0  0.00000000000E+00  0.00000000000E+00  0.11335575605E+04  0.31601054252E+04  0.29497989008E+04 0.  0.
        2    1    3    3  502    0  0.11999614093E+03 -0.82415360783E+03  0.18708140082E+04  0.20478215978E+04  0.25500000920E-02 0. -1.
       -2    1    3    3    0  502 -0.11999614093E+03  0.82415360783E+03 -0.73725644764E+03  0.11122838274E+04  0.25500000920E-02 0.  1.
</event>
<event>
 5   0  0.1674806E-06  0.2991708E+04  0.7818609E-02  0.8246103E-01
       -2   -1    0    0    0  501  0.00000000000E+00  0.00000000000E+00  0.88073793664E+03  0.88073793664E+03  0.25500000920E-02 0.  1.
        2   -1    0    0  501    0  0.00000000000E+00  0.00000000000E+00 -0.25405733197E+04  0.25405733197E+04  0.25500000920E-02 0. -1.
    10030    2    1    2    0    0  0.00000000000E+00  0.00000000000E+00 -0.16598353831E+04  0.34213112564E+04  0.29917080763E+04 0.  0.
        2    1    3    3  502    0 -0.82347221428E+03  0.11569299314E+04 -0.13675132887E+04  0.19714679680E+04  0.25500000920E-02 0. -1.
       -2    1    3    3    0  502  0.82347221428E+03 -0.11569299314E+04 -0.29232209435E+03  0.14498432884E+04  0.25500000920E-02 0.  1.
</event>
<event>
 5   0  0.1674806E-06  0.3001786E+04  0.7818609E-02  0.8243221E-01
        2   -1    0    0  501    0  0.00000000000E+00  0.00000000000E+00  0.19785918733E+04  0.19785918733E+04  0.25500000920E-02 0. -1.
       -2   -1    0    0    0  501  0.00000000000E+00  0.00000000000E+00 -0.11385263831E+04  0.11385263831E+04  0.25500000920E-02 0.  1.
    10030    2    1    2    0    0  0.00000000000E+00  0.00000000000E+00  0.84006549015E+03  0.31171182564E+04  0.30017855015E+04 0.  0.
        2    1    3    3  502    0 -0.19132246564E+03 -0.14428874068E+04  0.80037106706E+03  0.16610605647E+04  0.25500000920E-02 0. -1.
       -2    1    3    3    0  502  0.19132246564E+03  0.14428874068E+04  0.39694423088E+02  0.14560576918E+04  0.25500000920E-02 0.  1.
</event>
<event>
 5   0  0.1625212E-06  0.2998005E+04  0.7818609E-02  0.8244301E-01
       -2   -1    0    0    0  501  0.00000000000E+00  0.00000000000E+00  0.12901438389E+04  0.12901438389E+04  0.25500000920E-02 0.  1.
        2   -1    0    0  501    0  0.00000000000E+00  0.00000000000E+00 -0.17416724192E+04  0.17416724192E+04  0.25500000920E-02 0. -1.
    10030    2    1    2    0    0  0.00000000000E+00  0.00000000000E+00 -0.45152858027E+03  0.30318162581E+04  0.29980046304E+04 0.  0.
        4    1    3    3  502    0  0.29826722999E+02  0.10557911106E+04  0.84991511648E+03  0.13557071294E+04  0.12699999809E+01 0.  1.
       -4    1    3    3    0  502 -0.29826722999E+02 -0.10557911106E+04 -0.13014436967E+04  0.16761091287E+04  0.12699999809E+01 0. -1.
</event>
<event>
 5   0  0.1674806E-06  0.2985441E+04  0.7818609E-02  0.8247900E-01
        2   -1    0    0  501    0  0.00000000000E+00  0.00000000000E+00  0.15379090523E+04  0.15379090523E+04  0.25500000920E-02 0.  1.
       -2   -1    0    0    0  501  0.00000000000E+00  0.00000000000E+00 -0.14488601865E+04  0.14488601865E+04  0.25500000920E-02 0. -1.
    10030    2    1    2    0    0  0.00000000000E+00  0.00000000000E+00  0.89048865758E+02  0.29867692388E+04  0.29854414724E+04 0.  0.
        2    1    3    3  502    0  0.33156719469E+03  0.92806921783E+03  0.11661679730E+04  0.15268257985E+04  0.25500000920E-02 0.  1.
       -2    1    3    3    0  502 -0.33156719469E+03 -0.92806921783E+03 -0.10771191072E+04  0.14599434403E+04  0.25500000920E-02 0. -1.
</event>
<event>
 5   0  0.1674806E-06  0.3001709E+04  0.7818609E-02  0.8243243E-01
        2   -1    0    0  501    0  0.00000000000E+00  0.00000000000E+00  0.17294734393E+04  0.17294734393E+04  0.25500000920E-02 0.  1.
       -2   -1    0    0    0  501  0.00000000000E+00  0.00000000000E+00 -0.13024568402E+04  0.13024568402E+04  0.25500000920E-02 0. -1.
    10030    2    1    2    0    0  0.00000000000E+00  0.00000000000E+00  0.42701659907E+03  0.30319302795E+04  0.30017091871E+04 0.  0.
        2    1    3    3  502    0 -0.57579297613E+03  0.37862837307E+03 -0.11332072168E+04  0.13262939314E+04  0.25500000920E-02 0. -1.
       -2    1    3    3    0  502  0.57579297613E+03 -0.37862837307E+03  0.15602238159E+04  0.17056363481E+04  0.25500000920E-02 0.  1.
</event>
<event>
 5   0  0.1635086E-06  0.2997691E+04  0.7818609E-02  0.8244390E-01
        2   -1    0    0  501    0  0.00000000000E+00  0.00000000000E+00  0.17497051725E+04  0.17497051725E+04  0.25500000920E-02 0. -1.
       -2   -1    0    0    0  501  0.00000000000E+00  0.00000000000E+00 -0.12839525525E+04  0.12839525525E+04  0.25500000920E-02 0.  1.
    10030    2    1    2    0    0  0.00000000000E+00  0.00000000000E+00  0.46575262001E+03  0.30336577250E+04  0.29976913933E+04 0.  0.
        3    1    3    3  502    0  0.59822108224E+03  0.12665008304E+04 -0.30704677004E+03  0.14339353353E+04  0.10100000352E+00 0.  1.
       -3    1    3    3    0  502 -0.59822108224E+03 -0.12665008304E+04  0.77279939005E+03  0.15997223897E+04  0.10100000352E+00 0. -1.
</event>
<event>
 5   0  0.5874741E-07  0.2996938E+04  0.7818609E-02  0.8244606E-01
        1   -1    0    0  501    0  0.00000000000E+00  0.00000000000E+00  0.19245598871E+04  0.19245598871E+04  0.50400001928E-02 0.  1.
       -1   -1    0    0    0  501  0.00000000000E+00  0.00000000000E+00 -0.11667131807E+04  0.11667131807E+04  0.50400001928E-02 0. -1.
    10030    2    1    2    0    0  0.00000000000E+00  0.00000000000E+00  0.75784670642E+03  0.30912730678E+04  0.29969380289E+04 0.  0.
        4    1    3    3  502    0  0.11932862037E+04 -0.79458469265E+03  0.82866510165E+03  0.16558937953E+04  0.12699999809E+01 0. -1.
       -4    1    3    3    0  502 -0.11932862037E+04  0.79458469265E+03 -0.70818395234E+02  0.14353792725E+04  0.12699999809E+01 0.  1.
</event>
<event>
 5   0  0.6291798E-07  0.2992827E+04  0.7818609E-02  0.8245782E-01
        1   -1    0    0  501    0  0.00000000000E+00  0.00000000000E+00  0.98909820979E+03  0.98909820981E+03  0.50400001928E-02 0.  1.
       -1   -1    0    0    0  501  0.00000000000E+00  0.00000000000E+00 -0.22639349809E+04  0.22639349809E+04  0.50400001928E-02 0. -1.
    10030    2    1    2    0    0  0.00000000000E+00  0.00000000000E+00 -0.12748367711E+04  0.32530331907E+04  0.29928274503E+04 0.  0.
        1    1    3    3  502    0  0.25759444333E+03  0.79783651361E+03  0.70984575797E+03  0.10985349334E+04  0.50400001928E-02 0.  1.
       -1    1    3    3    0  502 -0.25759444333E+03 -0.79783651361E+03 -0.19846825291E+04  0.21544982574E+04  0.50400001928E-02 0. -1.
</event>
<event>
 5   0  0.5887179E-07  0.2997584E+04  0.7818609E-02  0.8244421E-01
       -1   -1    0    0    0  501  0.00000000000E+00  0.00000000000E+00  0.76837620099E+03  0.76837620101E+03  0.50400001928E-02 0. -1.
        1   -1    0    0  501    0  0.00000000000E+00  0.00000000000E+00 -0.29235392858E+04  0.29235392858E+04  0.50400001928E-02 0.  1.
    10030    2    1    2    0    0  0.00000000000E+00  0.00000000000E+00 -0.21551630848E+04  0.36919154868E+04  0.29975843674E+04 0.  0.
        3    1    3    3  502    0 -0.42209735978E+03 -0.94146930180E+03  0.26135820040E+03  0.10643489778E+04  0.10100000352E+00 0. -1.
       -3    1    3    3    0  502  0.42209735978E+03  0.94146930180E+03 -0.24165212852E+04  0.26275665091E+04  0.10100000352E+00 0.  1.
</event>
<event>
 5   0  0.5931588E-07  0.3001380E+04  0.7818609E-02  0.8243337E-01
        1   -1    0    0  501    0  0.00000000000E+00  0.00000000000E+00  0.17969432272E+04  0.17969432272E+04  0.50400001928E-02 0. -1.
       -1   -1    0    0    0  501  0.00000000000E+00  0.00000000000E+00 -0.12532787690E+04  0.12532787691E+04  0.50400001928E-02 0.  1.
    10030    2    1    2    0    0  0.00000000000E+00  0.00000000000E+00  0.54366445815E+03  0.30502219962E+04  0.30013802131E+04 0.  0.
        2    1    3    3  502    0 -0.69547314388E+02  0.14978910999E+04  0.21122775026E+03  0.15143089971E+04  0.25500000920E-02 0.  1.
       -2    1    3    3    0  502  0.69547314388E+02 -0.14978910999E+04  0.33243670788E+03  0.15359129991E+04  0.25500000920E-02 0. -1.
</event>
<event>
 5   0  0.5887179E-07  0.3006230E+04  0.7818609E-02  0.8241954E-01
        1   -1    0    0  501    0  0.00000000000E+00  0.00000000000E+00  0.10650609396E+04  0.10650609396E+04  0.50400001928E-02 0.  1.
       -1   -1    0    0    0  501  0.00000000000E+00  0.00000000000E+00 -0.21213380175E+04  0.21213380175E+04  0.50400001928E-02 0. -1.
    10030    2    1    2    0    0  0.00000000000E+00  0.00000000000E+00 -0.10562770778E+04  0.31863989571E+04  0.30062297066E+04 0.  0.
        3    1    3    3  502    0  0.68856932043E+03 -0.12514809153E+04 -0.32092574957E+02  0.14287624484E+04  0.10100000352E+00 0. -1.
       -3    1    3    3    0  502 -0.68856932043E+03  0.12514809153E+04 -0.10241845029E+04  0.17576365087E+04  0.10100000352E+00 0.  1.
</event>
<event>
 5   0  0.1625212E-06  0.3011077E+04  0.7818609E-02  0.8240575E-01
       -2   -1    0    0    0  501  0.00000000000E+00  0.00000000000E+00  0.13252389836E+04  0.13252389836E+04  0.25500000920E-02 0.  1.
        2   -1    0    0  501    0  0.00000000000E+00  0.00000000000E+00 -0.17103681817E+04  0.17103681817E+04  0.25500000920E-02 0. -1.
    10030    2    1    2    0    0  0.00000000000E+00  0.00000000000E+00 -0.38512919804E+03  0.30356071653E+04  0.30110772761E+04 0.  0.
        4    1    3    3  502    0  0.28554447236E+03  0.92861167578E+03  0.96693090285E+03  0.13706977325E+04  0.12699999809E+01 0.  1.
       -4    1    3    3    0  502 -0.28554447236E+03 -0.92861167578E+03 -0.13520601009E+04  0.16649094328E+04  0.12699999809E+01 0. -1.
</event>
<event>
 5   0  0.1625212E-06  0.2986128E+04  0.7818609E-02  0.8247703E-01
        2   -1    0    0  501    0  0.00000000000E+00  0.00000000000E+00  0.21659401675E+04  0.21659401675E+04  0.25500000920E-02 0. -1.
       -2   -1    0    0    0  501  0.00000000000E+00  0.00000000000E+00 -0.10292252726E+04  0.10292252726E+04  0.25500000920E-02 0.  1.
    10030    2    1    2    0    0  0.00000000000E+00  0.00000000000E+00  0.11367148949E+04  0.31951654402E+04  0.29861281684E+04 0.  0.
        4    1    3    3  502    0 -0.79589875072E+03  0.10763334618E+04 -0.13921315389E+03  0.13458567745E+04  0.12699999809E+01 0.  1.
       -4    1    3    3    0  502  0.79589875072E+03 -0.10763334618E+04  0.12759280488E+04  0.18493086657E+04  0.12699999809E+01 0. -1.
</event>
<event>
 5   0  0.1674806E-06  0.3038426E+04  0.7818609E-02  0.8232843E-01
       -2   -1    0    0    0  501  0.00000000000E+00  0.00000000000E+00  0.91327710240E+03  0.91327710240E+03  0.25500000920E-02 0. -1.
        2   -1    0    0  501    0  0.00000000000E+00  0.00000000000E+00 -0.25271712521E+04  0.25271712521E+04  0.25500000920E-02 0.  1.
    10030    2    1    2    0    0  0.00000000000E+00  0.00000000000E+00 -0.16138941497E+04  0.34404483545E+04  0.30384256703E+04 0.  0.
        2    1    3    3  502    0 -0.65753671990E+03  0.20012041983E+03 -0.23410554210E+04  0.24398654070E+04  0.25500000920E-02 0.  1.
       -2    1    3    3    0  502  0.65753671990E+03 -0.20012041983E+03  0.72716127123E+03  0.10005829475E+04  0.25500000920E-02 0. -1.
</event>
<event>
 5   0  0.5431625E-07  0.3016430E+04  0.7818609E-02  0.8239055E-01
        3   -1    0    0  501    0  0.00000000000E+00  0.00000000000E+00  0.19395686527E+04  0.19395686553E+04  0.10100000352E+00 0. -1.
       -3   -1    0    0    0  501  0.00000000000E+00  0.00000000000E+00 -0.11727926695E+04  0.11727926739E+04  0.10100000352E+00 0.  1.
    10030    2    1    2    0    0  0.00000000000E+00  0.00000000000E+00  0.76677598314E+03  0.31123613292E+04  0.30164296171E+04 0.  0.
        4    1    3    3  502    0 -0.49635739715E+03  0.57184787557E+03 -0.96244462112E+03  0.12246150089E+04  0.12699999809E+01 0.  1.
       -4    1    3    3    0  502  0.49635739715E+03 -0.57184787557E+03  0.17292206043E+04  0.18877463202E+04  0.12699999809E+01 0. -1.
</event>
<event>
 5   0  0.5874741E-07  0.3015273E+04  0.7818609E-02  0.8239383E-01
        1   -1    0    0  501    0  0.00000000000E+00  0.00000000000E+00  0.11447538333E+04  0.11447538333E+04  0.50400001928E-02 0. -1.
       -1   -1    0    0    0  501  0.00000000000E+00  0.00000000000E+00 -0.19855521963E+04  0.19855521963E+04  0.50400001928E-02 0.  1.
    10030    2    1    2    0    0  0.00000000000E+00  0.00000000000E+00 -0.84079836299E+03  0.31303060296E+04  0.30152734456E+04 0.  0.
        4    1    3    3  502    0 -0.41015545193E+03 -0.13523302821E+04  0.12494306994E+03  0.14186744060E+04  0.12699999809E+01 0.  1.
       -4    1    3    3    0  502  0.41015545193E+03  0.13523302821E+04 -0.96574143293E+03  0.17116316236E+04  0.12699999809E+01 0. -1.
</event>
<event>
 5   0  0.5887179E-07  0.2998723E+04  0.7818609E-02  0.8244096E-01
        1   -1    0    0  501    0  0.00000000000E+00  0.00000000000E+00  0.20666237571E+04  0.20666237571E+04  0.50400001928E-02 0. -1.
       -1   -1    0    0    0  501  0.00000000000E+00  0.00000000000E+00 -0.10878055235E+04  0.10878055235E+04  0.50400001928E-02 0.  1.
    10030    2    1    2    0    0  0.00000000000E+00  0.00000000000E+00  0.97881823360E+03  0.31544292807E+04  0.29987228869E+04 0.  0.
        3    1    3    3  502    0 -0.47809074437E+02 -0.39018349551E+03 -0.10326332369E+04  0.11049254636E+04  0.10100000352E+00 0.  1.
       -3    1    3    3    0  502  0.47809074437E+02  0.39018349551E+03  0.20114514705E+04  0.20495038171E+04  0.10100000352E+00 0. -1.
</event>
<event>
 5   0  0.5874741E-07  0.3005223E+04  0.7818609E-02  0.8242241E-01
       -1   -1    0    0    0  501  0.00000000000E+00  0.00000000000E+00  0.10816272939E+04  0.10816272939E+04  0.50400001928E-02 0.  1.
        1   -1    0    0  501    0  0.00000000000E+00  0.00000000000E+00 -0.20874482637E+04  0.20874482637E+04  0.50400001928E-02 0. -1.
    10030    2    1    2    0    0  0.00000000000E+00  0.00000000000E+00 -0.10058209698E+04  0.31690755575E+04  0.30052227981E+04 0.  0.
        4    1    3    3  502    0 -0.11734340579E+03  0.17191752444E+03 -0.20721714174E+04  0.20825996029E+04  0.12699999809E+01 0. -1.
       -4    1    3    3    0  502  0.11734340579E+03 -0.17191752444E+03  0.10663504476E+04  0.10864759546E+04  0.12699999809E+01 0.  1.
</event>
<event>
 5   0  0.5874741E-07  0.3011408E+04  0.7818609E-02  0.8240481E-01
        1   -1    0    0  501    0  0.00000000000E+00  0.00000000000E+00  0.15188663698E+04  0.15188663698E+04  0.50400001928E-02 0.  1.
       -1   -1    0    0    0  501  0.00000000000E+00  0.00000000000E+00 -0.14926561429E+04  0.14926561429E+04  0.50400001928E-02 0. -1.
    10030    2    1    2    0    0  0.00000000000E+00  0.00000000000E+00  0.26210226965E+02  0.30115225127E+04  0.30114084526E+04 0.  0.
        4    1    3    3  502    0 -0.82043680291E+03  0.88435927457E+03 -0.88800377954E+03  0.14979186224E+04  0.12699999809E+01 0. -1.
       -4    1    3    3    0  502  0.82043680291E+03 -0.88435927457E+03  0.91421400650E+03  0.15136038903E+04  0.12699999809E+01 0.  1.
</event>
<event>
 5   0  0.1723916E-06  0.2974705E+04  0.7818609E-02  0.8250991E-01
        2   -1    0    0  501    0  0.00000000000E+00  0.00000000000E+00  0.19203118743E+04  0.19203118743E+04  0.25500000920E-02 0.  1.
       -2   -1    0    0    0  501  0.00000000000E+00  0.00000000000E+00 -0.11520097062E+04  0.11520097062E+04  0.25500000920E-02 0. -1.
    10030    2    1    2    0    0  0.00000000000E+00  0.00000000000E+00  0.76830216817E+03  0.30723215805E+04  0.29747053085E+04 0.  0.
        1    1    3    3  502    0  0.10019868644E+04 -0.81439242793E+03  0.11466215954E+04  0.17268334564E+04  0.50400001928E-02 0. -1.
       -1    1    3    3    0  502 -0.10019868644E+04  0.81439242793E+03 -0.37831942724E+03  0.13454881241E+04  0.50400001928E-02 0.  1.
</event>
<event>
 5   0  0.1674806E-06  0.3092968E+04  0.7818609E-02  0.8217670E-01
       -2   -1    0    0    0  501  0.00000000000E+00  0.00000000000E+00  0.17934348782E+04  0.17934348782E+04  0.25500000920E-02 0. -1.
        2   -1    0    0  501    0  0.00000000000E+00  0.00000000000E+00 -0.13335378298E+04  0.13335378298E+04  0.25500000920E-02 0.  1.
    10030    2    1    2    0    0  0.00000000000E+00  0.00000000000E+00  0.45989704842E+03  0.31269727080E+04  0.30929683189E+04 0.  0.
        2    1    3    3  502    0  0.11273288867E+04 -0.77779809247E+03 -0.49612049457E+03  0.14567003249E+04  0.25500000920E-02 0.  1.
       -2    1    3    3    0  502 -0.11273288867E+04  0.77779809247E+03  0.95601754300E+03  0.16702723831E+04  0.25500000920E-02 0. -1.
</event>
<event>
 5   0  0.1635086E-06  0.2994510E+04  0.7818609E-02  0.8245300E-01
       -2   -1    0    0    0  501  0.00000000000E+00  0.00000000000E+00  0.12459609644E+04  0.12459609644E+04  0.25500000920E-02 0. -1.
        2   -1    0    0  501    0  0.00000000000E+00  0.00000000000E+00 -0.17992317767E+04  0.17992317767E+04  0.25500000920E-02 0.  1.
    10030    2    1    2    0    0  0.00000000000E+00  0.00000000000E+00 -0.55327081232E+03  0.30451927411E+04  0.29945100165E+04 0.  0.
        3    1    3    3  502    0  0.47991018050E+03  0.10713520796E+04 -0.12216995717E+04  0.16943018956E+04  0.10100000352E+00 0.  1.
       -3    1    3    3    0  502 -0.47991018050E+03 -0.10713520796E+04  0.66842875943E+03  0.13508908455E+04  0.10100000352E+00 0. -1.
</event>
<event>
 5   0  0.1560174E-06  0.3074681E+04  0.7818609E-02  0.8222721E-01
       -2   -1    0    0    0  501  0.00000000000E+00  0.00000000000E+00  0.25654271001E+04  0.25654271001E+04  0.25500000920E-02 0. -1.
        2   -1    0    0  501    0  0.00000000000E+00  0.00000000000E+00 -0.92125607111E+03  0.92125607111E+03  0.25500000920E-02 0.  1.
    10030    2    1    2    0    0  0.00000000000E+00  0.00000000000E+00  0.16441710290E+04  0.34866831712E+04  0.30746806605E+04 0.  0.
        5    1    3    3  502    0  0.66781020320E+03 -0.69348741314E+03  0.21812279533E+04  0.23842551738E+04  0.46999998093E+01 0. -1.
       -5    1    3    3    0  502 -0.66781020320E+03  0.69348741314E+03 -0.53705692424E+03  0.11024279974E+04  0.46999998093E+01 0.  1.
</event>
<event>
 5   0  0.5916703E-07  0.3004308E+04  0.7818609E-02  0.8242502E-01
        1   -1    0    0  501    0  0.00000000000E+00  0.00000000000E+00  0.14569972766E+04  0.14569972767E+04  0.50400001928E-02 0. -1.
       -1   -1    0    0    0  501  0.00000000000E+00  0.00000000000E+00 -0.15487106042E+04  0.15487106042E+04  0.50400001928E-02 0.  1.
    10030    2    1    2    0    0  0.00000000000E+00  0.00000000000E+00 -0.91713327535E+02  0.30057078808E+04  0.30043083281E+04 0.  0.
        5    1    3    3  502    0  0.81034349402E+03 -0.85140382385E+03  0.88993996197E+03  0.14742999272E+04  0.46999998093E+01 0. -1.
       -5    1    3    3    0  502 -0.81034349402E+03  0.85140382385E+03 -0.98165328951E+03  0.15314079536E+04  0.46999998093E+01 0.  1.
</event>
<event>
 5   0  0.5931588E-07  0.2982642E+04  0.7818609E-02  0.8248705E-01
        1   -1    0    0  501    0  0.00000000000E+00  0.00000000000E+00  0.18301822541E+04  0.18301822541E+04  0.50400001928E-02 0.  1.
       -1   -1    0    0    0  501  0.00000000000E+00  0.00000000000E+00 -0.12152005968E+04  0.12152005968E+04  0.50400001928E-02 0. -1.
    10030    2    1    2    0    0  0.00000000000E+00  0.00000000000E+00  0.61498165727E+03  0.30453828509E+04  0.29826421626E+04 0.  0.
        2    1    3    3  502    0 -0.76535200868E+03  0.38979499536E+02 -0.99877824660E+03  0.12589047162E+04  0.25500000920E-02 0. -1.
       -2    1    3    3    0  502  0.76535200868E+03 -0.38979499536E+02  0.16137599039E+04  0.17864781347E+04  0.25500000920E-02 0.  1.
</event>
<event>
 5   0  0.5916703E-07  0.3006401E+04  0.7818609E-02  0.8241906E-01
       -1   -1    0    0    0  501  0.00000000000E+00  0.00000000000E+00  0.32733910028E+04  0.32733910028E+04  0.50400001928E-02 0.  1.
        1   -1    0    0  501    0  0.00000000000E+00  0.00000000000E+00 -0.69029674990E+03  0.69029674992E+03  0.50400001928E-02 0. -1.
    10030    2    1    2    0    0  0.00000000000E+00  0.00000000000E+00  0.25830942529E+04  0.39636877527E+04  0.30064006190E+04 0.  0.
        5    1    3    3  502    0  0.75647983485E+03  0.92387661631E+03  0.24954131200E+04  0.27663908748E+04  0.46999998093E+01 0.  1.
       -5    1    3    3    0  502 -0.75647983485E+03 -0.92387661631E+03  0.87681132832E+02  0.11972968779E+04  0.46999998093E+01 0. -1.
</event>
<event>
 5   0  0.1674806E-06  0.3000114E+04  0.7818609E-02  0.8243698E-01
       -2   -1    0    0    0  501  0.00000000000E+00  0.00000000000E+00  0.11671250846E+04  0.11671250846E+04  0.25500000920E-02 0.  1.
        2   -1    0    0  501    0  0.00000000000E+00  0.00000000000E+00 -0.19279601069E+04  0.19279601069E+04  0.25500000920E-02 0. -1.
    10030    2    1    2    0    0  0.00000000000E+00  0.00000000000E+00 -0.76083502221E+03  0.30950851915E+04  0.30001137331E+04 0.  0.
        2    1    3    3  502    0  0.10949048938E+04  0.65676326584E+03 -0.11927546295E+04  0.17472316160E+04  0.25500000920E-02 0. -1.
       -2    1    3    3    0  502 -0.10949048938E+04 -0.65676326584E+03  0.43191960727E+03  0.13478535755E+04  0.25500000920E-02 0.  1.
</event>
<event>
 5   0  0.1723916E-06  0.2984273E+04  0.7818609E-02  0.8248236E-01
       -2   -1    0    0    0  501  0.00000000000E+00  0.00000000000E+00  0.78488250507E+03  0.78488250507E+03  0.25500000920E-02 0.  1.
        2   -1    0    0  501    0  0.00000000000E+00  0.00000000000E+00 -0.28366928713E+04  0.28366928713E+04  0.25500000920E-02 0. -1.
    10030    2    1    2    0    0  0.00000000000E+00  0.00000000000E+00 -0.20518103662E+04  0.36215753764E+04  0.29842725123E+04 0.  0.
        1    1    3    3  502    0 -0.14089711693E+04 -0.47036438990E+03 -0.85416183682E+03  0.17134861711E+04  0.50400001928E-02 0.  1.
       -1    1    3    3    0  502  0.14089711693E+04  0.47036438990E+03 -0.11976485294E+04  0.19080892053E+04  0.50400001928E-02 0. -1.
</event>
<event>
 5   0  0.1723916E-06  0.2866345E+04  0.7818609E-02  0.8282962E-01
        2   -1    0    0  501    0  0.00000000000E+00  0.00000000000E+00  0.14832168542E+04  0.14832168542E+04  0.25500000920E-02 0.  1.
       -2   -1    0    0    0  501  0.00000000000E+00  0.00000000000E+00 -0.13848164266E+04  0.13848164266E+04  0.25500000920E-02 0. -1.
    10030    2    1    2    0    0  0.00000000000E+00  0.00000000000E+00  0.98400427570E+02  0.28680332808E+04  0.28663447552E+04 0.  0.
        1    1    3    3  502    0 -0.92676670163E+03  0.94651994638E+03 -0.49810147009E+03  0.14152390620E+04  0.50400001928E-02 0. -1.
       -1    1    3    3    0  502  0.92676670163E+03 -0.94651994638E+03  0.59650189766E+03  0.14527942188E+04  0.50400001928E-02 0.  1.
</event>
<event>
 5   0  0.1635086E-06  0.2989011E+04  0.7818609E-02  0.8246876E-01
        2   -1    0    0  501    0  0.00000000000E+00  0.00000000000E+00  0.15776334100E+04  0.15776334100E+04  0.25500000920E-02 0. -1.
       -2   -1    0    0    0  501  0.00000000000E+00  0.00000000000E+00 -0.14157577398E+04  0.14157577398E+04  0.25500000920E-02 0.  1.
    10030    2    1    2    0    0  0.00000000000E+00  0.00000000000E+00  0.16187567029E+03  0.29933911498E+04  0.29890110142E+04 0.  0.
        3    1    3    3  502    0  0.94611527684E+03  0.14125560716E+03 -0.10689867030E+04  0.14345103154E+04  0.10100000352E+00 0.  1.
       -3    1    3    3    0  502 -0.94611527684E+03 -0.14125560716E+03  0.12308623733E+04  0.15588808344E+04  0.10100000352E+00 0. -1.
</event>
<event>
 5   0  0.5874741E-07  0.2970684E+04  0.7818609E-02  0.8252152E-01
       -1   -1    0    0    0  501  0.00000000000E+00  0.00000000000E+00  0.16796057280E+04  0.16796057280E+04  0.50400001928E-02 0. -1.
        1   -1    0    0  501    0  0.00000000000E+00  0.00000000000E+00 -0.13135466451E+04  0.13135466451E+04  0.50400001928E-02 0.  1.
    10030    2    1    2    0    0  0.00000000000E+00  0.00000000000E+00  0.36605908287E+03  0.29931523731E+04  0.29706837389E+04 0.  0.
        4    1    3    3  502    0  0.57626083747E+03  0.13583554294E+04  0.11350571121E+02  0.14755800465E+04  0.12699999809E+01 0.  1.
       -4    1    3    3    0  502 -0.57626083747E+03 -0.13583554294E+04  0.35470851175E+03  0.15175723266E+04  0.12699999809E+01 0. -1.
</event>
<event>
 5   0  0.1635086E-06  0.2962824E+04  0.7818609E-02  0.8254427E-01
       -2   -1    0    0    0  501  0.00000000000E+00  0.00000000000E+00  0.14336399296E+04  0.14336399296E+04  0.25500000920E-02 0. -1.
        2   -1    0    0  501    0  0.00000000000E+00  0.00000000000E+00 -0.15307764388E+04  0.15307764388E+04  0.25500000920E-02 0.  1.
    10030    2    1    2    0    0  0.00000000000E+00  0.00000000000E+00 -0.97136509143E+02  0.29644163684E+04  0.29628244808E+04 0.  0.
        3    1    3    3  502    0 -0.49410854272E+03 -0.81854040875E+03  0.10836008364E+04  0.14451098351E+04  0.10100000352E+00 0. -1.
       -3    1    3    3    0  502  0.49410854272E+03  0.81854040875E+03 -0.11807373455E+04  0.15193065333E+04  0.10100000352E+00 0.  1.
</event>
<event>
 5   0  0.5931588E-07  0.2995113E+04  0.7818609E-02  0.8245128E-01
        1   -1    0    0  501    0  0.00000000000E+00  0.00000000000E+00  0.22033156196E+04  0.22033156196E+04  0.50400001928E-02 0.  1.
       -1   -1    0    0    0  501  0.00000000000E+00  0.00000000000E+00 -0.10178640266E+04  0.10178640266E+04  0.50400001928E-02 0. -1.
    10030    2    1    2    0    0  0.00000000000E+00  0.00000000000E+00  0.11854515931E+04  0.32211796462E+04  0.29951131587E+04 0.  0.
        2    1    3    3  502    0  0.55911408321E+03  0.11818616295E+04 -0.19264615067E+03  0.13215589312E+04  0.25500000920E-02 0. -1.
       -2    1    3    3    0  502 -0.55911408321E+03 -0.11818616295E+04  0.13780977437E+04  0.18996207150E+04  0.25500000920E-02 0.  1.
</event>
<event>
 5   0  0.1560174E-06  0.2985961E+04  0.7818609E-02  0.8247751E-01
       -2   -1    0    0    0  501  0.00000000000E+00  0.00000000000E+00  0.12338345183E+04  0.12338345183E+04  0.25500000920E-02 0. -1.
        2   -1    0    0  501    0  0.00000000000E+00  0.00000000000E+00 -0.18065555931E+04  0.18065555931E+04  0.25500000920E-02 0.  1.
    10030    2    1    2    0    0  0.00000000000E+00  0.00000000000E+00 -0.57272107477E+03  0.30403901114E+04  0.29859609174E+04 0.  0.
        5    1    3    3  502    0 -0.10701898449E+04 -0.13230509045E+03 -0.13377313099E+04  0.17182427327E+04  0.46999998093E+01 0.  1.
       -5    1    3    3    0  502  0.10701898449E+04  0.13230509045E+03  0.76501023514E+03  0.13221473787E+04  0.46999998093E+01 0. -1.
</event>
<event>
 5   0  0.1635086E-06  0.3003566E+04  0.7818609E-02  0.8242713E-01
        2   -1    0    0  501    0  0.00000000000E+00  0.00000000000E+00  0.24659288047E+04  0.24659288047E+04  0.25500000920E-02 0. -1.
       -2   -1    0    0    0  501  0.00000000000E+00  0.00000000000E+00 -0.91460551288E+03  0.91460551289E+03  0.25500000920E-02 0.  1.
    10030    2    1    2    0    0  0.00000000000E+00  0.00000000000E+00  0.15513232919E+04  0.33805343176E+04  0.30035659335E+04 0.  0.
        3    1    3    3  502    0 -0.12877420205E+04 -0.46809718386E+03  0.14676036760E+04  0.20077985568E+04  0.10100000352E+00 0. -1.
       -3    1    3    3    0  502  0.12877420205E+04  0.46809718386E+03  0.83719615898E+02  0.13727357608E+04  0.10100000352E+00 0.  1.
</event>
<event>
 5   0  0.5931588E-07  0.3000564E+04  0.7818609E-02  0.8243570E-01
        1   -1    0    0  501    0  0.00000000000E+00  0.00000000000E+00  0.18495929800E+04  0.18495929800E+04  0.50400001928E-02 0. -1.
       -1   -1    0    0    0  501  0.00000000000E+00  0.00000000000E+00 -0.12169414609E+04  0.12169414609E+04  0.50400001928E-02 0.  1.
    10030    2    1    2    0    0  0.00000000000E+00  0.00000000000E+00  0.63265151906E+03  0.30665344410E+04  0.30005642024E+04 0.  0.
        2    1    3    3  502    0 -0.43137856237E+03 -0.13877032888E+04 -0.64750998677E+02  0.14546479209E+04  0.25500000920E-02 0.  1.
       -2    1    3    3    0  502  0.43137856237E+03  0.13877032888E+04  0.69740251774E+03  0.16118865201E+04  0.25500000920E-02 0. -1.
</event>
<event>
 5   0  0.5931588E-07  0.2996527E+04  0.7818609E-02  0.8244723E-01
        1   -1    0    0  501    0  0.00000000000E+00  0.00000000000E+00  0.13821780058E+04  0.13821780058E+04  0.50400001928E-02 0. -1.
       -1   -1    0    0    0  501  0.00000000000E+00  0.00000000000E+00 -0.16240990183E+04  0.16240990183E+04  0.50400001928E-02 0.  1.
    10030    2    1    2    0    0  0.00000000000E+00  0.00000000000E+00 -0.24192101249E+03  0.30062770241E+04  0.29965272850E+04 0.  0.
        2    1    3    3  502    0 -0.12028960141E+04 -0.72224763436E+03  0.40629056333E+03  0.14607095837E+04  0.25500000920E-02 0. -1.
       -2    1    3    3    0  502  0.12028960141E+04  0.72224763436E+03 -0.64821157582E+03  0.15455674405E+04  0.25500000920E-02 0.  1.
</event>
<event>
 5   0  0.5916703E-07  0.3002977E+04  0.7818609E-02  0.8242881E-01
        1   -1    0    0  501    0  0.00000000000E+00  0.00000000000E+00  0.17072176613E+04  0.17072176613E+04  0.50400001928E-02 0.  1.
       -1   -1    0    0    0  501  0.00000000000E+00  0.00000000000E+00 -0.13205509305E+04  0.13205509305E+04  0.50400001928E-02 0. -1.
    10030    2    1    2    0    0  0.00000000000E+00  0.00000000000E+00  0.38666673088E+03  0.30277685918E+04  0.30029771036E+04 0.  0.
        5    1    3    3  502    0  0.10642249617E+04  0.38791067215E+03 -0.80039774458E+03  0.13869780453E+04  0.46999998093E+01 0. -1.
       -5    1    3    3    0  502 -0.10642249617E+04 -0.38791067215E+03  0.11870644755E+04  0.16407905465E+04  0.46999998093E+01 0.  1.
</event>
<event>
 5   0  0.1674806E-06  0.3002045E+04  0.7818609E-02  0.8243147E-01
        2   -1    0    0  501    0  0.00000000000E+00  0.00000000000E+00  0.16453570846E+04  0.16453570846E+04  0.25500000920E-02 0. -1.
       -2   -1    0    0    0  501  0.00000000000E+00  0.00000000000E+00 -0.13693495026E+04  0.13693495026E+04  0.25500000920E-02 0.  1.
    10030    2    1    2    0    0  0.00000000000E+00  0.00000000000E+00  0.27600758197E+03  0.30147065871E+04  0.30020452397E+04 0.  0.
        2    1    3    3  502    0  0.44124833961E+03  0.93689102509E+03 -0.95313487338E+03  0.14074554973E+04  0.25500000920E-02 0.  1.
       -2    1    3    3    0  502 -0.44124833961E+03 -0.93689102509E+03  0.12291424554E+04  0.16072510898E+04  0.25500000920E-02 0. -1.
</event>
<event>
 5   0  0.1674806E-06  0.2941205E+04  0.7818609E-02  0.8260722E-01
        2   -1    0    0  501    0  0.00000000000E+00  0.00000000000E+00  0.14612082673E+04  0.14612082673E+04  0.25500000920E-02 0. -1.
       -2   -1    0    0    0  501  0.00000000000E+00  0.00000000000E+00 -0.14800569110E+04  0.14800569110E+04  0.25500000920E-02 0.  1.
    10030    2    1    2    0    0  0.00000000000E+00  0.00000000000E+00 -0.18848643671E+02  0.29412651784E+04  0.29412047834E+04 0.  0.
        2    1    3    3  502    0 -0.10083321032E+04 -0.69431092454E+03  0.80537465238E+03  0.14654110758E+04  0.25500000920E-02 0. -1.
       -2    1    3    3    0  502  0.10083321032E+04  0.69431092454E+03 -0.82422329605E+03  0.14758541026E+04  0.25500000920E-02 0.  1.
</event>
<event>
 5   0  0.5887179E-07  0.2998611E+04  0.7818609E-02  0.8244128E-01
       -1   -1    0    0    0  501  0.00000000000E+00  0.00000000000E+00  0.91567629796E+03  0.91567629797E+03  0.50400001928E-02 0.  1.
        1   -1    0    0  501    0  0.00000000000E+00  0.00000000000E+00 -0.24549251253E+04  0.24549251253E+04  0.50400001928E-02 0. -1.
    10030    2    1    2    0    0  0.00000000000E+00  0.00000000000E+00 -0.15392488273E+04  0.33706014232E+04  0.29986108454E+04 0.  0.
        3    1    3    3  502    0 -0.18486935543E+03  0.14825691510E+04 -0.62865180652E+03  0.16209229069E+04  0.10100000352E+00 0.  1.
       -3    1    3    3    0  502  0.18486935543E+03 -0.14825691510E+04 -0.91059702078E+03  0.17496785163E+04  0.10100000352E+00 0. -1.
</event>
<event>
 5   0  0.1625212E-06  0.3035759E+04  0.7818609E-02  0.8233593E-01
       -2   -1    0    0    0  501  0.00000000000E+00  0.00000000000E+00  0.19441409321E+04  0.19441409321E+04  0.25500000920E-02 0.  1.
        2   -1    0    0  501    0  0.00000000000E+00  0.00000000000E+00 -0.11850773801E+04  0.11850773801E+04  0.25500000920E-02 0. -1.
    10030    2    1    2    0    0  0.00000000000E+00  0.00000000000E+00  0.75906355195E+03  0.31292183122E+04  0.30357585164E+04 0.  0.
        4    1    3    3  502    0 -0.16020329782E+03  0.72669940664E+03  0.17432113020E+04  0.18954008496E+04  0.12699999809E+01 0.  1.
       -4    1    3    3    0  502  0.16020329782E+03 -0.72669940664E+03 -0.98414775007E+03  0.12338174626E+04  0.12699999809E+01 0. -1.
</event>
<event>
 5   0  0.6291798E-07  0.3025278E+04  0.7818609E-02  0.8236549E-01
        1   -1    0    0  501    0  0.00000000000E+00  0.00000000000E+00  0.14248444352E+04  0.14248444353E+04  0.50400001928E-02 0.  1.
       -1   -1    0    0    0  501  0.00000000000E+00  0.00000000000E+00 -0.16058437217E+04  0.16058437217E+04  0.50400001928E-02 0. -1.
    10030    2    1    2    0    0  0.00000000000E+00  0.00000000000E+00 -0.18099928644E+03  0.30306881570E+04  0.30252784935E+04 0.  0.
        1    1    3    3  502    0 -0.54278934712E+03 -0.13215430409E+04  0.40736105710E+03  0.14856107549E+04  0.50400001928E-02 0.  1.
       -1    1    3    3    0  502  0.54278934712E+03  0.13215430409E+04 -0.58836034354E+03  0.15450774020E+04  0.50400001928E-02 0. -1.
</event>
<event>
 5   0  0.1674806E-06  0.2998634E+04  0.7818609E-02  0.8244121E-01
        2   -1    0    0  501    0  0.00000000000E+00  0.00000000000E+00  0.24492604373E+04  0.24492604373E+04  0.25500000920E-02 0. -1.
       -2   -1    0    0    0  501  0.00000000000E+00  0.00000000000E+00 -0.91780809792E+03  0.91780809792E+03  0.25500000920E-02 0.  1.
    10030    2    1    2    0    0  0.00000000000E+00  0.00000000000E+00  0.15314523393E+04  0.33670685352E+04  0.29986337310E+04 0.  0.
        2    1    3    3  502    0 -0.84417158072E+03  0.32364520438E+02  0.21565770035E+04  0.23161384872E+04  0.25500000920E-02 0.  1.
       -2    1    3    3    0  502  0.84417158072E+03 -0.32364520438E+02 -0.62512466419E+03  0.10509300479E+04  0.25500000920E-02 0. -1.
</event>
<event>
 5   0  0.5887179E-07  0.2997033E+04  0.7818609E-02  0.8244579E-01
        1   -1    0    0  501    0  0.00000000000E+00  0.00000000000E+00  0.14901400396E+04  0.14901400396E+04  0.50400001928E-02 0.  1.
       -1   -1    0    0    0  501  0.00000000000E+00  0.00000000000E+00 -0.15069399899E+04  0.15069399899E+04  0.50400001928E-02 0. -1.
    10030    2    1    2    0    0  0.00000000000E+00  0.00000000000E+00 -0.16799950293E+02  0.29970800294E+04  0.29970329435E+04 0.  0.
        3    1    3    3  502    0 -0.51861959935E+03 -0.10164364883E+04 -0.97972475455E+03  0.15039847168E+04  0.10100000352E+00 0. -1.
       -3    1    3    3    0  502  0.51861959935E+03  0.10164364883E+04  0.96292480426E+03  0.14930953126E+04  0.10100000352E+00 0.  1.
</event>
<event>
 5   0  0.1723916E-06  0.2996689E+04  0.7818609E-02  0.8244677E-01
        2   -1    0    0  501    0  0.00000000000E+00  0.00000000000E+00  0.17972392639E+04  0.17972392639E+04  0.25500000920E-02 0. -1.
       -2   -1    0    0    0  501  0.00000000000E+00  0.00000000000E+00 -0.12491586287E+04  0.12491586287E+04  0.25500000920E-02 0.  1.
    10030    2    1    2    0    0  0.00000000000E+00  0.00000000000E+00  0.54808063523E+03  0.30463978927E+04  0.29966894630E+04 0.  0.
        1    1    3    3  502    0  0.56327803272E+03  0.88282032771E+02 -0.11345707536E+04  0.12697742533E+04  0.50400001928E-02 0.  1.
       -1    1    3    3    0  502 -0.56327803272E+03 -0.88282032771E+02  0.16826513888E+04  0.17766236393E+04  0.50400001928E-02 0. -1.
</event>
<event>
 5   0  0.1560174E-06  0.3001906E+04  0.7818609E-02  0.8243187E-01
        2   -1    0    0  501    0  0.00000000000E+00  0.00000000000E+00  0.17449214571E+04  0.17449214571E+04  0.25500000920E-02 0.  1.
       -2   -1    0    0    0  501  0.00000000000E+00  0.00000000000E+00 -0.12910955346E+04  0.12910955346E+04  0.25500000920E-02 0. -1.
    10030    2    1    2    0    0  0.00000000000E+00  0.00000000000E+00  0.45382592249E+03  0.30360169918E+04  0.30019062621E+04 0.  0.
        5    1    3    3  502    0  0.12000758843E+04 -0.12201269673E+03 -0.67641539903E+03  0.13829783470E+04  0.46999998093E+01 0. -1.
       -5    1    3    3    0  502 -0.12000758843E+04  0.12201269673E+03  0.11302413215E+04  0.16530386448E+04  0.46999998093E+01 0.  1.
</event>
<event>
 5   0  0.6291798E-07  0.2999152E+04  0.7818609E-02  0.8243973E-01
       -1   -1    0    0    0  501  0.00000000000E+00  0.00000000000E+00  0.94333025509E+03  0.94333025511E+03  0.50400001928E-02 0. -1.
        1   -1    0    0  501    0  0.00000000000E+00  0.00000000000E+00 -0.23838184454E+04  0.23838184454E+04  0.50400001928E-02 0.  1.
    10030    2    1    2    0    0  0.00000000000E+00  0.00000000000E+00 -0.14404881903E+04  0.33271487005E+04  0.29991519216E+04 0.  0.
        1    1    3    3  502    0 -0.59250847785E+03  0.37887903222E+03  0.74902877900E+03  0.10274530302E+04  0.50400001928E-02 0. -1.
       -1    1    3    3    0  502  0.59250847785E+03 -0.37887903222E+03 -0.21895169693E+04  0.22996956704E+04  0.50400001928E-02 0.  1.
</event>
<event>
 5   0  0.5874741E-07  0.2990053E+04  0.7818609E-02  0.8246577E-01
       -1   -1    0    0    0  501  0.00000000000E+00  0.00000000000E+00  0.99518200409E+03  0.99518200411E+03  0.50400001928E-02 0.  1.
        1   -1    0    0  501    0  0.00000000000E+00  0.00000000000E+00 -0.22459257437E+04  0.22459257437E+04  0.50400001928E-02 0. -1.
    10030    2    1    2    0    0  0.00000000000E+00  0.00000000000E+00 -0.12507437396E+04  0.32411077478E+04  0.29900534328E+04 0.  0.
        4    1    3    3  502    0 -0.15542108278E+03 -0.86737748840E+03 -0.19345031423E+04  0.21257477369E+04  0.12699999809E+01 0. -1.
       -4    1    3    3    0  502  0.15542108278E+03  0.86737748840E+03  0.68375940268E+03  0.11153600109E+04  0.12699999809E+01 0.  1.
</event>
<event>
 5   0  0.5874741E-07  0.3030870E+04  0.7818609E-02  0.8234970E-01
        1   -1    0    0  501    0  0.00000000000E+00  0.00000000000E+00  0.15754330407E+04  0.15754330407E+04  0.50400001928E-02 0. -1.
       -1   -1    0    0    0  501  0.00000000000E+00  0.00000000000E+00 -0.14577223556E+04  0.14577223556E+04  0.50400001928E-02 0.  1.
    10030    2    1    2    0    0  0.00000000000E+00  0.00000000000E+00  0.11771068507E+03  0.30331553963E+04  0.30308704777E+04 0.  0.
        4    1    3    3  502    0  0.63489903097E+03 -0.75451602370E+03 -0.10927298261E+04  0.14718869845E+04  0.12699999809E+01 0.  1.
       -4    1    3    3    0  502 -0.63489903097E+03  0.75451602370E+03  0.12104405112E+04  0.15612684117E+04  0.12699999809E+01 0. -1.
</event>
<event>
 5   0  0.1674806E-06  0.2997519E+04  0.7818609E-02  0.8244440E-01
       -2   -1    0    0    0  501  0.00000000000E+00  0.00000000000E+00  0.10956695092E+04  0.10956695092E+04  0.25500000920E-02 0.  1.
        2   -1    0    0  501    0  0.00000000000E+00  0.00000000000E+00 -0.20501433909E+04  0.20501433909E+04  0.25500000920E-02 0. -1.
    10030    2    1    2    0    0  0.00000000000E+00  0.00000000000E+00 -0.95447388171E+03  0.31458129001E+04  0.29975187091E+04 0.  0.
        2    1    3    3  502    0 -0.12054277849E+04  0.69756688043E+03 -0.10583678726E+04  0.17492279014E+04  0.25500000920E-02 0. -1.
       -2    1    3    3    0  502  0.12054277849E+04 -0.69756688043E+03  0.10389399085E+03  0.13965849987E+04  0.25500000920E-02 0.  1.
</event>
<event>
 5   0  0.1674806E-06  0.2987450E+04  0.7818609E-02  0.8247324E-01
       -2   -1    0    0    0  501  0.00000000000E+00  0.00000000000E+00  0.15340292323E+04  0.15340292323E+04  0.25500000920E-02 0.  1.
        2   -1    0    0  501    0  0.00000000000E+00  0.00000000000E+00 -0.14544793322E+04  0.14544793322E+04  0.25500000920E-02 0. -1.
    10030    2    1    2    0    0  0.00000000000E+00  0.00000000000E+00  0.79549900074E+02  0.29885085645E+04  0.29874496236E+04 0.  0.
        2    1    3    3  502    0  0.93431199138E+03  0.11169596792E+04  0.37257288621E+03  0.15031128959E+04  0.25500000920E-02 0. -1.
       -2    1    3    3    0  502 -0.93431199138E+03 -0.11169596792E+04 -0.29302298613E+03  0.14853956687E+04  0.25500000920E-02 0.  1.
</event>
<event>
 5   0  0.1625212E-06  0.2998399E+04  0.7818609E-02  0.8244188E-01
        2   -1    0    0  501    0  0.00000000000E+00  0.00000000000E+00  0.13572714684E+04  0.13572714684E+04  0.25500000920E-02 0.  1.
       -2   -1    0    0    0  501  0.00000000000E+00  0.00000000000E+00 -0.16559683834E+04  0.16559683834E+04  0.25500000920E-02 0. -1.
    10030    2    1    2    0    0  0.00000000000E+00  0.00000000000E+00 -0.29869691500E+03  0.30132398518E+04  0.29983986655E+04 0.  0.
        4    1    3    3  502    0 -0.10856440035E+04 -0.99369116272E+03 -0.43633506312E+03  0.15350683794E+04  0.12699999809E+01 0.  1.
       -4    1    3    3    0  502  0.10856440035E+04  0.99369116272E+03  0.13763814812E+03  0.14781714724E+04  0.12699999809E+01 0. -1.
</event>
<event>
 5   0  0.1560174E-06  0.3119651E+04  0.7818609E-02  0.8210366E-01
       -2   -1    0    0    0  501  0.00000000000E+00  0.00000000000E+00  0.26226764753E+04  0.26226764753E+04  0.25500000920E-02 0.  1.
        2   -1    0    0  501    0  0.00000000000E+00  0.00000000000E+00 -0.92769931897E+03  0.92769931897E+03  0.25500000920E-02 0. -1.
    10030    2    1    2    0    0  0.00000000000E+00  0.00000000000E+00  0.16949771563E+04  0.35503757943E+04  0.31196507369E+04 0.  0.
        5    1    3    3  502    0 -0.41461111651E+03 -0.11255524981E+04 -0.28731012847E+03  0.12334261242E+04  0.46999998093E+01 0. -1.
       -5    1    3    3    0  502  0.41461111651E+03  0.11255524981E+04  0.19822872848E+04  0.23169496700E+04  0.46999998093E+01 0.  1.
</event>
<event>
 5   0  0.1674806E-06  0.2941804E+04  0.7818609E-02  0.8260547E-01
       -2   -1    0    0    0  501  0.00000000000E+00  0.00000000000E+00  0.96868433143E+03  0.96868433143E+03  0.25500000920E-02 0. -1.
        2   -1    0    0  501    0  0.00000000000E+00  0.00000000000E+00 -0.22334968352E+04  0.22334968352E+04  0.25500000920E-02 0.  1.
    10030    2    1    2    0    0  0.00000000000E+00  0.00000000000E+00 -0.12648125037E+04  0.32021811666E+04  0.29418044724E+04 0.  0.
        2    1    3    3  502    0  0.68028635514E+03 -0.34164189058E+03 -0.20023912420E+04  0.21422136664E+04  0.25500000920E-02 0.  1.
       -2    1    3    3    0  502 -0.68028635514E+03  0.34164189058E+03  0.73757873826E+03  0.10599675002E+04  0.25500000920E-02 0. -1.
</event>
<event>
 5   0  0.1723916E-06  0.3001152E+04  0.7818609E-02  0.8243402E-01
        2   -1    0    0  501    0  0.00000000000E+00  0.00000000000E+00  0.14189703219E+04  0.14189703219E+04  0.25500000920E-02 0.  1.
       -2   -1    0    0    0  501  0.00000000000E+00  0.00000000000E+00 -0.15868743560E+04  0.15868743560E+04  0.25500000920E-02 0. -1.
    10030    2    1    2    0    0  0.00000000000E+00  0.00000000000E+00 -0.16790403405E+03  0.30058446779E+04  0.30011515228E+04 0.  0.
        1    1    3    3  502    0 -0.13034169250E+03  0.14910301339E+04  0.23769875231E+02  0.14969050818E+04  0.50400001928E-02 0.  1.
       -1    1    3    3    0  502  0.13034169250E+03 -0.14910301339E+04 -0.19167390928E+03  0.15089395961E+04  0.50400001928E-02 0. -1.
</event>
<event>
 5   0  0.1625212E-06  0.3008013E+04  0.7818609E-02  0.8241446E-01
       -2   -1    0    0    0  501  0.00000000000E+00  0.00000000000E+00  0.10143585091E+04  0.10143585091E+04  0.25500000920E-02 0.  1.
        2   -1    0    0  501    0  0.00000000000E+00  0.00000000000E+00 -0.22300158097E+04  0.22300158097E+04  0.25500000920E-02 0. -1.
    10030    2    1    2    0    0  0.00000000000E+00  0.00000000000E+00 -0.12156573006E+04  0.32443743188E+04  0.30080129734E+04 0.  0.
        4    1    3    3  502    0 -0.12558654884E+04 -0.50367721052E+03  0.10038280626E+03  0.13568224564E+04  0.12699999809E+01 0.  1.
       -4    1    3    3    0  502  0.12558654884E+04  0.50367721052E+03 -0.13160401069E+04  0.18875518624E+04  0.12699999809E+01 0. -1.
</event>
<event>
 5   0  0.1625212E-06  0.2991702E+04  0.7818609E-02  0.8246104E-01
        2   -1    0    0  501    0  0.00000000000E+00  0.00000000000E+00  0.10080688940E+04  0.10080688940E+04  0.25500000920E-02 0.  1.
       -2   -1    0    0    0  501  0.00000000000E+00  0.00000000000E+00 -0.22196606175E+04  0.22196606175E+04  0.25500000920E-02 0. -1.
    10030    2    1    2    0    0  0.00000000000E+00  0.00000000000E+00 -0.12115917235E+04  0.32277295114E+04  0.29917024074E+04 0.  0.
        4    1    3    3  502    0 -0.11484316565E+04  0.13068866370E+03  0.41863899802E+03  0.12293229925E+04  0.12699999809E+01 0.  1.
       -4    1    3    3    0  502  0.11484316565E+04 -0.13068866370E+03 -0.16302307215E+04  0.19984065189E+04  0.12699999809E+01 0. -1.
</event>
<event>
 5   0  0.1560174E-06  0.2995537E+04  0.7818609E-02  0.8245007E-01
        2   -1    0    0  501    0  0.00000000000E+00  0.00000000000E+00  0.18685806696E+04  0.18685806696E+04  0.25500000920E-02 0.  1.
       -2   -1    0    0    0  501  0.00000000000E+00  0.00000000000E+00 -0.12005423797E+04  0.12005423797E+04  0.25500000920E-02 0. -1.
    10030    2    1    2    0    0  0.00000000000E+00  0.00000000000E+00  0.66803828993E+03  0.30691230493E+04  0.29955368692E+04 0.  0.
        5    1    3    3  502    0 -0.70168508770E+03  0.97888845775E+03 -0.57819132354E+03  0.13360059400E+04  0.46999998093E+01 0. -1.
       -5    1    3    3    0  502  0.70168508770E+03 -0.97888845775E+03  0.12462296135E+04  0.17331171093E+04  0.46999998093E+01 0.  1.
</event>
<event>
 5   0  0.5874741E-07  0.3073280E+04  0.7818609E-02  0.8223109E-01
       -1   -1    0    0    0  501  0.00000000000E+00  0.00000000000E+00  0.13758542287E+04  0.13758542287E+04  0.50400001928E-02 0. -1.
        1   -1    0    0  501    0  0.00000000000E+00  0.00000000000E+00 -0.17162154975E+04  0.17162154975E+04  0.50400001928E-02 0.  1.
    10030    2    1    2    0    0  0.00000000000E+00  0.00000000000E+00 -0.34036126878E+03  0.30920697262E+04  0.30732799089E+04 0.  0.
        4    1    3    3  502    0 -0.10737465633E+04  0.10850318884E+04  0.70635632645E+01  0.15265246110E+04  0.12699999809E+01 0. -1.
       -4    1    3    3    0  502  0.10737465633E+04 -0.10850318884E+04 -0.34742483205E+03  0.15655451152E+04  0.12699999809E+01 0.  1.
</event>
<event>
 5   0  0.1560174E-06  0.3002191E+04  0.7818609E-02  0.8243106E-01
       -2   -1    0    0    0  501  0.00000000000E+00  0.00000000000E+00  0.17917799308E+04  0.17917799308E+04  0.25500000920E-02 0. -1.
        2   -1    0    0  501    0  0.00000000000E+00  0.00000000000E+00 -0.12575694440E+04  0.12575694440E+04  0.25500000920E-02 0.  1.
    10030    2    1    2    0    0  0.00000000000E+00  0.00000000000E+00  0.53421048680E+03  0.30493493749E+04  0.30021909942E+04 0.  0.
        5    1    3    3  502    0 -0.52333827376E+03  0.12205716031E+04 -0.44359109714E+03  0.14001689679E+04  0.46999998093E+01 0.  1.
       -5    1    3    3    0  502  0.52333827376E+03 -0.12205716031E+04  0.97780158395E+03  0.16491804070E+04  0.46999998093E+01 0. -1.
</event>
<event>
 5   0  0.1635086E-06  0.2993637E+04  0.7818609E-02  0.8245550E-01
       -2   -1    0    0    0  501  0.00000000000E+00  0.00000000000E+00  0.11880698514E+04  0.11880698514E+04  0.25500000920E-02 0. -1.
        2   -1    0    0  501    0  0.00000000000E+00  0.00000000000E+00 -0.18858033403E+04  0.18858033403E+04  0.25500000920E-02 0.  1.
    10030    2    1    2    0    0  0.00000000000E+00  0.00000000000E+00 -0.69773348895E+03  0.30738731917E+04  0.29936373156E+04 0.  0.
        3    1    3    3  502    0 -0.76118181905E+03 -0.10818302527E+04 -0.10681499792E+04  0.17002055304E+04  0.10100000352E+00 0.  1.
       -3    1    3    3    0  502  0.76118181905E+03  0.10818302527E+04  0.37041649025E+03  0.13736676613E+04  0.10100000352E+00 0. -1.
</event>
<event>
 5   0  0.1560174E-06  0.2990942E+04  0.7818609E-02  0.8246322E-01
        2   -1    0    0  501    0  0.00000000000E+00  0.00000000000E+00  0.21034771298E+04  0.21034771298E+04  0.25500000920E-02 0. -1.
       -2   -1    0    0    0  501  0.00000000000E+00  0.00000000000E+00 -0.10632077466E+04  0.10632077466E+04  0.25500000920E-02 0.  1.
    10030    2    1    2    0    0  0.00000000000E+00  0.00000000000E+00  0.10402693832E+04  0.31666848764E+04  0.29909417775E+04 0.  0.
        5    1    3    3  502    0 -0.70306968734E+02 -0.85978944342E+03 -0.77321150895E+03  0.11584727379E+04  0.46999998093E+01 0.  1.
       -5    1    3    3    0  502  0.70306968734E+02  0.85978944342E+03  0.18134808922E+04  0.20082121385E+04  0.46999998093E+01 0. -1.
</event>
<event>
 5   0  0.6291798E-07  0.2963820E+04  0.7818609E-02  0.8254139E-01
       -1   -1    0    0    0  501  0.00000000000E+00  0.00000000000E+00  0.99598650118E+03  0.99598650119E+03  0.50400001928E-02 0. -1.
        1   -1    0    0  501    0  0.00000000000E+00  0.00000000000E+00 -0.22049059185E+04  0.22049059185E+04  0.50400001928E-02 0.  1.
    10030    2    1    2    0    0  0.00000000000E+00  0.00000000000E+00 -0.12089194173E+04  0.32008924197E+04  0.29638195162E+04 0.  0.
        1    1    3    3  502    0 -0.13113526055E+04 -0.68583636266E+03 -0.52053018885E+03  0.15687475418E+04  0.50400001928E-02 0. -1.
       -1    1    3    3    0  502  0.13113526055E+04  0.68583636266E+03 -0.68838922842E+03  0.16321448778E+04  0.50400001928E-02 0.  1.
</event>
<event>
 5   0  0.5916703E-07  0.2996074E+04  0.7818609E-02  0.8244853E-01
        1   -1    0    0  501    0  0.00000000000E+00  0.00000000000E+00  0.93377236002E+03  0.93377236003E+03  0.50400001928E-02 0.  1.
       -1   -1    0    0    0  501  0.00000000000E+00  0.00000000000E+00 -0.24032775405E+04  0.24032775405E+04  0.50400001928E-02 0. -1.
    10030    2    1    2    0    0  0.00000000000E+00  0.00000000000E+00 -0.14695051804E+04  0.33370499005E+04  0.29960735243E+04 0.  0.
        5    1    3    3  502    0  0.63082222299E+03  0.10960262883E+04 -0.16291906629E+04  0.20624002055E+04  0.46999998093E+01 0. -1.
       -5    1    3    3    0  502 -0.63082222299E+03 -0.10960262883E+04  0.15968548246E+03  0.12746496950E+04  0.46999998093E+01 0.  1.
</event>
<event>
 5   0  0.5916703E-07  0.2998819E+04  0.7818609E-02  0.8244068E-01
        1   -1    0    0  501    0  0.00000000000E+00  0.00000000000E+00  0.20476436106E+04  0.20476436106E+04  0.50400001928E-02 0. -1.
       -1   -1    0    0    0  501  0.00000000000E+00  0.00000000000E+00 -0.10979586924E+04  0.10979586924E+04  0.50400001928E-02 0.  1.
    10030    2    1    2    0    0  0.00000000000E+00  0.00000000000E+00  0.94968491820E+03  0.31456023031E+04  0.29988185016E+04 0.  0.
        5    1    3    3  502    0  0.46090988274E+03  0.11027039153E+04  0.14245957611E+04  0.18595400015E+04  0.46999998093E+01 0. -1.
       -5    1    3    3    0  502 -0.46090988274E+03 -0.11027039153E+04 -0.47491084292E+03  0.12860623015E+04  0.46999998093E+01 0.  1.
</event>
<event>
 5   0  0.1723916E-06  0.3000342E+04  0.7818609E-02  0.8243633E-01
       -2   -1    0    0    0  501  0.00000000000E+00  0.00000000000E+00  0.76078731614E+03  0.76078731614E+03  0.25500000920E-02 0.  1.
        2   -1    0    0  501    0  0.00000000000E+00  0.00000000000E+00 -0.29581371430E+04  0.29581371430E+04  0.25500000920E-02 0. -1.
    10030    2    1    2    0    0  0.00000000000E+00  0.00000000000E+00 -0.21973498269E+04  0.37189244592E+04  0.30003421257E+04 0.  0.
        1    1    3    3  502    0  0.73750096056E+03 -0.77622739164E+03  0.20373045418E+03  0.10899278547E+04  0.50400001928E-02 0.  1.
       -1    1    3    3    0  502 -0.73750096056E+03  0.77622739164E+03 -0.24010802811E+04  0.26289966045E+04  0.50400001928E-02 0. -1.
</event>
<event>
 5   0  0.1723916E-06  0.3003673E+04  0.7818609E-02  0.8242683E-01
        2   -1    0    0  501    0  0.00000000000E+00  0.00000000000E+00  0.15500464539E+04  0.15500464539E+04  0.25500000920E-02 0. -1.
       -2   -1    0    0    0  501  0.00000000000E+00  0.00000000000E+00 -0.14551262824E+04  0.14551262824E+04  0.25500000920E-02 0.  1.
    10030    2    1    2    0    0  0.00000000000E+00  0.00000000000E+00  0.94920171478E+02  0.30051727363E+04  0.30036733071E+04 0.  0.
        1    1    3    3  502    0 -0.78456217464E+03 -0.11898964503E+04  0.52111162882E+03  0.15175469344E+04  0.50400001928E-02 0. -1.
       -1    1    3    3    0  502  0.78456217464E+03  0.11898964503E+04 -0.42619145734E+03  0.14876258019E+04  0.50400001928E-02 0.  1.
</event>
<event>
 5   0  0.5874741E-07  0.2999130E+04  0.7818609E-02  0.8243979E-01
       -1   -1    0    0    0  501  0.00000000000E+00  0.00000000000E+00  0.92649786805E+03  0.92649786807E+03  0.50400001928E-02 0.  1.
        1   -1    0    0  501    0  0.00000000000E+00  0.00000000000E+00 -0.24270921140E+04  0.24270921140E+04  0.50400001928E-02 0. -1.
    10030    2    1    2    0    0  0.00000000000E+00  0.00000000000E+00 -0.15005942459E+04  0.33535899820E+04  0.29991303201E+04 0.  0.
        4    1    3    3  502    0  0.54505404278E+03 -0.68446704697E+03 -0.21120617258E+04  0.22861289103E+04  0.12699999809E+01 0. -1.
       -4    1    3    3    0  502 -0.54505404278E+03  0.68446704697E+03  0.61146747986E+03  0.10674610718E+04  0.12699999809E+01 0.  1.
</event>
<event>
 5   0  0.1674806E-06  0.2995001E+04  0.7818609E-02  0.8245160E-01
        2   -1    0    0  501    0  0.00000000000E+00  0.00000000000E+00  0.20111074286E+04  0.20111074286E+04  0.25500000920E-02 0. -1.
       -2   -1    0    0    0  501  0.00000000000E+00  0.00000000000E+00 -0.11150614209E+04  0.11150614209E+04  0.25500000920E-02 0.  1.
    10030    2    1    2    0    0  0.00000000000E+00  0.00000000000E+00  0.89604600769E+03  0.31261688495E+04  0.29950013735E+04 0.  0.
        2    1    3    3  502    0  0.30177123878E+02 -0.22135909655E+03 -0.10975691067E+04  0.11200751994E+04  0.25500000920E-02 0.  1.
       -2    1    3    3    0  502 -0.30177123878E+02  0.22135909655E+03  0.19936151144E+04  0.20060936500E+04  0.25500000920E-02 0. -1.
</event>
<event>
 5   0  0.5431625E-07  0.2996984E+04  0.7818609E-02  0.8244593E-01
       -3   -1    0    0    0  501  0.00000000000E+00  0.00000000000E+00  0.10878805721E+04  0.10878805768E+04  0.10100000352E+00 0.  1.
        3   -1    0    0  501    0  0.00000000000E+00  0.00000000000E+00 -0.20640858697E+04  0.20640858722E+04  0.10100000352E+00 0. -1.
    10030    2    1    2    0    0  0.00000000000E+00  0.00000000000E+00 -0.97620529756E+03  0.31519664490E+04  0.29969844365E+04 0.  0.
        3    1    3    3  502    0  0.24022061658E+03  0.92853845944E+03 -0.16989840085E+04  0.19510090432E+04  0.10100000352E+00 0. -1.
       -3    1    3    3    0  502 -0.24022061658E+03 -0.92853845944E+03  0.72277871097E+03  0.12009574058E+04  0.10100000352E+00 0.  1.
</event>
<event>
 5   0  0.1560174E-06  0.2998174E+04  0.7818609E-02  0.8244252E-01
        2   -1    0    0  501    0  0.00000000000E+00  0.00000000000E+00  0.25125083604E+04  0.25125083604E+04  0.25500000920E-02 0. -1.
       -2   -1    0    0    0  501  0.00000000000E+00  0.00000000000E+00 -0.89442989048E+03  0.89442989048E+03  0.25500000920E-02 0.  1.
    10030    2    1    2    0    0  0.00000000000E+00  0.00000000000E+00  0.16180784700E+04  0.34069382509E+04  0.29981744964E+04 0.  0.
        5    1    3    3  502    0 -0.96842320483E+03 -0.94788312969E+03  0.15374613454E+04  0.20494231895E+04  0.46999998093E+01 0. -1.
       -5    1    3    3    0  502  0.96842320483E+03  0.94788312969E+03  0.80617124596E+02  0.13575150614E+04  0.46999998093E+01 0.  1.
</event>
<event>
 5   0  0.1560174E-06  0.2992975E+04  0.7818609E-02  0.8245740E-01
        2   -1    0    0  501    0  0.00000000000E+00  0.00000000000E+00  0.13814399819E+04  0.13814399819E+04  0.25500000920E-02 0. -1.
       -2   -1    0    0    0  501  0.00000000000E+00  0.00000000000E+00 -0.16211165469E+04  0.16211165469E+04  0.25500000920E-02 0.  1.
    10030    2    1    2    0    0  0.00000000000E+00  0.00000000000E+00 -0.23967656502E+03  0.30025565289E+04  0.29929752510E+04 0.  0.
        5    1    3    3  502    0  0.12663870182E+04 -0.71836791764E+03 -0.46687136216E+03  0.15289798899E+04  0.46999998093E+01 0. -1.
       -5    1    3    3    0  502 -0.12663870182E+04  0.71836791764E+03  0.22719479714E+03  0.14735766389E+04  0.46999998093E+01 0.  1.
</event>
<event>
 5   0  0.6291798E-07  0.2988981E+04  0.7818609E-02  0.8246884E-01
       -1   -1    0    0    0  501  0.00000000000E+00  0.00000000000E+00  0.12378542937E+04  0.12378542937E+04  0.50400001928E-02 0. -1.
        1   -1    0    0  501    0  0.00000000000E+00  0.00000000000E+00 -0.18043331505E+04  0.18043331505E+04  0.50400001928E-02 0.  1.
    10030    2    1    2    0    0  0.00000000000E+00  0.00000000000E+00 -0.56647885679E+03  0.30421874443E+04  0.29889807880E+04 0.  0.
        1    1    3    3  502    0  0.72100936761E+02 -0.13616414811E+04 -0.90587699408E+03  0.16370336577E+04  0.50400001928E-02 0. -1.
       -1    1    3    3    0  502 -0.72100936761E+02  0.13616414811E+04  0.33939813729E+03  0.14051537865E+04  0.50400001928E-02 0.  1.
</event>
<event>
 5   0  0.5874741E-07  0.2988898E+04  0.7818609E-02  0.8246908E-01
       -1   -1    0    0    0  501  0.00000000000E+00  0.00000000000E+00  0.11281800950E+04  0.11281800950E+04  0.50400001928E-02 0.  1.
        1   -1    0    0  501    0  0.00000000000E+00  0.00000000000E+00 -0.19796281915E+04  0.19796281915E+04  0.50400001928E-02 0. -1.
    10030    2    1    2    0    0  0.00000000000E+00  0.00000000000E+00 -0.85144809641E+03  0.31078082865E+04  0.29888975367E+04 0.  0.
        4    1    3    3  502    0 -0.46200306347E+03 -0.10733299952E+04 -0.13943941279E+04  0.18192912648E+04  0.12699999809E+01 0. -1.
       -4    1    3    3    0  502  0.46200306347E+03  0.10733299952E+04  0.54294603152E+03  0.12885170217E+04  0.12699999809E+01 0.  1.
</event>
<event>
 5   0  0.1635086E-06  0.2997978E+04  0.7818609E-02  0.8244308E-01
       -2   -1    0    0    0  501  0.00000000000E+00  0.00000000000E+00  0.98771980059E+03  0.98771980060E+03  0.25500000920E-02 0. -1.
        2   -1    0    0  501    0  0.00000000000E+00  0.00000000000E+00 -0.22749048255E+04  0.22749048255E+04  0.25500000920E-02 0.  1.
    10030    2    1    2    0    0  0.00000000000E+00  0.00000000000E+00 -0.12871850249E+04  0.32626246261E+04  0.29979783459E+04 0.  0.
        3    1    3    3  502    0  0.70402702356E+03 -0.79570490406E+03  0.50718716590E+03  0.11773016503E+04  0.10100000352E+00 0. -1.
       -3    1    3    3    0  502 -0.70402702356E+03  0.79570490406E+03 -0.17943721908E+04  0.20853229758E+04  0.10100000352E+00 0.  1.
</event>
<event>
 5   0  0.1723916E-06  0.3000476E+04  0.7818609E-02  0.8243595E-01
       -2   -1    0    0    0  501  0.00000000000E+00  0.00000000000E+00  0.13484576233E+04  0.13484576233E+04  0.25500000920E-02 0.  1.
        2   -1    0    0  501    0  0.00000000000E+00  0.00000000000E+00 -0.16691024130E+04  0.16691024130E+04  0.25500000920E-02 0. -1.
    10030    2    1    2    0    0  0.00000000000E+00  0.00000000000E+00 -0.32064478967E+03  0.30175600363E+04  0.30004758775E+04 0.  0.
        1    1    3    3  502    0  0.10487021986E+04 -0.47209965201E+02  0.91755844517E+03  0.13942448072E+04  0.50400001928E-02 0.  1.
       -1    1    3    3    0  502 -0.10487021986E+04  0.47209965201E+02 -0.12382032348E+04  0.16233152291E+04  0.50400001928E-02 0. -1.
</event>
<event>
 5   0  0.1560174E-06  0.2945667E+04  0.7818609E-02  0.8259418E-01
        2   -1    0    0  501    0  0.00000000000E+00  0.00000000000E+00  0.25543724535E+04  0.25543724535E+04  0.25500000920E-02 0.  1.
       -2   -1    0    0    0  501  0.00000000000E+00  0.00000000000E+00 -0.84922554959E+03  0.84922554960E+03  0.25500000920E-02 0. -1.
    10030    2    1    2    0    0  0.00000000000E+00  0.00000000000E+00  0.17051469039E+04  0.34035980031E+04  0.29456668859E+04 0.  0.
        5    1    3    3  502    0  0.24081689538E+03  0.11537376332E+04  0.18731213047E+04  0.22130767758E+04  0.46999998093E+01 0.  1.
       -5    1    3    3    0  502 -0.24081689538E+03 -0.11537376332E+04 -0.16797440080E+03  0.11905212273E+04  0.46999998093E+01 0. -1.
</event>
<event>
 5   0  0.5431625E-07  0.2995213E+04  0.7818609E-02  0.8245099E-01
        4   -1    0    0  501    0  0.00000000000E+00  0.00000000000E+00  0.15472338380E+04  0.15472343592E+04  0.12699999809E+01 0. -1.
       -4   -1    0    0    0  501  0.00000000000E+00  0.00000000000E+00 -0.14495700018E+04  0.14495705581E+04  0.12699999809E+01 0.  1.
    10030    2    1    2    0    0  0.00000000000E+00  0.00000000000E+00  0.97663836209E+02  0.29968049173E+04  0.29952130955E+04 0.  0.
        1    1    3    3  502    0  0.12374837433E+03 -0.77861309684E+03  0.13228009459E+04  0.15399202437E+04  0.50400001928E-02 0. -1.
       -1    1    3    3    0  502 -0.12374837433E+03  0.77861309684E+03 -0.12251371096E+04  0.14568846736E+04  0.50400001928E-02 0.  1.
</event>
<event>
 5   0  0.1635086E-06  0.3014148E+04  0.7818609E-02  0.8239702E-01
       -2   -1    0    0    0  501  0.00000000000E+00  0.00000000000E+00  0.17081860872E+04  0.17081860872E+04  0.25500000920E-02 0.  1.
        2   -1    0    0  501    0  0.00000000000E+00  0.00000000000E+00 -0.13296400082E+04  0.13296400082E+04  0.25500000920E-02 0. -1.
    10030    2    1    2    0    0  0.00000000000E+00  0.00000000000E+00  0.37854607892E+03  0.30378260954E+04  0.30141483461E+04 0.  0.
        3    1    3    3  502    0 -0.14607193221E+04  0.18399238971E+03  0.51385637736E+03  0.15593596519E+04  0.10100000352E+00 0.  1.
       -3    1    3    3    0  502  0.14607193221E+04 -0.18399238971E+03 -0.13531029843E+03  0.14784664435E+04  0.10100000352E+00 0. -1.
</event>
<event>
 5   0  0.1625212E-06  0.2928889E+04  0.7818609E-02  0.8264334E-01
        2   -1    0    0  501    0  0.00000000000E+00  0.00000000000E+00  0.13849610438E+04  0.13849610438E+04  0.25500000920E-02 0.  1.
       -2   -1    0    0    0  501  0.00000000000E+00  0.00000000000E+00 -0.15484900233E+04  0.15484900233E+04  0.25500000920E-02 0. -1.
    10030    2    1    2    0    0  0.00000000000E+00  0.00000000000E+00 -0.16352897948E+03  0.29334510672E+04  0.29288894544E+04 0.  0.
        4    1    3    3  502    0 -0.11824251097E+04  0.85083824207E+03  0.68608920580E+02  0.14583427756E+04  0.12699999809E+01 0.  1.
       -4    1    3    3    0  502  0.11824251097E+04 -0.85083824207E+03 -0.23213790006E+03  0.14751082916E+04  0.12699999809E+01 0. -1.
</event>
<event>
 5   0  0.5431625E-07  0.3010312E+04  0.7818609E-02  0.8240792E-01
       -3   -1    0    0    0  501  0.00000000000E+00  0.00000000000E+00  0.14286857049E+04  0.14286857084E+04  0.10100000352E+00 0.  1.
        3   -1    0    0  501    0  0.00000000000E+00  0.00000000000E+00 -0.15857196884E+04  0.15857196916E+04  0.10100000352E+00 0. -1.
    10030    2    1    2    0    0  0.00000000000E+00  0.00000000000E+00 -0.15703398351E+03  0.30144054001E+04  0.30103123167E+04 0.  0.
        2    1    3    3  502    0 -0.90679405212E+03 -0.84117001537E+03  0.78035115196E+03  0.14624603817E+04  0.25500000920E-02 0. -1.
       -2    1    3    3    0  502  0.90679405212E+03  0.84117001537E+03 -0.93738513547E+03  0.15519450183E+04  0.25500000920E-02 0.  1.
</event>
<event>
 5   0  0.1635086E-06  0.2980615E+04  0.7818609E-02  0.8249288E-01
        2   -1    0    0  501    0  0.00000000000E+00  0.00000000000E+00  0.21863607248E+04  0.21863607248E+04  0.25500000920E-02 0. -1.
       -2   -1    0    0    0  501  0.00000000000E+00  0.00000000000E+00 -0.10158511099E+04  0.10158511099E+04  0.25500000920E-02 0.  1.
    10030    2    1    2    0    0  0.00000000000E+00  0.00000000000E+00  0.11705096149E+04  0.32022118348E+04  0.29806153519E+04 0.  0.
        3    1    3    3  502    0 -0.25865879279E+03  0.51387058930E+03  0.20622555905E+04  0.21409963765E+04  0.10100000352E+00 0. -1.
       -3    1    3    3    0  502  0.25865879279E+03 -0.51387058930E+03 -0.89174597558E+03  0.10612154582E+04  0.10100000352E+00 0.  1.
</event>
<event>
 5   0  0.1625212E-06  0.2998786E+04  0.7818609E-02  0.8244078E-01
       -2   -1    0    0    0  501  0.00000000000E+00  0.00000000000E+00  0.99957273220E+03  0.99957273220E+03  0.25500000920E-02 0.  1.
        2   -1    0    0  501    0  0.00000000000E+00  0.00000000000E+00 -0.22491406622E+04  0.22491406622E+04  0.25500000920E-02 0. -1.
    10030    2    1    2    0    0  0.00000000000E+00  0.00000000000E+00 -0.12495679300E+04  0.32487133944E+04  0.29987862057E+04 0.  0.
        4    1    3    3  502    0 -0.12815168817E+04 -0.73305668366E+03 -0.90836421462E+03  0.17334315039E+04  0.12699999809E+01 0.  1.
       -4    1    3    3    0  502  0.12815168817E+04  0.73305668366E+03 -0.34120371539E+03  0.15152818905E+04  0.12699999809E+01 0. -1.
</event>
<event>
 5   0  0.1723916E-06  0.3004817E+04  0.7818609E-02  0.8242357E-01
       -2   -1    0    0    0  501  0.00000000000E+00  0.00000000000E+00  0.87274174856E+03  0.87274174856E+03  0.25500000920E-02 0.  1.
        2   -1    0    0  501    0  0.00000000000E+00  0.00000000000E+00 -0.25863683192E+04  0.25863683192E+04  0.25500000920E-02 0. -1.
    10030    2    1    2    0    0  0.00000000000E+00  0.00000000000E+00 -0.17136265707E+04  0.34591100678E+04  0.30048172053E+04 0.  0.
        1    1    3    3  502    0  0.47940725042E+03  0.11510755201E+04 -0.18216336053E+04  0.22075224024E+04  0.50400001928E-02 0. -1.
       -1    1    3    3    0  502 -0.47940725042E+03 -0.11510755201E+04  0.10800703466E+03  0.12515876654E+04  0.50400001928E-02 0.  1.
</event>
<event>
 5   0  0.5874741E-07  0.3001651E+04  0.7818609E-02  0.8243260E-01
        1   -1    0    0  501    0  0.00000000000E+00  0.00000000000E+00  0.19755874009E+04  0.19755874009E+04  0.50400001928E-02 0.  1.
       -1   -1    0    0    0  501  0.00000000000E+00  0.00000000000E+00 -0.11401554482E+04  0.11401554482E+04  0.50400001928E-02 0. -1.
    10030    2    1    2    0    0  0.00000000000E+00  0.00000000000E+00  0.83543195270E+03  0.31157428491E+04  0.30016507048E+04 0.  0.
        4    1    3    3  502    0 -0.10482676013E+04 -0.10699407162E+04  0.51529455899E+03  0.15840354149E+04  0.12699999809E+01 0.  1.
       -4    1    3    3    0  502  0.10482676013E+04  0.10699407162E+04  0.32013739371E+03  0.15317074342E+04  0.12699999809E+01 0. -1.
</event>
<event>
 5   0  0.1635086E-06  0.2800887E+04  0.7818609E-02  0.8302993E-01
       -2   -1    0    0    0  501  0.00000000000E+00  0.00000000000E+00  0.15683284090E+04  0.15683284090E+04  0.25500000920E-02 0.  1.
        2   -1    0    0  501    0  0.00000000000E+00  0.00000000000E+00 -0.12505299765E+04  0.12505299765E+04  0.25500000920E-02 0. -1.
    10030    2    1    2    0    0  0.00000000000E+00  0.00000000000E+00  0.31779843241E+03  0.28188583855E+04  0.28008867799E+04 0.  0.
        3    1    3    3  502    0 -0.12822103224E+04  0.56307809859E+03  0.16998910355E+03  0.14106794680E+04  0.10100000352E+00 0. -1.
       -3    1    3    3    0  502  0.12822103224E+04 -0.56307809859E+03  0.14780932886E+03  0.14081789175E+04  0.10100000352E+00 0.  1.
</event>
<event>
 5   0  0.1560174E-06  0.2977818E+04  0.7818609E-02  0.8250094E-01
       -2   -1    0    0    0  501  0.00000000000E+00  0.00000000000E+00  0.86659094523E+03  0.86659094524E+03  0.25500000920E-02 0. -1.
        2   -1    0    0  501    0  0.00000000000E+00  0.00000000000E+00 -0.25581267645E+04  0.25581267645E+04  0.25500000920E-02 0.  1.
    10030    2    1    2    0    0  0.00000000000E+00  0.00000000000E+00 -0.16915358193E+04  0.34247177097E+04  0.29778176511E+04 0.  0.
        5    1    3    3  502    0 -0.50312208192E+02 -0.82826641724E+03 -0.22675297078E+04  0.24145951301E+04  0.46999998093E+01 0.  1.
       -5    1    3    3    0  502  0.50312208192E+02  0.82826641724E+03  0.57599388859E+03  0.10101225796E+04  0.46999998093E+01 0. -1.
</event>
<event>
 5   0  0.5887179E-07  0.3163705E+04  0.7818609E-02  0.8198469E-01
       -1   -1    0    0    0  501  0.00000000000E+00  0.00000000000E+00  0.15696120863E+04  0.15696120864E+04  0.50400001928E-02 0.  1.
        1   -1    0    0  501    0  0.00000000000E+00  0.00000000000E+00 -0.15941888587E+04  0.15941888587E+04  0.50400001928E-02 0. -1.
    10030    2    1    2    0    0  0.00000000000E+00  0.00000000000E+00 -0.24576772388E+02  0.31638009451E+04  0.31637054861E+04 0.  0.
        3    1    3    3  502    0 -0.22066879424E+03  0.57995081618E+03 -0.14673994448E+04  0.15932039439E+04  0.10100000352E+00 0. -1.
       -3    1    3    3    0  502  0.22066879424E+03 -0.57995081618E+03  0.14428226724E+04  0.15705970012E+04  0.10100000352E+00 0.  1.
</event>
<event>
 5   0  0.5874741E-07  0.3000469E+04  0.7818609E-02  0.8243597E-01
       -1   -1    0    0    0  501  0.00000000000E+00  0.00000000000E+00  0.10917199181E+04  0.10917199181E+04  0.50400001928E-02 0.  1.
        1   -1    0    0  501    0  0.00000000000E+00  0.00000000000E+00 -0.20616129653E+04  0.20616129653E+04  0.50400001928E-02 0. -1.
    10030    2    1    2    0    0  0.00000000000E+00  0.00000000000E+00 -0.96989304712E+03  0.31533328834E+04  0.30004692551E+04 0.  0.
        4    1    3    3  502    0  0.28427554777E+03 -0.26159246196E+03 -0.20084417993E+04  0.20452587312E+04  0.12699999809E+01 0. -1.
       -4    1    3    3    0  502 -0.28427554777E+03  0.26159246196E+03  0.10385487522E+04  0.11080741522E+04  0.12699999809E+01 0.  1.
</event>
<event>
 5   0  0.1625212E-06  0.3015874E+04  0.7818609E-02  0.8239212E-01
        2   -1    0    0  501    0  0.00000000000E+00  0.00000000000E+00  0.16321866709E+04  0.16321866709E+04  0.25500000920E-02 0. -1.
       -2   -1    0    0    0  501  0.00000000000E+00  0.00000000000E+00 -0.13931457347E+04  0.13931457347E+04  0.25500000920E-02 0.  1.
    10030    2    1    2    0    0  0.00000000000E+00  0.00000000000E+00  0.23904093622E+03  0.30253324057E+04  0.30158739356E+04 0.  0.
        4    1    3    3  502    0  0.27846566234E+03 -0.61563076308E+03  0.14718314202E+04  0.16195165031E+04  0.12699999809E+01 0. -1.
       -4    1    3    3    0  502 -0.27846566234E+03  0.61563076308E+03 -0.12327904840E+04  0.14058159025E+04  0.12699999809E+01 0.  1.
</event>
<event>
 5   0  0.5887179E-07  0.2992243E+04  0.7818609E-02  0.8245949E-01
       -1   -1    0    0    0  501  0.00000000000E+00  0.00000000000E+00  0.95263255377E+03  0.95263255379E+03  0.50400001928E-02 0. -1.
        1   -1    0    0  501    0  0.00000000000E+00  0.00000000000E+00 -0.23496774676E+04  0.23496774676E+04  0.50400001928E-02 0.  1.
    10030    2    1    2    0    0  0.00000000000E+00  0.00000000000E+00 -0.13970449138E+04  0.33023100214E+04  0.29922428020E+04 0.  0.
        3    1    3    3  502    0 -0.87095132376E+03 -0.91636310064E+03  0.18444663280E+03  0.12776142263E+04  0.10100000352E+00 0. -1.
       -3    1    3    3    0  502  0.87095132376E+03  0.91636310064E+03 -0.15814915466E+04  0.20246957951E+04  0.10100000352E+00 0.  1.
</event>
<event>
 5   0  0.1560174E-06  0.2983379E+04  0.7818609E-02  0.8248493E-01
        2   -1    0    0  501    0  0.00000000000E+00  0.00000000000E+00  0.15398279017E+04  0.15398279017E+04  0.25500000920E-02 0.  1.
       -2   -1    0    0    0  501  0.00000000000E+00  0.00000000000E+00 -0.14450561075E+04  0.14450561075E+04  0.25500000920E-02 0. -1.
    10030    2    1    2    0    0  0.00000000000E+00  0.00000000000E+00  0.94771794151E+02  0.29848840092E+04  0.29833791002E+04 0.  0.
        5    1    3    3  502    0 -0.99196200538E+03 -0.24888474554E+03  0.11338357674E+04  0.15269374165E+04  0.46999998093E+01 0.  1.
       -5    1    3    3    0  502  0.99196200538E+03  0.24888474554E+03 -0.10390639732E+04  0.14579465927E+04  0.46999998093E+01 0. -1.
</event>
<event>
 5   0  0.1674806E-06  0.3005758E+04  0.7818609E-02  0.8242088E-01
        2   -1    0    0  501    0  0.00000000000E+00  0.00000000000E+00  0.17573899399E+04  0.17573899399E+04  0.25500000920E-02 0.  1.
       -2   -1    0    0    0  501  0.00000000000E+00  0.00000000000E+00 -0.12852274512E+04  0.12852274512E+04  0.25500000920E-02 0. -1.
    10030    2    1    2    0    0  0.00000000000E+00  0.00000000000E+00  0.47216248872E+03  0.30426173912E+04  0.30057583358E+04 0.  0.
        2    1    3    3  502    0 -0.27661119499E+03 -0.10451275798E+04 -0.82067477681E+03  0.13573181280E+04  0.25500000920E-02 0. -1.
       -2    1    3    3    0  502  0.27661119499E+03  0.10451275798E+04  0.12928372655E+04  0.16852992632E+04  0.25500000920E-02 0.  1.
</event>
<event>
 5   0  0.1560174E-06  0.2999458E+04  0.7818609E-02  0.8243886E-01
       -2   -1    0    0    0  501  0.00000000000E+00  0.00000000000E+00  0.11813472971E+04  0.11813472971E+04  0.25500000920E-02 0.  1.
        2   -1    0    0  501    0  0.00000000000E+00  0.00000000000E+00 -0.19039168124E+04  0.19039168124E+04  0.25500000920E-02 0. -1.
    10030    2    1    2    0    0  0.00000000000E+00  0.00000000000E+00 -0.72256951528E+03  0.30852641095E+04  0.29994579378E+04 0.  0.
        5    1    3    3  502    0 -0.12228670095E+04 -0.17495146984E+03 -0.12359960079E+04  0.17474896169E+04  0.46999998093E+01 0. -1.
       -5    1    3    3    0  502  0.12228670095E+04  0.17495146984E+03  0.51342649260E+03  0.13377744926E+04  0.46999998093E+01 0.  1.
</event>
<event>
 5   0  0.5916703E-07  0.2993891E+04  0.7818609E-02  0.8245478E-01
       -1   -1    0    0    0  501  0.00000000000E+00  0.00000000000E+00  0.18270459521E+04  0.18270459521E+04  0.50400001928E-02 0. -1.
        1   -1    0    0  501    0  0.00000000000E+00  0.00000000000E+00 -0.12264854008E+04  0.12264854008E+04  0.50400001928E-02 0.  1.
    10030    2    1    2    0    0  0.00000000000E+00  0.00000000000E+00  0.60056055127E+03  0.30535313529E+04  0.29938905704E+04 0.  0.
        5    1    3    3  502    0 -0.60033619748E+00  0.23168763372E+03  0.18086406267E+04  0.18234260409E+04  0.46999998093E+01 0. -1.
       -5    1    3    3    0  502  0.60033619748E+00 -0.23168763372E+03 -0.12080800754E+04  0.12301053120E+04  0.46999998093E+01 0.  1.
</event>
<event>
 5   0  0.5874741E-07  0.3000499E+04  0.7818609E-02  0.8243588E-01
       -1   -1    0    0    0  501  0.00000000000E+00  0.00000000000E+00  0.21512041580E+04  0.21512041580E+04  0.50400001928E-02 0. -1.
        1   -1    0    0  501    0  0.00000000000E+00  0.00000000000E+00 -0.10462735974E+04  0.10462735974E+04  0.50400001928E-02 0.  1.
    10030    2    1    2    0    0  0.00000000000E+00  0.00000000000E+00  0.11049305606E+04  0.31974777554E+04  0.30004987006E+04 0.  0.
        4    1    3    3  502    0  0.10221976963E+04  0.94354318743E+03  0.11511139281E+04  0.18056098043E+04  0.12699999809E+01 0. -1.
       -4    1    3    3    0  502 -0.10221976963E+04 -0.94354318743E+03 -0.46183367545E+02  0.13918679511E+04  0.12699999809E+01 0.  1.
</event>
<event>
 5   0  0.1635086E-06  0.3006998E+04  0.7818609E-02  0.8241735E-01
       -2   -1    0    0    0  501  0.00000000000E+00  0.00000000000E+00  0.15613403622E+04  0.15613403622E+04  0.25500000920E-02 0. -1.
        2   -1    0    0  501    0  0.00000000000E+00  0.00000000000E+00 -0.14478000995E+04  0.14478000995E+04  0.25500000920E-02 0.  1.
    10030    2    1    2    0    0  0.00000000000E+00  0.00000000000E+00  0.11354026272E+03  0.30091404617E+04  0.30069976600E+04 0.  0.
        3    1    3    3  502    0 -0.52043808836E+03  0.28912996201E+03  0.14383541071E+04  0.15566998704E+04  0.10100000352E+00 0. -1.
       -3    1    3    3    0  502  0.52043808836E+03 -0.28912996201E+03 -0.13248138444E+04  0.14524405913E+04  0.10100000352E+00 0.  1.
</event>
<event>
 5   0  0.5931588E-07  0.2999307E+04  0.7818609E-02  0.8243929E-01
       -1   -1    0    0    0  501  0.00000000000E+00  0.00000000000E+00  0.11479146272E+04  0.11479146272E+04  0.50400001928E-02 0.  1.
        1   -1    0    0  501    0  0.00000000000E+00  0.00000000000E+00 -0.19591701094E+04  0.19591701094E+04  0.50400001928E-02 0. -1.
    10030    2    1    2    0    0  0.00000000000E+00  0.00000000000E+00 -0.81125548220E+03  0.31070847366E+04  0.29993066037E+04 0.  0.
        2    1    3    3  502    0  0.85166906592E+03 -0.36220920020E+03  0.81678546848E+03  0.12343719877E+04  0.25500000920E-02 0.  1.
       -2    1    3    3    0  502 -0.85166906592E+03  0.36220920020E+03 -0.16280409507E+04  0.18727127488E+04  0.25500000920E-02 0. -1.
</event>
<event>
 5   0  0.1625212E-06  0.2988368E+04  0.7818609E-02  0.8247060E-01
        2   -1    0    0  501    0  0.00000000000E+00  0.00000000000E+00  0.15873427787E+04  0.15873427787E+04  0.25500000920E-02 0. -1.
       -2   -1    0    0    0  501  0.00000000000E+00  0.00000000000E+00 -0.14064927142E+04  0.14064927142E+04  0.25500000920E-02 0.  1.
    10030    2    1    2    0    0  0.00000000000E+00  0.00000000000E+00  0.18085006451E+03  0.29938354929E+04  0.29883681522E+04 0.  0.
        4    1    3    3  502    0  0.12316120933E+04 -0.78548385519E+03 -0.22436505836E+03  0.14779020696E+04  0.12699999809E+01 0. -1.
       -4    1    3    3    0  502 -0.12316120933E+04  0.78548385519E+03  0.40521512287E+03  0.15159334233E+04  0.12699999809E+01 0.  1.
</event>
<event>
 5   0  0.5874741E-07  0.3046556E+04  0.7818609E-02  0.8230560E-01
       -1   -1    0    0    0  501  0.00000000000E+00  0.00000000000E+00  0.24685286819E+04  0.24685286819E+04  0.50400001928E-02 0. -1.
        1   -1    0    0  501    0  0.00000000000E+00  0.00000000000E+00 -0.93998340546E+03  0.93998340547E+03  0.50400001928E-02 0.  1.
    10030    2    1    2    0    0  0.00000000000E+00  0.00000000000E+00  0.15285452764E+04  0.34085120874E+04  0.30465560864E+04 0.  0.
        4    1    3    3  502    0 -0.13484529595E+04 -0.65192109013E+03  0.10748258618E+04  0.18435234574E+04  0.12699999809E+01 0.  1.
       -4    1    3    3    0  502  0.13484529595E+04  0.65192109013E+03  0.45371941460E+03  0.15649886300E+04  0.12699999809E+01 0. -1.
</event>
<event>
 5   0  0.6291798E-07  0.2989368E+04  0.7818609E-02  0.8246773E-01
       -1   -1    0    0    0  501  0.00000000000E+00  0.00000000000E+00  0.16800512601E+04  0.16800512601E+04  0.50400001928E-02 0.  1.
        1   -1    0    0  501    0  0.00000000000E+00  0.00000000000E+00 -0.13297692802E+04  0.13297692802E+04  0.50400001928E-02 0. -1.
    10030    2    1    2    0    0  0.00000000000E+00  0.00000000000E+00  0.35028197995E+03  0.30098205403E+04  0.29893681974E+04 0.  0.
        1    1    3    3  502    0 -0.62557161713E+03 -0.20419666330E+02 -0.11914676636E+04  0.13458647794E+04  0.50400001928E-02 0. -1.
       -1    1    3    3    0  502  0.62557161713E+03  0.20419666330E+02  0.15417496436E+04  0.16639557609E+04  0.50400001928E-02 0.  1.
</event>
<event>
 5   0  0.5916703E-07  0.3000769E+04  0.7818609E-02  0.8243511E-01
        1   -1    0    0  501    0  0.00000000000E+00  0.00000000000E+00  0.13663044551E+04  0.13663044552E+04  0.50400001928E-02 0.  1.
       -1   -1    0    0    0  501  0.00000000000E+00  0.00000000000E+00 -0.16476226029E+04  0.16476226029E+04  0.50400001928E-02 0. -1.
    10030    2    1    2    0    0  0.00000000000E+00  0.00000000000E+00 -0.28131814773E+03  0.30139270580E+04  0.30007693032E+04 0.  0.
        5    1    3    3  502    0  0.12825886844E+04  0.75764849362E+03 -0.32051699185E+03  0.15237513594E+04  0.46999998093E+01 0. -1.
       -5    1    3    3    0  502 -0.12825886844E+04 -0.75764849362E+03  0.39198844120E+02  0.14901756986E+04  0.46999998093E+01 0.  1.
</event>
<event>
 5   0  0.5887179E-07  0.2995839E+04  0.7818609E-02  0.8244920E-01
       -1   -1    0    0    0  501  0.00000000000E+00  0.00000000000E+00  0.11107667644E+04  0.11107667644E+04  0.50400001928E-02 0.  1.
        1   -1    0    0  501    0  0.00000000000E+00  0.00000000000E+00 -0.20200129795E+04  0.20200129795E+04  0.50400001928E-02 0. -1.
    10030    2    1    2    0    0  0.00000000000E+00  0.00000000000E+00 -0.90924621510E+03  0.31307797439E+04  0.29958393023E+04 0.  0.
        3    1    3    3  502    0  0.50543686335E+03  0.75895826606E+03 -0.16965449992E+04  0.19260708754E+04  0.10100000352E+00 0. -1.
       -3    1    3    3    0  502 -0.50543686335E+03 -0.75895826606E+03  0.78729878407E+03  0.12047088686E+04  0.10100000352E+00 0.  1.
</event>
<event>
 5   0  0.1674806E-06  0.2932798E+04  0.7818609E-02  0.8263186E-01
       -2   -1    0    0    0  501  0.00000000000E+00  0.00000000000E+00  0.20048017730E+04  0.20048017730E+04  0.25500000920E-02 0. -1.
        2   -1    0    0  501    0  0.00000000000E+00  0.00000000000E+00 -0.10725875728E+04  0.10725875728E+04  0.25500000920E-02 0.  1.
    10030    2    1    2    0    0  0.00000000000E+00  0.00000000000E+00  0.93221420016E+03  0.30773893458E+04  0.29327976184E+04 0.  0.
        2    1    3    3  502    0  0.74549862652E+03 -0.10188155388E+04 -0.31671142000E+03  0.13015603819E+04  0.25500000920E-02 0.  1.
       -2    1    3    3    0  502 -0.74549862652E+03  0.10188155388E+04  0.12489256202E+04  0.17758289639E+04  0.25500000920E-02 0. -1.
</event>
<event>
 5   0  0.5874741E-07  0.2989134E+04  0.7818609E-02  0.8246841E-01
       -1   -1    0    0    0  501  0.00000000000E+00  0.00000000000E+00  0.16975649655E+04  0.16975649655E+04  0.50400001928E-02 0. -1.
        1   -1    0    0  501    0  0.00000000000E+00  0.00000000000E+00 -0.13158440501E+04  0.13158440501E+04  0.50400001928E-02 0.  1.
    10030    2    1    2    0    0  0.00000000000E+00  0.00000000000E+00  0.38172091541E+03  0.30134090155E+04  0.29891341619E+04 0.  0.
        4    1    3    3  502    0 -0.27104390201E+03 -0.50093290019E+03 -0.12021463515E+04  0.13302466052E+04  0.12699999809E+01 0.  1.
       -4    1    3    3    0  502  0.27104390201E+03  0.50093290019E+03  0.15838672669E+04  0.16831624103E+04  0.12699999809E+01 0. -1.
</event>
<event>
 5   0  0.1560174E-06  0.2896705E+04  0.7818609E-02  0.8273859E-01
       -2   -1    0    0    0  501  0.00000000000E+00  0.00000000000E+00  0.86385604024E+03  0.86385604024E+03  0.25500000920E-02 0. -1.
        2   -1    0    0  501    0  0.00000000000E+00  0.00000000000E+00 -0.24283269554E+04  0.24283269554E+04  0.25500000920E-02 0.  1.
    10030    2    1    2    0    0  0.00000000000E+00  0.00000000000E+00 -0.15644709152E+04  0.32921829957E+04  0.28967049613E+04 0.  0.
        5    1    3    3  502    0  0.14251858422E+04 -0.14559217611E+03 -0.54020312539E+03  0.15310758548E+04  0.46999998093E+01 0.  1.
       -5    1    3    3    0  502 -0.14251858422E+04  0.14559217611E+03 -0.10242677898E+04  0.17611071409E+04  0.46999998093E+01 0. -1.
</event>
<event>
 5   0  0.1625212E-06  0.3010426E+04  0.7818609E-02  0.8240760E-01
       -2   -1    0    0    0  501  0.00000000000E+00  0.00000000000E+00  0.15119726517E+04  0.15119726517E+04  0.25500000920E-02 0. -1.
        2   -1    0    0  501    0  0.00000000000E+00  0.00000000000E+00 -0.14984837014E+04  0.14984837014E+04  0.25500000920E-02 0.  1.
    10030    2    1    2    0    0  0.00000000000E+00  0.00000000000E+00  0.13488950319E+02  0.30104563531E+04  0.30104261330E+04 0.  0.
        4    1    3    3  502    0 -0.13858055029E+04 -0.53702602062E+03 -0.23160834005E+03  0.15041601892E+04  0.12699999809E+01 0.  1.
       -4    1    3    3    0  502  0.13858055029E+04  0.53702602062E+03  0.24509729037E+03  0.15062961639E+04  0.12699999809E+01 0. -1.
</event>
<event>
 5   0  0.6291798E-07  0.2996143E+04  0.7818609E-02  0.8244833E-01
       -1   -1    0    0    0  501  0.00000000000E+00  0.00000000000E+00  0.13417837517E+04  0.13417837517E+04  0.50400001928E-02 0.  1.
        1   -1    0    0  501    0  0.00000000000E+00  0.00000000000E+00 -0.16725635799E+04  0.16725635799E+04  0.50400001928E-02 0. -1.
    10030    2    1    2    0    0  0.00000000000E+00  0.00000000000E+00 -0.33077982821E+03  0.30143473315E+04  0.29961432777E+04 0.  0.
        1    1    3    3  502    0  0.24849053237E+03 -0.11737285372E+04 -0.10679652130E+04  0.16062178931E+04  0.50400001928E-02 0. -1.
       -1    1    3    3    0  502 -0.24849053237E+03  0.11737285372E+04  0.73718538482E+03  0.14081294384E+04  0.50400001928E-02 0.  1.
</event>
<event>
 5   0  0.1560174E-06  0.2981465E+04  0.7818609E-02  0.8249044E-01
       -2   -1    0    0    0  501  0.00000000000E+00  0.00000000000E+00  0.15647769207E+04  0.15647769207E+04  0.25500000920E-02 0. -1.
        2   -1    0    0  501    0  0.00000000000E+00  0.00000000000E+00 -0.14201917760E+04  0.14201917760E+04  0.25500000920E-02 0.  1.
    10030    2    1    2    0    0  0.00000000000E+00  0.00000000000E+00  0.14458514472E+03  0.29849686967E+04  0.29814649513E+04 0.  0.
        5    1    3    3  502    0  0.15870180934E+03  0.10198085576E+04 -0.10046413040E+04  0.14403201027E+04  0.46999998093E+01 0.  1.
       -5    1    3    3    0  502 -0.15870180934E+03 -0.10198085576E+04  0.11492264487E+04  0.15446485940E+04  0.46999998093E+01 0. -1.
</event>
<event>
 5   0  0.1723916E-06  0.3133152E+04  0.7818609E-02  0.8206698E-01
       -2   -1    0    0    0  501  0.00000000000E+00  0.00000000000E+00  0.11035226331E+04  0.11035226331E+04  0.25500000920E-02 0.  1.
        2   -1    0    0  501    0  0.00000000000E+00  0.00000000000E+00 -0.22239332972E+04  0.22239332972E+04  0.25500000920E-02 0. -1.
    10030    2    1    2    0    0  0.00000000000E+00  0.00000000000E+00 -0.11204106641E+04  0.33274559304E+04  0.31331522325E+04 0.  0.
        1    1    3    3  502    0  0.10113145756E+04 -0.46293508477E+02 -0.18298626099E+04  0.20912430348E+04  0.50400001928E-02 0. -1.
       -1    1    3    3    0  502 -0.10113145756E+04  0.46293508477E+02  0.70945194574E+03  0.12362128955E+04  0.50400001928E-02 0.  1.
</event>
<event>
 5   0  0.1635086E-06  0.2970437E+04  0.7818609E-02  0.8252223E-01
       -2   -1    0    0    0  501  0.00000000000E+00  0.00000000000E+00  0.13247868959E+04  0.13247868959E+04  0.25500000920E-02 0. -1.
        2   -1    0    0  501    0  0.00000000000E+00  0.00000000000E+00 -0.16650785818E+04  0.16650785819E+04  0.25500000920E-02 0.  1.
    10030    2    1    2    0    0  0.00000000000E+00  0.00000000000E+00 -0.34029168592E+03  0.29898654778E+04  0.29704371974E+04 0.  0.
        3    1    3    3  502    0  0.21190687388E+03  0.72638431874E+03  0.11162332839E+04  0.13485234355E+04  0.10100000352E+00 0. -1.
       -3    1    3    3    0  502 -0.21190687388E+03 -0.72638431874E+03 -0.14565249699E+04  0.16413420423E+04  0.10100000352E+00 0.  1.
</event>
<event>
 5   0  0.6291798E-07  0.2997214E+04  0.7818609E-02  0.8244527E-01
        1   -1    0    0  501    0  0.00000000000E+00  0.00000000000E+00  0.19349996780E+04  0.19349996780E+04  0.50400001928E-02 0.  1.
       -1   -1    0    0    0  501  0.00000000000E+00  0.00000000000E+00 -0.11606321175E+04  0.11606321175E+04  0.50400001928E-02 0. -1.
    10030    2    1    2    0    0  0.00000000000E+00  0.00000000000E+00  0.77436756047E+03  0.30956317955E+04  0.29972138887E+04 0.  0.
        1    1    3    3  502    0  0.36625110887E+03  0.10899550035E+04 -0.60545803251E+03  0.12995080660E+04  0.50400001928E-02 0. -1.
       -1    1    3    3    0  502 -0.36625110887E+03 -0.10899550035E+04  0.13798255930E+04  0.17961237295E+04  0.50400001928E-02 0.  1.
</event>
<event>
 5   0  0.5931588E-07  0.2988653E+04  0.7818609E-02  0.8246979E-01
        1   -1    0    0  501    0  0.00000000000E+00  0.00000000000E+00  0.17566976654E+04  0.17566976654E+04  0.50400001928E-02 0.  1.
       -1   -1    0    0    0  501  0.00000000000E+00  0.00000000000E+00 -0.12711415487E+04  0.12711415487E+04  0.50400001928E-02 0. -1.
    10030    2    1    2    0    0  0.00000000000E+00  0.00000000000E+00  0.48555611663E+03  0.30278392141E+04  0.29886528008E+04 0.  0.
        2    1    3    3  502    0  0.10657254703E+04 -0.70860691223E+03 -0.53877500630E+03  0.13885867065E+04  0.25500000920E-02 0. -1.
       -2    1    3    3    0  502 -0.10657254703E+04  0.70860691223E+03  0.10243311229E+04  0.16392525076E+04  0.25500000920E-02 0.  1.
</event>
<event>
 5   0  0.1723916E-06  0.2999381E+04  0.7818609E-02  0.8243908E-01
        2   -1    0    0  501    0  0.00000000000E+00  0.00000000000E+00  0.18978347833E+04  0.18978347833E+04  0.25500000920E-02 0.  1.
       -2   -1    0    0    0  501  0.00000000000E+00  0.00000000000E+00 -0.11850722510E+04  0.11850722510E+04  0.25500000920E-02 0. -1.
    10030    2    1    2    0    0  0.00000000000E+00  0.00000000000E+00  0.71276253225E+03  0.30829070343E+04  0.29993808286E+04 0.  0.
        1    1    3    3  502    0  0.89479860432E+03  0.10580052507E+04  0.94596796707E+03  0.16777648964E+04  0.50400001928E-02 0.  1.
       -1    1    3    3    0  502 -0.89479860432E+03 -0.10580052507E+04 -0.23320543482E+03  0.14051421379E+04  0.50400001928E-02 0. -1.
</event>
<event>
 5   0  0.1635086E-06  0.3000425E+04  0.7818609E-02  0.8243610E-01
       -2   -1    0    0    0  501  0.00000000000E+00  0.00000000000E+00  0.96102598021E+03  0.96102598021E+03  0.25500000920E-02 0.  1.
        2   -1    0    0  501    0  0.00000000000E+00  0.00000000000E+00 -0.23419104703E+04  0.23419104703E+04  0.25500000920E-02 0. -1.
    10030    2    1    2    0    0  0.00000000000E+00  0.00000000000E+00 -0.13808844901E+04  0.33029364505E+04  0.30004245068E+04 0.  0.
        3    1    3    3  502    0 -0.10563473456E+04  0.10392655364E+04 -0.94788949205E+03  0.17591012106E+04  0.10100000352E+00 0. -1.
       -3    1    3    3    0  502  0.10563473456E+04 -0.10392655364E+04 -0.43299499806E+03  0.15438352400E+04  0.10100000352E+00 0.  1.
</event>
<event>
 5   0  0.5916703E-07  0.2990376E+04  0.7818609E-02  0.8246484E-01
        1   -1    0    0  501    0  0.00000000000E+00  0.00000000000E+00  0.13154114814E+04  0.13154114815E+04  0.50400001928E-02 0. -1.
       -1   -1    0    0    0  501  0.00000000000E+00  0.00000000000E+00 -0.16995348124E+04  0.16995348124E+04  0.50400001928E-02 0.  1.
    10030    2    1    2    0    0  0.00000000000E+00  0.00000000000E+00 -0.38412333094E+03  0.30149462939E+04  0.29903763010E+04 0.  0.
        5    1    3    3  502    0 -0.89692675421E+03  0.54365655173E+03  0.88230414034E+03  0.13705921110E+04  0.46999998093E+01 0. -1.
       -5    1    3    3    0  502  0.89692675421E+03 -0.54365655173E+03 -0.12664274713E+04  0.16443541829E+04  0.46999998093E+01 0.  1.
</event>
<event>
 5   0  0.1635086E-06  0.3012113E+04  0.7818609E-02  0.8240280E-01
        2   -1    0    0  501    0  0.00000000000E+00  0.00000000000E+00  0.89931424820E+03  0.89931424820E+03  0.25500000920E-02 0. -1.
       -2   -1    0    0    0  501  0.00000000000E+00  0.00000000000E+00 -0.25221505118E+04  0.25221505118E+04  0.25500000920E-02 0.  1.
    10030    2    1    2    0    0  0.00000000000E+00  0.00000000000E+00 -0.16228362636E+04  0.34214647600E+04  0.30121128076E+04 0.  0.
        3    1    3    3  502    0 -0.11633012132E+04  0.91224816441E+03 -0.11381542664E+04  0.18657067214E+04  0.10100000352E+00 0. -1.
       -3    1    3    3    0  502  0.11633012132E+04 -0.91224816441E+03 -0.48468199722E+03  0.15557580386E+04  0.10100000352E+00 0.  1.
</event>
<event>
 5   0  0.5874741E-07  0.2987425E+04  0.7818609E-02  0.8247331E-01
        1   -1    0    0  501    0  0.00000000000E+00  0.00000000000E+00  0.10595155590E+04  0.10595155590E+04  0.50400001928E-02 0. -1.
       -1   -1    0    0    0  501  0.00000000000E+00  0.00000000000E+00 -0.21058461433E+04  0.21058461433E+04  0.50400001928E-02 0.  1.
    10030    2    1    2    0    0  0.00000000000E+00  0.00000000000E+00 -0.10463305844E+04  0.31653617023E+04  0.29874248132E+04 0.  0.
        4    1    3    3  502    0  0.19914788108E+03  0.79208094988E+03  0.80197486503E+03  0.11446472849E+04  0.12699999809E+01 0. -1.
       -4    1    3    3    0  502 -0.19914788108E+03 -0.79208094988E+03 -0.18483054494E+04  0.20207144174E+04  0.12699999809E+01 0.  1.
</event>
<event>
 5   0  0.5874741E-07  0.2999222E+04  0.7818609E-02  0.8243953E-01
       -1   -1    0    0    0  501  0.00000000000E+00  0.00000000000E+00  0.21130227271E+04  0.21130227271E+04  0.50400001928E-02 0.  1.
        1   -1    0    0  501    0  0.00000000000E+00  0.00000000000E+00 -0.10642731735E+04  0.10642731735E+04  0.50400001928E-02 0. -1.
    10030    2    1    2    0    0  0.00000000000E+00  0.00000000000E+00  0.10487495536E+04  0.31772959006E+04  0.29992221681E+04 0.  0.
        4    1    3    3  502    0  0.36819927820E+02  0.14969871500E+04  0.43892887501E+03  0.15604442972E+04  0.12699999809E+01 0. -1.
       -4    1    3    3    0  502 -0.36819927820E+02 -0.14969871500E+04  0.60982067859E+03  0.16168516034E+04  0.12699999809E+01 0.  1.
</event>
<event>
 5   0  0.1635086E-06  0.2996259E+04  0.7818609E-02  0.8244800E-01
        2   -1    0    0  501    0  0.00000000000E+00  0.00000000000E+00  0.17564077569E+04  0.17564077569E+04  0.25500000920E-02 0. -1.
       -2   -1    0    0    0  501  0.00000000000E+00  0.00000000000E+00 -0.12778305997E+04  0.12778305997E+04  0.25500000920E-02 0.  1.
    10030    2    1    2    0    0  0.00000000000E+00  0.00000000000E+00  0.47857715720E+03  0.30342383567E+04  0.29962587187E+04 0.  0.
        3    1    3    3  502    0  0.23803963279E+02  0.41598144119E+03 -0.12179740360E+04  0.12872715140E+04  0.10100000352E+00 0.  1.
       -3    1    3    3    0  502 -0.23803963279E+02 -0.41598144119E+03  0.16965511932E+04  0.17469668427E+04  0.10100000352E+00 0. -1.
</event>
<event>
 5   0  0.5887179E-07  0.2999072E+04  0.7818609E-02  0.8243996E-01
        1   -1    0    0  501    0  0.00000000000E+00  0.00000000000E+00  0.79293201623E+03  0.79293201625E+03  0.50400001928E-02 0. -1.
       -1   -1    0    0    0  501  0.00000000000E+00  0.00000000000E+00 -0.28358140451E+04  0.28358140451E+04  0.50400001928E-02 0.  1.
    10030    2    1    2    0    0  0.00000000000E+00  0.00000000000E+00 -0.20428820289E+04  0.36287460614E+04  0.29990716887E+04 0.  0.
        3    1    3    3  502    0 -0.14967747327E+04  0.77753892530E+02 -0.10785462171E+04  0.18465216546E+04  0.10100000352E+00 0.  1.
       -3    1    3    3    0  502  0.14967747327E+04 -0.77753892530E+02 -0.96433581178E+03  0.17822244068E+04  0.10100000352E+00 0. -1.
</event>
<event>
 5   0  0.6291798E-07  0.2999300E+04  0.7818609E-02  0.8243931E-01
        1   -1    0    0  501    0  0.00000000000E+00  0.00000000000E+00  0.11454470200E+04  0.11454470200E+04  0.50400001928E-02 0. -1.
       -1   -1    0    0    0  501  0.00000000000E+00  0.00000000000E+00 -0.19633826966E+04  0.19633826966E+04  0.50400001928E-02 0.  1.
    10030    2    1    2    0    0  0.00000000000E+00  0.00000000000E+00 -0.81793567653E+03  0.31088297166E+04  0.29993004911E+04 0.  0.
        1    1    3    3  502    0  0.31661960606E+03  0.12519717764E+04 -0.11992200943E+04  0.17623308822E+04  0.50400001928E-02 0.  1.
       -1    1    3    3    0  502 -0.31661960606E+03 -0.12519717764E+04  0.38128441781E+03  0.13464988344E+04  0.50400001928E-02 0. -1.
</event>
<event>
 5   0  0.5874741E-07  0.2972318E+04  0.7818609E-02  0.8251680E-01
       -1   -1    0    0    0  501  0.00000000000E+00  0.00000000000E+00  0.13804636485E+04  0.13804636486E+04  0.50400001928E-02 0. -1.
        1   -1    0    0  501    0  0.00000000000E+00  0.00000000000E+00 -0.15999466604E+04  0.15999466604E+04  0.50400001928E-02 0.  1.
    10030    2    1    2    0    0  0.00000000000E+00  0.00000000000E+00 -0.21948301186E+03  0.29804103090E+04  0.29723177517E+04 0.  0.
        4    1    3    3  502    0 -0.37901087125E+03  0.13251374328E+04 -0.66715802141E+03  0.15312543534E+04  0.12699999809E+01 0.  1.
       -4    1    3    3    0  502  0.37901087125E+03 -0.13251374328E+04  0.44767500955E+03  0.14491559556E+04  0.12699999809E+01 0. -1.
</event>
<event>
 5   0  0.1674806E-06  0.2991437E+04  0.7818609E-02  0.8246180E-01
        2   -1    0    0  501    0  0.00000000000E+00  0.00000000000E+00  0.14164989592E+04  0.14164989592E+04  0.25500000920E-02 0. -1.
       -2   -1    0    0    0  501  0.00000000000E+00  0.00000000000E+00 -0.15793686762E+04  0.15793686762E+04  0.25500000920E-02 0.  1.
    10030    2    1    2    0    0  0.00000000000E+00  0.00000000000E+00 -0.16286971700E+03  0.29958676354E+04  0.29914371703E+04 0.  0.
        2    1    3    3  502    0  0.52751073705E+03  0.68907995735E+02  0.13185476025E+04  0.14218240642E+04  0.25500000920E-02 0. -1.
       -2    1    3    3    0  502 -0.52751073705E+03 -0.68907995735E+02 -0.14814173195E+04  0.15740435712E+04  0.25500000920E-02 0.  1.
</event>
<event>
 5   0  0.1674806E-06  0.2980058E+04  0.7818609E-02  0.8249448E-01
       -2   -1    0    0    0  501  0.00000000000E+00  0.00000000000E+00  0.73621358304E+03  0.73621358304E+03  0.25500000920E-02 0. -1.
        2   -1    0    0  501    0  0.00000000000E+00  0.00000000000E+00 -0.30156833053E+04  0.30156833053E+04  0.25500000920E-02 0.  1.
    10030    2    1    2    0    0  0.00000000000E+00  0.00000000000E+00 -0.22794697223E+04  0.37518968883E+04  0.29800583964E+04 0.  0.
        2    1    3    3  502    0 -0.72320014714E+03  0.42737143791E+03  0.40966653701E+03  0.93460765582E+03  0.25500000920E-02 0. -1.
       -2    1    3    3    0  502  0.72320014714E+03 -0.42737143791E+03 -0.26891362593E+04  0.28172892325E+04  0.25500000920E-02 0.  1.
</event>
<event>
 5   0  0.1674806E-06  0.2951702E+04  0.7818609E-02  0.8257659E-01
        2   -1    0    0  501    0  0.00000000000E+00  0.00000000000E+00  0.17090971773E+04  0.17090971773E+04  0.25500000920E-02 0.  1.
       -2   -1    0    0    0  501  0.00000000000E+00  0.00000000000E+00 -0.12744368279E+04  0.12744368280E+04  0.25500000920E-02 0. -1.
    10030    2    1    2    0    0  0.00000000000E+00  0.00000000000E+00  0.43466034937E+03  0.29835340053E+04  0.29517021431E+04 0.  0.
        2    1    3    3  502    0  0.13976555273E+04  0.38453559562E+03  0.49749759177E+03  0.15325835870E+04  0.25500000920E-02 0.  1.
       -2    1    3    3    0  502 -0.13976555273E+04 -0.38453559562E+03 -0.62837242405E+02  0.14509504183E+04  0.25500000920E-02 0. -1.
</event>
<event>
 5   0  0.5931588E-07  0.2989453E+04  0.7818609E-02  0.8246749E-01
       -1   -1    0    0    0  501  0.00000000000E+00  0.00000000000E+00  0.12157488634E+04  0.12157488634E+04  0.50400001928E-02 0.  1.
        1   -1    0    0  501    0  0.00000000000E+00  0.00000000000E+00 -0.18377216032E+04  0.18377216032E+04  0.50400001928E-02 0. -1.
    10030    2    1    2    0    0  0.00000000000E+00  0.00000000000E+00 -0.62197273983E+03  0.30534704666E+04  0.29894534285E+04 0.  0.
        2    1    3    3  502    0  0.34272932611E+03  0.20045211672E+03  0.11609008710E+04  0.12269210547E+04  0.25500000920E-02 0.  1.
       -2    1    3    3    0  502 -0.34272932611E+03 -0.20045211672E+03 -0.17828736108E+04  0.18265494119E+04  0.25500000920E-02 0. -1.
</event>
<event>
 5   0  0.5874741E-07  0.3001718E+04  0.7818609E-02  0.8243241E-01
       -1   -1    0    0    0  501  0.00000000000E+00  0.00000000000E+00  0.14064540024E+04  0.14064540024E+04  0.50400001928E-02 0.  1.
        1   -1    0    0  501    0  0.00000000000E+00  0.00000000000E+00 -0.16016004796E+04  0.16016004796E+04  0.50400001928E-02 0. -1.
    10030    2    1    2    0    0  0.00000000000E+00  0.00000000000E+00 -0.19514647720E+03  0.30080544820E+04  0.30017177781E+04 0.  0.
        4    1    3    3  502    0 -0.76656439627E+03 -0.28696264160E+03 -0.13582461396E+04  0.15858129523E+04  0.12699999809E+01 0. -1.
       -4    1    3    3    0  502  0.76656439627E+03  0.28696264160E+03  0.11630996623E+04  0.14222415297E+04  0.12699999809E+01 0.  1.
</event>
<event>
 5   0  0.5887179E-07  0.3007870E+04  0.7818609E-02  0.8241487E-01
        1   -1    0    0  501    0  0.00000000000E+00  0.00000000000E+00  0.19309909493E+04  0.19309909493E+04  0.50400001928E-02 0. -1.
       -1   -1    0    0    0  501  0.00000000000E+00  0.00000000000E+00 -0.11713261268E+04  0.11713261268E+04  0.50400001928E-02 0.  1.
    10030    2    1    2    0    0  0.00000000000E+00  0.00000000000E+00  0.75966482252E+03  0.31023170762E+04  0.30078697775E+04 0.  0.
        3    1    3    3  502    0  0.91920796158E+03  0.11830562701E+04  0.51531427748E+03  0.15843340019E+04  0.10100000352E+00 0.  1.
       -3    1    3    3    0  502 -0.91920796158E+03 -0.11830562701E+04  0.24435054504E+03  0.15179830743E+04  0.10100000352E+00 0. -1.
</event>
<event>
 5   0  0.1560174E-06  0.3018703E+04  0.7818609E-02  0.8238410E-01
       -2   -1    0    0    0  501  0.00000000000E+00  0.00000000000E+00  0.13770793716E+04  0.13770793716E+04  0.25500000920E-02 0. -1.
        2   -1    0    0  501    0  0.00000000000E+00  0.00000000000E+00 -0.16543287651E+04  0.16543287651E+04  0.25500000920E-02 0.  1.
    10030    2    1    2    0    0  0.00000000000E+00  0.00000000000E+00 -0.27724939347E+03  0.30314081366E+04  0.30187030435E+04 0.  0.
        5    1    3    3  502    0  0.59172163351E+03  0.59073404752E+03 -0.14005035392E+04  0.16311141774E+04  0.46999998093E+01 0.  1.
       -5    1    3    3    0  502 -0.59172163351E+03 -0.59073404752E+03  0.11232541457E+04  0.14002939592E+04  0.46999998093E+01 0. -1.
</event>
<event>
 5   0  0.5874741E-07  0.3038238E+04  0.7818609E-02  0.8232895E-01
        1   -1    0    0  501    0  0.00000000000E+00  0.00000000000E+00  0.22878471956E+04  0.22878471956E+04  0.50400001928E-02 0.  1.
       -1   -1    0    0    0  501  0.00000000000E+00  0.00000000000E+00 -0.10086870851E+04  0.10086870851E+04  0.50400001928E-02 0. -1.
    10030    2    1    2    0    0  0.00000000000E+00  0.00000000000E+00  0.12791601105E+04  0.32965342807E+04  0.30382375936E+04 0.  0.
        4    1    3    3  502    0  0.66304062894E+03  0.13552355846E+04  0.83194913915E+03  0.17229124610E+04  0.12699999809E+01 0. -1.
       -4    1    3    3    0  502 -0.66304062894E+03 -0.13552355846E+04  0.44721097136E+03  0.15736218196E+04  0.12699999809E+01 0.  1.
</event>
<event>
 5   0  0.1560174E-06  0.3008972E+04  0.7818609E-02  0.8241173E-01
        2   -1    0    0  501    0  0.00000000000E+00  0.00000000000E+00  0.15662577446E+04  0.15662577446E+04  0.25500000920E-02 0.  1.
       -2   -1    0    0    0  501  0.00000000000E+00  0.00000000000E+00 -0.14451507182E+04  0.14451507182E+04  0.25500000920E-02 0. -1.
    10030    2    1    2    0    0  0.00000000000E+00  0.00000000000E+00  0.12110702642E+03  0.30114084628E+04  0.30089722528E+04 0.  0.
        5    1    3    3  502    0  0.71241432708E+03  0.11168473648E+04 -0.65316777071E+03  0.14770011633E+04  0.46999998093E+01 0. -1.
       -5    1    3    3    0  502 -0.71241432708E+03 -0.11168473648E+04  0.77427479713E+03  0.15344072996E+04  0.46999998093E+01 0.  1.
</event>
<event>
 5   0  0.5874741E-07  0.2999248E+04  0.7818609E-02  0.8243946E-01
        1   -1    0    0  501    0  0.00000000000E+00  0.00000000000E+00  0.24574357883E+04  0.24574357883E+04  0.50400001928E-02 0.  1.
       -1   -1    0    0    0  501  0.00000000000E+00  0.00000000000E+00 -0.91512954788E+03  0.91512954789E+03  0.50400001928E-02 0. -1.
    10030    2    1    2    0    0  0.00000000000E+00  0.00000000000E+00  0.15423062404E+04  0.33725653362E+04  0.29992479737E+04 0.  0.
        4    1    3    3  502    0 -0.19906221932E+03 -0.89400843918E+03 -0.56407839246E+03  0.10756685838E+04  0.12699999809E+01 0. -1.
       -4    1    3    3    0  502  0.19906221932E+03  0.89400843918E+03  0.21063846329E+04  0.22968967523E+04  0.12699999809E+01 0.  1.
</event>
<event>
 5   0  0.5916703E-07  0.3121078E+04  0.7818609E-02  0.8209977E-01
        1   -1    0    0  501    0  0.00000000000E+00  0.00000000000E+00  0.16548803840E+04  0.16548803840E+04  0.50400001928E-02 0.  1.
       -1   -1    0    0    0  501  0.00000000000E+00  0.00000000000E+00 -0.14715755442E+04  0.14715755442E+04  0.50400001928E-02 0. -1.
    10030    2    1    2    0    0  0.00000000000E+00  0.00000000000E+00  0.18330483976E+03  0.31264559282E+04  0.31210776996E+04 0.  0.
        5    1    3    3  502    0 -0.78505317002E+03  0.98060971249E+03 -0.83587809325E+03  0.15088466339E+04  0.46999998093E+01 0. -1.
       -5    1    3    3    0  502  0.78505317002E+03 -0.98060971249E+03  0.10191829330E+04  0.16176092943E+04  0.46999998093E+01 0.  1.
</event>
<event>
 5   0  0.5887179E-07  0.2993640E+04  0.7818609E-02  0.8245549E-01
       -1   -1    0    0    0  501  0.00000000000E+00  0.00000000000E+00  0.24999901055E+04  0.24999901055E+04  0.50400001928E-02 0.  1.
        1   -1    0    0  501    0  0.00000000000E+00  0.00000000000E+00 -0.89619187244E+03  0.89619187245E+03  0.50400001928E-02 0. -1.
    10030    2    1    2    0    0  0.00000000000E+00  0.00000000000E+00  0.16037982330E+04  0.33961819779E+04  0.29936404685E+04 0.  0.
        3    1    3    3  502    0 -0.95197412641E+03  0.54000397130E+03 -0.35648508318E+03  0.11510606635E+04  0.10100000352E+00 0. -1.
       -3    1    3    3    0  502  0.95197412641E+03 -0.54000397130E+03  0.19602833162E+04  0.22451213144E+04  0.10100000352E+00 0.  1.
</event>
<event>
 5   0  0.5887179E-07  0.2996653E+04  0.7818609E-02  0.8244687E-01
       -1   -1    0    0    0  501  0.00000000000E+00  0.00000000000E+00  0.10016423847E+04  0.10016423847E+04  0.50400001928E-02 0. -1.
        1   -1    0    0  501    0  0.00000000000E+00  0.00000000000E+00 -0.22413012122E+04  0.22413012122E+04  0.50400001928E-02 0.  1.
    10030    2    1    2    0    0  0.00000000000E+00  0.00000000000E+00 -0.12396588275E+04  0.32429435969E+04  0.29966529936E+04 0.  0.
        3    1    3    3  502    0  0.49192899483E+03  0.19853217283E+03  0.89661494233E+03  0.10417905378E+04  0.10100000352E+00 0. -1.
       -3    1    3    3    0  502 -0.49192899483E+03 -0.19853217283E+03 -0.21362737699E+04  0.22011530591E+04  0.10100000352E+00 0.  1.
</event>
<event>
 5   0  0.1625212E-06  0.2995468E+04  0.7818609E-02  0.8245026E-01
        2   -1    0    0  501    0  0.00000000000E+00  0.00000000000E+00  0.13797526213E+04  0.13797526213E+04  0.25500000920E-02 0.  1.
       -2   -1    0    0    0  501  0.00000000000E+00  0.00000000000E+00 -0.16258039397E+04  0.16258039397E+04  0.25500000920E-02 0. -1.
    10030    2    1    2    0    0  0.00000000000E+00  0.00000000000E+00 -0.24605131843E+03  0.30055565610E+04  0.29954680753E+04 0.  0.
        4    1    3    3  502    0 -0.68713391593E+03  0.53286167222E+03 -0.13466043668E+04  0.16029471338E+04  0.12699999809E+01 0. -1.
       -4    1    3    3    0  502  0.68713391593E+03 -0.53286167222E+03  0.11005530483E+04  0.14026094272E+04  0.12699999809E+01 0.  1.
</event>
<event>
 5   0  0.1674806E-06  0.2998800E+04  0.7818609E-02  0.8244074E-01
        2   -1    0    0  501    0  0.00000000000E+00  0.00000000000E+00  0.15952056648E+04  0.15952056648E+04  0.25500000920E-02 0. -1.
       -2   -1    0    0    0  501  0.00000000000E+00  0.00000000000E+00 -0.14093479450E+04  0.14093479450E+04  0.25500000920E-02 0.  1.
    10030    2    1    2    0    0  0.00000000000E+00  0.00000000000E+00  0.18585771971E+03  0.30045536098E+04  0.29987996436E+04 0.  0.
        2    1    3    3  502    0 -0.72078953910E+03  0.12935050257E+04  0.32898018414E+03  0.15168786282E+04  0.25500000920E-02 0.  1.
       -2    1    3    3    0  502  0.72078953910E+03 -0.12935050257E+04 -0.14312246442E+03  0.14876749816E+04  0.25500000920E-02 0. -1.
</event>
<event>
 5   0  0.5887179E-07  0.3000874E+04  0.7818609E-02  0.8243481E-01
       -1   -1    0    0    0  501  0.00000000000E+00  0.00000000000E+00  0.87261960718E+03  0.87261960719E+03  0.50400001928E-02 0. -1.
        1   -1    0    0  501    0  0.00000000000E+00  0.00000000000E+00 -0.25799448814E+04  0.25799448814E+04  0.50400001928E-02 0.  1.
    10030    2    1    2    0    0  0.00000000000E+00  0.00000000000E+00 -0.17073252742E+04  0.34525644886E+04  0.30008735321E+04 0.  0.
        3    1    3    3  502    0  0.65488018184E+03 -0.12833240812E+04 -0.37164875061E+03  0.14879218911E+04  0.10100000352E+00 0.  1.
       -3    1    3    3    0  502 -0.65488018184E+03  0.12833240812E+04 -0.13356765236E+04  0.19646425975E+04  0.10100000352E+00 0. -1.
</event>
<event>
 5   0  0.1635086E-06  0.2998907E+04  0.7818609E-02  0.8244043E-01
       -2   -1    0    0    0  501  0.00000000000E+00  0.00000000000E+00  0.93784349409E+03  0.93784349410E+03  0.25500000920E-02 0.  1.
        2   -1    0    0  501    0  0.00000000000E+00  0.00000000000E+00 -0.23973723539E+04  0.23973723539E+04  0.25500000920E-02 0. -1.
    10030    2    1    2    0    0  0.00000000000E+00  0.00000000000E+00 -0.14595288598E+04  0.33352158480E+04  0.29989065107E+04 0.  0.
        3    1    3    3  502    0  0.76986086615E+03 -0.78262670249E+03  0.40613141344E+03  0.11705268232E+04  0.10100000352E+00 0. -1.
       -3    1    3    3    0  502 -0.76986086615E+03  0.78262670249E+03 -0.18656602733E+04  0.21646890248E+04  0.10100000352E+00 0.  1.
</event>
<event>
 5   0  0.6291798E-07  0.3050034E+04  0.7818609E-02  0.8229586E-01
        1   -1    0    0  501    0  0.00000000000E+00  0.00000000000E+00  0.12516184764E+04  0.12516184764E+04  0.50400001928E-02 0. -1.
       -1   -1    0    0    0  501  0.00000000000E+00  0.00000000000E+00 -0.18581356166E+04  0.18581356166E+04  0.50400001928E-02 0.  1.
    10030    2    1    2    0    0  0.00000000000E+00  0.00000000000E+00 -0.60651714025E+03  0.31097540930E+04  0.30500340125E+04 0.  0.
        1    1    3    3  502    0  0.71255038741E+03 -0.88417283291E+03 -0.13411226482E+04  0.17572989531E+04  0.50400001928E-02 0.  1.
       -1    1    3    3    0  502 -0.71255038741E+03  0.88417283291E+03  0.73460550799E+03  0.13524551399E+04  0.50400001928E-02 0. -1.
</event>
<event>
 5   0  0.5874741E-07  0.2967391E+04  0.7818609E-02  0.8253104E-01
       -1   -1    0    0    0  501  0.00000000000E+00  0.00000000000E+00  0.10181385335E+04  0.10181385335E+04  0.50400001928E-02 0. -1.
        1   -1    0    0  501    0  0.00000000000E+00  0.00000000000E+00 -0.21621337517E+04  0.21621337517E+04  0.50400001928E-02 0.  1.
    10030    2    1    2    0    0  0.00000000000E+00  0.00000000000E+00 -0.11439952182E+04  0.31802722852E+04  0.29673905622E+04 0.  0.
        4    1    3    3  502    0 -0.10526381295E+04  0.34183786770E+03 -0.16310430121E+04  0.19710918496E+04  0.12699999809E+01 0. -1.
       -4    1    3    3    0  502  0.10526381295E+04 -0.34183786770E+03  0.48704779389E+03  0.12091804356E+04  0.12699999809E+01 0.  1.
</event>
<event>
 5   0  0.5916703E-07  0.3096000E+04  0.7818609E-02  0.8216836E-01
        1   -1    0    0  501    0  0.00000000000E+00  0.00000000000E+00  0.31858404804E+04  0.31858404804E+04  0.50400001928E-02 0. -1.
       -1   -1    0    0    0  501  0.00000000000E+00  0.00000000000E+00 -0.75217337528E+03  0.75217337530E+03  0.50400001928E-02 0.  1.
    10030    2    1    2    0    0  0.00000000000E+00  0.00000000000E+00  0.24336671051E+04  0.39380138557E+04  0.30960002502E+04 0.  0.
        5    1    3    3  502    0  0.12094462428E+03 -0.33044198692E+03 -0.70061907423E+03  0.78403360007E+03  0.46999998093E+01 0.  1.
       -5    1    3    3    0  502 -0.12094462428E+03  0.33044198692E+03  0.31342861793E+04  0.31539802556E+04  0.46999998093E+01 0. -1.
</event>
<event>
 5   0  0.1635086E-06  0.2987215E+04  0.7818609E-02  0.8247391E-01
       -2   -1    0    0    0  501  0.00000000000E+00  0.00000000000E+00  0.98773708787E+03  0.98773708787E+03  0.25500000920E-02 0. -1.
        2   -1    0    0  501    0  0.00000000000E+00  0.00000000000E+00 -0.22585606382E+04  0.22585606382E+04  0.25500000920E-02 0.  1.
    10030    2    1    2    0    0  0.00000000000E+00  0.00000000000E+00 -0.12708235504E+04  0.32462977261E+04  0.29872154978E+04 0.  0.
        3    1    3    3  502    0  0.20467947826E+03  0.80802242294E+03  0.71146331791E+03  0.10958895874E+04  0.10100000352E+00 0. -1.
       -3    1    3    3    0  502 -0.20467947826E+03 -0.80802242294E+03 -0.19822868683E+04  0.21504081387E+04  0.10100000352E+00 0.  1.
</event>
<event>
 5   0  0.6291798E-07  0.3001351E+04  0.7818609E-02  0.8243345E-01
        1   -1    0    0  501    0  0.00000000000E+00  0.00000000000E+00  0.29717826924E+04  0.29717826924E+04  0.50400001928E-02 0. -1.
       -1   -1    0    0    0  501  0.00000000000E+00  0.00000000000E+00 -0.75780316397E+03  0.75780316399E+03  0.50400001928E-02 0.  1.
    10030    2    1    2    0    0  0.00000000000E+00  0.00000000000E+00  0.22139795284E+04  0.37295858564E+04  0.30013505806E+04 0.  0.
        1    1    3    3  502    0 -0.18047329546E+03  0.85451138216E+03 -0.40946696059E+03  0.96458462793E+03  0.50400001928E-02 0.  1.
       -1    1    3    3    0  502  0.18047329546E+03 -0.85451138216E+03  0.26234464890E+04  0.27650012285E+04  0.50400001928E-02 0. -1.
</event>
<event>
 5   0  0.1723916E-06  0.2987233E+04  0.7818609E-02  0.8247386E-01
        2   -1    0    0  501    0  0.00000000000E+00  0.00000000000E+00  0.22091067840E+04  0.22091067840E+04  0.25500000920E-02 0.  1.
       -2   -1    0    0    0  501  0.00000000000E+00  0.00000000000E+00 -0.10098608374E+04  0.10098608374E+04  0.25500000920E-02 0. -1.
    10030    2    1    2    0    0  0.00000000000E+00  0.00000000000E+00  0.11992459466E+04  0.32189676214E+04  0.29872331190E+04 0.  0.
        1    1    3    3  502    0  0.96649910430E+03  0.10556121199E+04  0.10599038695E+04  0.17809642554E+04  0.50400001928E-02 0. -1.
       -1    1    3    3    0  502 -0.96649910430E+03 -0.10556121199E+04  0.13934207708E+03  0.14380033660E+04  0.50400001928E-02 0.  1.
</event>
<event>
 5   0  0.5874741E-07  0.2998255E+04  0.7818609E-02  0.8244229E-01
        1   -1    0    0  501    0  0.00000000000E+00  0.00000000000E+00  0.18498220200E+04  0.18498220200E+04  0.50400001928E-02 0. -1.
       -1   -1    0    0    0  501  0.00000000000E+00  0.00000000000E+00 -0.12149187503E+04  0.12149187503E+04  0.50400001928E-02 0.  1.
    10030    2    1    2    0    0  0.00000000000E+00  0.00000000000E+00  0.63490326967E+03  0.30647407703E+04  0.29982551305E+04 0.  0.
        4    1    3    3  502    0  0.67495366250E+03 -0.12897332410E+04  0.68373775737E+03  0.16082516013E+04  0.12699999809E+01 0.  1.
       -4    1    3    3    0  502 -0.67495366250E+03  0.12897332410E+04 -0.48834487695E+02  0.14564891690E+04  0.12699999809E+01 0. -1.
</event>
<event>
 5   0  0.5916703E-07  0.3001817E+04  0.7818609E-02  0.8243212E-01
       -1   -1    0    0    0  501  0.00000000000E+00  0.00000000000E+00  0.10106410837E+04  0.10106410837E+04  0.50400001928E-02 0. -1.
        1   -1    0    0  501    0  0.00000000000E+00  0.00000000000E+00 -0.22290075594E+04  0.22290075594E+04  0.50400001928E-02 0.  1.
    10030    2    1    2    0    0  0.00000000000E+00  0.00000000000E+00 -0.12183664757E+04  0.32396486431E+04  0.30018171932E+04 0.  0.
        5    1    3    3  502    0 -0.11148259323E+04  0.79104377198E+03 -0.12780593256E+04  0.18713751196E+04  0.46999998093E+01 0.  1.
       -5    1    3    3    0  502  0.11148259323E+04 -0.79104377198E+03  0.59692849902E+02  0.13682735234E+04  0.46999998093E+01 0. -1.
</event>
<event>
 5   0  0.5931588E-07  0.2978837E+04  0.7818609E-02  0.8249800E-01
        1   -1    0    0  501    0  0.00000000000E+00  0.00000000000E+00  0.19401820168E+04  0.19401820168E+04  0.50400001928E-02 0. -1.
       -1   -1    0    0    0  501  0.00000000000E+00  0.00000000000E+00 -0.11433812425E+04  0.11433812425E+04  0.50400001928E-02 0.  1.
    10030    2    1    2    0    0  0.00000000000E+00  0.00000000000E+00  0.79680077428E+03  0.30835632593E+04  0.29788371725E+04 0.  0.
        2    1    3    3  502    0  0.49305719926E+03  0.67312076901E+02  0.18515817411E+04  0.19172874749E+04  0.25500000920E-02 0. -1.
       -2    1    3    3    0  502 -0.49305719926E+03 -0.67312076901E+02 -0.10547809668E+04  0.11662757844E+04  0.25500000920E-02 0.  1.
</event>
<event>
 5   0  0.5874741E-07  0.2947874E+04  0.7818609E-02  0.8258774E-01
        1   -1    0    0  501    0  0.00000000000E+00  0.00000000000E+00  0.24470632562E+04  0.24470632562E+04  0.50400001928E-02 0. -1.
       -1   -1    0    0    0  501  0.00000000000E+00  0.00000000000E+00 -0.88779473117E+03  0.88779473118E+03  0.50400001928E-02 0.  1.
    10030    2    1    2    0    0  0.00000000000E+00  0.00000000000E+00  0.15592685250E+04  0.33348579874E+04  0.29478737190E+04 0.  0.
        4    1    3    3  502    0  0.72376849154E+03 -0.73332983157E+03 -0.41270823437E+03  0.11099293540E+04  0.12699999809E+01 0.  1.
       -4    1    3    3    0  502 -0.72376849154E+03  0.73332983157E+03  0.19719767594E+04  0.22249286334E+04  0.12699999809E+01 0. -1.
</event>
<event>
 5   0  0.5916703E-07  0.2998567E+04  0.7818609E-02  0.8244140E-01
        1   -1    0    0  501    0  0.00000000000E+00  0.00000000000E+00  0.10131039634E+04  0.10131039634E+04  0.50400001928E-02 0.  1.
       -1   -1    0    0    0  501  0.00000000000E+00  0.00000000000E+00 -0.22187761830E+04  0.22187761830E+04  0.50400001928E-02 0. -1.
    10030    2    1    2    0    0  0.00000000000E+00  0.00000000000E+00 -0.12056722195E+04  0.32318801464E+04  0.29985669543E+04 0.  0.
        5    1    3    3  502    0  0.92699592604E+02  0.84536181323E+02  0.10074286049E+04  0.10152211899E+04  0.46999998093E+01 0.  1.
       -5    1    3    3    0  502 -0.92699592604E+02 -0.84536181323E+02 -0.22131008244E+04  0.22166589565E+04  0.46999998093E+01 0. -1.
</event>
<event>
 5   0  0.1674806E-06  0.3005110E+04  0.7818609E-02  0.8242273E-01
        2   -1    0    0  501    0  0.00000000000E+00  0.00000000000E+00  0.25577827937E+04  0.25577827937E+04  0.25500000920E-02 0.  1.
       -2   -1    0    0    0  501  0.00000000000E+00  0.00000000000E+00 -0.88266723930E+03  0.88266723931E+03  0.25500000920E-02 0. -1.
    10030    2    1    2    0    0  0.00000000000E+00  0.00000000000E+00  0.16751155544E+04  0.34404500330E+04  0.30051097000E+04 0.  0.
        2    1    3    3  502    0  0.69230259330E+03  0.12315726272E+04  0.25197545804E+03  0.14351117197E+04  0.25500000920E-02 0.  1.
       -2    1    3    3    0  502 -0.69230259330E+03 -0.12315726272E+04  0.14231400963E+04  0.20053383132E+04  0.25500000920E-02 0. -1.
</event>
<event>
 5   0  0.6291798E-07  0.3004938E+04  0.7818609E-02  0.8242322E-01
        1   -1    0    0  501    0  0.00000000000E+00  0.00000000000E+00  0.14333968573E+04  0.14333968574E+04  0.50400001928E-02 0. -1.
       -1   -1    0    0    0  501  0.00000000000E+00  0.00000000000E+00 -0.15748697063E+04  0.15748697064E+04  0.50400001928E-02 0.  1.
    10030    2    1    2    0    0  0.00000000000E+00  0.00000000000E+00 -0.14147284900E+03  0.30082665637E+04  0.30049381277E+04 0.  0.
        1    1    3    3  502    0 -0.14551861765E+04 -0.37007807472E+03 -0.16930280968E+02  0.15016028849E+04  0.50400001928E-02 0. -1.
       -1    1    3    3    0  502  0.14551861765E+04  0.37007807472E+03 -0.12454256803E+03  0.15066636788E+04  0.50400001928E-02 0.  1.
</event>
<event>
 5   0  0.6291798E-07  0.3000902E+04  0.7818609E-02  0.8243473E-01
       -1   -1    0    0    0  501  0.00000000000E+00  0.00000000000E+00  0.16848613801E+04  0.16848613801E+04  0.50400001928E-02 0. -1.
        1   -1    0    0  501    0  0.00000000000E+00  0.00000000000E+00 -0.13362242603E+04  0.13362242603E+04  0.50400001928E-02 0.  1.
    10030    2    1    2    0    0  0.00000000000E+00  0.00000000000E+00  0.34863711982E+03  0.30210856404E+04  0.30009016320E+04 0.  0.
        1    1    3    3  502    0  0.11877694598E+04  0.91679635136E+03  0.18074994328E+03  0.15112850100E+04  0.50400001928E-02 0. -1.
       -1    1    3    3    0  502 -0.11877694598E+04 -0.91679635136E+03  0.16788717653E+03  0.15098006304E+04  0.50400001928E-02 0.  1.
</event>
<event>
 5   0  0.6291798E-07  0.3005832E+04  0.7818609E-02  0.8242068E-01
        1   -1    0    0  501    0  0.00000000000E+00  0.00000000000E+00  0.23158020799E+04  0.23158020799E+04  0.50400001928E-02 0.  1.
       -1   -1    0    0    0  501  0.00000000000E+00  0.00000000000E+00 -0.97536666842E+03  0.97536666843E+03  0.50400001928E-02 0. -1.
    10030    2    1    2    0    0  0.00000000000E+00  0.00000000000E+00  0.13404354115E+04  0.32911687484E+04  0.30058317714E+04 0.  0.
        1    1    3    3  502    0 -0.11855755978E+04  0.52464647710E+03  0.15025880763E+04  0.19845942535E+04  0.50400001928E-02 0.  1.
       -1    1    3    3    0  502  0.11855755978E+04 -0.52464647710E+03 -0.16215266475E+03  0.13065744949E+04  0.50400001928E-02 0. -1.
</event>
<event>
 5   0  0.1625212E-06  0.3000560E+04  0.7818609E-02  0.8243571E-01
        2   -1    0    0  501    0  0.00000000000E+00  0.00000000000E+00  0.93014594250E+03  0.93014594251E+03  0.25500000920E-02 0. -1.
       -2   -1    0    0    0  501  0.00000000000E+00  0.00000000000E+00 -0.24198786532E+04  0.24198786532E+04  0.25500000920E-02 0.  1.
    10030    2    1    2    0    0  0.00000000000E+00  0.00000000000E+00 -0.14897327107E+04  0.33500245957E+04  0.30005601548E+04 0.  0.
        4    1    3    3  502    0  0.11679294736E+04 -0.47679811905E+03 -0.16515051278E+04  0.20781882739E+04  0.12699999809E+01 0. -1.
       -4    1    3    3    0  502 -0.11679294736E+04  0.47679811905E+03  0.16177241712E+03  0.12718363218E+04  0.12699999809E+01 0.  1.
</event>
<event>
 5   0  0.5887179E-07  0.2995573E+04  0.7818609E-02  0.8244996E-01
       -1   -1    0    0    0  501  0.00000000000E+00  0.00000000000E+00  0.15273611697E+04  0.15273611697E+04  0.50400001928E-02 0. -1.
        1   -1    0    0  501    0  0.00000000000E+00  0.00000000000E+00 -0.14687849670E+04  0.14687849670E+04  0.50400001928E-02 0.  1.
    10030    2    1    2    0    0  0.00000000000E+00  0.00000000000E+00  0.58576202707E+02  0.29961461366E+04  0.29955734844E+04 0.  0.
        3    1    3    3  502    0  0.83367810382E+03  0.72850889907E+03 -0.97967662774E+03  0.14783472873E+04  0.10100000352E+00 0.  1.
       -3    1    3    3    0  502 -0.83367810382E+03 -0.72850889907E+03  0.10382528304E+04  0.15177988493E+04  0.10100000352E+00 0. -1.
</event>
<event>
 5   0  0.1625212E-06  0.2991799E+04  0.7818609E-02  0.8246076E-01
        2   -1    0    0  501    0  0.00000000000E+00  0.00000000000E+00  0.12925457234E+04  0.12925457234E+04  0.25500000920E-02 0.  1.
       -2   -1    0    0    0  501  0.00000000000E+00  0.00000000000E+00 -0.17312470432E+04  0.17312470432E+04  0.25500000920E-02 0. -1.
    10030    2    1    2    0    0  0.00000000000E+00  0.00000000000E+00 -0.43870131980E+03  0.30237927665E+04  0.29917994329E+04 0.  0.
        4    1    3    3  502    0 -0.39579466838E+03  0.47998742395E+03 -0.15942927060E+04  0.17113772792E+04  0.12699999809E+01 0. -1.
       -4    1    3    3    0  502  0.39579466838E+03 -0.47998742395E+03  0.11555913862E+04  0.13124154873E+04  0.12699999809E+01 0.  1.
</event>
<event>
 5   0  0.1635086E-06  0.3082592E+04  0.7818609E-02  0.8220532E-01
       -2   -1    0    0    0  501  0.00000000000E+00  0.00000000000E+00  0.23164246049E+04  0.23164246049E+04  0.25500000920E-02 0. -1.
        2   -1    0    0  501    0  0.00000000000E+00  0.00000000000E+00 -0.10255431322E+04  0.10255431322E+04  0.25500000920E-02 0.  1.
    10030    2    1    2    0    0  0.00000000000E+00  0.00000000000E+00  0.12908814728E+04  0.33419677371E+04  0.30825919903E+04 0.  0.
        3    1    3    3  502    0  0.10000646008E+04 -0.25262052181E+03  0.18870778702E+04  0.21505834631E+04  0.10100000352E+00 0. -1.
       -3    1    3    3    0  502 -0.10000646008E+04  0.25262052181E+03 -0.59619639739E+03  0.11913842739E+04  0.10100000352E+00 0.  1.
</event>
<event>
 5   0  0.1723916E-06  0.2988864E+04  0.7818609E-02  0.8246918E-01
       -2   -1    0    0    0  501  0.00000000000E+00  0.00000000000E+00  0.10651196499E+04  0.10651196499E+04  0.25500000920E-02 0. -1.
        2   -1    0    0  501    0  0.00000000000E+00  0.00000000000E+00 -0.20967848890E+04  0.20967848890E+04  0.25500000920E-02 0.  1.
    10030    2    1    2    0    0  0.00000000000E+00  0.00000000000E+00 -0.10316652392E+04  0.31619045389E+04  0.29888638556E+04 0.  0.
        1    1    3    3  502    0  0.46428319188E+03  0.91724328986E+03 -0.16632625014E+04  0.19553353379E+04  0.50400001928E-02 0.  1.
       -1    1    3    3    0  502 -0.46428319188E+03 -0.91724328986E+03  0.63159726224E+03  0.12065692010E+04  0.50400001928E-02 0. -1.
</event>
<event>
 5   0  0.1625212E-06  0.3038470E+04  0.7818609E-02  0.8232830E-01
        2   -1    0    0  501    0  0.00000000000E+00  0.00000000000E+00  0.13798319118E+04  0.13798319118E+04  0.25500000920E-02 0.  1.
       -2   -1    0    0    0  501  0.00000000000E+00  0.00000000000E+00 -0.16727215631E+04  0.16727215631E+04  0.25500000920E-02 0. -1.
    10030    2    1    2    0    0  0.00000000000E+00  0.00000000000E+00 -0.29288965128E+03  0.30525534749E+04  0.30384697414E+04 0.  0.
        4    1    3    3  502    0 -0.99992448516E+02  0.13980166730E+04  0.44246666529E+03  0.14697712306E+04  0.12699999809E+01 0.  1.
       -4    1    3    3    0  502  0.99992448516E+02 -0.13980166730E+04 -0.73535631657E+03  0.15827822443E+04  0.12699999809E+01 0. -1.
</event>
<event>
 5   0  0.5887179E-07  0.3005694E+04  0.7818609E-02  0.8242107E-01
       -1   -1    0    0    0  501  0.00000000000E+00  0.00000000000E+00  0.16862621882E+04  0.16862621882E+04  0.50400001928E-02 0. -1.
        1   -1    0    0  501    0  0.00000000000E+00  0.00000000000E+00 -0.13393815004E+04  0.13393815004E+04  0.50400001928E-02 0.  1.
    10030    2    1    2    0    0  0.00000000000E+00  0.00000000000E+00  0.34688068776E+03  0.30256436886E+04  0.30056935171E+04 0.  0.
        3    1    3    3  502    0 -0.11424870515E+03 -0.10408573433E+03  0.16782410518E+04  0.16853425897E+04  0.10100000352E+00 0. -1.
       -3    1    3    3    0  502  0.11424870515E+03  0.10408573433E+03 -0.13313603640E+04  0.13403010989E+04  0.10100000352E+00 0.  1.
</event>
<event>
 5   0  0.1635086E-06  0.3010444E+04  0.7818609E-02  0.8240755E-01
       -2   -1    0    0    0  501  0.00000000000E+00  0.00000000000E+00  0.14188505651E+04  0.14188505651E+04  0.25500000920E-02 0. -1.
        2   -1    0    0  501    0  0.00000000000E+00  0.00000000000E+00 -0.15968514344E+04  0.15968514344E+04  0.25500000920E-02 0.  1.
    10030    2    1    2    0    0  0.00000000000E+00  0.00000000000E+00 -0.17800086924E+03  0.30157019995E+04  0.30104441932E+04 0.  0.
        3    1    3    3  502    0  0.49391160751E+03 -0.74397081875E+03 -0.13028313300E+04  0.15794969895E+04  0.10100000352E+00 0.  1.
       -3    1    3    3    0  502 -0.49391160751E+03  0.74397081875E+03  0.11248304607E+04  0.14362050100E+04  0.10100000352E+00 0. -1.
</event>
<event>
 5   0  0.5887179E-07  0.3011149E+04  0.7818609E-02  0.8240554E-01
       -1   -1    0    0    0  501  0.00000000000E+00  0.00000000000E+00  0.11593947884E+04  0.11593947884E+04  0.50400001928E-02 0.  1.
        1   -1    0    0  501    0  0.00000000000E+00  0.00000000000E+00 -0.19551185877E+04  0.19551185877E+04  0.50400001928E-02 0. -1.
    10030    2    1    2    0    0  0.00000000000E+00  0.00000000000E+00 -0.79572379932E+03  0.31145133761E+04  0.30111488182E+04 0.  0.
        3    1    3    3  502    0  0.95375065154E+03 -0.40445054366E+03 -0.15278538024E+04  0.18459571499E+04  0.10100000352E+00 0. -1.
       -3    1    3    3    0  502 -0.95375065154E+03  0.40445054366E+03  0.73213000307E+03  0.12685562263E+04  0.10100000352E+00 0.  1.
</event>
<event>
 5   0  0.1625212E-06  0.3005921E+04  0.7818609E-02  0.8242042E-01
       -2   -1    0    0    0  501  0.00000000000E+00  0.00000000000E+00  0.10106347241E+04  0.10106347241E+04  0.25500000920E-02 0.  1.
        2   -1    0    0  501    0  0.00000000000E+00  0.00000000000E+00 -0.22351204699E+04  0.22351204699E+04  0.25500000920E-02 0. -1.
    10030    2    1    2    0    0  0.00000000000E+00  0.00000000000E+00 -0.12244857459E+04  0.32457551940E+04  0.30059210631E+04 0.  0.
        4    1    3    3  502    0  0.51937559318E+03 -0.12984875403E+04 -0.17802741777E+02  0.13986205524E+04  0.12699999809E+01 0. -1.
       -4    1    3    3    0  502 -0.51937559318E+03  0.12984875403E+04 -0.12066830041E+04  0.18471346416E+04  0.12699999809E+01 0.  1.
</event>
<event>
 5   0  0.1674806E-06  0.2992349E+04  0.7818609E-02  0.8245919E-01
        2   -1    0    0  501    0  0.00000000000E+00  0.00000000000E+00  0.12759252616E+04  0.12759252616E+04  0.25500000920E-02 0. -1.
       -2   -1    0    0    0  501  0.00000000000E+00  0.00000000000E+00 -0.17544432937E+04  0.17544432937E+04  0.25500000920E-02 0.  1.
    10030    2    1    2    0    0  0.00000000000E+00  0.00000000000E+00 -0.47851803204E+03  0.30303685553E+04  0.29923492567E+04 0.  0.
        2    1    3    3  502    0 -0.98584545062E+03  0.38680298410E+02 -0.13783393874E+04  0.16950536525E+04  0.25500000920E-02 0.  1.
       -2    1    3    3    0  502  0.98584545062E+03 -0.38680298410E+02  0.89982135539E+03  0.13353149028E+04  0.25500000920E-02 0. -1.
</event>
<event>
 5   0  0.1723916E-06  0.2959432E+04  0.7818609E-02  0.8255411E-01
        2   -1    0    0  501    0  0.00000000000E+00  0.00000000000E+00  0.13592140568E+04  0.13592140568E+04  0.25500000920E-02 0. -1.
       -2   -1    0    0    0  501  0.00000000000E+00  0.00000000000E+00 -0.16109010827E+04  0.16109010827E+04  0.25500000920E-02 0.  1.
    10030    2    1    2    0    0  0.00000000000E+00  0.00000000000E+00 -0.25168702586E+03  0.29701151395E+04  0.29594319696E+04 0.  0.
        1    1    3    3  502    0 -0.12534629169E+04 -0.25629768353E+03  0.62027924850E+03  0.14218312603E+04  0.50400001928E-02 0. -1.
       -1    1    3    3    0  502  0.12534629169E+04  0.25629768353E+03 -0.87196627436E+03  0.15482838791E+04  0.50400001928E-02 0.  1.
</event>
<event>
 5   0  0.1635086E-06  0.2900688E+04  0.7818609E-02  0.8272673E-01
       -2   -1    0    0    0  501  0.00000000000E+00  0.00000000000E+00  0.10686916529E+04  0.10686916529E+04  0.25500000920E-02 0. -1.
        2   -1    0    0  501    0  0.00000000000E+00  0.00000000000E+00 -0.19682927329E+04  0.19682927329E+04  0.25500000920E-02 0.  1.
    10030    2    1    2    0    0  0.00000000000E+00  0.00000000000E+00 -0.89960107995E+03  0.30369843858E+04  0.29006882040E+04 0.  0.
        3    1    3    3  502    0 -0.63075460544E+03  0.91548856467E+03  0.52537565310E+03  0.12296301360E+04  0.10100000352E+00 0. -1.
       -3    1    3    3    0  502  0.63075460544E+03 -0.91548856467E+03 -0.14249767331E+04  0.18073542498E+04  0.10100000352E+00 0.  1.
</event>
<event>
 5   0  0.1674806E-06  0.2997882E+04  0.7818609E-02  0.8244336E-01
        2   -1    0    0  501    0  0.00000000000E+00  0.00000000000E+00  0.18051308536E+04  0.18051308536E+04  0.25500000920E-02 0. -1.
       -2   -1    0    0    0  501  0.00000000000E+00  0.00000000000E+00 -0.12446875074E+04  0.12446875074E+04  0.25500000920E-02 0.  1.
    10030    2    1    2    0    0  0.00000000000E+00  0.00000000000E+00  0.56044334626E+03  0.30498183610E+04  0.29978818006E+04 0.  0.
        2    1    3    3  502    0 -0.73549908726E+03 -0.10154541125E+04 -0.55542092827E+03  0.13713491056E+04  0.25500000920E-02 0.  1.
       -2    1    3    3    0  502  0.73549908726E+03  0.10154541125E+04  0.11158642745E+04  0.16784692553E+04  0.25500000920E-02 0. -1.
</event>
<event>
 5   0  0.5931588E-07  0.2928873E+04  0.7818609E-02  0.8264338E-01
       -1   -1    0    0    0  501  0.00000000000E+00  0.00000000000E+00  0.12101591154E+04  0.12101591154E+04  0.50400001928E-02 0.  1.
        1   -1    0    0  501    0  0.00000000000E+00  0.00000000000E+00 -0.17721425329E+04  0.17721425329E+04  0.50400001928E-02 0. -1.
    10030    2    1    2    0    0  0.00000000000E+00  0.00000000000E+00 -0.56198341754E+03  0.29823016483E+04  0.29288731212E+04 0.  0.
        2    1    3    3  502    0  0.12260574945E+04 -0.77870847942E+03 -0.47140722317E+03  0.15270326276E+04  0.25500000920E-02 0.  1.
       -2    1    3    3    0  502 -0.12260574945E+04  0.77870847942E+03 -0.90576194365E+02  0.14552690207E+04  0.25500000920E-02 0. -1.
</event>
<event>
 5   0  0.5931588E-07  0.2996058E+04  0.7818609E-02  0.8244857E-01
        1   -1    0    0  501    0  0.00000000000E+00  0.00000000000E+00  0.18178674381E+04  0.18178674381E+04  0.50400001928E-02 0.  1.
       -1   -1    0    0    0  501  0.00000000000E+00  0.00000000000E+00 -0.12344634327E+04  0.12344634327E+04  0.50400001928E-02 0. -1.
    10030    2    1    2    0    0  0.00000000000E+00  0.00000000000E+00  0.58340400539E+03  0.30523308708E+04  0.29960579953E+04 0.  0.
        2    1    3    3  502    0 -0.74957384486E+03  0.73397978985E+02 -0.10275493588E+04  0.12740117335E+04  0.25500000920E-02 0. -1.
       -2    1    3    3    0  502  0.74957384486E+03 -0.73397978985E+02  0.16109533642E+04  0.17783191373E+04  0.25500000920E-02 0.  1.
</event>
<event>
 5   0  0.5874741E-07  0.2999041E+04  0.7818609E-02  0.8244005E-01
       -1   -1    0    0    0  501  0.00000000000E+00  0.00000000000E+00  0.11632653542E+04  0.11632653542E+04  0.50400001928E-02 0.  1.
        1   -1    0    0  501    0  0.00000000000E+00  0.00000000000E+00 -0.19329742851E+04  0.19329742851E+04  0.50400001928E-02 0. -1.
    10030    2    1    2    0    0  0.00000000000E+00  0.00000000000E+00 -0.76970893093E+03  0.30962396393E+04  0.29990411911E+04 0.  0.
        4    1    3    3  502    0  0.93767690561E+03 -0.11666525312E+04 -0.29111360911E+03  0.15248163345E+04  0.12699999809E+01 0. -1.
       -4    1    3    3    0  502 -0.93767690561E+03  0.11666525312E+04 -0.47859532182E+03  0.15714233048E+04  0.12699999809E+01 0.  1.
</event>
<event>
 5   0  0.5916703E-07  0.3022206E+04  0.7818609E-02  0.8237418E-01
       -1   -1    0    0    0  501  0.00000000000E+00  0.00000000000E+00  0.14806499463E+04  0.14806499463E+04  0.50400001928E-02 0. -1.
        1   -1    0    0  501    0  0.00000000000E+00  0.00000000000E+00 -0.15421822250E+04  0.15421822250E+04  0.50400001928E-02 0.  1.
    10030    2    1    2    0    0  0.00000000000E+00  0.00000000000E+00 -0.61532278691E+02  0.30228321713E+04  0.30222058359E+04 0.  0.
        5    1    3    3  502    0  0.28076532357E+03  0.62102279438E+03  0.13181836215E+04  0.14839570843E+04  0.46999998093E+01 0. -1.
       -5    1    3    3    0  502 -0.28076532357E+03 -0.62102279438E+03 -0.13797159002E+04  0.15388750870E+04  0.46999998093E+01 0.  1.
</event>
<event>
 5   0  0.5916703E-07  0.2998782E+04  0.7818609E-02  0.8244079E-01
       -1   -1    0    0    0  501  0.00000000000E+00  0.00000000000E+00  0.11118707240E+04  0.11118707240E+04  0.50400001928E-02 0.  1.
        1   -1    0    0  501    0  0.00000000000E+00  0.00000000000E+00 -0.20219739605E+04  0.20219739605E+04  0.50400001928E-02 0. -1.
    10030    2    1    2    0    0  0.00000000000E+00  0.00000000000E+00 -0.91010323646E+03  0.31338446845E+04  0.29987821870E+04 0.  0.
        5    1    3    3  502    0 -0.10304231232E+04  0.43557146940E+03 -0.14983426160E+04  0.18699056133E+04  0.46999998093E+01 0. -1.
       -5    1    3    3    0  502  0.10304231232E+04 -0.43557146940E+03  0.58823937957E+03  0.12639390711E+04  0.46999998093E+01 0.  1.
</event>
<event>
 5   0  0.1635086E-06  0.2986319E+04  0.7818609E-02  0.8247648E-01
        2   -1    0    0  501    0  0.00000000000E+00  0.00000000000E+00  0.16860485641E+04  0.16860485641E+04  0.25500000920E-02 0.  1.
       -2   -1    0    0    0  501  0.00000000000E+00  0.00000000000E+00 -0.13223377059E+04  0.13223377059E+04  0.25500000920E-02 0. -1.
    10030    2    1    2    0    0  0.00000000000E+00  0.00000000000E+00  0.36371085821E+03  0.30083862700E+04  0.29863191995E+04 0.  0.
        3    1    3    3  502    0  0.41802245183E+03  0.58874380769E+03  0.14984804232E+04  0.16633717655E+04  0.10100000352E+00 0.  1.
       -3    1    3    3    0  502 -0.41802245183E+03 -0.58874380769E+03 -0.11347695650E+04  0.13450145045E+04  0.10100000352E+00 0. -1.
</event>
<event>
 5   0  0.1635086E-06  0.2999631E+04  0.7818609E-02  0.8243836E-01
       -2   -1    0    0    0  501  0.00000000000E+00  0.00000000000E+00  0.21448027705E+04  0.21448027705E+04  0.25500000920E-02 0.  1.
        2   -1    0    0  501    0  0.00000000000E+00  0.00000000000E+00 -0.10487891092E+04  0.10487891092E+04  0.25500000920E-02 0. -1.
    10030    2    1    2    0    0  0.00000000000E+00  0.00000000000E+00  0.10960136613E+04  0.31935918797E+04  0.29996305020E+04 0.  0.
        3    1    3    3  502    0  0.43288308597E+03 -0.94940825587E+03  0.16950196564E+04  0.19904410185E+04  0.10100000352E+00 0.  1.
       -3    1    3    3    0  502 -0.43288308597E+03  0.94940825587E+03 -0.59900599511E+03  0.12031508612E+04  0.10100000352E+00 0. -1.
</event>
<event>
 5   0  0.5916703E-07  0.3010667E+04  0.7818609E-02  0.8240691E-01
        1   -1    0    0  501    0  0.00000000000E+00  0.00000000000E+00  0.18769124528E+04  0.18769124528E+04  0.50400001928E-02 0. -1.
       -1   -1    0    0    0  501  0.00000000000E+00  0.00000000000E+00 -0.12073172977E+04  0.12073172977E+04  0.50400001928E-02 0.  1.
    10030    2    1    2    0    0  0.00000000000E+00  0.00000000000E+00  0.66959515509E+03  0.30842297505E+04  0.30106669497E+04 0.  0.
        5    1    3    3  502    0  0.52398858938E+02  0.59985423594E+03  0.17481587314E+04  0.18489596493E+04  0.46999998093E+01 0. -1.
       -5    1    3    3    0  502 -0.52398858938E+02 -0.59985423594E+03 -0.10785635763E+04  0.12352701012E+04  0.46999998093E+01 0.  1.
</event>
<event>
 5   0  0.1723916E-06  0.2952842E+04  0.7818609E-02  0.8257327E-01
       -2   -1    0    0    0  501  0.00000000000E+00  0.00000000000E+00  0.18797419526E+04  0.18797419526E+04  0.25500000920E-02 0.  1.
        2   -1    0    0  501    0  0.00000000000E+00  0.00000000000E+00 -0.11596371641E+04  0.11596371641E+04  0.25500000920E-02 0. -1.
    10030    2    1    2    0    0  0.00000000000E+00  0.00000000000E+00  0.72010478848E+03  0.30393791167E+04  0.29528417683E+04 0.  0.
        1    1    3    3  502    0 -0.11536770791E+04 -0.91132659256E+03  0.49941481044E+03  0.15527079938E+04  0.50400001928E-02 0. -1.
       -1    1    3    3    0  502  0.11536770791E+04  0.91132659256E+03  0.22068997804E+03  0.14866711229E+04  0.50400001928E-02 0.  1.
</event>
<event>
 5   0  0.5931588E-07  0.3024591E+04  0.7818609E-02  0.8236743E-01
        1   -1    0    0  501    0  0.00000000000E+00  0.00000000000E+00  0.13097186939E+04  0.13097186939E+04  0.50400001928E-02 0.  1.
       -1   -1    0    0    0  501  0.00000000000E+00  0.00000000000E+00 -0.17462057196E+04  0.17462057196E+04  0.50400001928E-02 0. -1.
    10030    2    1    2    0    0  0.00000000000E+00  0.00000000000E+00 -0.43648702567E+03  0.30559244135E+04  0.30245913934E+04 0.  0.
        2    1    3    3  502    0  0.61751887289E+03 -0.86216140795E+03  0.87106565870E+03  0.13723728478E+04  0.25500000920E-02 0.  1.
       -2    1    3    3    0  502 -0.61751887289E+03  0.86216140795E+03 -0.13075526844E+04  0.16835515656E+04  0.25500000920E-02 0. -1.
</event>
<event>
 5   0  0.1635086E-06  0.2995979E+04  0.7818609E-02  0.8244880E-01
       -2   -1    0    0    0  501  0.00000000000E+00  0.00000000000E+00  0.16289881678E+04  0.16289881678E+04  0.25500000920E-02 0.  1.
        2   -1    0    0  501    0  0.00000000000E+00  0.00000000000E+00 -0.13775249763E+04  0.13775249763E+04  0.25500000920E-02 0. -1.
    10030    2    1    2    0    0  0.00000000000E+00  0.00000000000E+00  0.25146319148E+03  0.30065131441E+04  0.29959785628E+04 0.  0.
        3    1    3    3  502    0 -0.37593691447E+03 -0.46032660251E+02  0.15801463151E+04  0.16249030607E+04  0.10100000352E+00 0.  1.
       -3    1    3    3    0  502  0.37593691447E+03  0.46032660251E+02 -0.13286831236E+04  0.13816100834E+04  0.10100000352E+00 0. -1.
</event>
<event>
 5   0  0.1625212E-06  0.3007231E+04  0.7818609E-02  0.8241669E-01
        2   -1    0    0  501    0  0.00000000000E+00  0.00000000000E+00  0.23339360516E+04  0.23339360516E+04  0.25500000920E-02 0.  1.
       -2   -1    0    0    0  501  0.00000000000E+00  0.00000000000E+00 -0.96868970076E+03  0.96868970077E+03  0.25500000920E-02 0. -1.
    10030    2    1    2    0    0  0.00000000000E+00  0.00000000000E+00  0.13652463508E+04  0.33026257524E+04  0.30072311620E+04 0.  0.
        4    1    3    3  502    0 -0.31324010432E+03  0.10275822109E+04  0.18380163594E+04  0.21289317305E+04  0.12699999809E+01 0.  1.
       -4    1    3    3    0  502  0.31324010432E+03 -0.10275822109E+04 -0.47277000854E+03  0.11736940218E+04  0.12699999809E+01 0. -1.
</event>
<event>
 5   0  0.1560174E-06  0.2998784E+04  0.7818609E-02  0.8244078E-01
        2   -1    0    0  501    0  0.00000000000E+00  0.00000000000E+00  0.19273349686E+04  0.19273349686E+04  0.25500000920E-02 0. -1.
       -2   -1    0    0    0  501  0.00000000000E+00  0.00000000000E+00 -0.11664692884E+04  0.11664692884E+04  0.25500000920E-02 0.  1.
    10030    2    1    2    0    0  0.00000000000E+00  0.00000000000E+00  0.76086568016E+03  0.30938042569E+04  0.29987844533E+04 0.  0.
        5    1    3    3  502    0  0.53617920104E+03  0.10239869514E+04 -0.60487737961E+03  0.13045827481E+04  0.46999998093E+01 0.  1.
       -5    1    3    3    0  502 -0.53617920104E+03 -0.10239869514E+04  0.13657430598E+04  0.17892215088E+04  0.46999998093E+01 0. -1.
</event>
<event>
 5   0  0.6291798E-07  0.2883525E+04  0.7818609E-02  0.8277796E-01
       -1   -1    0    0    0  501  0.00000000000E+00  0.00000000000E+00  0.83925411044E+03  0.83925411045E+03  0.50400001928E-02 0.  1.
        1   -1    0    0  501    0  0.00000000000E+00  0.00000000000E+00 -0.24768170460E+04  0.24768170460E+04  0.50400001928E-02 0. -1.
    10030    2    1    2    0    0  0.00000000000E+00  0.00000000000E+00 -0.16375629356E+04  0.33160711565E+04  0.28835248476E+04 0.  0.
        1    1    3    3  502    0  0.71720929578E+03  0.12493505653E+04 -0.75159829459E+03  0.16248587647E+04  0.50400001928E-02 0. -1.
       -1    1    3    3    0  502 -0.71720929578E+03 -0.12493505653E+04 -0.88596464098E+03  0.16912123917E+04  0.50400001928E-02 0.  1.
</event>
<event>
 5   0  0.5887179E-07  0.2998438E+04  0.7818609E-02  0.8244177E-01
       -1   -1    0    0    0  501  0.00000000000E+00  0.00000000000E+00  0.15344246262E+04  0.15344246263E+04  0.50400001928E-02 0. -1.
        1   -1    0    0  501    0  0.00000000000E+00  0.00000000000E+00 -0.14648214567E+04  0.14648214567E+04  0.50400001928E-02 0.  1.
    10030    2    1    2    0    0  0.00000000000E+00  0.00000000000E+00  0.69603169515E+02  0.29992460830E+04  0.29984383377E+04 0.  0.
        3    1    3    3  502    0 -0.84248598871E+03  0.35691545751E+03  0.12227607010E+04  0.15271918763E+04  0.10100000352E+00 0. -1.
       -3    1    3    3    0  502  0.84248598871E+03 -0.35691545751E+03 -0.11531575314E+04  0.14720542067E+04  0.10100000352E+00 0.  1.
</event>
<event>
 5   0  0.5874741E-07  0.3014539E+04  0.7818609E-02  0.8239591E-01
       -1   -1    0    0    0  501  0.00000000000E+00  0.00000000000E+00  0.11925778238E+04  0.11925778238E+04  0.50400001928E-02 0. -1.
        1   -1    0    0  501    0  0.00000000000E+00  0.00000000000E+00 -0.19050008778E+04  0.19050008778E+04  0.50400001928E-02 0.  1.
    10030    2    1    2    0    0  0.00000000000E+00  0.00000000000E+00 -0.71242305403E+03  0.30975787016E+04  0.30145393022E+04 0.  0.
        4    1    3    3  502    0  0.13891520582E+04  0.57083192377E+03 -0.48726965885E+03  0.15789318729E+04  0.12699999809E+01 0. -1.
       -4    1    3    3    0  502 -0.13891520582E+04 -0.57083192377E+03 -0.22515339517E+03  0.15186468287E+04  0.12699999809E+01 0.  1.
</event>
<event>
 5   0  0.5916703E-07  0.2996962E+04  0.7818609E-02  0.8244599E-01
       -1   -1    0    0    0  501  0.00000000000E+00  0.00000000000E+00  0.13671008682E+04  0.13671008682E+04  0.50400001928E-02 0.  1.
        1   -1    0    0  501    0  0.00000000000E+00  0.00000000000E+00 -0.16424864961E+04  0.16424864961E+04  0.50400001928E-02 0. -1.
    10030    2    1    2    0    0  0.00000000000E+00  0.00000000000E+00 -0.27538562789E+03  0.30095873644E+04  0.29969616047E+04 0.  0.
        5    1    3    3  502    0  0.68678046649E+02  0.61818648755E+03  0.12313375043E+04  0.13795235943E+04  0.46999998093E+01 0.  1.
       -5    1    3    3    0  502 -0.68678046649E+02 -0.61818648755E+03 -0.15067231322E+04  0.16300637701E+04  0.46999998093E+01 0. -1.
</event>
<event>
 5   0  0.1635086E-06  0.2997526E+04  0.7818609E-02  0.8244438E-01
        2   -1    0    0  501    0  0.00000000000E+00  0.00000000000E+00  0.17373752808E+04  0.17373752808E+04  0.25500000920E-02 0.  1.
       -2   -1    0    0    0  501  0.00000000000E+00  0.00000000000E+00 -0.12929222477E+04  0.12929222477E+04  0.25500000920E-02 0. -1.
    10030    2    1    2    0    0  0.00000000000E+00  0.00000000000E+00  0.44445303307E+03  0.30302975285E+04  0.29975264157E+04 0.  0.
        3    1    3    3  502    0  0.23383952474E+03  0.14438929542E+04  0.55257630755E+03  0.15636010912E+04  0.10100000352E+00 0.  1.
       -3    1    3    3    0  502 -0.23383952474E+03 -0.14438929542E+04 -0.10812327448E+03  0.14666964373E+04  0.10100000352E+00 0. -1.
</event>
<event>
 5   0  0.5931588E-07  0.2948307E+04  0.7818609E-02  0.8258648E-01
        1   -1    0    0  501    0  0.00000000000E+00  0.00000000000E+00  0.19797566661E+04  0.19797566661E+04  0.50400001928E-02 0. -1.
       -1   -1    0    0    0  501  0.00000000000E+00  0.00000000000E+00 -0.10976746305E+04  0.10976746305E+04  0.50400001928E-02 0.  1.
    10030    2    1    2    0    0  0.00000000000E+00  0.00000000000E+00  0.88208203564E+03  0.30774312966E+04  0.29483070851E+04 0.  0.
        2    1    3    3  502    0  0.70013164977E+03 -0.11306863252E+04  0.11048926599E+04  0.17289949922E+04  0.25500000920E-02 0. -1.
       -2    1    3    3    0  502 -0.70013164977E+03  0.11306863252E+04 -0.22281062431E+03  0.13484363045E+04  0.25500000920E-02 0.  1.
</event>
<event>
 5   0  0.5874741E-07  0.2995761E+04  0.7818609E-02  0.8244942E-01
       -1   -1    0    0    0  501  0.00000000000E+00  0.00000000000E+00  0.26002890305E+04  0.26002890305E+04  0.50400001928E-02 0.  1.
        1   -1    0    0  501    0  0.00000000000E+00  0.00000000000E+00 -0.86284492765E+03  0.86284492766E+03  0.50400001928E-02 0. -1.
    10030    2    1    2    0    0  0.00000000000E+00  0.00000000000E+00  0.17374441029E+04  0.34631339582E+04  0.29957611390E+04 0.  0.
        4    1    3    3  502    0  0.71033439462E+03 -0.51262953742E+03 -0.53585821771E+03  0.10268931966E+04  0.12699999809E+01 0. -1.
       -4    1    3    3    0  502 -0.71033439462E+03  0.51262953742E+03  0.22733023206E+04  0.24362407616E+04  0.12699999809E+01 0.  1.
</event>
<event>
 5   0  0.5887179E-07  0.2972477E+04  0.7818609E-02  0.8251634E-01
        1   -1    0    0  501    0  0.00000000000E+00  0.00000000000E+00  0.11581232181E+04  0.11581232181E+04  0.50400001928E-02 0.  1.
       -1   -1    0    0    0  501  0.00000000000E+00  0.00000000000E+00 -0.19073144883E+04  0.19073144883E+04  0.50400001928E-02 0. -1.
    10030    2    1    2    0    0  0.00000000000E+00  0.00000000000E+00 -0.74919127023E+03  0.30654377064E+04  0.29724772114E+04 0.  0.
        3    1    3    3  502    0  0.13239146364E+04 -0.94592454401E+02 -0.10642452432E+04  0.17012688338E+04  0.10100000352E+00 0. -1.
       -3    1    3    3    0  502 -0.13239146364E+04  0.94592454401E+02  0.31505397300E+03  0.13641688726E+04  0.10100000352E+00 0.  1.
</event>
<event>
 5   0  0.5874741E-07  0.2980232E+04  0.7818609E-02  0.8249398E-01
       -1   -1    0    0    0  501  0.00000000000E+00  0.00000000000E+00  0.12050789618E+04  0.12050789618E+04  0.50400001928E-02 0. -1.
        1   -1    0    0  501    0  0.00000000000E+00  0.00000000000E+00 -0.18425723496E+04  0.18425723496E+04  0.50400001928E-02 0.  1.
    10030    2    1    2    0    0  0.00000000000E+00  0.00000000000E+00 -0.63749338775E+03  0.30476513114E+04  0.29802316515E+04 0.  0.
        4    1    3    3  502    0  0.43229559755E+03 -0.52150859757E+03  0.10385288531E+04  0.12399171314E+04  0.12699999809E+01 0. -1.
       -4    1    3    3    0  502 -0.43229559755E+03  0.52150859757E+03 -0.16760222409E+04  0.18077341801E+04  0.12699999809E+01 0.  1.
</event>
<event>
 5   0  0.1674806E-06  0.3002152E+04  0.7818609E-02  0.8243117E-01
       -2   -1    0    0    0  501  0.00000000000E+00  0.00000000000E+00  0.89412854489E+03  0.89412854489E+03  0.25500000920E-02 0. -1.
        2   -1    0    0  501    0  0.00000000000E+00  0.00000000000E+00 -0.25200285860E+04  0.25200285860E+04  0.25500000920E-02 0.  1.
    10030    2    1    2    0    0  0.00000000000E+00  0.00000000000E+00 -0.16259000411E+04  0.34141571309E+04  0.30021522231E+04 0.  0.
        2    1    3    3  502    0  0.88226969635E+03  0.59992220998E+03  0.38785705009E+03  0.11352266586E+04  0.25500000920E-02 0. -1.
       -2    1    3    3    0  502 -0.88226969635E+03 -0.59992220998E+03 -0.20137570912E+04  0.22789304723E+04  0.25500000920E-02 0.  1.
</event>
<event>
 5   0  0.1560174E-06  0.2991465E+04  0.7818609E-02  0.8246172E-01
        2   -1    0    0  501    0  0.00000000000E+00  0.00000000000E+00  0.21033452708E+04  0.21033452708E+04  0.25500000920E-02 0. -1.
       -2   -1    0    0    0  501  0.00000000000E+00  0.00000000000E+00 -0.10636462244E+04  0.10636462244E+04  0.25500000920E-02 0.  1.
    10030    2    1    2    0    0  0.00000000000E+00  0.00000000000E+00  0.10396990464E+04  0.31669914952E+04  0.29914646953E+04 0.  0.
        5    1    3    3  502    0 -0.41492359997E+03 -0.72148047626E+03 -0.79584970339E+03  0.11515617707E+04  0.46999998093E+01 0.  1.
       -5    1    3    3    0  502  0.41492359997E+03  0.72148047626E+03  0.18355487497E+04  0.20154297244E+04  0.46999998093E+01 0. -1.
</event>
<event>
 5   0  0.1635086E-06  0.2991946E+04  0.7818609E-02  0.8246035E-01
        2   -1    0    0  501    0  0.00000000000E+00  0.00000000000E+00  0.24134761334E+04  0.24134761334E+04  0.25500000920E-02 0. -1.
       -2   -1    0    0    0  501  0.00000000000E+00  0.00000000000E+00 -0.92726623515E+03  0.92726623515E+03  0.25500000920E-02 0.  1.
    10030    2    1    2    0    0  0.00000000000E+00  0.00000000000E+00  0.14862098982E+04  0.33407423685E+04  0.29919458069E+04 0.  0.
        3    1    3    3  502    0 -0.10956738427E+04 -0.83577192693E+03  0.13931406990E+04  0.19595552815E+04  0.10100000352E+00 0. -1.
       -3    1    3    3    0  502  0.10956738427E+04  0.83577192693E+03  0.93069199192E+02  0.13811870871E+04  0.10100000352E+00 0.  1.
</event>
<event>
 5   0  0.1560174E-06  0.2975058E+04  0.7818609E-02  0.8250889E-01
       -2   -1    0    0    0  501  0.00000000000E+00  0.00000000000E+00  0.17539943556E+04  0.17539943556E+04  0.25500000920E-02 0.  1.
        2   -1    0    0  501    0  0.00000000000E+00  0.00000000000E+00 -0.12615449506E+04  0.12615449506E+04  0.25500000920E-02 0. -1.
    10030    2    1    2    0    0  0.00000000000E+00  0.00000000000E+00  0.49244940497E+03  0.30155393062E+04  0.29750581323E+04 0.  0.
        5    1    3    3  502    0  0.55585125085E+03  0.13163449849E+04 -0.17290620439E+03  0.14393239309E+04  0.46999998093E+01 0. -1.
       -5    1    3    3    0  502 -0.55585125085E+03 -0.13163449849E+04  0.66535560936E+03  0.15762153753E+04  0.46999998093E+01 0.  1.
</event>
<event>
 5   0  0.5874741E-07  0.2982532E+04  0.7818609E-02  0.8248737E-01
       -1   -1    0    0    0  501  0.00000000000E+00  0.00000000000E+00  0.10386484020E+04  0.10386484020E+04  0.50400001928E-02 0. -1.
        1   -1    0    0  501    0  0.00000000000E+00  0.00000000000E+00 -0.21411229345E+04  0.21411229345E+04  0.50400001928E-02 0.  1.
    10030    2    1    2    0    0  0.00000000000E+00  0.00000000000E+00 -0.11024745324E+04  0.31797713365E+04  0.29825317530E+04 0.  0.
        4    1    3    3  502    0 -0.27211904015E+03 -0.13945860644E+04 -0.68580713537E+02  0.14225413844E+04  0.12699999809E+01 0. -1.
       -4    1    3    3    0  502  0.27211904015E+03  0.13945860644E+04 -0.10338938189E+04  0.17572299521E+04  0.12699999809E+01 0.  1.
</event>
<event>
 5   0  0.5916703E-07  0.2984916E+04  0.7818609E-02  0.8248051E-01
       -1   -1    0    0    0  501  0.00000000000E+00  0.00000000000E+00  0.10653957722E+04  0.10653957722E+04  0.50400001928E-02 0.  1.
        1   -1    0    0  501    0  0.00000000000E+00  0.00000000000E+00 -0.20907068329E+04  0.20907068329E+04  0.50400001928E-02 0. -1.
    10030    2    1    2    0    0  0.00000000000E+00  0.00000000000E+00 -0.10253110607E+04  0.31561026051E+04  0.29849155570E+04 0.  0.
        5    1    3    3  502    0  0.36392547786E+03  0.57436166987E+03  0.89209968183E+03  0.11216938145E+04  0.46999998093E+01 0.  1.
       -5    1    3    3    0  502 -0.36392547786E+03 -0.57436166987E+03 -0.19174107426E+04  0.20344087905E+04  0.46999998093E+01 0. -1.
</event>
<event>
 5   0  0.5887179E-07  0.2998391E+04  0.7818609E-02  0.8244190E-01
       -1   -1    0    0    0  501  0.00000000000E+00  0.00000000000E+00  0.74041657126E+03  0.74041657127E+03  0.50400001928E-02 0. -1.
        1   -1    0    0  501    0  0.00000000000E+00  0.00000000000E+00 -0.30355720320E+04  0.30355720320E+04  0.50400001928E-02 0.  1.
    10030    2    1    2    0    0  0.00000000000E+00  0.00000000000E+00 -0.22951554608E+04  0.37759886033E+04  0.29983914593E+04 0.  0.
        3    1    3    3  502    0  0.35731627302E+03  0.93856256454E+03  0.25420373267E+03  0.10359508456E+04  0.10100000352E+00 0. -1.
       -3    1    3    3    0  502 -0.35731627302E+03 -0.93856256454E+03 -0.25493591935E+04  0.27400377578E+04  0.10100000352E+00 0.  1.
</event>
<event>
 5   0  0.5916703E-07  0.3009664E+04  0.7818609E-02  0.8240977E-01
        1   -1    0    0  501    0  0.00000000000E+00  0.00000000000E+00  0.14650242043E+04  0.14650242043E+04  0.50400001928E-02 0. -1.
       -1   -1    0    0    0  501  0.00000000000E+00  0.00000000000E+00 -0.15457210189E+04  0.15457210189E+04  0.50400001928E-02 0.  1.
    10030    2    1    2    0    0  0.00000000000E+00  0.00000000000E+00 -0.80696814606E+02  0.30107452231E+04  0.30096635730E+04 0.  0.
        5    1    3    3  502    0 -0.14016797018E+03 -0.14101638427E+04  0.46608198408E+03  0.14917987897E+04  0.46999998093E+01 0. -1.
       -5    1    3    3    0  502  0.14016797018E+03  0.14101638427E+04 -0.54677879869E+03  0.15189464335E+04  0.46999998093E+01 0.  1.
</event>
<event>
 5   0  0.1674806E-06  0.3005043E+04  0.7818609E-02  0.8242292E-01
       -2   -1    0    0    0  501  0.00000000000E+00  0.00000000000E+00  0.13045162046E+04  0.13045162046E+04  0.25500000920E-02 0. -1.
        2   -1    0    0  501    0  0.00000000000E+00  0.00000000000E+00 -0.17305804030E+04  0.17305804030E+04  0.25500000920E-02 0.  1.
    10030    2    1    2    0    0  0.00000000000E+00  0.00000000000E+00 -0.42606419837E+03  0.30350966076E+04  0.30050425482E+04 0.  0.
        2    1    3    3  502    0  0.12167173946E+04 -0.71466109696E+03 -0.73436149659E+03  0.15907320671E+04  0.25500000920E-02 0.  1.
       -2    1    3    3    0  502 -0.12167173946E+04  0.71466109696E+03  0.30829729822E+03  0.14443645405E+04  0.25500000920E-02 0. -1.
</event>
<event>
 5   0  0.1635086E-06  0.2984852E+04  0.7818609E-02  0.8248070E-01
        2   -1    0    0  501    0  0.00000000000E+00  0.00000000000E+00  0.12681394283E+04  0.12681394283E+04  0.25500000920E-02 0. -1.
       -2   -1    0    0    0  501  0.00000000000E+00  0.00000000000E+00 -0.17563807094E+04  0.17563807094E+04  0.25500000920E-02 0.  1.
    10030    2    1    2    0    0  0.00000000000E+00  0.00000000000E+00 -0.48824128107E+03  0.30245201378E+04  0.29848521764E+04 0.  0.
        3    1    3    3  502    0 -0.36251279968E+03 -0.49059438239E+03 -0.16242931711E+04  0.17350581240E+04  0.10100000352E+00 0.  1.
       -3    1    3    3    0  502  0.36251279968E+03  0.49059438239E+03  0.11360518900E+04  0.12894620137E+04  0.10100000352E+00 0. -1.
</event>
<event>
 5   0  0.1635086E-06  0.3010493E+04  0.7818609E-02  0.8240741E-01
       -2   -1    0    0    0  501  0.00000000000E+00  0.00000000000E+00  0.12354248630E+04  0.12354248630E+04  0.25500000920E-02 0. -1.
        2   -1    0    0  501    0  0.00000000000E+00  0.00000000000E+00 -0.18339979936E+04  0.18339979936E+04  0.25500000920E-02 0.  1.
    10030    2    1    2    0    0  0.00000000000E+00  0.00000000000E+00 -0.59857313058E+03  0.30694228565E+04  0.30104927968E+04 0.  0.
        3    1    3    3  502    0 -0.13126044823E+03  0.11906479550E+04  0.63009095670E+03  0.13534720100E+04  0.10100000352E+00 0. -1.
       -3    1    3    3    0  502  0.13126044823E+03 -0.11906479550E+04 -0.12286640873E+04  0.17159508465E+04  0.10100000352E+00 0.  1.
</event>
<event>
 5   0  0.5931588E-07  0.2983500E+04  0.7818609E-02  0.8248458E-01
        1   -1    0    0  501    0  0.00000000000E+00  0.00000000000E+00  0.21569696645E+04  0.21569696645E+04  0.50400001928E-02 0. -1.
       -1   -1    0    0    0  501  0.00000000000E+00  0.00000000000E+00 -0.10316870591E+04  0.10316870591E+04  0.50400001928E-02 0.  1.
    10030    2    1    2    0    0  0.00000000000E+00  0.00000000000E+00  0.11252826054E+04  0.31886567236E+04  0.29834997501E+04 0.  0.
        2    1    3    3  502    0 -0.18059436263E+03 -0.71157192378E+03 -0.82525825172E+03  0.11045361509E+04  0.25500000920E-02 0.  1.
       -2    1    3    3    0  502  0.18059436263E+03  0.71157192378E+03  0.19505408571E+04  0.20841205727E+04  0.25500000920E-02 0. -1.
</event>
<event>
 5   0  0.1625212E-06  0.3002670E+04  0.7818609E-02  0.8242969E-01
       -2   -1    0    0    0  501  0.00000000000E+00  0.00000000000E+00  0.96675934815E+03  0.96675934815E+03  0.25500000920E-02 0. -1.
        2   -1    0    0  501    0  0.00000000000E+00  0.00000000000E+00 -0.23315073049E+04  0.23315073049E+04  0.25500000920E-02 0.  1.
    10030    2    1    2    0    0  0.00000000000E+00  0.00000000000E+00 -0.13647479567E+04  0.32982666530E+04  0.30026698002E+04 0.  0.
        4    1    3    3  502    0  0.11661749484E+04 -0.28880364620E+03 -0.16713605877E+04  0.20583535614E+04  0.12699999809E+01 0.  1.
       -4    1    3    3    0  502 -0.11661749484E+04  0.28880364620E+03  0.30661263102E+03  0.12399130916E+04  0.12699999809E+01 0. -1.
</event>
<event>
 5   0  0.1635086E-06  0.3012941E+04  0.7818609E-02  0.8240045E-01
       -2   -1    0    0    0  501  0.00000000000E+00  0.00000000000E+00  0.11230223248E+04  0.11230223248E+04  0.25500000920E-02 0.  1.
        2   -1    0    0  501    0  0.00000000000E+00  0.00000000000E+00 -0.20208449152E+04  0.20208449152E+04  0.25500000920E-02 0. -1.
    10030    2    1    2    0    0  0.00000000000E+00  0.00000000000E+00 -0.89782259049E+03  0.31438672400E+04  0.30129413899E+04 0.  0.
        3    1    3    3  502    0  0.41325622034E+03 -0.82313507835E+02  0.10602780790E+04  0.11409407663E+04  0.10100000352E+00 0.  1.
       -3    1    3    3    0  502 -0.41325622034E+03  0.82313507835E+02 -0.19581006695E+04  0.20029264737E+04  0.10100000352E+00 0. -1.
</event>
<event>
 5   0  0.1635086E-06  0.2990220E+04  0.7818609E-02  0.8246529E-01
        2   -1    0    0  501    0  0.00000000000E+00  0.00000000000E+00  0.18331137362E+04  0.18331137362E+04  0.25500000920E-02 0. -1.
       -2   -1    0    0    0  501  0.00000000000E+00  0.00000000000E+00 -0.12194303619E+04  0.12194303619E+04  0.25500000920E-02 0.  1.
    10030    2    1    2    0    0  0.00000000000E+00  0.00000000000E+00  0.61368337428E+03  0.30525440980E+04  0.29902204244E+04 0.  0.
        3    1    3    3  502    0 -0.29665877902E+03  0.65739043463E+02  0.18012611398E+04  0.18267100911E+04  0.10100000352E+00 0. -1.
       -3    1    3    3    0  502  0.29665877902E+03 -0.65739043463E+02 -0.11875777656E+04  0.12258340069E+04  0.10100000352E+00 0.  1.
</event>
<event>
 5   0  0.1635086E-06  0.2956755E+04  0.7818609E-02  0.8256189E-01
        2   -1    0    0  501    0  0.00000000000E+00  0.00000000000E+00  0.18888059522E+04  0.18888059522E+04  0.25500000920E-02 0.  1.
       -2   -1    0    0    0  501  0.00000000000E+00  0.00000000000E+00 -0.11571327911E+04  0.11571327912E+04  0.25500000920E-02 0. -1.
    10030    2    1    2    0    0  0.00000000000E+00  0.00000000000E+00  0.73167316105E+03  0.30459387434E+04  0.29567545068E+04 0.  0.
        3    1    3    3  502    0  0.13778354633E+04  0.50997552339E+03  0.53540306426E+03  0.15637013941E+04  0.10100000352E+00 0.  1.
       -3    1    3    3    0  502 -0.13778354633E+04 -0.50997552339E+03  0.19627009679E+03  0.14822373493E+04  0.10100000352E+00 0. -1.
</event>
<event>
 5   0  0.1560174E-06  0.2999399E+04  0.7818609E-02  0.8243903E-01
        2   -1    0    0  501    0  0.00000000000E+00  0.00000000000E+00  0.18470307347E+04  0.18470307347E+04  0.25500000920E-02 0. -1.
       -2   -1    0    0    0  501  0.00000000000E+00  0.00000000000E+00 -0.12176831505E+04  0.12176831505E+04  0.25500000920E-02 0.  1.
    10030    2    1    2    0    0  0.00000000000E+00  0.00000000000E+00  0.62934758415E+03  0.30647138852E+04  0.29993987425E+04 0.  0.
        5    1    3    3  502    0 -0.92436073667E+03  0.33855632027E+03  0.14706873151E+04  0.17697475589E+04  0.46999998093E+01 0. -1.
       -5    1    3    3    0  502  0.92436073667E+03 -0.33855632027E+03 -0.84133973091E+03  0.12949663263E+04  0.46999998093E+01 0.  1.
</event>
<event>
 5   0  0.5887179E-07  0.3016298E+04  0.7818609E-02  0.8239092E-01
       -1   -1    0    0    0  501  0.00000000000E+00  0.00000000000E+00  0.12745362875E+04  0.12745362875E+04  0.50400001928E-02 0. -1.
        1   -1    0    0  501    0  0.00000000000E+00  0.00000000000E+00 -0.17845811716E+04  0.17845811716E+04  0.50400001928E-02 0.  1.
    10030    2    1    2    0    0  0.00000000000E+00  0.00000000000E+00 -0.51004488408E+03  0.30591174591E+04  0.30162980364E+04 0.  0.
        3    1    3    3  502    0  0.13457237004E+03 -0.12622250285E+04  0.57090414073E+03  0.13918524682E+04  0.10100000352E+00 0.  1.
       -3    1    3    3    0  502 -0.13457237004E+03  0.12622250285E+04 -0.10809490248E+04  0.16672649908E+04  0.10100000352E+00 0. -1.
</event>
<event>
 5   0  0.5931588E-07  0.3001297E+04  0.7818609E-02  0.8243361E-01
        1   -1    0    0  501    0  0.00000000000E+00  0.00000000000E+00  0.14293079827E+04  0.14293079827E+04  0.50400001928E-02 0.  1.
       -1   -1    0    0    0  501  0.00000000000E+00  0.00000000000E+00 -0.15755494545E+04  0.15755494545E+04  0.50400001928E-02 0. -1.
    10030    2    1    2    0    0  0.00000000000E+00  0.00000000000E+00 -0.14624147182E+03  0.30048574373E+04  0.30012966615E+04 0.  0.
        2    1    3    3  502    0 -0.56332508290E+03 -0.53575068046E+03 -0.13582250949E+04  0.15649726352E+04  0.25500000920E-02 0. -1.
       -2    1    3    3    0  502  0.56332508290E+03  0.53575068046E+03  0.12119836230E+04  0.14398848020E+04  0.25500000920E-02 0.  1.
</event>
<event>
 5   0  0.5874741E-07  0.2988819E+04  0.7818609E-02  0.8246931E-01
       -1   -1    0    0    0  501  0.00000000000E+00  0.00000000000E+00  0.99077744495E+03  0.99077744496E+03  0.50400001928E-02 0. -1.
        1   -1    0    0  501    0  0.00000000000E+00  0.00000000000E+00 -0.22540481579E+04  0.22540481579E+04  0.50400001928E-02 0.  1.
    10030    2    1    2    0    0  0.00000000000E+00  0.00000000000E+00 -0.12632707129E+04  0.32448256028E+04  0.29888192148E+04 0.  0.
        4    1    3    3  502    0 -0.64956751461E+03 -0.12401559647E+04 -0.11992300086E+04  0.18433879134E+04  0.12699999809E+01 0.  1.
       -4    1    3    3    0  502  0.64956751461E+03  0.12401559647E+04 -0.64040704357E+02  0.14014376895E+04  0.12699999809E+01 0. -1.
</event>
<event>
 5   0  0.1635086E-06  0.2976083E+04  0.7818609E-02  0.8250594E-01
       -2   -1    0    0    0  501  0.00000000000E+00  0.00000000000E+00  0.14279725069E+04  0.14279725069E+04  0.25500000920E-02 0.  1.
        2   -1    0    0  501    0  0.00000000000E+00  0.00000000000E+00 -0.15506377860E+04  0.15506377860E+04  0.25500000920E-02 0. -1.
    10030    2    1    2    0    0  0.00000000000E+00  0.00000000000E+00 -0.12266527907E+03  0.29786102928E+04  0.29760834172E+04 0.  0.
        3    1    3    3  502    0  0.30316537253E+02 -0.11873537426E+04 -0.95849773127E+03  0.15262522444E+04  0.10100000352E+00 0. -1.
       -3    1    3    3    0  502 -0.30316537253E+02  0.11873537426E+04  0.83583245219E+03  0.14523580484E+04  0.10100000352E+00 0.  1.
</event>
<event>
 5   0  0.1635086E-06  0.2998320E+04  0.7818609E-02  0.8244211E-01
        2   -1    0    0  501    0  0.00000000000E+00  0.00000000000E+00  0.24613339524E+04  0.24613339524E+04  0.25500000920E-02 0. -1.
       -2   -1    0    0    0  501  0.00000000000E+00  0.00000000000E+00 -0.91311485034E+03  0.91311485034E+03  0.25500000920E-02 0.  1.
    10030    2    1    2    0    0  0.00000000000E+00  0.00000000000E+00  0.15482191021E+04  0.33744488028E+04  0.29983199186E+04 0.  0.
        3    1    3    3  502    0  0.99047332630E+03  0.83322494061E+03 -0.77206786406E+02  0.12966349177E+04  0.10100000352E+00 0.  1.
       -3    1    3    3    0  502 -0.99047332630E+03 -0.83322494061E+03  0.16254258885E+04  0.20778138851E+04  0.10100000352E+00 0. -1.
</event>
<event>
 5   0  0.1723916E-06  0.3008021E+04  0.7818609E-02  0.8241444E-01
        2   -1    0    0  501    0  0.00000000000E+00  0.00000000000E+00  0.14665737145E+04  0.14665737145E+04  0.25500000920E-02 0.  1.
       -2   -1    0    0    0  501  0.00000000000E+00  0.00000000000E+00 -0.15424033252E+04  0.15424033252E+04  0.25500000920E-02 0. -1.
    10030    2    1    2    0    0  0.00000000000E+00  0.00000000000E+00 -0.75829610671E+02  0.30089770397E+04  0.30080213922E+04 0.  0.
        1    1    3    3  502    0 -0.67031319507E+03  0.62229964627E+03 -0.12322252476E+04  0.15345864883E+04  0.50400001928E-02 0. -1.
       -1    1    3    3    0  502  0.67031319507E+03 -0.62229964627E+03  0.11563956369E+04  0.14743905515E+04  0.50400001928E-02 0.  1.
</event>
<event>
 5   0  0.6291798E-07  0.3002375E+04  0.7818609E-02  0.8243053E-01
        1   -1    0    0  501    0  0.00000000000E+00  0.00000000000E+00  0.91703732487E+03  0.91703732488E+03  0.50400001928E-02 0.  1.
       -1   -1    0    0    0  501  0.00000000000E+00  0.00000000000E+00 -0.24574390796E+04  0.24574390796E+04  0.50400001928E-02 0. -1.
    10030    2    1    2    0    0  0.00000000000E+00  0.00000000000E+00 -0.15404017547E+04  0.33744764045E+04  0.30023746333E+04 0.  0.
        1    1    3    3  502    0  0.10600795827E+04  0.45750689143E+03  0.30812290379E+03  0.11949983269E+04  0.50400001928E-02 0.  1.
       -1    1    3    3    0  502 -0.10600795827E+04 -0.45750689143E+03 -0.18485246585E+04  0.21794780776E+04  0.50400001928E-02 0. -1.
</event>
<event>
 5   0  0.1674806E-06  0.2947459E+04  0.7818609E-02  0.8258896E-01
        2   -1    0    0  501    0  0.00000000000E+00  0.00000000000E+00  0.21032596830E+04  0.21032596830E+04  0.25500000920E-02 0.  1.
       -2   -1    0    0    0  501  0.00000000000E+00  0.00000000000E+00 -0.10326248140E+04  0.10326248140E+04  0.25500000920E-02 0. -1.
    10030    2    1    2    0    0  0.00000000000E+00  0.00000000000E+00  0.10706348690E+04  0.31358844971E+04  0.29474586606E+04 0.  0.
        2    1    3    3  502    0 -0.10900651143E+04 -0.42789443504E+03  0.14872464012E+04  0.18929441246E+04  0.25500000920E-02 0.  1.
       -2    1    3    3    0  502  0.10900651143E+04  0.42789443504E+03 -0.41661153212E+03  0.12429403725E+04  0.25500000920E-02 0. -1.
</event>
<event>
 5   0  0.1635086E-06  0.2997439E+04  0.7818609E-02  0.8244462E-01
       -2   -1    0    0    0  501  0.00000000000E+00  0.00000000000E+00  0.10070632637E+04  0.10070632637E+04  0.25500000920E-02 0. -1.
        2   -1    0    0  501    0  0.00000000000E+00  0.00000000000E+00 -0.22304069178E+04  0.22304069178E+04  0.25500000920E-02 0.  1.
    10030    2    1    2    0    0  0.00000000000E+00  0.00000000000E+00 -0.12233436541E+04  0.32374701815E+04  0.29974394873E+04 0.  0.
        3    1    3    3  502    0 -0.83573929109E+02 -0.10071313663E+04 -0.18070327437E+04  0.20704264145E+04  0.10100000352E+00 0.  1.
       -3    1    3    3    0  502  0.83573929109E+02  0.10071313663E+04  0.58368908957E+03  0.11670437670E+04  0.10100000352E+00 0. -1.
</event>
<event>
 5   0  0.6291798E-07  0.3000351E+04  0.7818609E-02  0.8243631E-01
       -1   -1    0    0    0  501  0.00000000000E+00  0.00000000000E+00  0.10463774540E+04  0.10463774540E+04  0.50400001928E-02 0. -1.
        1   -1    0    0  501    0  0.00000000000E+00  0.00000000000E+00 -0.21507789724E+04  0.21507789724E+04  0.50400001928E-02 0.  1.
    10030    2    1    2    0    0  0.00000000000E+00  0.00000000000E+00 -0.11044015185E+04  0.31971564264E+04  0.30003510629E+04 0.  0.
        1    1    3    3  502    0  0.10793414708E+04 -0.27855850268E+02  0.55764129927E+03  0.12152027723E+04  0.50400001928E-02 0. -1.
       -1    1    3    3    0  502 -0.10793414708E+04  0.27855850268E+02 -0.16620428177E+04  0.19819536541E+04  0.50400001928E-02 0.  1.
</event>
<event>
 5   0  0.1625212E-06  0.2987476E+04  0.7818609E-02  0.8247316E-01
       -2   -1    0    0    0  501  0.00000000000E+00  0.00000000000E+00  0.10201498168E+04  0.10201498168E+04  0.25500000920E-02 0. -1.
        2   -1    0    0  501    0  0.00000000000E+00  0.00000000000E+00 -0.21871821640E+04  0.21871821640E+04  0.25500000920E-02 0.  1.
    10030    2    1    2    0    0  0.00000000000E+00  0.00000000000E+00 -0.11670323472E+04  0.32073319808E+04  0.29874761816E+04 0.  0.
        4    1    3    3  502    0 -0.75904189163E+03  0.11922567568E+04 -0.11024414119E+04  0.17924841553E+04  0.12699999809E+01 0. -1.
       -4    1    3    3    0  502  0.75904189163E+03 -0.11922567568E+04 -0.64590935263E+02  0.14148478255E+04  0.12699999809E+01 0.  1.
</event>
<event>
 5   0  0.5916703E-07  0.2974107E+04  0.7818609E-02  0.8251164E-01
        1   -1    0    0  501    0  0.00000000000E+00  0.00000000000E+00  0.12429255542E+04  0.12429255542E+04  0.50400001928E-02 0. -1.
       -1   -1    0    0    0  501  0.00000000000E+00  0.00000000000E+00 -0.17791310100E+04  0.17791310100E+04  0.50400001928E-02 0.  1.
    10030    2    1    2    0    0  0.00000000000E+00  0.00000000000E+00 -0.53620545581E+03  0.30220565643E+04  0.29741065191E+04 0.  0.
        5    1    3    3  502    0  0.10244654962E+04 -0.94984340129E+03  0.24959475250E+03  0.14191728825E+04  0.46999998093E+01 0. -1.
       -5    1    3    3    0  502 -0.10244654962E+04  0.94984340129E+03 -0.78580020830E+03  0.16028836818E+04  0.46999998093E+01 0.  1.
</event>
<event>
 5   0  0.1560174E-06  0.3086095E+04  0.7818609E-02  0.8219564E-01
        2   -1    0    0  501    0  0.00000000000E+00  0.00000000000E+00  0.20702694986E+04  0.20702694986E+04  0.25500000920E-02 0.  1.
       -2   -1    0    0    0  501  0.00000000000E+00  0.00000000000E+00 -0.11500897867E+04  0.11500897867E+04  0.25500000920E-02 0. -1.
    10030    2    1    2    0    0  0.00000000000E+00  0.00000000000E+00  0.92017971196E+03  0.32203592853E+04  0.30860951418E+04 0.  0.
        5    1    3    3  502    0  0.45893474910E+03  0.73559659709E+03  0.17920429029E+04  0.19907695280E+04  0.46999998093E+01 0.  1.
       -5    1    3    3    0  502 -0.45893474910E+03 -0.73559659709E+03 -0.87186319096E+03  0.12295897573E+04  0.46999998093E+01 0. -1.
</event>
<event>
 5   0  0.1625212E-06  0.3002887E+04  0.7818609E-02  0.8242907E-01
       -2   -1    0    0    0  501  0.00000000000E+00  0.00000000000E+00  0.13812991350E+04  0.13812991350E+04  0.25500000920E-02 0.  1.
        2   -1    0    0  501    0  0.00000000000E+00  0.00000000000E+00 -0.16320378913E+04  0.16320378913E+04  0.25500000920E-02 0. -1.
    10030    2    1    2    0    0  0.00000000000E+00  0.00000000000E+00 -0.25073875630E+03  0.30133370263E+04  0.30028869626E+04 0.  0.
        4    1    3    3  502    0 -0.11602241512E+04  0.39943818099E+02  0.83010765317E+03  0.14271635921E+04  0.12699999809E+01 0.  1.
       -4    1    3    3    0  502  0.11602241512E+04 -0.39943818099E+02 -0.10808464095E+04  0.15861734342E+04  0.12699999809E+01 0. -1.
</event>
<event>
 5   0  0.1635086E-06  0.3002672E+04  0.7818609E-02  0.8242968E-01
        2   -1    0    0  501    0  0.00000000000E+00  0.00000000000E+00  0.22550429976E+04  0.22550429976E+04  0.25500000920E-02 0. -1.
       -2   -1    0    0    0  501  0.00000000000E+00  0.00000000000E+00 -0.99954189320E+03  0.99954189321E+03  0.25500000920E-02 0.  1.
    10030    2    1    2    0    0  0.00000000000E+00  0.00000000000E+00  0.12555011044E+04  0.32545848908E+04  0.30026721080E+04 0.  0.
        3    1    3    3  502    0 -0.10813261309E+04 -0.18712673254E+03  0.17382694274E+04  0.20556904504E+04  0.10100000352E+00 0. -1.
       -3    1    3    3    0  502  0.10813261309E+04  0.18712673254E+03 -0.48276832299E+03  0.11988944404E+04  0.10100000352E+00 0.  1.
</event>
<event>
 5   0  0.1635086E-06  0.2995922E+04  0.7818609E-02  0.8244896E-01
        2   -1    0    0  501    0  0.00000000000E+00  0.00000000000E+00  0.20543551625E+04  0.20543551625E+04  0.25500000920E-02 0. -1.
       -2   -1    0    0    0  501  0.00000000000E+00  0.00000000000E+00 -0.10922588783E+04  0.10922588783E+04  0.25500000920E-02 0.  1.
    10030    2    1    2    0    0  0.00000000000E+00  0.00000000000E+00  0.96209628423E+03  0.31466140408E+04  0.29959223390E+04 0.  0.
        3    1    3    3  502    0 -0.16906618023E+03 -0.10965048356E+04  0.15381422846E+04  0.18965199513E+04  0.10100000352E+00 0. -1.
       -3    1    3    3    0  502  0.16906618023E+03  0.10965048356E+04 -0.57604600038E+03  0.12500940895E+04  0.10100000352E+00 0.  1.
</event>
<event>
 5   0  0.1625212E-06  0.3002781E+04  0.7818609E-02  0.8242937E-01
       -2   -1    0    0    0  501  0.00000000000E+00  0.00000000000E+00  0.13269334483E+04  0.13269334483E+04  0.25500000920E-02 0. -1.
        2   -1    0    0  501    0  0.00000000000E+00  0.00000000000E+00 -0.16987839035E+04  0.16987839035E+04  0.25500000920E-02 0.  1.
    10030    2    1    2    0    0  0.00000000000E+00  0.00000000000E+00 -0.37185045515E+03  0.30257173518E+04  0.30027808331E+04 0.  0.
        4    1    3    3  502    0 -0.12000487283E+04 -0.82281064029E+03  0.18708786005E+03  0.14670166258E+04  0.12699999809E+01 0. -1.
       -4    1    3    3    0  502  0.12000487283E+04  0.82281064029E+03 -0.55893831520E+03  0.15587007260E+04  0.12699999809E+01 0.  1.
</event>
<event>
 5   0  0.1635086E-06  0.2990415E+04  0.7818609E-02  0.8246473E-01
        2   -1    0    0  501    0  0.00000000000E+00  0.00000000000E+00  0.28603729702E+04  0.28603729702E+04  0.25500000920E-02 0. -1.
       -2   -1    0    0    0  501  0.00000000000E+00  0.00000000000E+00 -0.78159209663E+03  0.78159209663E+03  0.25500000920E-02 0.  1.
    10030    2    1    2    0    0  0.00000000000E+00  0.00000000000E+00  0.20787808736E+04  0.36419650669E+04  0.29904146247E+04 0.  0.
        3    1    3    3  502    0  0.13550337839E+04  0.12806578862E+03  0.17932249688E+04  0.22512603582E+04  0.10100000352E+00 0. -1.
       -3    1    3    3    0  502 -0.13550337839E+04 -0.12806578862E+03  0.28555590484E+03  0.13907047087E+04  0.10100000352E+00 0.  1.
</event>
<event>
 5   0  0.5916703E-07  0.2994254E+04  0.7818609E-02  0.8245374E-01
        1   -1    0    0  501    0  0.00000000000E+00  0.00000000000E+00  0.18701861021E+04  0.18701861021E+04  0.50400001928E-02 0. -1.
       -1   -1    0    0    0  501  0.00000000000E+00  0.00000000000E+00 -0.11984846779E+04  0.11984846779E+04  0.50400001928E-02 0.  1.
    10030    2    1    2    0    0  0.00000000000E+00  0.00000000000E+00  0.67170142424E+03  0.30686707800E+04  0.29942540895E+04 0.  0.
        5    1    3    3  502    0 -0.11378826427E+04 -0.29712950458E+03  0.12853230751E+04  0.17421654194E+04  0.46999998093E+01 0. -1.
       -5    1    3    3    0  502  0.11378826427E+04  0.29712950458E+03 -0.61362165088E+03  0.13265053606E+04  0.46999998093E+01 0.  1.
</event>
<event>
 5   0  0.1723916E-06  0.2999509E+04  0.7818609E-02  0.8243871E-01
        2   -1    0    0  501    0  0.00000000000E+00  0.00000000000E+00  0.27965439172E+04  0.27965439172E+04  0.25500000920E-02 0.  1.
       -2   -1    0    0    0  501  0.00000000000E+00  0.00000000000E+00 -0.80430120257E+03  0.80430120257E+03  0.25500000920E-02 0. -1.
    10030    2    1    2    0    0  0.00000000000E+00  0.00000000000E+00  0.19922427146E+04  0.36008451198E+04  0.29995090503E+04 0.  0.
        1    1    3    3  502    0 -0.43934955509E+03  0.59420129035E+03 -0.57056493819E+03  0.93362066907E+03  0.50400001928E-02 0. -1.
       -1    1    3    3    0  502  0.43934955509E+03 -0.59420129035E+03  0.25628076528E+04  0.26672244507E+04  0.50400001928E-02 0.  1.
</event>
<event>
 5   0  0.5887179E-07  0.3002728E+04  0.7818609E-02  0.8242952E-01
        1   -1    0    0  501    0  0.00000000000E+00  0.00000000000E+00  0.15055786189E+04  0.15055786189E+04  0.50400001928E-02 0. -1.
       -1   -1    0    0    0  501  0.00000000000E+00  0.00000000000E+00 -0.14971613975E+04  0.14971613975E+04  0.50400001928E-02 0.  1.
    10030    2    1    2    0    0  0.00000000000E+00  0.00000000000E+00  0.84172213975E+01  0.30027400165E+04  0.30027282190E+04 0.  0.
        3    1    3    3  502    0 -0.72847441984E+03 -0.73666586622E+03 -0.10824154634E+04  0.14983240051E+04  0.10100000352E+00 0.  1.
       -3    1    3    3    0  502  0.72847441984E+03  0.73666586622E+03  0.10908326848E+04  0.15044160113E+04  0.10100000352E+00 0. -1.
</event>
<event>
 5   0  0.1625212E-06  0.2999876E+04  0.7818609E-02  0.8243766E-01
        2   -1    0    0  501    0  0.00000000000E+00  0.00000000000E+00  0.10769921855E+04  0.10769921855E+04  0.25500000920E-02 0.  1.
       -2   -1    0    0    0  501  0.00000000000E+00  0.00000000000E+00 -0.20889782836E+04  0.20889782836E+04  0.25500000920E-02 0. -1.
    10030    2    1    2    0    0  0.00000000000E+00  0.00000000000E+00 -0.10119860980E+04  0.31659704691E+04  0.29998755222E+04 0.  0.
        4    1    3    3  502    0  0.48070836561E+03  0.10899483037E+04  0.45592304108E+03  0.12755137278E+04  0.12699999809E+01 0.  1.
       -4    1    3    3    0  502 -0.48070836561E+03 -0.10899483037E+04 -0.14679091391E+04  0.18904567414E+04  0.12699999809E+01 0. -1.
</event>
<event>
 5   0  0.1625212E-06  0.2991276E+04  0.7818609E-02  0.8246227E-01
       -2   -1    0    0    0  501  0.00000000000E+00  0.00000000000E+00  0.11277055358E+04  0.11277055358E+04  0.25500000920E-02 0. -1.
        2   -1    0    0  501    0  0.00000000000E+00  0.00000000000E+00 -0.19836140313E+04  0.19836140313E+04  0.25500000920E-02 0.  1.
    10030    2    1    2    0    0  0.00000000000E+00  0.00000000000E+00 -0.85590849545E+03  0.31113195671E+04  0.29912756637E+04 0.  0.
        4    1    3    3  502    0  0.60978722800E+02  0.13328716408E+04 -0.11308442679E+04  0.17490213225E+04  0.12699999809E+01 0.  1.
       -4    1    3    3    0  502 -0.60978722800E+02 -0.13328716408E+04  0.27493577244E+03  0.13622982446E+04  0.12699999809E+01 0. -1.
</event>
<event>
 5   0  0.5431625E-07  0.3000611E+04  0.7818609E-02  0.8243556E-01
       -3   -1    0    0    0  501  0.00000000000E+00  0.00000000000E+00  0.17309019900E+04  0.17309019930E+04  0.10100000352E+00 0. -1.
        3   -1    0    0  501    0  0.00000000000E+00  0.00000000000E+00 -0.13004302180E+04  0.13004302219E+04  0.10100000352E+00 0.  1.
    10030    2    1    2    0    0  0.00000000000E+00  0.00000000000E+00  0.43047177205E+03  0.30313322149E+04  0.30006114461E+04 0.  0.
        5    1    3    3  502    0  0.95849945016E+03 -0.40381056042E+03  0.13075603194E+04  0.16707843199E+04  0.46999998093E+01 0. -1.
       -5    1    3    3    0  502 -0.95849945016E+03  0.40381056042E+03 -0.87708854738E+03  0.13605478950E+04  0.46999998093E+01 0.  1.
</event>
<event>
 5   0  0.1625212E-06  0.2993694E+04  0.7818609E-02  0.8245534E-01
       -2   -1    0    0    0  501  0.00000000000E+00  0.00000000000E+00  0.12316833861E+04  0.12316833861E+04  0.25500000920E-02 0. -1.
        2   -1    0    0  501    0  0.00000000000E+00  0.00000000000E+00 -0.18190966621E+04  0.18190966621E+04  0.25500000920E-02 0.  1.
    10030    2    1    2    0    0  0.00000000000E+00  0.00000000000E+00 -0.58741327592E+03  0.30507800482E+04  0.29936941303E+04 0.  0.
        4    1    3    3  502    0  0.98522566051E+03  0.82134793533E+03  0.49254136279E+03  0.13740016885E+04  0.12699999809E+01 0.  1.
       -4    1    3    3    0  502 -0.98522566051E+03 -0.82134793533E+03 -0.10799546387E+04  0.16767783597E+04  0.12699999809E+01 0. -1.
</event>
<event>
 5   0  0.1723916E-06  0.3020859E+04  0.7818609E-02  0.8237800E-01
       -2   -1    0    0    0  501  0.00000000000E+00  0.00000000000E+00  0.16716840177E+04  0.16716840177E+04  0.25500000920E-02 0.  1.
        2   -1    0    0  501    0  0.00000000000E+00  0.00000000000E+00 -0.13647295751E+04  0.13647295751E+04  0.25500000920E-02 0. -1.
    10030    2    1    2    0    0  0.00000000000E+00  0.00000000000E+00  0.30695444264E+03  0.30364135929E+04  0.30208585662E+04 0.  0.
        1    1    3    3  502    0 -0.67261171420E+03 -0.10135087322E+04  0.10535153189E+04  0.16091926533E+04  0.50400001928E-02 0.  1.
       -1    1    3    3    0  502  0.67261171420E+03  0.10135087322E+04 -0.74656087622E+03  0.14272209395E+04  0.50400001928E-02 0. -1.
</event>
<event>
 5   0  0.5874741E-07  0.3000255E+04  0.7818609E-02  0.8243658E-01
        1   -1    0    0  501    0  0.00000000000E+00  0.00000000000E+00  0.16067219922E+04  0.16067219922E+04  0.50400001928E-02 0.  1.
       -1   -1    0    0    0  501  0.00000000000E+00  0.00000000000E+00 -0.14006047409E+04  0.14006047409E+04  0.50400001928E-02 0. -1.
    10030    2    1    2    0    0  0.00000000000E+00  0.00000000000E+00  0.20611725129E+03  0.30073267331E+04  0.30002549489E+04 0.  0.
        4    1    3    3  502    0 -0.95652746127E+03  0.10065889124E+04 -0.46591901371E+03  0.14646665706E+04  0.12699999809E+01 0. -1.
       -4    1    3    3    0  502  0.95652746127E+03 -0.10065889124E+04  0.67203626501E+03  0.15426601625E+04  0.12699999809E+01 0.  1.
</event>
<event>
 5   0  0.5916703E-07  0.2998258E+04  0.7818609E-02  0.8244228E-01
       -1   -1    0    0    0  501  0.00000000000E+00  0.00000000000E+00  0.87875381556E+03  0.87875381557E+03  0.50400001928E-02 0. -1.
        1   -1    0    0  501    0  0.00000000000E+00  0.00000000000E+00 -0.25574717536E+04  0.25574717536E+04  0.50400001928E-02 0.  1.
    10030    2    1    2    0    0  0.00000000000E+00  0.00000000000E+00 -0.16787179380E+04  0.34362255692E+04  0.29982582021E+04 0.  0.
        5    1    3    3  502    0  0.38552910216E+03 -0.69006681045E+03  0.62049859802E+03  0.10049206395E+04  0.46999998093E+01 0. -1.
       -5    1    3    3    0  502 -0.38552910216E+03  0.69006681045E+03 -0.22992165361E+04  0.24313049297E+04  0.46999998093E+01 0.  1.
</event>
<event>
 5   0  0.1625212E-06  0.2987341E+04  0.7818609E-02  0.8247355E-01
       -2   -1    0    0    0  501  0.00000000000E+00  0.00000000000E+00  0.11929776971E+04  0.11929776971E+04  0.25500000920E-02 0.  1.
        2   -1    0    0  501    0  0.00000000000E+00  0.00000000000E+00 -0.18701536465E+04  0.18701536465E+04  0.25500000920E-02 0. -1.
    10030    2    1    2    0    0  0.00000000000E+00  0.00000000000E+00 -0.67717594948E+03  0.30631313436E+04  0.29873410186E+04 0.  0.
        4    1    3    3  502    0  0.81287862667E+03  0.10399126794E+04 -0.10555118439E+04  0.16900582558E+04  0.12699999809E+01 0. -1.
       -4    1    3    3    0  502 -0.81287862667E+03 -0.10399126794E+04  0.37833589447E+03  0.13730730878E+04  0.12699999809E+01 0.  1.
</event>
<event>
 5   0  0.1723916E-06  0.3003458E+04  0.7818609E-02  0.8242744E-01
       -2   -1    0    0    0  501  0.00000000000E+00  0.00000000000E+00  0.70291297760E+03  0.70291297761E+03  0.25500000920E-02 0.  1.
        2   -1    0    0  501    0  0.00000000000E+00  0.00000000000E+00 -0.32083492191E+04  0.32083492191E+04  0.25500000920E-02 0. -1.
    10030    2    1    2    0    0  0.00000000000E+00  0.00000000000E+00 -0.25054362415E+04  0.39112621967E+04  0.30034582086E+04 0.  0.
        1    1    3    3  502    0  0.27973219643E+03 -0.82765288518E+03 -0.28433500352E+04  0.29745417837E+04  0.50400001928E-02 0. -1.
       -1    1    3    3    0  502 -0.27973219643E+03  0.82765288518E+03  0.33791379375E+03  0.93672041299E+03  0.50400001928E-02 0.  1.
</event>
<event>
 5   0  0.1674806E-06  0.2998297E+04  0.7818609E-02  0.8244217E-01
        2   -1    0    0  501    0  0.00000000000E+00  0.00000000000E+00  0.14985934598E+04  0.14985934598E+04  0.25500000920E-02 0.  1.
       -2   -1    0    0    0  501  0.00000000000E+00  0.00000000000E+00 -0.14997032841E+04  0.14997032841E+04  0.25500000920E-02 0. -1.
    10030    2    1    2    0    0  0.00000000000E+00  0.00000000000E+00 -0.11098242300E+01  0.29982967439E+04  0.29982965385E+04 0.  0.
        2    1    3    3  502    0 -0.12921060957E+04 -0.12058268170E+03 -0.75113286591E+03  0.14994261996E+04  0.25500000920E-02 0. -1.
       -2    1    3    3    0  502  0.12921060957E+04  0.12058268170E+03  0.75002304168E+03  0.14988705444E+04  0.25500000920E-02 0.  1.
</event>
<event>
 5   0  0.1560174E-06  0.3004455E+04  0.7818609E-02  0.8242460E-01
        2   -1    0    0  501    0  0.00000000000E+00  0.00000000000E+00  0.13999981823E+04  0.13999981823E+04  0.25500000920E-02 0.  1.
       -2   -1    0    0    0  501  0.00000000000E+00  0.00000000000E+00 -0.16119220598E+04  0.16119220598E+04  0.25500000920E-02 0. -1.
    10030    2    1    2    0    0  0.00000000000E+00  0.00000000000E+00 -0.21192387752E+03  0.30119202422E+04  0.30044553276E+04 0.  0.
        5    1    3    3  502    0 -0.41634690411E+03 -0.14429263112E+04 -0.14189482174E+03  0.15084884204E+04  0.46999998093E+01 0. -1.
       -5    1    3    3    0  502  0.41634690411E+03  0.14429263112E+04 -0.70029055781E+02  0.15034318218E+04  0.46999998093E+01 0.  1.
</event>
<event>
 5   0  0.1674806E-06  0.3034592E+04  0.7818609E-02  0.8233921E-01
       -2   -1    0    0    0  501  0.00000000000E+00  0.00000000000E+00  0.12568631719E+04  0.12568631719E+04  0.25500000920E-02 0. -1.
        2   -1    0    0  501    0  0.00000000000E+00  0.00000000000E+00 -0.18316930794E+04  0.18316930794E+04  0.25500000920E-02 0.  1.
    10030    2    1    2    0    0  0.00000000000E+00  0.00000000000E+00 -0.57482990746E+03  0.30885562513E+04  0.30345922782E+04 0.  0.
        2    1    3    3  502    0  0.16270404393E+03  0.15070750858E+04 -0.35523056938E+03  0.15568997006E+04  0.25500000920E-02 0.  1.
       -2    1    3    3    0  502 -0.16270404393E+03 -0.15070750858E+04 -0.21959933808E+03  0.15316565508E+04  0.25500000920E-02 0. -1.
</event>
<event>
 5   0  0.5887179E-07  0.2994598E+04  0.7818609E-02  0.8245275E-01
        1   -1    0    0  501    0  0.00000000000E+00  0.00000000000E+00  0.15487923548E+04  0.15487923548E+04  0.50400001928E-02 0. -1.
       -1   -1    0    0    0  501  0.00000000000E+00  0.00000000000E+00 -0.14475179659E+04  0.14475179659E+04  0.50400001928E-02 0.  1.
    10030    2    1    2    0    0  0.00000000000E+00  0.00000000000E+00  0.10127438898E+03  0.29963103207E+04  0.29945983096E+04 0.  0.
        3    1    3    3  502    0  0.17133162407E+03  0.14860300147E+04  0.11598164218E+03  0.15003637831E+04  0.10100000352E+00 0. -1.
       -3    1    3    3    0  502 -0.17133162407E+03 -0.14860300147E+04 -0.14707253194E+02  0.14959465376E+04  0.10100000352E+00 0.  1.
</event>
<event>
 5   0  0.1723916E-06  0.2999755E+04  0.7818609E-02  0.8243801E-01
        2   -1    0    0  501    0  0.00000000000E+00  0.00000000000E+00  0.20000573925E+04  0.20000573925E+04  0.25500000920E-02 0.  1.
       -2   -1    0    0    0  501  0.00000000000E+00  0.00000000000E+00 -0.11247838140E+04  0.11247838140E+04  0.25500000920E-02 0. -1.
    10030    2    1    2    0    0  0.00000000000E+00  0.00000000000E+00  0.87527357852E+03  0.31248412066E+04  0.29997547781E+04 0.  0.
        1    1    3    3  502    0  0.11665040827E+04  0.93077924031E+03  0.59406657442E+03  0.16062368643E+04  0.50400001928E-02 0.  1.
       -1    1    3    3    0  502 -0.11665040827E+04 -0.93077924031E+03  0.28120700410E+03  0.15186043423E+04  0.50400001928E-02 0. -1.
</event>
<event>
 5   0  0.5931588E-07  0.2998005E+04  0.7818609E-02  0.8244301E-01
       -1   -1    0    0    0  501  0.00000000000E+00  0.00000000000E+00  0.24287537237E+04  0.24287537237E+04  0.50400001928E-02 0. -1.
        1   -1    0    0  501    0  0.00000000000E+00  0.00000000000E+00 -0.92516960022E+03  0.92516960024E+03  0.50400001928E-02 0.  1.
    10030    2    1    2    0    0  0.00000000000E+00  0.00000000000E+00  0.15035841234E+04  0.33539233239E+04  0.29980054113E+04 0.  0.
        2    1    3    3  502    0 -0.96443597856E+03  0.60632440341E+03  0.18417492390E+04  0.21655960608E+04  0.25500000920E-02 0. -1.
       -2    1    3    3    0  502  0.96443597856E+03 -0.60632440341E+03 -0.33816511559E+03  0.11883272631E+04  0.25500000920E-02 0.  1.
</event>
<event>
 5   0  0.5874741E-07  0.3005080E+04  0.7818609E-02  0.8242282E-01
        1   -1    0    0  501    0  0.00000000000E+00  0.00000000000E+00  0.16923764839E+04  0.16923764839E+04  0.50400001928E-02 0. -1.
       -1   -1    0    0    0  501  0.00000000000E+00  0.00000000000E+00 -0.13339975744E+04  0.13339975744E+04  0.50400001928E-02 0.  1.
    10030    2    1    2    0    0  0.00000000000E+00  0.00000000000E+00  0.35837890953E+03  0.30263740583E+04  0.30050797823E+04 0.  0.
        4    1    3    3  502    0 -0.42540750084E+03  0.14322513707E+04  0.33940473315E+03  0.15321594944E+04  0.12699999809E+01 0. -1.
       -4    1    3    3    0  502  0.42540750084E+03 -0.14322513707E+04  0.18974176384E+02  0.14942145638E+04  0.12699999809E+01 0.  1.
</event>
<event>
 5   0  0.1635086E-06  0.3010597E+04  0.7818609E-02  0.8240711E-01
        2   -1    0    0  501    0  0.00000000000E+00  0.00000000000E+00  0.21400024838E+04  0.21400024838E+04  0.25500000920E-02 0. -1.
       -2   -1    0    0    0  501  0.00000000000E+00  0.00000000000E+00 -0.10588412634E+04  0.10588412634E+04  0.25500000920E-02 0.  1.
    10030    2    1    2    0    0  0.00000000000E+00  0.00000000000E+00  0.10811612204E+04  0.31988437471E+04  0.30105965744E+04 0.  0.
        3    1    3    3  502    0 -0.94453399252E+02  0.79566666956E+03 -0.81343056255E+03  0.11417864003E+04  0.10100000352E+00 0.  1.
       -3    1    3    3    0  502  0.94453399252E+02 -0.79566666956E+03  0.18945917830E+04  0.20570573468E+04  0.10100000352E+00 0. -1.
</event>
<event>
 5   0  0.1560174E-06  0.2984257E+04  0.7818609E-02  0.8248241E-01
        2   -1    0    0  501    0  0.00000000000E+00  0.00000000000E+00  0.22141846426E+04  0.22141846426E+04  0.25500000920E-02 0.  1.
       -2   -1    0    0    0  501  0.00000000000E+00  0.00000000000E+00 -0.10055380738E+04  0.10055380738E+04  0.25500000920E-02 0. -1.
    10030    2    1    2    0    0  0.00000000000E+00  0.00000000000E+00  0.12086465689E+04  0.32197227164E+04  0.29842566649E+04 0.  0.
        5    1    3    3  502    0  0.14028427474E+04  0.98967306705E+02  0.66316803820E+02  0.14078999646E+04  0.46999998093E+01 0. -1.
       -5    1    3    3    0  502 -0.14028427474E+04 -0.98967306705E+02  0.11423297650E+04  0.18118227518E+04  0.46999998093E+01 0.  1.
</event>
<event>
 5   0  0.1560174E-06  0.2990136E+04  0.7818609E-02  0.8246553E-01
        2   -1    0    0  501    0  0.00000000000E+00  0.00000000000E+00  0.14016060337E+04  0.14016060337E+04  0.25500000920E-02 0. -1.
       -2   -1    0    0    0  501  0.00000000000E+00  0.00000000000E+00 -0.15947623029E+04  0.15947623029E+04  0.25500000920E-02 0.  1.
    10030    2    1    2    0    0  0.00000000000E+00  0.00000000000E+00 -0.19315626917E+03  0.29963683366E+04  0.29901360946E+04 0.  0.
        5    1    3    3  502    0 -0.14683192322E+04 -0.14504171745E+03 -0.33834414348E+03  0.15137692417E+04  0.46999998093E+01 0.  1.
       -5    1    3    3    0  502  0.14683192322E+04  0.14504171745E+03  0.14518787432E+03  0.14825990950E+04  0.46999998093E+01 0. -1.
</event>
<event>
 5   0  0.1723916E-06  0.2992696E+04  0.7818609E-02  0.8245820E-01
       -2   -1    0    0    0  501  0.00000000000E+00  0.00000000000E+00  0.13238023190E+04  0.13238023190E+04  0.25500000920E-02 0.  1.
        2   -1    0    0  501    0  0.00000000000E+00  0.00000000000E+00 -0.16913829490E+04  0.16913829490E+04  0.25500000920E-02 0. -1.
    10030    2    1    2    0    0  0.00000000000E+00  0.00000000000E+00 -0.36758062995E+03  0.30151852680E+04  0.29926955543E+04 0.  0.
        1    1    3    3  502    0  0.13013085869E+04  0.55399493205E+03  0.30849411782E+03  0.14475783377E+04  0.50400001928E-02 0.  1.
       -1    1    3    3    0  502 -0.13013085869E+04 -0.55399493205E+03 -0.67607474777E+03  0.15676069302E+04  0.50400001928E-02 0. -1.
</event>
<event>
 5   0  0.5874741E-07  0.2973298E+04  0.7818609E-02  0.8251397E-01
        1   -1    0    0  501    0  0.00000000000E+00  0.00000000000E+00  0.12926508075E+04  0.12926508075E+04  0.50400001928E-02 0. -1.
       -1   -1    0    0    0  501  0.00000000000E+00  0.00000000000E+00 -0.17097621240E+04  0.17097621240E+04  0.50400001928E-02 0.  1.
    10030    2    1    2    0    0  0.00000000000E+00  0.00000000000E+00 -0.41711131649E+03  0.30024129316E+04  0.29732980949E+04 0.  0.
        4    1    3    3  502    0  0.97469864407E+03 -0.82726652149E+03 -0.97474531051E+03  0.16076496439E+04  0.12699999809E+01 0.  1.
       -4    1    3    3    0  502 -0.97469864407E+03  0.82726652149E+03  0.55763399402E+03  0.13947632876E+04  0.12699999809E+01 0. -1.
</event>
<event>
 5   0  0.5916703E-07  0.2999943E+04  0.7818609E-02  0.8243747E-01
       -1   -1    0    0    0  501  0.00000000000E+00  0.00000000000E+00  0.81920013773E+03  0.81920013774E+03  0.50400001928E-02 0.  1.
        1   -1    0    0  501    0  0.00000000000E+00  0.00000000000E+00 -0.27464767691E+04  0.27464767691E+04  0.50400001928E-02 0. -1.
    10030    2    1    2    0    0  0.00000000000E+00  0.00000000000E+00 -0.19272766314E+04  0.35656769069E+04  0.29999427645E+04 0.  0.
        5    1    3    3  502    0 -0.12054504897E+03 -0.67481424940E+03  0.62212145239E+03  0.92572272931E+03  0.46999998093E+01 0.  1.
       -5    1    3    3    0  502  0.12054504897E+03  0.67481424940E+03 -0.25493980838E+04  0.26399541776E+04  0.46999998093E+01 0. -1.
</event>
<event>
 5   0  0.1560174E-06  0.3016945E+04  0.7818609E-02  0.8238909E-01
       -2   -1    0    0    0  501  0.00000000000E+00  0.00000000000E+00  0.11192502369E+04  0.11192502369E+04  0.25500000920E-02 0. -1.
        2   -1    0    0  501    0  0.00000000000E+00  0.00000000000E+00 -0.20330479924E+04  0.20330479924E+04  0.25500000920E-02 0.  1.
    10030    2    1    2    0    0  0.00000000000E+00  0.00000000000E+00 -0.91379775548E+03  0.31522982292E+04  0.30169451086E+04 0.  0.
        5    1    3    3  502    0  0.99345143972E+03  0.11293735884E+04 -0.57620065707E+03  0.16107326756E+04  0.46999998093E+01 0.  1.
       -5    1    3    3    0  502 -0.99345143972E+03 -0.11293735884E+04 -0.33759709841E+03  0.15415655536E+04  0.46999998093E+01 0. -1.
</event>
<event>
 5   0  0.1674806E-06  0.2993971E+04  0.7818609E-02  0.8245454E-01
        2   -1    0    0  501    0  0.00000000000E+00  0.00000000000E+00  0.19527429818E+04  0.19527429818E+04  0.25500000920E-02 0. -1.
       -2   -1    0    0    0  501  0.00000000000E+00  0.00000000000E+00 -0.11475990974E+04  0.11475990974E+04  0.25500000920E-02 0.  1.
    10030    2    1    2    0    0  0.00000000000E+00  0.00000000000E+00  0.80514388445E+03  0.31003420792E+04  0.29939713315E+04 0.  0.
        2    1    3    3  502    0 -0.11264740435E+04  0.94408745705E+03  0.10836308390E+03  0.14737664181E+04  0.25500000920E-02 0.  1.
       -2    1    3    3    0  502  0.11264740435E+04 -0.94408745705E+03  0.69678080055E+03  0.16265756611E+04  0.25500000920E-02 0. -1.
</event>
<event>
 5   0  0.1635086E-06  0.3000761E+04  0.7818609E-02  0.8243514E-01
        2   -1    0    0  501    0  0.00000000000E+00  0.00000000000E+00  0.21082106662E+04  0.21082106662E+04  0.25500000920E-02 0. -1.
       -2   -1    0    0    0  501  0.00000000000E+00  0.00000000000E+00 -0.10677971912E+04  0.10677971912E+04  0.25500000920E-02 0.  1.
    10030    2    1    2    0    0  0.00000000000E+00  0.00000000000E+00  0.10404134750E+04  0.31760078574E+04  0.30007608553E+04 0.  0.
        3    1    3    3  502    0 -0.98116309610E+03  0.90510628839E+03 -0.20481175698E+03  0.13504985303E+04  0.10100000352E+00 0.  1.
       -3    1    3    3    0  502  0.98116309610E+03 -0.90510628839E+03  0.12452252320E+04  0.18255093270E+04  0.10100000352E+00 0. -1.
</event>
<event>
 5   0  0.6291798E-07  0.3011423E+04  0.7818609E-02  0.8240476E-01
        1   -1    0    0  501    0  0.00000000000E+00  0.00000000000E+00  0.12453372215E+04  0.12453372215E+04  0.50400001928E-02 0.  1.
       -1   -1    0    0    0  501  0.00000000000E+00  0.00000000000E+00 -0.18205247406E+04  0.18205247406E+04  0.50400001928E-02 0. -1.
    10030    2    1    2    0    0  0.00000000000E+00  0.00000000000E+00 -0.57518751907E+03  0.30658619621E+04  0.30114230670E+04 0.  0.
        1    1    3    3  502    0 -0.75602546956E+03 -0.43837096412E+03 -0.15359010517E+04  0.17671263830E+04  0.50400001928E-02 0. -1.
       -1    1    3    3    0  502  0.75602546956E+03  0.43837096412E+03  0.96071353259E+03  0.12987355791E+04  0.50400001928E-02 0.  1.
</event>
<event>
 5   0  0.1635086E-06  0.2971438E+04  0.7818609E-02  0.8251934E-01
        2   -1    0    0  501    0  0.00000000000E+00  0.00000000000E+00  0.18861829119E+04  0.18861829119E+04  0.25500000920E-02 0.  1.
       -2   -1    0    0    0  501  0.00000000000E+00  0.00000000000E+00 -0.11702790738E+04  0.11702790738E+04  0.25500000920E-02 0. -1.
    10030    2    1    2    0    0  0.00000000000E+00  0.00000000000E+00  0.71590383811E+03  0.30564619858E+04  0.29714376260E+04 0.  0.
        3    1    3    3  502    0  0.93886420692E+03  0.65788417027E+03 -0.61411965445E+03  0.13005462470E+04  0.10100000352E+00 0. -1.
       -3    1    3    3    0  502 -0.93886420692E+03 -0.65788417027E+03  0.13300234926E+04  0.17559157387E+04  0.10100000352E+00 0.  1.
</event>
<event>
 5   0  0.1560174E-06  0.3000525E+04  0.7818609E-02  0.8243581E-01
        2   -1    0    0  501    0  0.00000000000E+00  0.00000000000E+00  0.14669930356E+04  0.14669930356E+04  0.25500000920E-02 0.  1.
       -2   -1    0    0    0  501  0.00000000000E+00  0.00000000000E+00 -0.15342864225E+04  0.15342864225E+04  0.25500000920E-02 0. -1.
    10030    2    1    2    0    0  0.00000000000E+00  0.00000000000E+00 -0.67293386886E+02  0.30012794582E+04  0.30005249518E+04 0.  0.
        5    1    3    3  502    0 -0.47349236845E+03 -0.10391972173E+04 -0.10068453717E+04  0.15224603679E+04  0.46999998093E+01 0. -1.
       -5    1    3    3    0  502  0.47349236845E+03  0.10391972173E+04  0.93955198485E+03  0.14788190902E+04  0.46999998093E+01 0.  1.
</event>
<event>
 5   0  0.6291798E-07  0.3131305E+04  0.7818609E-02  0.8207199E-01
       -1   -1    0    0    0  501  0.00000000000E+00  0.00000000000E+00  0.98054775630E+03  0.98054775632E+03  0.50400001928E-02 0. -1.
        1   -1    0    0  501    0  0.00000000000E+00  0.00000000000E+00 -0.24998971093E+04  0.24998971093E+04  0.50400001928E-02 0.  1.
    10030    2    1    2    0    0  0.00000000000E+00  0.00000000000E+00 -0.15193493530E+04  0.34804448656E+04  0.31313054795E+04 0.  0.
        1    1    3    3  502    0 -0.57459596096E+03  0.46518766873E+03  0.77431900515E+03  0.10705746154E+04  0.50400001928E-02 0. -1.
       -1    1    3    3    0  502  0.57459596096E+03 -0.46518766873E+03 -0.22936683582E+04  0.24098702502E+04  0.50400001928E-02 0.  1.
</event>
<event>
 5   0  0.5931588E-07  0.2930632E+04  0.7818609E-02  0.8263821E-01
        1   -1    0    0  501    0  0.00000000000E+00  0.00000000000E+00  0.19286472847E+04  0.19286472847E+04  0.50400001928E-02 0. -1.
       -1   -1    0    0    0  501  0.00000000000E+00  0.00000000000E+00 -0.11132939935E+04  0.11132939935E+04  0.50400001928E-02 0.  1.
    10030    2    1    2    0    0  0.00000000000E+00  0.00000000000E+00  0.81535329114E+03  0.30419412782E+04  0.29306323124E+04 0.  0.
        2    1    3    3  502    0  0.54883695405E+03  0.12888458657E+04  0.85389482070E+03  0.16405736900E+04  0.25500000920E-02 0.  1.
       -2    1    3    3    0  502 -0.54883695405E+03 -0.12888458657E+04 -0.38541529564E+02  0.14013675882E+04  0.25500000920E-02 0. -1.
</event>
<event>
 5   0  0.1625212E-06  0.2972143E+04  0.7818609E-02  0.8251731E-01
        2   -1    0    0  501    0  0.00000000000E+00  0.00000000000E+00  0.30621524018E+04  0.30621524018E+04  0.25500000920E-02 0. -1.
       -2   -1    0    0    0  501  0.00000000000E+00  0.00000000000E+00 -0.72119464658E+03  0.72119464659E+03  0.25500000920E-02 0.  1.
    10030    2    1    2    0    0  0.00000000000E+00  0.00000000000E+00  0.23409577552E+04  0.37833470484E+04  0.29721426071E+04 0.  0.
        4    1    3    3  502    0 -0.89347507699E+03  0.88298487037E+03  0.21811982545E+04  0.25170592827E+04  0.12699999809E+01 0. -1.
       -4    1    3    3    0  502  0.89347507699E+03 -0.88298487037E+03  0.15975950074E+03  0.12662877657E+04  0.12699999809E+01 0.  1.
</event>
<event>
 5   0  0.1625212E-06  0.3008817E+04  0.7818609E-02  0.8241218E-01
        2   -1    0    0  501    0  0.00000000000E+00  0.00000000000E+00  0.10341612073E+04  0.10341612073E+04  0.25500000920E-02 0. -1.
       -2   -1    0    0    0  501  0.00000000000E+00  0.00000000000E+00 -0.21884841399E+04  0.21884841399E+04  0.25500000920E-02 0.  1.
    10030    2    1    2    0    0  0.00000000000E+00  0.00000000000E+00 -0.11543229326E+04  0.32226453471E+04  0.30088173093E+04 0.  0.
        4    1    3    3  502    0 -0.28864563695E+03  0.10252997118E+04 -0.17150602834E+04  0.20189079205E+04  0.12699999809E+01 0.  1.
       -4    1    3    3    0  502  0.28864563695E+03 -0.10252997118E+04  0.56073735084E+03  0.12037374267E+04  0.12699999809E+01 0. -1.
</event>
<event>
 5   0  0.1674806E-06  0.2998206E+04  0.7818609E-02  0.8244243E-01
        2   -1    0    0  501    0  0.00000000000E+00  0.00000000000E+00  0.16920156231E+04  0.16920156231E+04  0.25500000920E-02 0. -1.
       -2   -1    0    0    0  501  0.00000000000E+00  0.00000000000E+00 -0.13281851448E+04  0.13281851448E+04  0.25500000920E-02 0.  1.
    10030    2    1    2    0    0  0.00000000000E+00  0.00000000000E+00  0.36383047829E+03  0.30202007679E+04  0.29982061406E+04 0.  0.
        2    1    3    3  502    0  0.11717351727E+04  0.92318701211E+03  0.32257387074E+02  0.14920717521E+04  0.25500000920E-02 0. -1.
       -2    1    3    3    0  502 -0.11717351727E+04 -0.92318701211E+03  0.33157309122E+03  0.15281290158E+04  0.25500000920E-02 0.  1.
</event>
<event>
 5   0  0.1723916E-06  0.2999112E+04  0.7818609E-02  0.8243985E-01
       -2   -1    0    0    0  501  0.00000000000E+00  0.00000000000E+00  0.15481815455E+04  0.15481815455E+04  0.25500000920E-02 0.  1.
        2   -1    0    0  501    0  0.00000000000E+00  0.00000000000E+00 -0.14524576651E+04  0.14524576651E+04  0.25500000920E-02 0. -1.
    10030    2    1    2    0    0  0.00000000000E+00  0.00000000000E+00  0.95723880394E+02  0.30006392106E+04  0.29991119704E+04 0.  0.
        1    1    3    3  502    0  0.50254322321E+03 -0.91873539355E+03 -0.10260176384E+04  0.14660615979E+04  0.50400001928E-02 0. -1.
       -1    1    3    3    0  502 -0.50254322321E+03  0.91873539355E+03  0.11217415188E+04  0.15345776127E+04  0.50400001928E-02 0.  1.
</event>
<event>
 5   0  0.1625212E-06  0.3001578E+04  0.7818609E-02  0.8243280E-01
       -2   -1    0    0    0  501  0.00000000000E+00  0.00000000000E+00  0.11194041377E+04  0.11194041377E+04  0.25500000920E-02 0.  1.
        2   -1    0    0  501    0  0.00000000000E+00  0.00000000000E+00 -0.20121134930E+04  0.20121134930E+04  0.25500000920E-02 0. -1.
    10030    2    1    2    0    0  0.00000000000E+00  0.00000000000E+00 -0.89270935529E+03  0.31315176307E+04  0.30015783645E+04 0.  0.
        4    1    3    3  502    0 -0.87723011038E+03 -0.43267023256E+03 -0.16338878033E+04  0.19042917748E+04  0.12699999809E+01 0. -1.
       -4    1    3    3    0  502  0.87723011038E+03  0.43267023256E+03  0.74117844804E+03  0.12272258559E+04  0.12699999809E+01 0.  1.
</event>
<event>
 5   0  0.1635086E-06  0.3002824E+04  0.7818609E-02  0.8242925E-01
       -2   -1    0    0    0  501  0.00000000000E+00  0.00000000000E+00  0.17181524600E+04  0.17181524600E+04  0.25500000920E-02 0.  1.
        2   -1    0    0  501    0  0.00000000000E+00  0.00000000000E+00 -0.13120129238E+04  0.13120129238E+04  0.25500000920E-02 0. -1.
    10030    2    1    2    0    0  0.00000000000E+00  0.00000000000E+00  0.40613953618E+03  0.30301653838E+04  0.30028241591E+04 0.  0.
        3    1    3    3  502    0  0.91209334690E+03 -0.78765779914E+03 -0.70058328651E+03  0.13939641436E+04  0.10100000352E+00 0. -1.
       -3    1    3    3    0  502 -0.91209334690E+03  0.78765779914E+03  0.11067228227E+04  0.16362012402E+04  0.10100000352E+00 0.  1.
</event>
<event>
 5   0  0.5887179E-07  0.3016509E+04  0.7818609E-02  0.8239032E-01
        1   -1    0    0  501    0  0.00000000000E+00  0.00000000000E+00  0.18364640936E+04  0.18364640936E+04  0.50400001928E-02 0.  1.
       -1   -1    0    0    0  501  0.00000000000E+00  0.00000000000E+00 -0.12387022061E+04  0.12387022061E+04  0.50400001928E-02 0. -1.
    10030    2    1    2    0    0  0.00000000000E+00  0.00000000000E+00  0.59776188750E+03  0.30751662998E+04  0.30165093232E+04 0.  0.
        3    1    3    3  502    0  0.12103248433E+04 -0.16599619263E+03 -0.60284777144E+03  0.13623018785E+04  0.10100000352E+00 0. -1.
       -3    1    3    3    0  502 -0.12103248433E+04  0.16599619263E+03  0.12006096589E+04  0.17128644213E+04  0.10100000352E+00 0.  1.
</event>
<event>
 5   0  0.5887179E-07  0.3090274E+04  0.7818609E-02  0.8218412E-01
       -1   -1    0    0    0  501  0.00000000000E+00  0.00000000000E+00  0.94594720297E+03  0.94594720298E+03  0.50400001928E-02 0. -1.
        1   -1    0    0  501    0  0.00000000000E+00  0.00000000000E+00 -0.25238712189E+04  0.25238712189E+04  0.50400001928E-02 0.  1.
    10030    2    1    2    0    0  0.00000000000E+00  0.00000000000E+00 -0.15779240159E+04  0.34698184219E+04  0.30902743698E+04 0.  0.
        3    1    3    3  502    0 -0.37081516410E+03 -0.14608777465E+04 -0.40690445039E+03  0.15611658843E+04  0.10100000352E+00 0. -1.
       -3    1    3    3    0  502  0.37081516410E+03  0.14608777465E+04 -0.11710195656E+04  0.19086525376E+04  0.10100000352E+00 0.  1.
</event>
<event>
 5   0  0.5874741E-07  0.2994408E+04  0.7818609E-02  0.8245330E-01
        1   -1    0    0  501    0  0.00000000000E+00  0.00000000000E+00  0.83258367314E+03  0.83258367316E+03  0.50400001928E-02 0. -1.
       -1   -1    0    0    0  501  0.00000000000E+00  0.00000000000E+00 -0.26923651613E+04  0.26923651613E+04  0.50400001928E-02 0.  1.
    10030    2    1    2    0    0  0.00000000000E+00  0.00000000000E+00 -0.18597814881E+04  0.35249488344E+04  0.29944076379E+04 0.  0.
        4    1    3    3  502    0 -0.82053578528E+03  0.54228908415E+03  0.39894447991E+03  0.10613739853E+04  0.12699999809E+01 0. -1.
       -4    1    3    3    0  502  0.82053578528E+03 -0.54228908415E+03 -0.22587259681E+04  0.24635748492E+04  0.12699999809E+01 0.  1.
</event>
<event>
 5   0  0.6291798E-07  0.2980185E+04  0.7818609E-02  0.8249412E-01
        1   -1    0    0  501    0  0.00000000000E+00  0.00000000000E+00  0.25277569975E+04  0.25277569975E+04  0.50400001928E-02 0.  1.
       -1   -1    0    0    0  501  0.00000000000E+00  0.00000000000E+00 -0.87839781740E+03  0.87839781742E+03  0.50400001928E-02 0. -1.
    10030    2    1    2    0    0  0.00000000000E+00  0.00000000000E+00  0.16493591801E+04  0.34061548149E+04  0.29801853832E+04 0.  0.
        1    1    3    3  502    0 -0.10888933313E+04 -0.80305533153E+03  0.11111010470E+03  0.13575463188E+04  0.50400001928E-02 0. -1.
       -1    1    3    3    0  502  0.10888933313E+04  0.80305533153E+03  0.15382490754E+04  0.20486084961E+04  0.50400001928E-02 0.  1.
</event>
<event>
 5   0  0.1723916E-06  0.3007604E+04  0.7818609E-02  0.8241563E-01
       -2   -1    0    0    0  501  0.00000000000E+00  0.00000000000E+00  0.15328813976E+04  0.15328813976E+04  0.25500000920E-02 0.  1.
        2   -1    0    0  501    0  0.00000000000E+00  0.00000000000E+00 -0.14752743943E+04  0.14752743943E+04  0.25500000920E-02 0. -1.
    10030    2    1    2    0    0  0.00000000000E+00  0.00000000000E+00  0.57607003293E+02  0.30081557920E+04  0.30076041465E+04 0.  0.
        1    1    3    3  502    0 -0.68119350417E+02  0.13434537936E+04  0.70117105441E+03  0.15169539179E+04  0.50400001928E-02 0.  1.
       -1    1    3    3    0  502  0.68119350417E+02 -0.13434537936E+04 -0.64356405111E+03  0.14912018741E+04  0.50400001928E-02 0. -1.
</event>
<event>
 5   0  0.1625212E-06  0.2994583E+04  0.7818609E-02  0.8245279E-01
        2   -1    0    0  501    0  0.00000000000E+00  0.00000000000E+00  0.18572958521E+04  0.18572958521E+04  0.25500000920E-02 0.  1.
       -2   -1    0    0    0  501  0.00000000000E+00  0.00000000000E+00 -0.12070680412E+04  0.12070680412E+04  0.25500000920E-02 0. -1.
    10030    2    1    2    0    0  0.00000000000E+00  0.00000000000E+00  0.65022781093E+03  0.30643638933E+04  0.29945834209E+04 0.  0.
        4    1    3    3  502    0  0.50826743487E+03 -0.78698659055E+03 -0.87009134818E+03  0.12785711737E+04  0.12699999809E+01 0. -1.
       -4    1    3    3    0  502 -0.50826743487E+03  0.78698659055E+03  0.15203191591E+04  0.17857927196E+04  0.12699999809E+01 0.  1.
</event>
<event>
 5   0  0.1674806E-06  0.2991904E+04  0.7818609E-02  0.8246047E-01
       -2   -1    0    0    0  501  0.00000000000E+00  0.00000000000E+00  0.15903612044E+04  0.15903612044E+04  0.25500000920E-02 0.  1.
        2   -1    0    0  501    0  0.00000000000E+00  0.00000000000E+00 -0.14071471983E+04  0.14071471983E+04  0.25500000920E-02 0. -1.
    10030    2    1    2    0    0  0.00000000000E+00  0.00000000000E+00  0.18321400616E+03  0.29975084027E+04  0.29919039510E+04 0.  0.
        2    1    3    3  502    0 -0.21183630065E+03 -0.76523579431E+03 -0.11786053966E+04  0.14211161529E+04  0.25500000920E-02 0. -1.
       -2    1    3    3    0  502  0.21183630065E+03  0.76523579431E+03  0.13618194028E+04  0.15763922497E+04  0.25500000920E-02 0.  1.
</event>
<event>
 5   0  0.5916703E-07  0.2977021E+04  0.7818609E-02  0.8250323E-01
       -1   -1    0    0    0  501  0.00000000000E+00  0.00000000000E+00  0.13245242180E+04  0.13245242180E+04  0.50400001928E-02 0. -1.
        1   -1    0    0  501    0  0.00000000000E+00  0.00000000000E+00 -0.16727993005E+04  0.16727993005E+04  0.50400001928E-02 0.  1.
    10030    2    1    2    0    0  0.00000000000E+00  0.00000000000E+00 -0.34827508249E+03  0.29973235185E+04  0.29770207829E+04 0.  0.
        5    1    3    3  502    0 -0.57688356836E+03  0.32420683209E+03  0.11682732484E+04  0.13426798555E+04  0.46999998093E+01 0. -1.
       -5    1    3    3    0  502  0.57688356836E+03 -0.32420683209E+03 -0.15165483309E+04  0.16546436630E+04  0.46999998093E+01 0.  1.
</event>
<event>
 5   0  0.5887179E-07  0.3010749E+04  0.7818609E-02  0.8240668E-01
       -1   -1    0    0    0  501  0.00000000000E+00  0.00000000000E+00  0.98603989574E+03  0.98603989575E+03  0.50400001928E-02 0.  1.
        1   -1    0    0  501    0  0.00000000000E+00  0.00000000000E+00 -0.22982359814E+04  0.22982359814E+04  0.50400001928E-02 0. -1.
    10030    2    1    2    0    0  0.00000000000E+00  0.00000000000E+00 -0.13121960856E+04  0.32842758771E+04  0.30107489882E+04 0.  0.
        3    1    3    3  502    0 -0.51200800963E+03  0.74613874125E+03  0.65622553518E+03  0.11178135741E+04  0.10100000352E+00 0. -1.
       -3    1    3    3    0  502  0.51200800963E+03 -0.74613874125E+03 -0.19684216208E+04  0.21664623031E+04  0.10100000352E+00 0.  1.
</event>
<event>
 5   0  0.1723916E-06  0.2994283E+04  0.7818609E-02  0.8245365E-01
        2   -1    0    0  501    0  0.00000000000E+00  0.00000000000E+00  0.16793594457E+04  0.16793594457E+04  0.25500000920E-02 0.  1.
       -2   -1    0    0    0  501  0.00000000000E+00  0.00000000000E+00 -0.13346952284E+04  0.13346952284E+04  0.25500000920E-02 0. -1.
    10030    2    1    2    0    0  0.00000000000E+00  0.00000000000E+00  0.34466421728E+03  0.30140546740E+04  0.29942832457E+04 0.  0.
        1    1    3    3  502    0  0.51716559330E+03  0.14047607661E+04  0.19739587449E+03  0.15098934374E+04  0.50400001928E-02 0. -1.
       -1    1    3    3    0  502 -0.51716559330E+03 -0.14047607661E+04  0.14726834279E+03  0.15041612366E+04  0.50400001928E-02 0.  1.
</event>
<event>
 5   0  0.5874741E-07  0.2999494E+04  0.7818609E-02  0.8243875E-01
        1   -1    0    0  501    0  0.00000000000E+00  0.00000000000E+00  0.16321319482E+04  0.16321319483E+04  0.50400001928E-02 0. -1.
       -1   -1    0    0    0  501  0.00000000000E+00  0.00000000000E+00 -0.13781000225E+04  0.13781000225E+04  0.50400001928E-02 0.  1.
    10030    2    1    2    0    0  0.00000000000E+00  0.00000000000E+00  0.25403192573E+03  0.30102319708E+04  0.29994940071E+04 0.  0.
        4    1    3    3  502    0  0.10624254380E+04 -0.77514241183E+02 -0.93245419172E+03  0.14157078447E+04  0.12699999809E+01 0.  1.
       -4    1    3    3    0  502 -0.10624254380E+04  0.77514241183E+02  0.11864861175E+04  0.15945241261E+04  0.12699999809E+01 0. -1.
</event>
<event>
 5   0  0.5887179E-07  0.2970953E+04  0.7818609E-02  0.8252074E-01
       -1   -1    0    0    0  501  0.00000000000E+00  0.00000000000E+00  0.15553323269E+04  0.15553323269E+04  0.50400001928E-02 0. -1.
        1   -1    0    0  501    0  0.00000000000E+00  0.00000000000E+00 -0.14187585930E+04  0.14187585930E+04  0.50400001928E-02 0.  1.
    10030    2    1    2    0    0  0.00000000000E+00  0.00000000000E+00  0.13657373390E+03  0.29740909199E+04  0.29709534522E+04 0.  0.
        3    1    3    3  502    0  0.91590429664E+03 -0.73777091773E+03 -0.84011536677E+03  0.14453305668E+04  0.10100000352E+00 0.  1.
       -3    1    3    3    0  502 -0.91590429664E+03  0.73777091773E+03  0.97668910067E+03  0.15287603531E+04  0.10100000352E+00 0. -1.
</event>
<event>
 5   0  0.6291798E-07  0.3002559E+04  0.7818609E-02  0.8243001E-01
        1   -1    0    0  501    0  0.00000000000E+00  0.00000000000E+00  0.20845603216E+04  0.20845603216E+04  0.50400001928E-02 0. -1.
       -1   -1    0    0    0  501  0.00000000000E+00  0.00000000000E+00 -0.10812062191E+04  0.10812062192E+04  0.50400001928E-02 0.  1.
    10030    2    1    2    0    0  0.00000000000E+00  0.00000000000E+00  0.10033541025E+04  0.31657665408E+04  0.30025586315E+04 0.  0.
        1    1    3    3  502    0  0.89004966233E+03 -0.94012859444E+03  0.13031330660E+04  0.18368957410E+04  0.50400001928E-02 0. -1.
       -1    1    3    3    0  502 -0.89004966233E+03  0.94012859444E+03 -0.29977896354E+03  0.13288707998E+04  0.50400001928E-02 0.  1.
</event>
<event>
 5   0  0.5916703E-07  0.3002906E+04  0.7818609E-02  0.8242902E-01
        1   -1    0    0  501    0  0.00000000000E+00  0.00000000000E+00  0.16523336281E+04  0.16523336281E+04  0.50400001928E-02 0.  1.
       -1   -1    0    0    0  501  0.00000000000E+00  0.00000000000E+00 -0.13643496022E+04  0.13643496022E+04  0.50400001928E-02 0. -1.
    10030    2    1    2    0    0  0.00000000000E+00  0.00000000000E+00  0.28798402585E+03  0.30166832303E+04  0.30029057449E+04 0.  0.
        5    1    3    3  502    0  0.52096080619E+02  0.12236870666E+03 -0.13584131763E+04  0.13649163160E+04  0.46999998093E+01 0. -1.
       -5    1    3    3    0  502 -0.52096080619E+02 -0.12236870666E+03  0.16463972022E+04  0.16517669143E+04  0.46999998093E+01 0.  1.
</event>
<event>
 5   0  0.5887179E-07  0.2994745E+04  0.7818609E-02  0.8245233E-01
       -1   -1    0    0    0  501  0.00000000000E+00  0.00000000000E+00  0.11099945190E+04  0.11099945190E+04  0.50400001928E-02 0. -1.
        1   -1    0    0  501    0  0.00000000000E+00  0.00000000000E+00 -0.20199412015E+04  0.20199412015E+04  0.50400001928E-02 0.  1.
    10030    2    1    2    0    0  0.00000000000E+00  0.00000000000E+00 -0.90994668251E+03  0.31299357205E+04  0.29947445049E+04 0.  0.
        3    1    3    3  502    0 -0.21472173264E+03 -0.76217012238E+03  0.87326911582E+03  0.11788162184E+04  0.10100000352E+00 0. -1.
       -3    1    3    3    0  502  0.21472173264E+03  0.76217012238E+03 -0.17832157983E+04  0.19511195021E+04  0.10100000352E+00 0.  1.
</event>
<event>
 5   0  0.1625212E-06  0.2987694E+04  0.7818609E-02  0.8247254E-01
        2   -1    0    0  501    0  0.00000000000E+00  0.00000000000E+00  0.82286978690E+03  0.82286978690E+03  0.25500000920E-02 0.  1.
       -2   -1    0    0    0  501  0.00000000000E+00  0.00000000000E+00 -0.27119456215E+04  0.27119456215E+04  0.25500000920E-02 0. -1.
    10030    2    1    2    0    0  0.00000000000E+00  0.00000000000E+00 -0.18890758346E+04  0.35348154084E+04  0.29876935021E+04 0.  0.
        4    1    3    3  502    0  0.49366778025E+03 -0.42826381524E+03 -0.25338316609E+04  0.26167579695E+04  0.12699999809E+01 0. -1.
       -4    1    3    3    0  502 -0.49366778025E+03  0.42826381524E+03  0.64475582624E+03  0.91805743887E+03  0.12699999809E+01 0.  1.
</event>
<event>
 5   0  0.1723916E-06  0.3016898E+04  0.7818609E-02  0.8238922E-01
        2   -1    0    0  501    0  0.00000000000E+00  0.00000000000E+00  0.14779838087E+04  0.14779838087E+04  0.25500000920E-02 0. -1.
       -2   -1    0    0    0  501  0.00000000000E+00  0.00000000000E+00 -0.15395421790E+04  0.15395421790E+04  0.25500000920E-02 0.  1.
    10030    2    1    2    0    0  0.00000000000E+00  0.00000000000E+00 -0.61558370314E+02  0.30175259878E+04  0.30168980185E+04 0.  0.
        1    1    3    3  502    0 -0.34826592391E+03  0.14061610475E+04  0.38983226816E+03  0.15001824031E+04  0.50400001928E-02 0. -1.
       -1    1    3    3    0  502  0.34826592391E+03 -0.14061610475E+04 -0.45139063847E+03  0.15173435846E+04  0.50400001928E-02 0.  1.
</event>
<event>
 5   0  0.5874741E-07  0.3010471E+04  0.7818609E-02  0.8240747E-01
        1   -1    0    0  501    0  0.00000000000E+00  0.00000000000E+00  0.89173417423E+03  0.89173417424E+03  0.50400001928E-02 0. -1.
       -1   -1    0    0    0  501  0.00000000000E+00  0.00000000000E+00 -0.25408169675E+04  0.25408169675E+04  0.50400001928E-02 0.  1.
    10030    2    1    2    0    0  0.00000000000E+00  0.00000000000E+00 -0.16490827933E+04  0.34325511417E+04  0.30104706080E+04 0.  0.
        4    1    3    3  502    0 -0.24168698158E+03  0.13004811049E+04 -0.16436398256E+04  0.21097907930E+04  0.12699999809E+01 0.  1.
       -4    1    3    3    0  502  0.24168698158E+03 -0.13004811049E+04 -0.54429676928E+01  0.13227603487E+04  0.12699999809E+01 0. -1.
</event>
<event>
 5   0  0.1560174E-06  0.3002000E+04  0.7818609E-02  0.8243160E-01
        2   -1    0    0  501    0  0.00000000000E+00  0.00000000000E+00  0.16773598486E+04  0.16773598486E+04  0.25500000920E-02 0. -1.
       -2   -1    0    0    0  501  0.00000000000E+00  0.00000000000E+00 -0.13431829588E+04  0.13431829588E+04  0.25500000920E-02 0.  1.
    10030    2    1    2    0    0  0.00000000000E+00  0.00000000000E+00  0.33417688976E+03  0.30205428074E+04  0.30020001095E+04 0.  0.
        5    1    3    3  502    0  0.35879002381E+02 -0.34177295078E+03  0.16372373774E+04  0.16729209104E+04  0.46999998093E+01 0. -1.
       -5    1    3    3    0  502 -0.35879002381E+02  0.34177295078E+03 -0.13030604876E+04  0.13476218969E+04  0.46999998093E+01 0.  1.
</event>
<event>
 5   0  0.5874741E-07  0.3001573E+04  0.7818609E-02  0.8243282E-01
       -1   -1    0    0    0  501  0.00000000000E+00  0.00000000000E+00  0.20692348434E+04  0.20692348434E+04  0.50400001928E-02 0.  1.
        1   -1    0    0  501    0  0.00000000000E+00  0.00000000000E+00 -0.10884988942E+04  0.10884988942E+04  0.50400001928E-02 0. -1.
    10030    2    1    2    0    0  0.00000000000E+00  0.00000000000E+00  0.98073594918E+03  0.31577337377E+04  0.30015728137E+04 0.  0.
        4    1    3    3  502    0 -0.45479685826E+03 -0.16936953941E+03 -0.10036694833E+04  0.11148454009E+04  0.12699999809E+01 0. -1.
       -4    1    3    3    0  502  0.45479685826E+03  0.16936953941E+03  0.19844054325E+04  0.20428883368E+04  0.12699999809E+01 0.  1.
</event>
<event>
 5   0  0.6291798E-07  0.2995280E+04  0.7818609E-02  0.8245080E-01
       -1   -1    0    0    0  501  0.00000000000E+00  0.00000000000E+00  0.15414055837E+04  0.15414055837E+04  0.50400001928E-02 0.  1.
        1   -1    0    0  501    0  0.00000000000E+00  0.00000000000E+00 -0.14551175286E+04  0.14551175286E+04  0.50400001928E-02 0. -1.
    10030    2    1    2    0    0  0.00000000000E+00  0.00000000000E+00  0.86288055067E+02  0.29965231123E+04  0.29952804767E+04 0.  0.
        1    1    3    3  502    0  0.78826409372E+03  0.40059399974E+03  0.12524012418E+04  0.15330833977E+04  0.50400001928E-02 0.  1.
       -1    1    3    3    0  502 -0.78826409372E+03 -0.40059399974E+03 -0.11661131867E+04  0.14634397146E+04  0.50400001928E-02 0. -1.
</event>
<event>
 5   0  0.6291798E-07  0.3012429E+04  0.7818609E-02  0.8240191E-01
       -1   -1    0    0    0  501  0.00000000000E+00  0.00000000000E+00  0.18113764349E+04  0.18113764349E+04  0.50400001928E-02 0. -1.
        1   -1    0    0  501    0  0.00000000000E+00  0.00000000000E+00 -0.12524631126E+04  0.12524631126E+04  0.50400001928E-02 0.  1.
    10030    2    1    2    0    0  0.00000000000E+00  0.00000000000E+00  0.55891332230E+03  0.30638395475E+04  0.30124290316E+04 0.  0.
        1    1    3    3  502    0 -0.66031661265E+03  0.33123135949E+03 -0.10555564197E+04  0.12883833271E+04  0.50400001928E-02 0.  1.
       -1    1    3    3    0  502  0.66031661265E+03 -0.33123135949E+03  0.16144697420E+04  0.17754562203E+04  0.50400001928E-02 0. -1.
</event>
<event>
 5   0  0.5887179E-07  0.3013046E+04  0.7818609E-02  0.8240015E-01
       -1   -1    0    0    0  501  0.00000000000E+00  0.00000000000E+00  0.13517014772E+04  0.13517014772E+04  0.50400001928E-02 0. -1.
        1   -1    0    0  501    0  0.00000000000E+00  0.00000000000E+00 -0.16790772478E+04  0.16790772478E+04  0.50400001928E-02 0.  1.
    10030    2    1    2    0    0  0.00000000000E+00  0.00000000000E+00 -0.32737577062E+03  0.30307787250E+04  0.30130457655E+04 0.  0.
        3    1    3    3  502    0 -0.13182288669E+04 -0.58147017628E+03  0.27910313283E+03  0.14675603839E+04  0.10100000352E+00 0.  1.
       -3    1    3    3    0  502  0.13182288669E+04  0.58147017628E+03 -0.60647890345E+03  0.15632183411E+04  0.10100000352E+00 0. -1.
</event>
<event>
 5   0  0.1560174E-06  0.2989465E+04  0.7818609E-02  0.8246746E-01
       -2   -1    0    0    0  501  0.00000000000E+00  0.00000000000E+00  0.18582128014E+04  0.18582128014E+04  0.25500000920E-02 0. -1.
        2   -1    0    0  501    0  0.00000000000E+00  0.00000000000E+00 -0.12023513021E+04  0.12023513021E+04  0.25500000920E-02 0.  1.
    10030    2    1    2    0    0  0.00000000000E+00  0.00000000000E+00  0.65586149930E+03  0.30605641035E+04  0.29894645550E+04 0.  0.
        5    1    3    3  502    0  0.38551452693E+02  0.13443841738E+04 -0.33976713261E+03  0.13871981890E+04  0.46999998093E+01 0.  1.
       -5    1    3    3    0  502 -0.38551452693E+02 -0.13443841738E+04  0.99562863191E+03  0.16733659145E+04  0.46999998093E+01 0. -1.
</event>
<event>
 5   0  0.1723916E-06  0.2999454E+04  0.7818609E-02  0.8243887E-01
       -2   -1    0    0    0  501  0.00000000000E+00  0.00000000000E+00  0.13965679760E+04  0.13965679760E+04  0.25500000920E-02 0.  1.
        2   -1    0    0  501    0  0.00000000000E+00  0.00000000000E+00 -0.16105058559E+04  0.16105058559E+04  0.25500000920E-02 0. -1.
    10030    2    1    2    0    0  0.00000000000E+00  0.00000000000E+00 -0.21393787997E+03  0.30070738319E+04  0.29994538860E+04 0.  0.
        1    1    3    3  502    0  0.13165548601E+04 -0.60355948536E+03  0.28335309578E+03  0.14757675051E+04  0.50400001928E-02 0.  1.
       -1    1    3    3    0  502 -0.13165548601E+04  0.60355948536E+03 -0.49729097575E+03  0.15313063269E+04  0.50400001928E-02 0. -1.
</event>
<event>
 5   0  0.5874741E-07  0.3011910E+04  0.7818609E-02  0.8240338E-01
       -1   -1    0    0    0  501  0.00000000000E+00  0.00000000000E+00  0.11643043936E+04  0.11643043936E+04  0.50400001928E-02 0. -1.
        1   -1    0    0  501    0  0.00000000000E+00  0.00000000000E+00 -0.19478585581E+04  0.19478585581E+04  0.50400001928E-02 0.  1.
    10030    2    1    2    0    0  0.00000000000E+00  0.00000000000E+00 -0.78355416453E+03  0.31121629517E+04  0.30119098774E+04 0.  0.
        4    1    3    3  502    0  0.85442368013E+03 -0.68390002272E+03 -0.14606856864E+04  0.18252022775E+04  0.12699999809E+01 0.  1.
       -4    1    3    3    0  502 -0.85442368013E+03  0.68390002272E+03  0.67713152189E+03  0.12869606743E+04  0.12699999809E+01 0. -1.
</event>
<event>
 5   0  0.5887179E-07  0.2996836E+04  0.7818609E-02  0.8244635E-01
       -1   -1    0    0    0  501  0.00000000000E+00  0.00000000000E+00  0.17101614817E+04  0.17101614818E+04  0.50400001928E-02 0. -1.
        1   -1    0    0  501    0  0.00000000000E+00  0.00000000000E+00 -0.13128918079E+04  0.13128918079E+04  0.50400001928E-02 0.  1.
    10030    2    1    2    0    0  0.00000000000E+00  0.00000000000E+00  0.39726967385E+03  0.30230532897E+04  0.29968363316E+04 0.  0.
        3    1    3    3  502    0  0.67774988379E+03  0.15950247425E+03 -0.11397999662E+04  0.13356383932E+04  0.10100000352E+00 0.  1.
       -3    1    3    3    0  502 -0.67774988379E+03 -0.15950247425E+03  0.15370696400E+04  0.16874148965E+04  0.10100000352E+00 0. -1.
</event>
<event>
 5   0  0.1560174E-06  0.2997882E+04  0.7818609E-02  0.8244336E-01
       -2   -1    0    0    0  501  0.00000000000E+00  0.00000000000E+00  0.99400207205E+03  0.99400207205E+03  0.25500000920E-02 0.  1.
        2   -1    0    0  501    0  0.00000000000E+00  0.00000000000E+00 -0.22603822000E+04  0.22603822000E+04  0.25500000920E-02 0. -1.
    10030    2    1    2    0    0  0.00000000000E+00  0.00000000000E+00 -0.12663801279E+04  0.32543842720E+04  0.29978823128E+04 0.  0.
        5    1    3    3  502    0 -0.14613146715E+03  0.14128549261E+04 -0.11337852916E+03  0.14249176217E+04  0.46999998093E+01 0.  1.
       -5    1    3    3    0  502  0.14613146715E+03 -0.14128549261E+04 -0.11530015987E+04  0.18294666503E+04  0.46999998093E+01 0. -1.
</event>
<event>
 5   0  0.5887179E-07  0.2996355E+04  0.7818609E-02  0.8244772E-01
        1   -1    0    0  501    0  0.00000000000E+00  0.00000000000E+00  0.22300210437E+04  0.22300210437E+04  0.50400001928E-02 0.  1.
       -1   -1    0    0    0  501  0.00000000000E+00  0.00000000000E+00 -0.10065088692E+04  0.10065088692E+04  0.50400001928E-02 0. -1.
    10030    2    1    2    0    0  0.00000000000E+00  0.00000000000E+00  0.12235121745E+04  0.32365299129E+04  0.29963550918E+04 0.  0.
        3    1    3    3  502    0  0.25162071547E+03 -0.77876141640E+03  0.19672346504E+04  0.21306793536E+04  0.10100000352E+00 0.  1.
       -3    1    3    3    0  502 -0.25162071547E+03  0.77876141640E+03 -0.74372247593E+03  0.11058505593E+04  0.10100000352E+00 0. -1.
</event>
<event>
 5   0  0.5887179E-07  0.3007726E+04  0.7818609E-02  0.8241528E-01
        1   -1    0    0  501    0  0.00000000000E+00  0.00000000000E+00  0.19547410777E+04  0.19547410777E+04  0.50400001928E-02 0. -1.
       -1   -1    0    0    0  501  0.00000000000E+00  0.00000000000E+00 -0.11569838566E+04  0.11569838566E+04  0.50400001928E-02 0.  1.
    10030    2    1    2    0    0  0.00000000000E+00  0.00000000000E+00  0.79775722114E+03  0.31117249343E+04  0.30077259654E+04 0.  0.
        3    1    3    3  502    0 -0.69996509158E+02  0.82990093988E+03  0.16943613778E+04  0.18879871743E+04  0.10100000352E+00 0. -1.
       -3    1    3    3    0  502  0.69996509158E+02 -0.82990093988E+03 -0.89660415668E+03  0.12237377600E+04  0.10100000352E+00 0.  1.
</event>
<event>
 5   0  0.1625212E-06  0.3012533E+04  0.7818609E-02  0.8240161E-01
       -2   -1    0    0    0  501  0.00000000000E+00  0.00000000000E+00  0.89272263069E+03  0.89272263069E+03  0.25500000920E-02 0. -1.
        2   -1    0    0  501    0  0.00000000000E+00  0.00000000000E+00 -0.25414819661E+04  0.25414819661E+04  0.25500000920E-02 0.  1.
    10030    2    1    2    0    0  0.00000000000E+00  0.00000000000E+00 -0.16487593354E+04  0.34342045968E+04  0.30125327993E+04 0.  0.
        4    1    3    3  502    0  0.91835092118E+03 -0.87529735395E+03  0.10126326171E+03  0.12727017456E+04  0.12699999809E+01 0. -1.
       -4    1    3    3    0  502 -0.91835092118E+03  0.87529735395E+03 -0.17500225972E+04  0.21615028512E+04  0.12699999809E+01 0.  1.
</event>
<event>
 5   0  0.1674806E-06  0.2993336E+04  0.7818609E-02  0.8245636E-01
       -2   -1    0    0    0  501  0.00000000000E+00  0.00000000000E+00  0.12283488807E+04  0.12283488807E+04  0.25500000920E-02 0. -1.
        2   -1    0    0  501    0  0.00000000000E+00  0.00000000000E+00 -0.18235988724E+04  0.18235988724E+04  0.25500000920E-02 0.  1.
    10030    2    1    2    0    0  0.00000000000E+00  0.00000000000E+00 -0.59524999168E+03  0.30519477531E+04  0.29933363552E+04 0.  0.
        2    1    3    3  502    0  0.14584874462E+04  0.17442917727E+03 -0.59030762424E+03  0.15830585144E+04  0.25500000920E-02 0.  1.
       -2    1    3    3    0  502 -0.14584874462E+04 -0.17442917727E+03 -0.49423674391E+01  0.14688892387E+04  0.25500000920E-02 0. -1.
</event>
<event>
 5   0  0.5931588E-07  0.3003745E+04  0.7818609E-02  0.8242662E-01
       -1   -1    0    0    0  501  0.00000000000E+00  0.00000000000E+00  0.10492821535E+04  0.10492821535E+04  0.50400001928E-02 0.  1.
        1   -1    0    0  501    0  0.00000000000E+00  0.00000000000E+00 -0.21496798760E+04  0.21496798760E+04  0.50400001928E-02 0. -1.
    10030    2    1    2    0    0  0.00000000000E+00  0.00000000000E+00 -0.11003977225E+04  0.31989620295E+04  0.30037448159E+04 0.  0.
        2    1    3    3  502    0  0.14655149815E+04 -0.32838855235E+03 -0.54285679467E+03  0.15969554476E+04  0.25500000920E-02 0.  1.
       -2    1    3    3    0  502 -0.14655149815E+04  0.32838855235E+03 -0.55754092782E+03  0.16020065819E+04  0.25500000920E-02 0. -1.
</event>
<event>
 5   0  0.1674806E-06  0.2999430E+04  0.7818609E-02  0.8243894E-01
       -2   -1    0    0    0  501  0.00000000000E+00  0.00000000000E+00  0.15788522094E+04  0.15788522094E+04  0.25500000920E-02 0.  1.
        2   -1    0    0  501    0  0.00000000000E+00  0.00000000000E+00 -0.14245443053E+04  0.14245443053E+04  0.25500000920E-02 0. -1.
    10030    2    1    2    0    0  0.00000000000E+00  0.00000000000E+00  0.15430790413E+03  0.30033965147E+04  0.29994298951E+04 0.  0.
        2    1    3    3  502    0 -0.74748771434E+03 -0.11806778093E+04 -0.46799872485E+03  0.14736895124E+04  0.25500000920E-02 0. -1.
       -2    1    3    3    0  502  0.74748771434E+03  0.11806778093E+04  0.62230662898E+03  0.15297070023E+04  0.25500000920E-02 0.  1.
</event>
<event>
 5   0  0.5931588E-07  0.3004241E+04  0.7818609E-02  0.8242521E-01
       -1   -1    0    0    0  501  0.00000000000E+00  0.00000000000E+00  0.17654708648E+04  0.17654708648E+04  0.50400001928E-02 0. -1.
        1   -1    0    0  501    0  0.00000000000E+00  0.00000000000E+00 -0.12780533396E+04  0.12780533396E+04  0.50400001928E-02 0.  1.
    10030    2    1    2    0    0  0.00000000000E+00  0.00000000000E+00  0.48741752521E+03  0.30435242044E+04  0.30042409589E+04 0.  0.
        2    1    3    3  502    0  0.13020687594E+04  0.30573721957E+02  0.10018579469E+04  0.16431789776E+04  0.25500000920E-02 0. -1.
       -2    1    3    3    0  502 -0.13020687594E+04 -0.30573721957E+02 -0.51444042164E+03  0.14003452268E+04  0.25500000920E-02 0.  1.
</event>
<event>
 5   0  0.5431625E-07  0.3057992E+04  0.7818609E-02  0.8227362E-01
        3   -1    0    0  501    0  0.00000000000E+00  0.00000000000E+00  0.24845977353E+04  0.24845977374E+04  0.10100000352E+00 0.  1.
       -3   -1    0    0    0  501  0.00000000000E+00  0.00000000000E+00 -0.94092833217E+03  0.94092833760E+03  0.10100000352E+00 0. -1.
    10030    2    1    2    0    0  0.00000000000E+00  0.00000000000E+00  0.15436694031E+04  0.34255260749E+04  0.30579917698E+04 0.  0.
        5    1    3    3  502    0  0.29272255188E+03  0.98410181056E+03 -0.49732582144E+03  0.11408321211E+04  0.46999998093E+01 0. -1.
       -5    1    3    3    0  502 -0.29272255188E+03 -0.98410181056E+03  0.20409952246E+04  0.22846939538E+04  0.46999998093E+01 0.  1.
</event>
<event>
 5   0  0.6291798E-07  0.2981857E+04  0.7818609E-02  0.8248931E-01
       -1   -1    0    0    0  501  0.00000000000E+00  0.00000000000E+00  0.92591916780E+03  0.92591916781E+03  0.50400001928E-02 0.  1.
        1   -1    0    0  501    0  0.00000000000E+00  0.00000000000E+00 -0.24007145908E+04  0.24007145908E+04  0.50400001928E-02 0. -1.
    10030    2    1    2    0    0  0.00000000000E+00  0.00000000000E+00 -0.14747954230E+04  0.33266337586E+04  0.29818569087E+04 0.  0.
        1    1    3    3  502    0 -0.64484922509E+03  0.30622549243E+03  0.72286239130E+03  0.10159402601E+04  0.50400001928E-02 0.  1.
       -1    1    3    3    0  502  0.64484922509E+03 -0.30622549243E+03 -0.21976578143E+04  0.23106934985E+04  0.50400001928E-02 0. -1.
</event>
<event>
 5   0  0.1674806E-06  0.3002316E+04  0.7818609E-02  0.8243070E-01
       -2   -1    0    0    0  501  0.00000000000E+00  0.00000000000E+00  0.11516533664E+04  0.11516533664E+04  0.25500000920E-02 0. -1.
        2   -1    0    0  501    0  0.00000000000E+00  0.00000000000E+00 -0.19567300819E+04  0.19567300819E+04  0.25500000920E-02 0.  1.
    10030    2    1    2    0    0  0.00000000000E+00  0.00000000000E+00 -0.80507671552E+03  0.31083834483E+04  0.30023156303E+04 0.  0.
        2    1    3    3  502    0  0.16985357847E+03 -0.12796586441E+04  0.39075469842E+03  0.13487274438E+04  0.25500000920E-02 0. -1.
       -2    1    3    3    0  502 -0.16985357847E+03  0.12796586441E+04 -0.11958314139E+04  0.17596560044E+04  0.25500000920E-02 0.  1.
</event>
<event>
 5   0  0.1625212E-06  0.2992178E+04  0.7818609E-02  0.8245968E-01
        2   -1    0    0  501    0  0.00000000000E+00  0.00000000000E+00  0.16131280926E+04  0.16131280926E+04  0.25500000920E-02 0.  1.
       -2   -1    0    0    0  501  0.00000000000E+00  0.00000000000E+00 -0.13875418765E+04  0.13875418765E+04  0.25500000920E-02 0. -1.
    10030    2    1    2    0    0  0.00000000000E+00  0.00000000000E+00  0.22558621610E+03  0.30006699691E+04  0.29921783240E+04 0.  0.
        4    1    3    3  502    0 -0.12499802523E+04 -0.80700631871E+03  0.26999043748E+03  0.15121528623E+04  0.12699999809E+01 0.  1.
       -4    1    3    3    0  502  0.12499802523E+04  0.80700631871E+03 -0.44404221382E+02  0.14885171069E+04  0.12699999809E+01 0. -1.
</event>
<event>
 5   0  0.1723916E-06  0.2986280E+04  0.7818609E-02  0.8247660E-01
        2   -1    0    0  501    0  0.00000000000E+00  0.00000000000E+00  0.30805115637E+04  0.30805115637E+04  0.25500000920E-02 0. -1.
       -2   -1    0    0    0  501  0.00000000000E+00  0.00000000000E+00 -0.72373254989E+03  0.72373254990E+03  0.25500000920E-02 0.  1.
    10030    2    1    2    0    0  0.00000000000E+00  0.00000000000E+00  0.23567790138E+04  0.38042441136E+04  0.29862796178E+04 0.  0.
        1    1    3    3  502    0 -0.12779326924E+04  0.55545641960E+03  0.49494946492E+03  0.14787220067E+04  0.50400001928E-02 0. -1.
       -1    1    3    3    0  502  0.12779326924E+04 -0.55545641960E+03  0.18618295489E+04  0.23255221068E+04  0.50400001928E-02 0.  1.
</event>
<event>
 5   0  0.1723916E-06  0.3005576E+04  0.7818609E-02  0.8242140E-01
        2   -1    0    0  501    0  0.00000000000E+00  0.00000000000E+00  0.13789073008E+04  0.13789073008E+04  0.25500000920E-02 0. -1.
       -2   -1    0    0    0  501  0.00000000000E+00  0.00000000000E+00 -0.16377981611E+04  0.16377981611E+04  0.25500000920E-02 0.  1.
    10030    2    1    2    0    0  0.00000000000E+00  0.00000000000E+00 -0.25889086023E+03  0.30167054619E+04  0.30055760457E+04 0.  0.
        1    1    3    3  502    0 -0.74029923597E+03  0.13053602320E+04 -0.49378194450E+02  0.15014814352E+04  0.50400001928E-02 0.  1.
       -1    1    3    3    0  502  0.74029923597E+03 -0.13053602320E+04 -0.20951266578E+03  0.15152240267E+04  0.50400001928E-02 0. -1.
</event>
<event>
 5   0  0.5931588E-07  0.3023761E+04  0.7818609E-02  0.8236978E-01
       -1   -1    0    0    0  501  0.00000000000E+00  0.00000000000E+00  0.24788949209E+04  0.24788949209E+04  0.50400001928E-02 0.  1.
        1   -1    0    0  501    0  0.00000000000E+00  0.00000000000E+00 -0.92209768216E+03  0.92209768218E+03  0.50400001928E-02 0. -1.
    10030    2    1    2    0    0  0.00000000000E+00  0.00000000000E+00  0.15567972387E+04  0.34009926031E+04  0.30237614065E+04 0.  0.
        2    1    3    3  502    0 -0.57468548621E+03  0.13268719157E+04  0.12749890762E+04  0.19278095428E+04  0.25500000920E-02 0.  1.
       -2    1    3    3    0  502  0.57468548621E+03 -0.13268719157E+04  0.28180816253E+03  0.14731830603E+04  0.25500000920E-02 0. -1.
</event>
<event>
 5   0  0.5431625E-07  0.2849034E+04  0.7818609E-02  0.8288205E-01
       -4   -1    0    0    0  501  0.00000000000E+00  0.00000000000E+00  0.83731053634E+03  0.83731149948E+03  0.12699999809E+01 0.  1.
        4   -1    0    0  501    0  0.00000000000E+00  0.00000000000E+00 -0.24235288753E+04  0.24235292080E+04  0.12699999809E+01 0. -1.
    10030    2    1    2    0    0  0.00000000000E+00  0.00000000000E+00 -0.15862183389E+04  0.32608407075E+04  0.28490337838E+04 0.  0.
        3    1    3    3  502    0  0.40667333250E+03  0.37826496018E+03 -0.22945034561E+04  0.23607654902E+04  0.10100000352E+00 0. -1.
       -3    1    3    3    0  502 -0.40667333250E+03 -0.37826496018E+03  0.70828511715E+03  0.90007521732E+03  0.10100000352E+00 0.  1.
</event>
<event>
 5   0  0.1723916E-06  0.3002090E+04  0.7818609E-02  0.8243134E-01
       -2   -1    0    0    0  501  0.00000000000E+00  0.00000000000E+00  0.10967583302E+04  0.10967583302E+04  0.25500000920E-02 0.  1.
        2   -1    0    0  501    0  0.00000000000E+00  0.00000000000E+00 -0.20543597533E+04  0.20543597533E+04  0.25500000920E-02 0. -1.
    10030    2    1    2    0    0  0.00000000000E+00  0.00000000000E+00 -0.95760142313E+03  0.31511180835E+04  0.30020900537E+04 0.  0.
        1    1    3    3  502    0 -0.90850674225E+03 -0.11371765236E+04 -0.86386496393E+03  0.16925772131E+04  0.50400001928E-02 0.  1.
       -1    1    3    3    0  502  0.90850674225E+03  0.11371765236E+04 -0.93736459206E+02  0.14585408703E+04  0.50400001928E-02 0. -1.
</event>
<event>
 5   0  0.1560174E-06  0.2997145E+04  0.7818609E-02  0.8244547E-01
        2   -1    0    0  501    0  0.00000000000E+00  0.00000000000E+00  0.21231364426E+04  0.21231364426E+04  0.25500000920E-02 0. -1.
       -2   -1    0    0    0  501  0.00000000000E+00  0.00000000000E+00 -0.10577368884E+04  0.10577368884E+04  0.25500000920E-02 0.  1.
    10030    2    1    2    0    0  0.00000000000E+00  0.00000000000E+00  0.10653995542E+04  0.31808733310E+04  0.29971451312E+04 0.  0.
        5    1    3    3  502    0 -0.61518247265E+03 -0.76991980518E+02 -0.91523557156E+03  0.11054661827E+04  0.46999998093E+01 0.  1.
       -5    1    3    3    0  502  0.61518247265E+03  0.76991980518E+02  0.19806351257E+04  0.20754071482E+04  0.46999998093E+01 0. -1.
</event>
<event>
 5   0  0.1625212E-06  0.2989839E+04  0.7818609E-02  0.8246639E-01
       -2   -1    0    0    0  501  0.00000000000E+00  0.00000000000E+00  0.10831026511E+04  0.10831026511E+04  0.25500000920E-02 0. -1.
        2   -1    0    0  501    0  0.00000000000E+00  0.00000000000E+00 -0.20633165355E+04  0.20633165355E+04  0.25500000920E-02 0.  1.
    10030    2    1    2    0    0  0.00000000000E+00  0.00000000000E+00 -0.98021388439E+03  0.31464191866E+04  0.29898385305E+04 0.  0.
        4    1    3    3  502    0 -0.46630056140E+03  0.32016746221E+03  0.96613968238E+03  0.11195404933E+04  0.12699999809E+01 0. -1.
       -4    1    3    3    0  502  0.46630056140E+03 -0.32016746221E+03 -0.19463535668E+04  0.20268786933E+04  0.12699999809E+01 0.  1.
</event>
<event>
 5   0  0.6291798E-07  0.3007847E+04  0.7818609E-02  0.8241494E-01
        1   -1    0    0  501    0  0.00000000000E+00  0.00000000000E+00  0.15595205434E+04  0.15595205434E+04  0.50400001928E-02 0. -1.
       -1   -1    0    0    0  501  0.00000000000E+00  0.00000000000E+00 -0.14503080651E+04  0.14503080651E+04  0.50400001928E-02 0.  1.
    10030    2    1    2    0    0  0.00000000000E+00  0.00000000000E+00  0.10921247831E+03  0.30098286084E+04  0.30078465531E+04 0.  0.
        1    1    3    3  502    0 -0.81686337736E+03 -0.77776407354E+03  0.10500494269E+04  0.15410342405E+04  0.50400001928E-02 0. -1.
       -1    1    3    3    0  502  0.81686337736E+03  0.77776407354E+03 -0.94083694863E+03  0.14687943679E+04  0.50400001928E-02 0.  1.
</event>
<event>
 5   0  0.1635086E-06  0.2988704E+04  0.7818609E-02  0.8246964E-01
       -2   -1    0    0    0  501  0.00000000000E+00  0.00000000000E+00  0.10372245459E+04  0.10372245459E+04  0.25500000920E-02 0. -1.
        2   -1    0    0  501    0  0.00000000000E+00  0.00000000000E+00 -0.21529460284E+04  0.21529460284E+04  0.25500000920E-02 0.  1.
    10030    2    1    2    0    0  0.00000000000E+00  0.00000000000E+00 -0.11157214824E+04  0.31901705743E+04  0.29887043792E+04 0.  0.
        3    1    3    3  502    0 -0.79342164981E+03 -0.96836659914E+02  0.78986468396E+03  0.11237355037E+04  0.10100000352E+00 0. -1.
       -3    1    3    3    0  502  0.79342164981E+03  0.96836659914E+02 -0.19055861664E+04  0.20664350706E+04  0.10100000352E+00 0.  1.
</event>
<event>
 5   0  0.1723916E-06  0.3075511E+04  0.7818609E-02  0.8222491E-01
       -2   -1    0    0    0  501  0.00000000000E+00  0.00000000000E+00  0.10494526735E+04  0.10494526735E+04  0.25500000920E-02 0. -1.
        2   -1    0    0  501    0  0.00000000000E+00  0.00000000000E+00 -0.22532628642E+04  0.22532628642E+04  0.25500000920E-02 0.  1.
    10030    2    1    2    0    0  0.00000000000E+00  0.00000000000E+00 -0.12038101907E+04  0.33027155377E+04  0.30755114936E+04 0.  0.
        1    1    3    3  502    0  0.25348153350E+03 -0.73625241211E+03  0.82209239511E+03  0.11323234557E+04  0.50400001928E-02 0. -1.
       -1    1    3    3    0  502 -0.25348153350E+03  0.73625241211E+03 -0.20259025859E+04  0.21703920820E+04  0.50400001928E-02 0.  1.
</event>
<event>
 5   0  0.5874741E-07  0.2992846E+04  0.7818609E-02  0.8245777E-01
        1   -1    0    0  501    0  0.00000000000E+00  0.00000000000E+00  0.18001813466E+04  0.18001813466E+04  0.50400001928E-02 0. -1.
       -1   -1    0    0    0  501  0.00000000000E+00  0.00000000000E+00 -0.12439205128E+04  0.12439205128E+04  0.50400001928E-02 0.  1.
    10030    2    1    2    0    0  0.00000000000E+00  0.00000000000E+00  0.55626083376E+03  0.30441018595E+04  0.29928464738E+04 0.  0.
        4    1    3    3  502    0  0.13288198489E+04 -0.70146765656E+02  0.97439614313E+03  0.16492823337E+04  0.12699999809E+01 0. -1.
       -4    1    3    3    0  502 -0.13288198489E+04  0.70146765656E+02 -0.41813530937E+03  0.13948195258E+04  0.12699999809E+01 0.  1.
</event>
<event>
 5   0  0.1635086E-06  0.3009319E+04  0.7818609E-02  0.8241075E-01
        2   -1    0    0  501    0  0.00000000000E+00  0.00000000000E+00  0.33067049109E+04  0.33067049109E+04  0.25500000920E-02 0.  1.
       -2   -1    0    0    0  501  0.00000000000E+00  0.00000000000E+00 -0.68466965561E+03  0.68466965561E+03  0.25500000920E-02 0. -1.
    10030    2    1    2    0    0  0.00000000000E+00  0.00000000000E+00  0.26220352553E+04  0.39913745665E+04  0.30093192005E+04 0.  0.
        3    1    3    3  502    0  0.33829007176E+03 -0.75401472989E+03 -0.35670262255E+03  0.90011952355E+03  0.10100000352E+00 0. -1.
       -3    1    3    3    0  502 -0.33829007176E+03  0.75401472989E+03  0.29787378779E+04  0.30912550430E+04  0.10100000352E+00 0.  1.
</event>
<event>
 5   0  0.1723916E-06  0.3001551E+04  0.7818609E-02  0.8243288E-01
        2   -1    0    0  501    0  0.00000000000E+00  0.00000000000E+00  0.19015679944E+04  0.19015679945E+04  0.25500000920E-02 0. -1.
       -2   -1    0    0    0  501  0.00000000000E+00  0.00000000000E+00 -0.11844580270E+04  0.11844580270E+04  0.25500000920E-02 0.  1.
    10030    2    1    2    0    0  0.00000000000E+00  0.00000000000E+00  0.71710996746E+03  0.30860260214E+04  0.30015512489E+04 0.  0.
        1    1    3    3  502    0  0.10434058907E+04 -0.19540087597E+03  0.14492842009E+04  0.17964693290E+04  0.50400001928E-02 0. -1.
       -1    1    3    3    0  502 -0.10434058907E+04  0.19540087597E+03 -0.73217423341E+03  0.12895566925E+04  0.50400001928E-02 0.  1.
</event>
<event>
 5   0  0.5931588E-07  0.2954350E+04  0.7818609E-02  0.8256888E-01
       -1   -1    0    0    0  501  0.00000000000E+00  0.00000000000E+00  0.26684586990E+04  0.26684586990E+04  0.50400001928E-02 0. -1.
        1   -1    0    0  501    0  0.00000000000E+00  0.00000000000E+00 -0.81771750958E+03  0.81771750960E+03  0.50400001928E-02 0.  1.
    10030    2    1    2    0    0  0.00000000000E+00  0.00000000000E+00  0.18507411894E+04  0.34861762086E+04  0.29543496081E+04 0.  0.
        2    1    3    3  502    0  0.64095088937E+03  0.13253185745E+04  0.78201926731E+03  0.16669857531E+04  0.25500000920E-02 0.  1.
       -2    1    3    3    0  502 -0.64095088937E+03 -0.13253185745E+04  0.10687219221E+04  0.18191904555E+04  0.25500000920E-02 0. -1.
</event>
<event>
 5   0  0.1560174E-06  0.3001122E+04  0.7818609E-02  0.8243411E-01
        2   -1    0    0  501    0  0.00000000000E+00  0.00000000000E+00  0.15270959021E+04  0.15270959021E+04  0.25500000920E-02 0. -1.
       -2   -1    0    0    0  501  0.00000000000E+00  0.00000000000E+00 -0.14744870570E+04  0.14744870570E+04  0.25500000920E-02 0.  1.
    10030    2    1    2    0    0  0.00000000000E+00  0.00000000000E+00  0.52608845084E+02  0.30015829592E+04  0.30011218853E+04 0.  0.
        5    1    3    3  502    0  0.41005253100E+03  0.70764942781E+03 -0.12319628889E+04  0.14787377863E+04  0.46999998093E+01 0.  1.
       -5    1    3    3    0  502 -0.41005253100E+03 -0.70764942781E+03  0.12845717340E+04  0.15228451729E+04  0.46999998093E+01 0. -1.
</event>
<event>
 5   0  0.6291798E-07  0.2975821E+04  0.7818609E-02  0.8250669E-01
       -1   -1    0    0    0  501  0.00000000000E+00  0.00000000000E+00  0.85930782015E+03  0.85930782017E+03  0.50400001928E-02 0.  1.
        1   -1    0    0  501    0  0.00000000000E+00  0.00000000000E+00 -0.25763499121E+04  0.25763499121E+04  0.50400001928E-02 0. -1.
    10030    2    1    2    0    0  0.00000000000E+00  0.00000000000E+00 -0.17170420919E+04  0.34356577323E+04  0.29758209805E+04 0.  0.
        1    1    3    3  502    0 -0.51626677047E+03  0.98082906648E+03  0.28749809126E+03  0.11450817388E+04  0.50400001928E-02 0.  1.
       -1    1    3    3    0  502  0.51626677047E+03 -0.98082906648E+03 -0.20045401832E+04  0.22905759935E+04  0.50400001928E-02 0. -1.
</event>
<event>
 5   0  0.1723916E-06  0.3071970E+04  0.7818609E-02  0.8223473E-01
       -2   -1    0    0    0  501  0.00000000000E+00  0.00000000000E+00  0.14955321117E+04  0.14955321117E+04  0.25500000920E-02 0.  1.
        2   -1    0    0  501    0  0.00000000000E+00  0.00000000000E+00 -0.15775318988E+04  0.15775318988E+04  0.25500000920E-02 0. -1.
    10030    2    1    2    0    0  0.00000000000E+00  0.00000000000E+00 -0.81999787099E+02  0.30730640105E+04  0.30719697992E+04 0.  0.
        1    1    3    3  502    0  0.21932835749E+03  0.14619924513E+04  0.37594918623E+03  0.15254063874E+04  0.50400001928E-02 0. -1.
       -1    1    3    3    0  502 -0.21932835749E+03 -0.14619924513E+04 -0.45794897333E+03  0.15476576231E+04  0.50400001928E-02 0.  1.
</event>
<event>
 5   0  0.1674806E-06  0.3003945E+04  0.7818609E-02  0.8242605E-01
       -2   -1    0    0    0  501  0.00000000000E+00  0.00000000000E+00  0.98961188279E+03  0.98961188280E+03  0.25500000920E-02 0.  1.
        2   -1    0    0  501    0  0.00000000000E+00  0.00000000000E+00 -0.22796025858E+04  0.22796025858E+04  0.25500000920E-02 0. -1.
    10030    2    1    2    0    0  0.00000000000E+00  0.00000000000E+00 -0.12899907030E+04  0.32692144686E+04  0.30039452771E+04 0.  0.
        2    1    3    3  502    0  0.39779357471E+03  0.34509793107E+03  0.88584268707E+03  0.10305578957E+04  0.25500000920E-02 0.  1.
       -2    1    3    3    0  502 -0.39779357471E+03 -0.34509793107E+03 -0.21758333901E+04  0.22386565730E+04  0.25500000920E-02 0. -1.
</event>
<event>
 5   0  0.5916703E-07  0.2995799E+04  0.7818609E-02  0.8244931E-01
       -1   -1    0    0    0  501  0.00000000000E+00  0.00000000000E+00  0.29148566631E+04  0.29148566631E+04  0.50400001928E-02 0. -1.
        1   -1    0    0  501    0  0.00000000000E+00  0.00000000000E+00 -0.76974739824E+03  0.76974739825E+03  0.50400001928E-02 0.  1.
    10030    2    1    2    0    0  0.00000000000E+00  0.00000000000E+00  0.21451092648E+04  0.36846040613E+04  0.29957992808E+04 0.  0.
        5    1    3    3  502    0 -0.56366747051E+03 -0.12325222897E+04  0.18570579005E+04  0.22990255213E+04  0.46999998093E+01 0. -1.
       -5    1    3    3    0  502  0.56366747051E+03  0.12325222897E+04  0.28805136431E+03  0.13855785400E+04  0.46999998093E+01 0.  1.
</event>
<event>
 5   0  0.5887179E-07  0.3012812E+04  0.7818609E-02  0.8240082E-01
        1   -1    0    0  501    0  0.00000000000E+00  0.00000000000E+00  0.19573733428E+04  0.19573733428E+04  0.50400001928E-02 0. -1.
       -1   -1    0    0    0  501  0.00000000000E+00  0.00000000000E+00 -0.11593390861E+04  0.11593390861E+04  0.50400001928E-02 0.  1.
    10030    2    1    2    0    0  0.00000000000E+00  0.00000000000E+00  0.79803425663E+03  0.31167124289E+04  0.30128122560E+04 0.  0.
        3    1    3    3  502    0  0.13522246534E+04 -0.44921532193E+03  0.90470362370E+03  0.16878372480E+04  0.10100000352E+00 0.  1.
       -3    1    3    3    0  502 -0.13522246534E+04  0.44921532193E+03 -0.10666936707E+03  0.14288751809E+04  0.10100000352E+00 0. -1.
</event>
<event>
 5   0  0.1635086E-06  0.2997639E+04  0.7818609E-02  0.8244405E-01
        2   -1    0    0  501    0  0.00000000000E+00  0.00000000000E+00  0.23085291589E+04  0.23085291589E+04  0.25500000920E-02 0.  1.
       -2   -1    0    0    0  501  0.00000000000E+00  0.00000000000E+00 -0.97311338554E+03  0.97311338554E+03  0.25500000920E-02 0. -1.
    10030    2    1    2    0    0  0.00000000000E+00  0.00000000000E+00  0.13354157733E+04  0.32816425444E+04  0.29976394883E+04 0.  0.
        3    1    3    3  502    0  0.48174591776E+03  0.59648697082E+02  0.22200907872E+04  0.22725404749E+04  0.10100000352E+00 0.  1.
       -3    1    3    3    0  502 -0.48174591776E+03 -0.59648697082E+02 -0.88467501388E+03  0.10091020695E+04  0.10100000352E+00 0. -1.
</event>
<event>
 5   0  0.1560174E-06  0.2915882E+04  0.7818609E-02  0.8268168E-01
        2   -1    0    0  501    0  0.00000000000E+00  0.00000000000E+00  0.17022631309E+04  0.17022631309E+04  0.25500000920E-02 0.  1.
       -2   -1    0    0    0  501  0.00000000000E+00  0.00000000000E+00 -0.12486863208E+04  0.12486863208E+04  0.25500000920E-02 0. -1.
    10030    2    1    2    0    0  0.00000000000E+00  0.00000000000E+00  0.45357681008E+03  0.29509494517E+04  0.29158824983E+04 0.  0.
        5    1    3    3  502    0  0.50979874431E+03 -0.10710600573E+04  0.10846298176E+04  0.16073295671E+04  0.46999998093E+01 0.  1.
       -5    1    3    3    0  502 -0.50979874431E+03  0.10710600573E+04 -0.63105300752E+03  0.13436198846E+04  0.46999998093E+01 0. -1.
</event>
<event>
 5   0  0.5916703E-07  0.2979987E+04  0.7818609E-02  0.8249469E-01
        1   -1    0    0  501    0  0.00000000000E+00  0.00000000000E+00  0.13304099371E+04  0.13304099372E+04  0.50400001928E-02 0. -1.
       -1   -1    0    0    0  501  0.00000000000E+00  0.00000000000E+00 -0.16687195524E+04  0.16687195524E+04  0.50400001928E-02 0.  1.
    10030    2    1    2    0    0  0.00000000000E+00  0.00000000000E+00 -0.33830961529E+03  0.29991294896E+04  0.29799872986E+04 0.  0.
        5    1    3    3  502    0  0.99592004598E+03  0.64441959323E+03 -0.10765703497E+04  0.16019235806E+04  0.46999998093E+01 0.  1.
       -5    1    3    3    0  502 -0.99592004598E+03 -0.64441959323E+03  0.73826073446E+03  0.13972059090E+04  0.46999998093E+01 0. -1.
</event>
<event>
 5   0  0.1723916E-06  0.2999139E+04  0.7818609E-02  0.8243977E-01
        2   -1    0    0  501    0  0.00000000000E+00  0.00000000000E+00  0.17474761234E+04  0.17474761234E+04  0.25500000920E-02 0.  1.
       -2   -1    0    0    0  501  0.00000000000E+00  0.00000000000E+00 -0.12868326627E+04  0.12868326627E+04  0.25500000920E-02 0. -1.
    10030    2    1    2    0    0  0.00000000000E+00  0.00000000000E+00  0.46064346071E+03  0.30343087862E+04  0.29991394452E+04 0.  0.
        1    1    3    3  502    0  0.13918261385E+04 -0.50623307541E+03 -0.75037830640E+01  0.14810497066E+04  0.50400001928E-02 0. -1.
       -1    1    3    3    0  502 -0.13918261385E+04  0.50623307541E+03  0.46814724377E+03  0.15532590796E+04  0.50400001928E-02 0.  1.
</event>
<event>
 5   0  0.6291798E-07  0.2983073E+04  0.7818609E-02  0.8248581E-01
       -1   -1    0    0    0  501  0.00000000000E+00  0.00000000000E+00  0.22345593221E+04  0.22345593221E+04  0.50400001928E-02 0. -1.
        1   -1    0    0  501    0  0.00000000000E+00  0.00000000000E+00 -0.99557936027E+03  0.99557936028E+03  0.50400001928E-02 0.  1.
    10030    2    1    2    0    0  0.00000000000E+00  0.00000000000E+00  0.12389799618E+04  0.32301386824E+04  0.29830730064E+04 0.  0.
        1    1    3    3  502    0 -0.10917838681E+04  0.53055021752E+03 -0.31901523938E+03  0.12550881527E+04  0.50400001928E-02 0.  1.
       -1    1    3    3    0  502  0.10917838681E+04 -0.53055021752E+03  0.15579952012E+04  0.19750505297E+04  0.50400001928E-02 0. -1.
</event>
<event>
 5   0  0.1635086E-06  0.2998554E+04  0.7818609E-02  0.8244144E-01
       -2   -1    0    0    0  501  0.00000000000E+00  0.00000000000E+00  0.12563267925E+04  0.12563267925E+04  0.25500000920E-02 0. -1.
        2   -1    0    0  501    0  0.00000000000E+00  0.00000000000E+00 -0.17892093158E+04  0.17892093158E+04  0.25500000920E-02 0.  1.
    10030    2    1    2    0    0  0.00000000000E+00  0.00000000000E+00 -0.53288252333E+03  0.30455361083E+04  0.29985540521E+04 0.  0.
        3    1    3    3  502    0  0.11919377792E+04  0.90204260227E+03 -0.14871543319E+03  0.15021693700E+04  0.10100000352E+00 0. -1.
       -3    1    3    3    0  502 -0.11919377792E+04 -0.90204260227E+03 -0.38416709013E+03  0.15433667384E+04  0.10100000352E+00 0.  1.
</event>
<event>
 5   0  0.1625212E-06  0.2995885E+04  0.7818609E-02  0.8244907E-01
        2   -1    0    0  501    0  0.00000000000E+00  0.00000000000E+00  0.24544131807E+04  0.24544131807E+04  0.25500000920E-02 0.  1.
       -2   -1    0    0    0  501  0.00000000000E+00  0.00000000000E+00 -0.91420265781E+03  0.91420265782E+03  0.25500000920E-02 0. -1.
    10030    2    1    2    0    0  0.00000000000E+00  0.00000000000E+00  0.15402105229E+04  0.33686158386E+04  0.29958845460E+04 0.  0.
        4    1    3    3  502    0 -0.22098546670E+03 -0.93508029842E+02  0.24326618460E+04  0.24444679580E+04  0.12699999809E+01 0.  1.
       -4    1    3    3    0  502  0.22098546670E+03  0.93508029842E+02 -0.89245132305E+03  0.92414788051E+03  0.12699999809E+01 0. -1.
</event>
<event>
 5   0  0.1674806E-06  0.2976026E+04  0.7818609E-02  0.8250610E-01
       -2   -1    0    0    0  501  0.00000000000E+00  0.00000000000E+00  0.14932907785E+04  0.14932907785E+04  0.25500000920E-02 0. -1.
        2   -1    0    0  501    0  0.00000000000E+00  0.00000000000E+00 -0.14827542990E+04  0.14827542990E+04  0.25500000920E-02 0.  1.
    10030    2    1    2    0    0  0.00000000000E+00  0.00000000000E+00  0.10536479529E+02  0.29760450775E+04  0.29760264257E+04 0.  0.
        2    1    3    3  502    0  0.26853738846E+03 -0.93587927941E+02 -0.14553271980E+04  0.14828514027E+04  0.25500000920E-02 0.  1.
       -2    1    3    3    0  502 -0.26853738846E+03  0.93587927941E+02  0.14658636776E+04  0.14931936748E+04  0.25500000920E-02 0. -1.
</event>
<event>
 5   0  0.1674806E-06  0.3002050E+04  0.7818609E-02  0.8243146E-01
       -2   -1    0    0    0  501  0.00000000000E+00  0.00000000000E+00  0.11642254953E+04  0.11642254953E+04  0.25500000920E-02 0.  1.
        2   -1    0    0  501    0  0.00000000000E+00  0.00000000000E+00 -0.19352579757E+04  0.19352579757E+04  0.25500000920E-02 0. -1.
    10030    2    1    2    0    0  0.00000000000E+00  0.00000000000E+00 -0.77103248041E+03  0.30994834711E+04  0.30020504162E+04 0.  0.
        2    1    3    3  502    0 -0.78036875830E+02  0.64021279736E+03  0.10138759800E+04  0.12016266819E+04  0.25500000920E-02 0.  1.
       -2    1    3    3    0  502  0.78036875830E+02 -0.64021279736E+03 -0.17849084604E+04  0.18978567891E+04  0.25500000920E-02 0. -1.
</event>
<event>
 5   0  0.1723916E-06  0.2956029E+04  0.7818609E-02  0.8256400E-01
        2   -1    0    0  501    0  0.00000000000E+00  0.00000000000E+00  0.13048821412E+04  0.13048821413E+04  0.25500000920E-02 0. -1.
       -2   -1    0    0    0  501  0.00000000000E+00  0.00000000000E+00 -0.16741177732E+04  0.16741177732E+04  0.25500000920E-02 0.  1.
    10030    2    1    2    0    0  0.00000000000E+00  0.00000000000E+00 -0.36923563199E+03  0.29789999145E+04  0.29560286769E+04 0.  0.
        1    1    3    3  502    0 -0.51486856806E+03 -0.47922963410E+03  0.11253975146E+04  0.13271285734E+04  0.50400001928E-02 0. -1.
       -1    1    3    3    0  502  0.51486856806E+03  0.47922963410E+03 -0.14946331466E+04  0.16518713411E+04  0.50400001928E-02 0.  1.
</event>
<event>
 5   0  0.5916703E-07  0.3000352E+04  0.7818609E-02  0.8243630E-01
        1   -1    0    0  501    0  0.00000000000E+00  0.00000000000E+00  0.27176676480E+04  0.27176676480E+04  0.50400001928E-02 0.  1.
       -1   -1    0    0    0  501  0.00000000000E+00  0.00000000000E+00 -0.82810996502E+03  0.82810996504E+03  0.50400001928E-02 0. -1.
    10030    2    1    2    0    0  0.00000000000E+00  0.00000000000E+00  0.18895576830E+04  0.35457776130E+04  0.30003517534E+04 0.  0.
        5    1    3    3  502    0  0.13340662959E+04 -0.89431339060E+02  0.14083791870E+03  0.13444657882E+04  0.46999998093E+01 0. -1.
       -5    1    3    3    0  502 -0.13340662959E+04  0.89431339060E+02  0.17487197643E+04  0.22013118249E+04  0.46999998093E+01 0.  1.
</event>
<event>
 5   0  0.6291798E-07  0.2998329E+04  0.7818609E-02  0.8244208E-01
       -1   -1    0    0    0  501  0.00000000000E+00  0.00000000000E+00  0.22934133048E+04  0.22934133048E+04  0.50400001928E-02 0.  1.
        1   -1    0    0  501    0  0.00000000000E+00  0.00000000000E+00 -0.97997763998E+03  0.97997763999E+03  0.50400001928E-02 0. -1.
    10030    2    1    2    0    0  0.00000000000E+00  0.00000000000E+00  0.13134356648E+04  0.32733909448E+04  0.29983287064E+04 0.  0.
        1    1    3    3  502    0 -0.44848103689E+03  0.12442855929E+04 -0.11379891770E+03  0.13275285574E+04  0.50400001928E-02 0. -1.
       -1    1    3    3    0  502  0.44848103689E+03 -0.12442855929E+04  0.14272345825E+04  0.19458623874E+04  0.50400001928E-02 0.  1.
</event>
<event>
 5   0  0.1723916E-06  0.2995110E+04  0.7818609E-02  0.8245129E-01
        2   -1    0    0  501    0  0.00000000000E+00  0.00000000000E+00  0.19883620477E+04  0.19883620477E+04  0.25500000920E-02 0.  1.
       -2   -1    0    0    0  501  0.00000000000E+00  0.00000000000E+00 -0.11278983757E+04  0.11278983757E+04  0.25500000920E-02 0. -1.
    10030    2    1    2    0    0  0.00000000000E+00  0.00000000000E+00  0.86046367197E+03  0.31162604233E+04  0.29951095632E+04 0.  0.
        1    1    3    3  502    0 -0.10897149845E+04  0.98368638921E+03  0.73809357147E+03  0.16431371762E+04  0.50400001928E-02 0. -1.
       -1    1    3    3    0  502  0.10897149845E+04 -0.98368638921E+03  0.12237010050E+03  0.14731232471E+04  0.50400001928E-02 0.  1.
</event>
<event>
 5   0  0.5931588E-07  0.2949049E+04  0.7818609E-02  0.8258432E-01
        1   -1    0    0  501    0  0.00000000000E+00  0.00000000000E+00  0.85798936774E+03  0.85798936776E+03  0.50400001928E-02 0. -1.
       -1   -1    0    0    0  501  0.00000000000E+00  0.00000000000E+00 -0.25340905205E+04  0.25340905205E+04  0.50400001928E-02 0.  1.
    10030    2    1    2    0    0  0.00000000000E+00  0.00000000000E+00 -0.16761011528E+04  0.33920798883E+04  0.29490491508E+04 0.  0.
        2    1    3    3  502    0  0.92797082280E+03  0.22555605375E+03  0.45421308630E+03  0.10575040941E+04  0.25500000920E-02 0. -1.
       -2    1    3    3    0  502 -0.92797082280E+03 -0.22555605375E+03 -0.21303142391E+04  0.23345757941E+04  0.25500000920E-02 0.  1.
</event>
<event>
 5   0  0.5887179E-07  0.3004665E+04  0.7818609E-02  0.8242400E-01
        1   -1    0    0  501    0  0.00000000000E+00  0.00000000000E+00  0.21484234153E+04  0.21484234153E+04  0.50400001928E-02 0.  1.
       -1   -1    0    0    0  501  0.00000000000E+00  0.00000000000E+00 -0.10505391653E+04  0.10505391653E+04  0.50400001928E-02 0. -1.
    10030    2    1    2    0    0  0.00000000000E+00  0.00000000000E+00  0.10978842500E+04  0.31989625806E+04  0.30046650005E+04 0.  0.
        3    1    3    3  502    0  0.98778494956E+01 -0.13617982081E+04 -0.12643760725E+03  0.13676909045E+04  0.10100000352E+00 0. -1.
       -3    1    3    3    0  502 -0.98778494956E+01  0.13617982081E+04  0.12243218573E+04  0.18312716761E+04  0.10100000352E+00 0.  1.
</event>
<event>
 5   0  0.5874741E-07  0.3122863E+04  0.7818609E-02  0.8209491E-01
       -1   -1    0    0    0  501  0.00000000000E+00  0.00000000000E+00  0.12619329617E+04  0.12619329617E+04  0.50400001928E-02 0. -1.
        1   -1    0    0  501    0  0.00000000000E+00  0.00000000000E+00 -0.19320111872E+04  0.19320111872E+04  0.50400001928E-02 0.  1.
    10030    2    1    2    0    0  0.00000000000E+00  0.00000000000E+00 -0.67007822553E+03  0.31939441489E+04  0.31228631731E+04 0.  0.
        4    1    3    3  502    0  0.85240644150E+03 -0.13034497057E+04 -0.22074072536E+03  0.15729926756E+04  0.12699999809E+01 0. -1.
       -4    1    3    3    0  502 -0.85240644150E+03  0.13034497057E+04 -0.44933750017E+03  0.16209514733E+04  0.12699999809E+01 0.  1.
</event>
<event>
 5   0  0.1723916E-06  0.2999511E+04  0.7818609E-02  0.8243871E-01
        2   -1    0    0  501    0  0.00000000000E+00  0.00000000000E+00  0.16472951046E+04  0.16472951046E+04  0.25500000920E-02 0.  1.
       -2   -1    0    0    0  501  0.00000000000E+00  0.00000000000E+00 -0.13654298775E+04  0.13654298775E+04  0.25500000920E-02 0. -1.
    10030    2    1    2    0    0  0.00000000000E+00  0.00000000000E+00  0.28186522707E+03  0.30127249821E+04  0.29995105953E+04 0.  0.
        1    1    3    3  502    0 -0.14662556948E+02  0.21932378646E+03 -0.13491624748E+04  0.13669518270E+04  0.50400001928E-02 0. -1.
       -1    1    3    3    0  502  0.14662556948E+02 -0.21932378646E+03  0.16310277018E+04  0.16457731551E+04  0.50400001928E-02 0.  1.
</event>
<event>
 5   0  0.5931588E-07  0.2997029E+04  0.7818609E-02  0.8244580E-01
       -1   -1    0    0    0  501  0.00000000000E+00  0.00000000000E+00  0.13723197000E+04  0.13723197000E+04  0.50400001928E-02 0. -1.
        1   -1    0    0  501    0  0.00000000000E+00  0.00000000000E+00 -0.16363133196E+04  0.16363133196E+04  0.50400001928E-02 0.  1.
    10030    2    1    2    0    0  0.00000000000E+00  0.00000000000E+00 -0.26399361958E+03  0.30086330196E+04  0.29970285310E+04 0.  0.
        2    1    3    3  502    0  0.58385614340E+03  0.20711015751E+03  0.12377505331E+04  0.13841275215E+04  0.25500000920E-02 0. -1.
       -2    1    3    3    0  502 -0.58385614340E+03 -0.20711015751E+03 -0.15017441527E+04  0.16245054982E+04  0.25500000920E-02 0.  1.
</event>
<event>
 5   0  0.5916703E-07  0.2995480E+04  0.7818609E-02  0.8245023E-01
       -1   -1    0    0    0  501  0.00000000000E+00  0.00000000000E+00  0.11959652164E+04  0.11959652165E+04  0.50400001928E-02 0. -1.
        1   -1    0    0  501    0  0.00000000000E+00  0.00000000000E+00 -0.18756608925E+04  0.18756608926E+04  0.50400001928E-02 0.  1.
    10030    2    1    2    0    0  0.00000000000E+00  0.00000000000E+00 -0.67969567610E+03  0.30716261090E+04  0.29954800519E+04 0.  0.
        5    1    3    3  502    0  0.69550995621E+03  0.11901164715E+04  0.26078223810E+03  0.14029044090E+04  0.46999998093E+01 0. -1.
       -5    1    3    3    0  502 -0.69550995621E+03 -0.11901164715E+04 -0.94047791420E+03  0.16687217000E+04  0.46999998093E+01 0.  1.
</event>
<event>
 5   0  0.5916703E-07  0.2989783E+04  0.7818609E-02  0.8246654E-01
        1   -1    0    0  501    0  0.00000000000E+00  0.00000000000E+00  0.16542088566E+04  0.16542088566E+04  0.50400001928E-02 0.  1.
       -1   -1    0    0    0  501  0.00000000000E+00  0.00000000000E+00 -0.13509178938E+04  0.13509178939E+04  0.50400001928E-02 0. -1.
    10030    2    1    2    0    0  0.00000000000E+00  0.00000000000E+00  0.30329096277E+03  0.30051267505E+04  0.29897828313E+04 0.  0.
        5    1    3    3  502    0 -0.13185239639E+02 -0.14602790655E+04  0.47279967215E+03  0.15349757065E+04  0.46999998093E+01 0.  1.
       -5    1    3    3    0  502  0.13185239639E+02  0.14602790655E+04 -0.16950870938E+03  0.14701510440E+04  0.46999998093E+01 0. -1.
</event>
<event>
 5   0  0.1723916E-06  0.3003749E+04  0.7818609E-02  0.8242661E-01
        2   -1    0    0  501    0  0.00000000000E+00  0.00000000000E+00  0.18326229312E+04  0.18326229312E+04  0.25500000920E-02 0. -1.
       -2   -1    0    0    0  501  0.00000000000E+00  0.00000000000E+00 -0.12308187353E+04  0.12308187353E+04  0.25500000920E-02 0.  1.
    10030    2    1    2    0    0  0.00000000000E+00  0.00000000000E+00  0.60180419591E+03  0.30634416664E+04  0.30037487500E+04 0.  0.
        1    1    3    3  502    0  0.14988872199E+04 -0.88018201872E+02  0.26533007290E+03  0.15247328125E+04  0.50400001928E-02 0.  1.
       -1    1    3    3    0  502 -0.14988872199E+04  0.88018201872E+02  0.33647412302E+03  0.15387088540E+04  0.50400001928E-02 0. -1.
</event>
<event>
 5   0  0.5916703E-07  0.2962768E+04  0.7818609E-02  0.8254443E-01
       -1   -1    0    0    0  501  0.00000000000E+00  0.00000000000E+00  0.12867670996E+04  0.12867670996E+04  0.50400001928E-02 0.  1.
        1   -1    0    0  501    0  0.00000000000E+00  0.00000000000E+00 -0.17054362258E+04  0.17054362258E+04  0.50400001928E-02 0. -1.
    10030    2    1    2    0    0  0.00000000000E+00  0.00000000000E+00 -0.41866912621E+03  0.29922033253E+04  0.29627684525E+04 0.  0.
        5    1    3    3  502    0  0.12733178372E+04  0.46881505146E+03  0.39100465756E+03  0.14121021915E+04  0.46999998093E+01 0.  1.
       -5    1    3    3    0  502 -0.12733178372E+04 -0.46881505146E+03 -0.80967378377E+03  0.15801011338E+04  0.46999998093E+01 0. -1.
</event>
<event>
 5   0  0.1674806E-06  0.3003033E+04  0.7818609E-02  0.8242865E-01
        2   -1    0    0  501    0  0.00000000000E+00  0.00000000000E+00  0.16177987328E+04  0.16177987328E+04  0.25500000920E-02 0. -1.
       -2   -1    0    0    0  501  0.00000000000E+00  0.00000000000E+00 -0.13935921970E+04  0.13935921970E+04  0.25500000920E-02 0.  1.
    10030    2    1    2    0    0  0.00000000000E+00  0.00000000000E+00  0.22420653585E+03  0.30113909298E+04  0.30030329271E+04 0.  0.
        2    1    3    3  502    0  0.65751243703E+03  0.10805942401E+04  0.92339463809E+03  0.15660983923E+04  0.25500000920E-02 0. -1.
       -2    1    3    3    0  502 -0.65751243703E+03 -0.10805942401E+04 -0.69918810224E+03  0.14452925375E+04  0.25500000920E-02 0.  1.
</event>
<event>
 5   0  0.5931588E-07  0.2996318E+04  0.7818609E-02  0.8244783E-01
        1   -1    0    0  501    0  0.00000000000E+00  0.00000000000E+00  0.19710828944E+04  0.19710828944E+04  0.50400001928E-02 0.  1.
       -1   -1    0    0    0  501  0.00000000000E+00  0.00000000000E+00 -0.11387040539E+04  0.11387040539E+04  0.50400001928E-02 0. -1.
    10030    2    1    2    0    0  0.00000000000E+00  0.00000000000E+00  0.83237884047E+03  0.31097869483E+04  0.29963177952E+04 0.  0.
        2    1    3    3  502    0  0.35686023366E+03 -0.11427607843E+04  0.13509801608E+04  0.18051035514E+04  0.25500000920E-02 0.  1.
       -2    1    3    3    0  502 -0.35686023366E+03  0.11427607843E+04 -0.51860132033E+03  0.13046833968E+04  0.25500000920E-02 0. -1.
</event>
<event>
 5   0  0.1560174E-06  0.3017203E+04  0.7818609E-02  0.8238835E-01
       -2   -1    0    0    0  501  0.00000000000E+00  0.00000000000E+00  0.16332814864E+04  0.16332814864E+04  0.25500000920E-02 0. -1.
        2   -1    0    0  501    0  0.00000000000E+00  0.00000000000E+00 -0.13934395997E+04  0.13934395997E+04  0.25500000920E-02 0.  1.
    10030    2    1    2    0    0  0.00000000000E+00  0.00000000000E+00  0.23984188669E+03  0.30267210861E+04  0.30172034076E+04 0.  0.
        5    1    3    3  502    0 -0.64603983424E+03 -0.70351813317E+03  0.12913166557E+04  0.16061836839E+04  0.46999998093E+01 0. -1.
       -5    1    3    3    0  502  0.64603983424E+03  0.70351813317E+03 -0.10514747691E+04  0.14205374022E+04  0.46999998093E+01 0.  1.
</event>
<event>
 5   0  0.1625212E-06  0.3008916E+04  0.7818609E-02  0.8241189E-01
        2   -1    0    0  501    0  0.00000000000E+00  0.00000000000E+00  0.17951844500E+04  0.17951844500E+04  0.25500000920E-02 0. -1.
       -2   -1    0    0    0  501  0.00000000000E+00  0.00000000000E+00 -0.12608145143E+04  0.12608145143E+04  0.25500000920E-02 0.  1.
    10030    2    1    2    0    0  0.00000000000E+00  0.00000000000E+00  0.53436993577E+03  0.30559989643E+04  0.30089164896E+04 0.  0.
        4    1    3    3  502    0 -0.83245009236E+03  0.58006684910E+03  0.13953963920E+04  0.17252777775E+04  0.12699999809E+01 0. -1.
       -4    1    3    3    0  502  0.83245009236E+03 -0.58006684910E+03 -0.86102645628E+03  0.13307211868E+04  0.12699999809E+01 0.  1.
</event>
<event>
 5   0  0.1625212E-06  0.3011118E+04  0.7818609E-02  0.8240563E-01
       -2   -1    0    0    0  501  0.00000000000E+00  0.00000000000E+00  0.13449459168E+04  0.13449459168E+04  0.25500000920E-02 0.  1.
        2   -1    0    0  501    0  0.00000000000E+00  0.00000000000E+00 -0.16853527078E+04  0.16853527078E+04  0.25500000920E-02 0. -1.
    10030    2    1    2    0    0  0.00000000000E+00  0.00000000000E+00 -0.34040679105E+03  0.30302986246E+04  0.30111182260E+04 0.  0.
        4    1    3    3  502    0 -0.24465740579E+03  0.14811174121E+04 -0.28556602331E+03  0.15281085044E+04  0.12699999809E+01 0. -1.
       -4    1    3    3    0  502  0.24465740579E+03 -0.14811174121E+04 -0.54840767738E+02  0.15021901202E+04  0.12699999809E+01 0.  1.
</event>
<event>
 5   0  0.5916703E-07  0.2985300E+04  0.7818609E-02  0.8247941E-01
        1   -1    0    0  501    0  0.00000000000E+00  0.00000000000E+00  0.16547995815E+04  0.16547995815E+04  0.50400001928E-02 0.  1.
       -1   -1    0    0    0  501  0.00000000000E+00  0.00000000000E+00 -0.13463888157E+04  0.13463888157E+04  0.50400001928E-02 0. -1.
    10030    2    1    2    0    0  0.00000000000E+00  0.00000000000E+00  0.30841076581E+03  0.30011883972E+04  0.29852997496E+04 0.  0.
        5    1    3    3  502    0  0.45375660984E+03  0.88821124840E+02  0.15809831049E+04  0.16472139877E+04  0.46999998093E+01 0.  1.
       -5    1    3    3    0  502 -0.45375660984E+03 -0.88821124840E+02 -0.12725723391E+04  0.13539744095E+04  0.46999998093E+01 0. -1.
</event>
<event>
 5   0  0.5431625E-07  0.2959524E+04  0.7818609E-02  0.8255384E-01
       -3   -1    0    0    0  501  0.00000000000E+00  0.00000000000E+00  0.17412671156E+04  0.17412671185E+04  0.10100000352E+00 0.  1.
        3   -1    0    0  501    0  0.00000000000E+00  0.00000000000E+00 -0.12575298742E+04  0.12575298782E+04  0.10100000352E+00 0. -1.
    10030    2    1    2    0    0  0.00000000000E+00  0.00000000000E+00  0.48373724142E+03  0.29987969967E+04  0.29595238990E+04 0.  0.
        2    1    3    3  502    0 -0.14193009756E+04 -0.35776859879E+01  0.66607358672E+03  0.15678271850E+04  0.25500000920E-02 0.  1.
       -2    1    3    3    0  502  0.14193009756E+04  0.35776859879E+01 -0.18233634530E+03  0.14309698117E+04  0.25500000920E-02 0. -1.
</event>
<event>
 5   0  0.5916703E-07  0.2994509E+04  0.7818609E-02  0.8245301E-01
       -1   -1    0    0    0  501  0.00000000000E+00  0.00000000000E+00  0.91459878653E+03  0.91459878654E+03  0.50400001928E-02 0.  1.
        1   -1    0    0  501    0  0.00000000000E+00  0.00000000000E+00 -0.24510982203E+04  0.24510982203E+04  0.50400001928E-02 0. -1.
    10030    2    1    2    0    0  0.00000000000E+00  0.00000000000E+00 -0.15364994337E+04  0.33656970068E+04  0.29945092806E+04 0.  0.
        5    1    3    3  502    0  0.13497422124E+04  0.64783701373E+03 -0.78611077780E+03  0.16910023895E+04  0.46999998093E+01 0.  1.
       -5    1    3    3    0  502 -0.13497422124E+04 -0.64783701373E+03 -0.75038865592E+03  0.16746946173E+04  0.46999998093E+01 0. -1.
</event>
<event>
 5   0  0.1625212E-06  0.3036401E+04  0.7818609E-02  0.8233412E-01
        2   -1    0    0  501    0  0.00000000000E+00  0.00000000000E+00  0.24490848614E+04  0.24490848614E+04  0.25500000920E-02 0. -1.
       -2   -1    0    0    0  501  0.00000000000E+00  0.00000000000E+00 -0.94114037594E+03  0.94114037594E+03  0.25500000920E-02 0.  1.
    10030    2    1    2    0    0  0.00000000000E+00  0.00000000000E+00  0.15079444855E+04  0.33902252374E+04  0.30364009269E+04 0.  0.
        4    1    3    3  502    0 -0.54703769918E+03  0.97838943081E+03 -0.38927503042E+03  0.11866055726E+04  0.12699999809E+01 0.  1.
       -4    1    3    3    0  502  0.54703769918E+03 -0.97838943081E+03  0.18972195159E+04  0.22036196648E+04  0.12699999809E+01 0. -1.
</event>
<event>
 5   0  0.1560174E-06  0.3138240E+04  0.7818609E-02  0.8205321E-01
        2   -1    0    0  501    0  0.00000000000E+00  0.00000000000E+00  0.20046352031E+04  0.20046352031E+04  0.25500000920E-02 0.  1.
       -2   -1    0    0    0  501  0.00000000000E+00  0.00000000000E+00 -0.12282220306E+04  0.12282220306E+04  0.25500000920E-02 0. -1.
    10030    2    1    2    0    0  0.00000000000E+00  0.00000000000E+00  0.77641317251E+03  0.32328572337E+04  0.31382397102E+04 0.  0.
        5    1    3    3  502    0 -0.24184043197E+03  0.10771561371E+04  0.15368873901E+04  0.18922994155E+04  0.46999998093E+01 0.  1.
       -5    1    3    3    0  502  0.24184043197E+03 -0.10771561371E+04 -0.76047421756E+03  0.13405578182E+04  0.46999998093E+01 0. -1.
</event>
<event>
 5   0  0.5887179E-07  0.2985884E+04  0.7818609E-02  0.8247773E-01
        1   -1    0    0  501    0  0.00000000000E+00  0.00000000000E+00  0.23459949335E+04  0.23459949335E+04  0.50400001928E-02 0.  1.
       -1   -1    0    0    0  501  0.00000000000E+00  0.00000000000E+00 -0.95007708037E+03  0.95007708038E+03  0.50400001928E-02 0. -1.
    10030    2    1    2    0    0  0.00000000000E+00  0.00000000000E+00  0.13959178531E+04  0.32960720138E+04  0.29858841350E+04 0.  0.
        3    1    3    3  502    0  0.41362167513E+03  0.28131873275E+03  0.22507339868E+04  0.23056510164E+04  0.10100000352E+00 0.  1.
       -3    1    3    3    0  502 -0.41362167513E+03 -0.28131873275E+03 -0.85481613375E+03  0.99042099748E+03  0.10100000352E+00 0. -1.
</event>
<event>
 5   0  0.1625212E-06  0.2893564E+04  0.7818609E-02  0.8274795E-01
        2   -1    0    0  501    0  0.00000000000E+00  0.00000000000E+00  0.13101199519E+04  0.13101199519E+04  0.25500000920E-02 0.  1.
       -2   -1    0    0    0  501  0.00000000000E+00  0.00000000000E+00 -0.15976999220E+04  0.15976999220E+04  0.25500000920E-02 0. -1.
    10030    2    1    2    0    0  0.00000000000E+00  0.00000000000E+00 -0.28757997013E+03  0.29078198739E+04  0.28935642691E+04 0.  0.
        4    1    3    3  502    0 -0.13896779433E+03 -0.14039663586E+04 -0.46590518914E+03  0.14857667523E+04  0.12699999809E+01 0. -1.
       -4    1    3    3    0  502  0.13896779433E+03  0.14039663586E+04  0.17832521901E+03  0.14220531216E+04  0.12699999809E+01 0.  1.
</event>
<event>
 5   0  0.1723916E-06  0.3008885E+04  0.7818609E-02  0.8241198E-01
        2   -1    0    0  501    0  0.00000000000E+00  0.00000000000E+00  0.14490044599E+04  0.14490044599E+04  0.25500000920E-02 0. -1.
       -2   -1    0    0    0  501  0.00000000000E+00  0.00000000000E+00 -0.15620020370E+04  0.15620020370E+04  0.25500000920E-02 0.  1.
    10030    2    1    2    0    0  0.00000000000E+00  0.00000000000E+00 -0.11299757719E+03  0.30110064969E+04  0.30088854534E+04 0.  0.
        1    1    3    3  502    0  0.10760437438E+04  0.10168110907E+04  0.21122108011E+03  0.14954562105E+04  0.50400001928E-02 0. -1.
       -1    1    3    3    0  502 -0.10760437438E+04 -0.10168110907E+04 -0.32421865730E+03  0.15155502864E+04  0.50400001928E-02 0.  1.
</event>
<event>
 5   0  0.5887179E-07  0.3003291E+04  0.7818609E-02  0.8242792E-01
        1   -1    0    0  501    0  0.00000000000E+00  0.00000000000E+00  0.17484492924E+04  0.17484492924E+04  0.50400001928E-02 0. -1.
       -1   -1    0    0    0  501  0.00000000000E+00  0.00000000000E+00 -0.12896798278E+04  0.12896798278E+04  0.50400001928E-02 0.  1.
    10030    2    1    2    0    0  0.00000000000E+00  0.00000000000E+00  0.45876946460E+03  0.30381291202E+04  0.30032913827E+04 0.  0.
        3    1    3    3  502    0  0.11498248568E+04 -0.17068214982E+03 -0.73227923423E+03  0.13738495131E+04  0.10100000352E+00 0.  1.
       -3    1    3    3    0  502 -0.11498248568E+04  0.17068214982E+03  0.11910486988E+04  0.16642796071E+04  0.10100000352E+00 0. -1.
</event>
<event>
 5   0  0.1635086E-06  0.3004091E+04  0.7818609E-02  0.8242564E-01
        2   -1    0    0  501    0  0.00000000000E+00  0.00000000000E+00  0.17561397223E+04  0.17561397223E+04  0.25500000920E-02 0. -1.
       -2   -1    0    0    0  501  0.00000000000E+00  0.00000000000E+00 -0.12847158709E+04  0.12847158709E+04  0.25500000920E-02 0.  1.
    10030    2    1    2    0    0  0.00000000000E+00  0.00000000000E+00  0.47142385140E+03  0.30408555932E+04  0.30040909259E+04 0.  0.
        3    1    3    3  502    0 -0.15062115776E+03  0.15135060774E+03  0.17406983493E+04  0.17537458462E+04  0.10100000352E+00 0. -1.
       -3    1    3    3    0  502  0.15062115776E+03 -0.15135060774E+03 -0.12692744979E+04  0.12871097470E+04  0.10100000352E+00 0.  1.
</event>
<event>
 5   0  0.5887179E-07  0.3146455E+04  0.7818609E-02  0.8203103E-01
        1   -1    0    0  501    0  0.00000000000E+00  0.00000000000E+00  0.17275929055E+04  0.17275929055E+04  0.50400001928E-02 0. -1.
       -1   -1    0    0    0  501  0.00000000000E+00  0.00000000000E+00 -0.14326554579E+04  0.14326554580E+04  0.50400001928E-02 0.  1.
    10030    2    1    2    0    0  0.00000000000E+00  0.00000000000E+00  0.29493744754E+03  0.31602483635E+04  0.31464554058E+04 0.  0.
        3    1    3    3  502    0 -0.53939365599E+03  0.30194128290E+03 -0.13055697871E+04  0.14445160205E+04  0.10100000352E+00 0.  1.
       -3    1    3    3    0  502  0.53939365599E+03 -0.30194128290E+03  0.16005072346E+04  0.17157323429E+04  0.10100000352E+00 0. -1.
</event>
<event>
 5   0  0.5916703E-07  0.2995735E+04  0.7818609E-02  0.8244950E-01
        1   -1    0    0  501    0  0.00000000000E+00  0.00000000000E+00  0.21747339278E+04  0.21747339278E+04  0.50400001928E-02 0.  1.
       -1   -1    0    0    0  501  0.00000000000E+00  0.00000000000E+00 -0.10316697226E+04  0.10316697226E+04  0.50400001928E-02 0. -1.
    10030    2    1    2    0    0  0.00000000000E+00  0.00000000000E+00  0.11430642052E+04  0.32064036505E+04  0.29957350671E+04 0.  0.
        5    1    3    3  502    0  0.77613099525E+03  0.59390634747E+03  0.17864692143E+04  0.20363198214E+04  0.46999998093E+01 0.  1.
       -5    1    3    3    0  502 -0.77613099525E+03 -0.59390634747E+03 -0.64340500910E+03  0.11700838291E+04  0.46999998093E+01 0. -1.
</event>
<event>
 5   0  0.6291798E-07  0.2995668E+04  0.7818609E-02  0.8244969E-01
        1   -1    0    0  501    0  0.00000000000E+00  0.00000000000E+00  0.14637349454E+04  0.14637349454E+04  0.50400001928E-02 0. -1.
       -1   -1    0    0    0  501  0.00000000000E+00  0.00000000000E+00 -0.15327274192E+04  0.15327274192E+04  0.50400001928E-02 0.  1.
    10030    2    1    2    0    0  0.00000000000E+00  0.00000000000E+00 -0.68992473730E+02  0.29964623646E+04  0.29956679958E+04 0.  0.
        1    1    3    3  502    0 -0.97992981353E+03  0.24521346878E+03 -0.11407346195E+04  0.15237019252E+04  0.50400001928E-02 0.  1.
       -1    1    3    3    0  502  0.97992981353E+03 -0.24521346878E+03  0.10717421458E+04  0.14727604394E+04  0.50400001928E-02 0. -1.
</event>
<event>
 5   0  0.6291798E-07  0.3007480E+04  0.7818609E-02  0.8241598E-01
        1   -1    0    0  501    0  0.00000000000E+00  0.00000000000E+00  0.18276183141E+04  0.18276183141E+04  0.50400001928E-02 0.  1.
       -1   -1    0    0    0  501  0.00000000000E+00  0.00000000000E+00 -0.12372570931E+04  0.12372570932E+04  0.50400001928E-02 0. -1.
    10030    2    1    2    0    0  0.00000000000E+00  0.00000000000E+00  0.59036122100E+03  0.30648754073E+04  0.30074798239E+04 0.  0.
        1    1    3    3  502    0 -0.53817800236E+03 -0.11123676906E+04 -0.57804813225E+03  0.13642349814E+04  0.50400001928E-02 0. -1.
       -1    1    3    3    0  502  0.53817800236E+03  0.11123676906E+04  0.11684093532E+04  0.17006404259E+04  0.50400001928E-02 0.  1.
</event>
<event>
 5   0  0.1635086E-06  0.2950716E+04  0.7818609E-02  0.8257946E-01
        2   -1    0    0  501    0  0.00000000000E+00  0.00000000000E+00  0.21671156867E+04  0.21671156867E+04  0.25500000920E-02 0.  1.
       -2   -1    0    0    0  501  0.00000000000E+00  0.00000000000E+00 -0.10044142141E+04  0.10044142141E+04  0.25500000920E-02 0. -1.
    10030    2    1    2    0    0  0.00000000000E+00  0.00000000000E+00  0.11627014726E+04  0.31715299008E+04  0.29507163871E+04 0.  0.
        3    1    3    3  502    0 -0.73310034487E+03 -0.70301128089E+03  0.17314836500E+04  0.20074104257E+04  0.10100000352E+00 0.  1.
       -3    1    3    3    0  502  0.73310034487E+03  0.70301128089E+03 -0.56878217741E+03  0.11641194751E+04  0.10100000352E+00 0. -1.
</event>
<event>
 5   0  0.6291798E-07  0.3001695E+04  0.7818609E-02  0.8243247E-01
       -1   -1    0    0    0  501  0.00000000000E+00  0.00000000000E+00  0.19879006773E+04  0.19879006773E+04  0.50400001928E-02 0. -1.
        1   -1    0    0  501    0  0.00000000000E+00  0.00000000000E+00 -0.11331267266E+04  0.11331267266E+04  0.50400001928E-02 0.  1.
    10030    2    1    2    0    0  0.00000000000E+00  0.00000000000E+00  0.85477395075E+03  0.31210274039E+04  0.30016951126E+04 0.  0.
        1    1    3    3  502    0 -0.38578359179E+03  0.14491942265E+04  0.48934190133E+03  0.15774816583E+04  0.50400001928E-02 0. -1.
       -1    1    3    3    0  502  0.38578359179E+03 -0.14491942265E+04  0.36543204942E+03  0.15435457456E+04  0.50400001928E-02 0.  1.
</event>
<event>
 5   0  0.5931588E-07  0.2984215E+04  0.7818609E-02  0.8248253E-01
       -1   -1    0    0    0  501  0.00000000000E+00  0.00000000000E+00  0.12501204661E+04  0.12501204661E+04  0.50400001928E-02 0.  1.
        1   -1    0    0  501    0  0.00000000000E+00  0.00000000000E+00 -0.17809364106E+04  0.17809364106E+04  0.50400001928E-02 0. -1.
    10030    2    1    2    0    0  0.00000000000E+00  0.00000000000E+00 -0.53081594455E+03  0.30310568767E+04  0.29842151771E+04 0.  0.
        2    1    3    3  502    0  0.10487655261E+04  0.28068049807E+03 -0.13050438516E+04  0.16975953951E+04  0.25500000920E-02 0. -1.
       -2    1    3    3    0  502 -0.10487655261E+04 -0.28068049807E+03  0.77422790709E+03  0.13334614816E+04  0.25500000920E-02 0.  1.
</event>
<event>
 5   0  0.5916703E-07  0.3001417E+04  0.7818609E-02  0.8243326E-01
        1   -1    0    0  501    0  0.00000000000E+00  0.00000000000E+00  0.22285369457E+04  0.22285369457E+04  0.50400001928E-02 0. -1.
       -1   -1    0    0    0  501  0.00000000000E+00  0.00000000000E+00 -0.10105852627E+04  0.10105852627E+04  0.50400001928E-02 0.  1.
    10030    2    1    2    0    0  0.00000000000E+00  0.00000000000E+00  0.12179516830E+04  0.32391222085E+04  0.30014173950E+04 0.  0.
        5    1    3    3  502    0 -0.18439603122E+03  0.45103354914E+03  0.21407792917E+04  0.21955389372E+04  0.46999998093E+01 0. -1.
       -5    1    3    3    0  502  0.18439603122E+03 -0.45103354914E+03 -0.92282760868E+03  0.10435832713E+04  0.46999998093E+01 0.  1.
</event>
<event>
 5   0  0.1625212E-06  0.3010536E+04  0.7818609E-02  0.8240729E-01
        2   -1    0    0  501    0  0.00000000000E+00  0.00000000000E+00  0.18918596826E+04  0.18918596826E+04  0.25500000920E-02 0. -1.
       -2   -1    0    0    0  501  0.00000000000E+00  0.00000000000E+00 -0.11976740477E+04  0.11976740477E+04  0.25500000920E-02 0.  1.
    10030    2    1    2    0    0  0.00000000000E+00  0.00000000000E+00  0.69418563495E+03  0.30895337303E+04  0.30105356625E+04 0.  0.
        4    1    3    3  502    0 -0.10429061658E+04  0.10754530341E+04  0.49783889525E+03  0.15786379185E+04  0.12699999809E+01 0. -1.
       -4    1    3    3    0  502  0.10429061658E+04 -0.10754530341E+04  0.19634673970E+03  0.15108958118E+04  0.12699999809E+01 0.  1.
</event>
<event>
 5   0  0.1635086E-06  0.2990662E+04  0.7818609E-02  0.8246402E-01
        2   -1    0    0  501    0  0.00000000000E+00  0.00000000000E+00  0.23358715908E+04  0.23358715908E+04  0.25500000920E-02 0.  1.
       -2   -1    0    0    0  501  0.00000000000E+00  0.00000000000E+00 -0.95725084159E+03  0.95725084160E+03  0.25500000920E-02 0. -1.
    10030    2    1    2    0    0  0.00000000000E+00  0.00000000000E+00  0.13786207492E+04  0.32931224324E+04  0.29906621649E+04 0.  0.
        3    1    3    3  502    0 -0.29614895249E+03 -0.13266875233E+04  0.32308365549E+01  0.13593433838E+04  0.10100000352E+00 0. -1.
       -3    1    3    3    0  502  0.29614895249E+03  0.13266875233E+04  0.13753899126E+04  0.19337790486E+04  0.10100000352E+00 0.  1.
</event>
<event>
 5   0  0.5874741E-07  0.2993922E+04  0.7818609E-02  0.8245469E-01
        1   -1    0    0  501    0  0.00000000000E+00  0.00000000000E+00  0.13490370973E+04  0.13490370973E+04  0.50400001928E-02 0. -1.
       -1   -1    0    0    0  501  0.00000000000E+00  0.00000000000E+00 -0.16611050371E+04  0.16611050371E+04  0.50400001928E-02 0.  1.
    10030    2    1    2    0    0  0.00000000000E+00  0.00000000000E+00 -0.31206793975E+03  0.30101421344E+04  0.29939220548E+04 0.  0.
        4    1    3    3  502    0  0.22520146008E+03  0.11599325509E+04  0.76803812142E+03  0.14092705167E+04  0.12699999809E+01 0. -1.
       -4    1    3    3    0  502 -0.22520146008E+03 -0.11599325509E+04 -0.10801060612E+04  0.16008716178E+04  0.12699999809E+01 0.  1.
</event>
<event>
 5   0  0.5931588E-07  0.2997022E+04  0.7818609E-02  0.8244582E-01
       -1   -1    0    0    0  501  0.00000000000E+00  0.00000000000E+00  0.17637530035E+04  0.17637530035E+04  0.50400001928E-02 0.  1.
        1   -1    0    0  501    0  0.00000000000E+00  0.00000000000E+00 -0.12731569949E+04  0.12731569950E+04  0.50400001928E-02 0. -1.
    10030    2    1    2    0    0  0.00000000000E+00  0.00000000000E+00  0.49059600856E+03  0.30369099985E+04  0.29970215040E+04 0.  0.
        2    1    3    3  502    0 -0.23296714680E+03  0.71505538149E+03 -0.10680840908E+04  0.13062853881E+04  0.25500000920E-02 0. -1.
       -2    1    3    3    0  502  0.23296714680E+03 -0.71505538149E+03  0.15586800993E+04  0.17306246104E+04  0.25500000920E-02 0.  1.
</event>
<event>
 5   0  0.5874741E-07  0.2976731E+04  0.7818609E-02  0.8250407E-01
       -1   -1    0    0    0  501  0.00000000000E+00  0.00000000000E+00  0.97714217109E+03  0.97714217111E+03  0.50400001928E-02 0. -1.
        1   -1    0    0  501    0  0.00000000000E+00  0.00000000000E+00 -0.22670523187E+04  0.22670523187E+04  0.50400001928E-02 0.  1.
    10030    2    1    2    0    0  0.00000000000E+00  0.00000000000E+00 -0.12899101476E+04  0.32441944898E+04  0.29767313783E+04 0.  0.
        4    1    3    3  502    0 -0.21748171852E+03 -0.12525700398E+04  0.19853687467E+03  0.12867200574E+04  0.12699999809E+01 0. -1.
       -4    1    3    3    0  502  0.21748171852E+03  0.12525700398E+04 -0.14884470222E+04  0.19574744324E+04  0.12699999809E+01 0.  1.
</event>
<event>
 5   0  0.6291798E-07  0.3011847E+04  0.7818609E-02  0.8240356E-01
       -1   -1    0    0    0  501  0.00000000000E+00  0.00000000000E+00  0.18595085875E+04  0.18595085875E+04  0.50400001928E-02 0. -1.
        1   -1    0    0  501    0  0.00000000000E+00  0.00000000000E+00 -0.12195729203E+04  0.12195729203E+04  0.50400001928E-02 0.  1.
    10030    2    1    2    0    0  0.00000000000E+00  0.00000000000E+00  0.63993566726E+03  0.30790815078E+04  0.30118474851E+04 0.  0.
        1    1    3    3  502    0 -0.99632548481E+03  0.10193228165E+04  0.81673994946E+03  0.16427865415E+04  0.50400001928E-02 0. -1.
       -1    1    3    3    0  502  0.99632548481E+03 -0.10193228165E+04 -0.17680428220E+03  0.14362949663E+04  0.50400001928E-02 0.  1.
</event>
<event>
 5   0  0.5431625E-07  0.2986064E+04  0.7818609E-02  0.8247721E-01
        3   -1    0    0  501    0  0.00000000000E+00  0.00000000000E+00  0.16745738381E+04  0.16745738412E+04  0.10100000352E+00 0. -1.
       -3   -1    0    0    0  501  0.00000000000E+00  0.00000000000E+00 -0.13311716847E+04  0.13311716886E+04  0.10100000352E+00 0.  1.
    10030    2    1    2    0    0  0.00000000000E+00  0.00000000000E+00  0.34340215341E+03  0.30057455298E+04  0.29860644921E+04 0.  0.
        5    1    3    3  502    0  0.43557096381E+03  0.12542601452E+04 -0.51561160162E+03  0.14243482686E+04  0.46999998093E+01 0.  1.
       -5    1    3    3    0  502 -0.43557096381E+03 -0.12542601452E+04  0.85901375503E+03  0.15813972612E+04  0.46999998093E+01 0. -1.
</event>
<event>
 5   0  0.5874741E-07  0.2996839E+04  0.7818609E-02  0.8244634E-01
        1   -1    0    0  501    0  0.00000000000E+00  0.00000000000E+00  0.20947194433E+04  0.20947194433E+04  0.50400001928E-02 0.  1.
       -1   -1    0    0    0  501  0.00000000000E+00  0.00000000000E+00 -0.10718673101E+04  0.10718673101E+04  0.50400001928E-02 0. -1.
    10030    2    1    2    0    0  0.00000000000E+00  0.00000000000E+00  0.10228521332E+04  0.31665867534E+04  0.29968391983E+04 0.  0.
        4    1    3    3  502    0 -0.62815649729E+03  0.92198997911E+03  0.15683923784E+04  0.19247083863E+04  0.12699999809E+01 0.  1.
       -4    1    3    3    0  502  0.62815649729E+03 -0.92198997911E+03 -0.54554024521E+03  0.12418783671E+04  0.12699999809E+01 0. -1.
</event>
<event>
 5   0  0.1625212E-06  0.3000427E+04  0.7818609E-02  0.8243609E-01
       -2   -1    0    0    0  501  0.00000000000E+00  0.00000000000E+00  0.12297998447E+04  0.12297998447E+04  0.25500000920E-02 0.  1.
        2   -1    0    0  501    0  0.00000000000E+00  0.00000000000E+00 -0.18300874425E+04  0.18300874425E+04  0.25500000920E-02 0. -1.
    10030    2    1    2    0    0  0.00000000000E+00  0.00000000000E+00 -0.60028759783E+03  0.30598872872E+04  0.30004274712E+04 0.  0.
        4    1    3    3  502    0 -0.56138180561E+03  0.91945435000E+03  0.76462234168E+03  0.13210582015E+04  0.12699999809E+01 0.  1.
       -4    1    3    3    0  502  0.56138180561E+03 -0.91945435000E+03 -0.13649099395E+04  0.17388290857E+04  0.12699999809E+01 0. -1.
</event>
<event>
 5   0  0.1625212E-06  0.3014437E+04  0.7818609E-02  0.8239620E-01
        2   -1    0    0  501    0  0.00000000000E+00  0.00000000000E+00  0.21827704863E+04  0.21827704863E+04  0.25500000920E-02 0. -1.
       -2   -1    0    0    0  501  0.00000000000E+00  0.00000000000E+00 -0.10407452561E+04  0.10407452561E+04  0.25500000920E-02 0.  1.
    10030    2    1    2    0    0  0.00000000000E+00  0.00000000000E+00  0.11420252301E+04  0.32235157424E+04  0.30144372800E+04 0.  0.
        4    1    3    3  502    0  0.31515382553E+03  0.13698052477E+04  0.11528245841E+04  0.18178818678E+04  0.12699999809E+01 0. -1.
       -4    1    3    3    0  502 -0.31515382553E+03 -0.13698052477E+04 -0.10799354018E+02  0.14056338746E+04  0.12699999809E+01 0.  1.
</event>
<event>
 5   0  0.6291798E-07  0.2996648E+04  0.7818609E-02  0.8244689E-01
       -1   -1    0    0    0  501  0.00000000000E+00  0.00000000000E+00  0.13694455935E+04  0.13694455935E+04  0.50400001928E-02 0. -1.
        1   -1    0    0  501    0  0.00000000000E+00  0.00000000000E+00 -0.16393307113E+04  0.16393307113E+04  0.50400001928E-02 0.  1.
    10030    2    1    2    0    0  0.00000000000E+00  0.00000000000E+00 -0.26988511781E+03  0.30087763048E+04  0.29966476061E+04 0.  0.
        1    1    3    3  502    0  0.28614947818E+03 -0.11401353689E+04 -0.10677799063E+04  0.15880630062E+04  0.50400001928E-02 0.  1.
       -1    1    3    3    0  502 -0.28614947818E+03  0.11401353689E+04  0.79789478845E+03  0.14207132986E+04  0.50400001928E-02 0. -1.
</event>
<event>
 5   0  0.5874741E-07  0.2987365E+04  0.7818609E-02  0.8247348E-01
        1   -1    0    0  501    0  0.00000000000E+00  0.00000000000E+00  0.18941431578E+04  0.18941431578E+04  0.50400001928E-02 0.  1.
       -1   -1    0    0    0  501  0.00000000000E+00  0.00000000000E+00 -0.11778872521E+04  0.11778872522E+04  0.50400001928E-02 0. -1.
    10030    2    1    2    0    0  0.00000000000E+00  0.00000000000E+00  0.71625590566E+03  0.30720304100E+04  0.29873647781E+04 0.  0.
        4    1    3    3  502    0  0.10438674224E+04  0.11025513293E+03  0.14509165745E+04  0.17908031463E+04  0.12699999809E+01 0.  1.
       -4    1    3    3    0  502 -0.10438674224E+04 -0.11025513293E+03 -0.73466066882E+03  0.12812272636E+04  0.12699999809E+01 0. -1.
</event>
<event>
 5   0  0.1625212E-06  0.3033001E+04  0.7818609E-02  0.8234369E-01
       -2   -1    0    0    0  501  0.00000000000E+00  0.00000000000E+00  0.13812526665E+04  0.13812526665E+04  0.25500000920E-02 0.  1.
        2   -1    0    0  501    0  0.00000000000E+00  0.00000000000E+00 -0.16649915904E+04  0.16649915904E+04  0.25500000920E-02 0. -1.
    10030    2    1    2    0    0  0.00000000000E+00  0.00000000000E+00 -0.28373892388E+03  0.30462442569E+04  0.30330012027E+04 0.  0.
        4    1    3    3  502    0  0.72347289051E+03 -0.46884948909E+03  0.11111915779E+04  0.14064071965E+04  0.12699999809E+01 0.  1.
       -4    1    3    3    0  502 -0.72347289051E+03  0.46884948909E+03 -0.13949305018E+04  0.16398370603E+04  0.12699999809E+01 0. -1.
</event>
<event>
 5   0  0.1625212E-06  0.3005385E+04  0.7818609E-02  0.8242195E-01
       -2   -1    0    0    0  501  0.00000000000E+00  0.00000000000E+00  0.92206189873E+03  0.92206189873E+03  0.25500000920E-02 0.  1.
        2   -1    0    0  501    0  0.00000000000E+00  0.00000000000E+00 -0.24489518641E+04  0.24489518641E+04  0.25500000920E-02 0. -1.
    10030    2    1    2    0    0  0.00000000000E+00  0.00000000000E+00 -0.15268899654E+04  0.33710137629E+04  0.30053853036E+04 0.  0.
        4    1    3    3  502    0  0.12421121167E+04  0.84225781284E+03 -0.67770703760E+03  0.16466721518E+04  0.12699999809E+01 0.  1.
       -4    1    3    3    0  502 -0.12421121167E+04 -0.84225781284E+03 -0.84918292782E+03  0.17243416111E+04  0.12699999809E+01 0. -1.
</event>
<event>
 5   0  0.1560174E-06  0.2994703E+04  0.7818609E-02  0.8245245E-01
       -2   -1    0    0    0  501  0.00000000000E+00  0.00000000000E+00  0.16891189004E+04  0.16891189004E+04  0.25500000920E-02 0.  1.
        2   -1    0    0  501    0  0.00000000000E+00  0.00000000000E+00 -0.13273553016E+04  0.13273553016E+04  0.25500000920E-02 0. -1.
    10030    2    1    2    0    0  0.00000000000E+00  0.00000000000E+00  0.36176359884E+03  0.30164742021E+04  0.29947026080E+04 0.  0.
        5    1    3    3  502    0 -0.55946429674E+03 -0.26886425570E+03  0.15534144841E+04  0.16728439666E+04  0.46999998093E+01 0.  1.
       -5    1    3    3    0  502  0.55946429674E+03  0.26886425570E+03 -0.11916508852E+04  0.13436302354E+04  0.46999998093E+01 0. -1.
</event>
<event>
 5   0  0.1723916E-06  0.3001151E+04  0.7818609E-02  0.8243402E-01
        2   -1    0    0  501    0  0.00000000000E+00  0.00000000000E+00  0.14928979025E+04  0.14928979025E+04  0.25500000920E-02 0.  1.
       -2   -1    0    0    0  501  0.00000000000E+00  0.00000000000E+00 -0.15082929565E+04  0.15082929565E+04  0.25500000920E-02 0. -1.
    10030    2    1    2    0    0  0.00000000000E+00  0.00000000000E+00 -0.15395054071E+02  0.30011908590E+04  0.30011513731E+04 0.  0.
        1    1    3    3  502    0  0.54872583940E+03  0.11659265710E+04  0.76123558652E+03  0.14966510729E+04  0.50400001928E-02 0.  1.
       -1    1    3    3    0  502 -0.54872583940E+03 -0.11659265710E+04 -0.77663064059E+03  0.15045397861E+04  0.50400001928E-02 0. -1.
</event>
<event>
 5   0  0.5916703E-07  0.3007976E+04  0.7818609E-02  0.8241457E-01
        1   -1    0    0  501    0  0.00000000000E+00  0.00000000000E+00  0.24907914025E+04  0.24907914025E+04  0.50400001928E-02 0. -1.
       -1   -1    0    0    0  501  0.00000000000E+00  0.00000000000E+00 -0.90813688305E+03  0.90813688306E+03  0.50400001928E-02 0.  1.
    10030    2    1    2    0    0  0.00000000000E+00  0.00000000000E+00  0.15826545195E+04  0.33989282856E+04  0.30079757583E+04 0.  0.
        5    1    3    3  502    0 -0.17622729390E+03  0.10581384875E+04  0.19824936999E+04  0.22541110172E+04  0.46999998093E+01 0.  1.
       -5    1    3    3    0  502  0.17622729390E+03 -0.10581384875E+04 -0.39983918044E+03  0.11448172684E+04  0.46999998093E+01 0. -1.
</event>
<event>
 5   0  0.1560174E-06  0.2963182E+04  0.7818609E-02  0.8254323E-01
        2   -1    0    0  501    0  0.00000000000E+00  0.00000000000E+00  0.20173368107E+04  0.20173368107E+04  0.25500000920E-02 0.  1.
       -2   -1    0    0    0  501  0.00000000000E+00  0.00000000000E+00 -0.10881239051E+04  0.10881239051E+04  0.25500000920E-02 0. -1.
    10030    2    1    2    0    0  0.00000000000E+00  0.00000000000E+00  0.92921290558E+03  0.31054607158E+04  0.29631823490E+04 0.  0.
        5    1    3    3  502    0  0.11181302830E+04 -0.83157052784E+03  0.99212939778E+03  0.17105752554E+04  0.46999998093E+01 0.  1.
       -5    1    3    3    0  502 -0.11181302830E+04  0.83157052784E+03 -0.62916492201E+02  0.13948854604E+04  0.46999998093E+01 0. -1.
</event>
<event>
 5   0  0.5931588E-07  0.3004753E+04  0.7818609E-02  0.8242375E-01
       -1   -1    0    0    0  501  0.00000000000E+00  0.00000000000E+00  0.15342775498E+04  0.15342775498E+04  0.50400001928E-02 0. -1.
        1   -1    0    0  501    0  0.00000000000E+00  0.00000000000E+00 -0.14711391393E+04  0.14711391393E+04  0.50400001928E-02 0.  1.
    10030    2    1    2    0    0  0.00000000000E+00  0.00000000000E+00  0.63138410497E+02  0.30054166891E+04  0.30047534036E+04 0.  0.
        2    1    3    3  502    0 -0.24472261177E+03 -0.32863210441E+03 -0.14141728266E+04  0.14723358993E+04  0.25500000920E-02 0.  1.
       -2    1    3    3    0  502  0.24472261177E+03  0.32863210441E+03  0.14773112371E+04  0.15330807898E+04  0.25500000920E-02 0. -1.
</event>
<event>
 5   0  0.1560174E-06  0.2934493E+04  0.7818609E-02  0.8262688E-01
        2   -1    0    0  501    0  0.00000000000E+00  0.00000000000E+00  0.18178970217E+04  0.18178970217E+04  0.25500000920E-02 0. -1.
       -2   -1    0    0    0  501  0.00000000000E+00  0.00000000000E+00 -0.11842325074E+04  0.11842325074E+04  0.25500000920E-02 0.  1.
    10030    2    1    2    0    0  0.00000000000E+00  0.00000000000E+00  0.63366451434E+03  0.30021295291E+04  0.29344933111E+04 0.  0.
        5    1    3    3  502    0 -0.38908715608E+03 -0.76731783334E+03  0.15327656202E+04  0.17577138586E+04  0.46999998093E+01 0. -1.
       -5    1    3    3    0  502  0.38908715608E+03  0.76731783334E+03 -0.89910110583E+03  0.12444156705E+04  0.46999998093E+01 0.  1.
</event>
<event>
 5   0  0.5887179E-07  0.3184700E+04  0.7818609E-02  0.8192870E-01
       -1   -1    0    0    0  501  0.00000000000E+00  0.00000000000E+00  0.10819700906E+04  0.10819700906E+04  0.50400001928E-02 0.  1.
        1   -1    0    0  501    0  0.00000000000E+00  0.00000000000E+00 -0.23434825530E+04  0.23434825531E+04  0.50400001928E-02 0. -1.
    10030    2    1    2    0    0  0.00000000000E+00  0.00000000000E+00 -0.12615124624E+04  0.34254526437E+04  0.31846996909E+04 0.  0.
        3    1    3    3  502    0 -0.13766881965E+04  0.73244866647E+03 -0.28417602312E+03  0.15850891021E+04  0.10100000352E+00 0.  1.
       -3    1    3    3    0  502  0.13766881965E+04 -0.73244866647E+03 -0.97733643931E+03  0.18403635416E+04  0.10100000352E+00 0. -1.
</event>
<event>
 5   0  0.5874741E-07  0.3001320E+04  0.7818609E-02  0.8243354E-01
        1   -1    0    0  501    0  0.00000000000E+00  0.00000000000E+00  0.13836518150E+04  0.13836518150E+04  0.50400001928E-02 0.  1.
       -1   -1    0    0    0  501  0.00000000000E+00  0.00000000000E+00 -0.16275626010E+04  0.16275626010E+04  0.50400001928E-02 0. -1.
    10030    2    1    2    0    0  0.00000000000E+00  0.00000000000E+00 -0.24391078602E+03  0.30112144159E+04  0.30013196743E+04 0.  0.
        4    1    3    3  502    0  0.93329374315E+03  0.59623548443E+03  0.89402535447E+03  0.14233119515E+04  0.12699999809E+01 0.  1.
       -4    1    3    3    0  502 -0.93329374315E+03 -0.59623548443E+03 -0.11379361405E+04  0.15879024645E+04  0.12699999809E+01 0. -1.
</event>
<event>
 5   0  0.5887179E-07  0.2999273E+04  0.7818609E-02  0.8243939E-01
       -1   -1    0    0    0  501  0.00000000000E+00  0.00000000000E+00  0.10817022888E+04  0.10817022888E+04  0.50400001928E-02 0. -1.
        1   -1    0    0  501    0  0.00000000000E+00  0.00000000000E+00 -0.20790460854E+04  0.20790460854E+04  0.50400001928E-02 0.  1.
    10030    2    1    2    0    0  0.00000000000E+00  0.00000000000E+00 -0.99734379661E+03  0.31607483742E+04  0.29992725178E+04 0.  0.
        3    1    3    3  502    0 -0.44006012113E+03 -0.57259697302E+03  0.88638951905E+03  0.11433313577E+04  0.10100000352E+00 0. -1.
       -3    1    3    3    0  502  0.44006012113E+03  0.57259697302E+03 -0.18837333157E+04  0.20174170165E+04  0.10100000352E+00 0.  1.
</event>
<event>
 5   0  0.5887179E-07  0.2996755E+04  0.7818609E-02  0.8244658E-01
        1   -1    0    0  501    0  0.00000000000E+00  0.00000000000E+00  0.18323016378E+04  0.18323016378E+04  0.50400001928E-02 0. -1.
       -1   -1    0    0    0  501  0.00000000000E+00  0.00000000000E+00 -0.12253084320E+04  0.12253084321E+04  0.50400001928E-02 0.  1.
    10030    2    1    2    0    0  0.00000000000E+00  0.00000000000E+00  0.60699320578E+03  0.30576100699E+04  0.29967546759E+04 0.  0.
        3    1    3    3  502    0  0.81738516762E+03  0.11818345414E+04  0.73671669182E+03  0.16148073847E+04  0.10100000352E+00 0. -1.
       -3    1    3    3    0  502 -0.81738516762E+03 -0.11818345414E+04 -0.12972348604E+03  0.14428026852E+04  0.10100000352E+00 0.  1.
</event>
<event>
 5   0  0.1674806E-06  0.2996329E+04  0.7818609E-02  0.8244780E-01
       -2   -1    0    0    0  501  0.00000000000E+00  0.00000000000E+00  0.11772672519E+04  0.11772672519E+04  0.25500000920E-02 0. -1.
        2   -1    0    0  501    0  0.00000000000E+00  0.00000000000E+00 -0.19065307281E+04  0.19065307281E+04  0.25500000920E-02 0.  1.
    10030    2    1    2    0    0  0.00000000000E+00  0.00000000000E+00 -0.72926347622E+03  0.30837979799E+04  0.29963285473E+04 0.  0.
        2    1    3    3  502    0  0.79197813621E+03 -0.59287111226E+03 -0.15225395959E+04  0.18157236422E+04  0.25500000920E-02 0.  1.
       -2    1    3    3    0  502 -0.79197813621E+03  0.59287111226E+03  0.79327611963E+03  0.12680743377E+04  0.25500000920E-02 0. -1.
</event>
<event>
 5   0  0.5916703E-07  0.3006551E+04  0.7818609E-02  0.8241863E-01
        1   -1    0    0  501    0  0.00000000000E+00  0.00000000000E+00  0.13702719565E+04  0.13702719565E+04  0.50400001928E-02 0. -1.
       -1   -1    0    0    0  501  0.00000000000E+00  0.00000000000E+00 -0.16491886331E+04  0.16491886332E+04  0.50400001928E-02 0.  1.
    10030    2    1    2    0    0  0.00000000000E+00  0.00000000000E+00 -0.27891667667E+03  0.30194605896E+04  0.30065508045E+04 0.  0.
        5    1    3    3  502    0  0.74334687020E+03 -0.84813799167E+01 -0.14516590374E+04  0.16309422290E+04  0.46999998093E+01 0.  1.
       -5    1    3    3    0  502 -0.74334687020E+03  0.84813799167E+01  0.11727423608E+04  0.13885183607E+04  0.46999998093E+01 0. -1.
</event>
<event>
 5   0  0.5931588E-07  0.2993390E+04  0.7818609E-02  0.8245621E-01
       -1   -1    0    0    0  501  0.00000000000E+00  0.00000000000E+00  0.15995437826E+04  0.15995437826E+04  0.50400001928E-02 0. -1.
        1   -1    0    0  501    0  0.00000000000E+00  0.00000000000E+00 -0.14004588151E+04  0.14004588151E+04  0.50400001928E-02 0.  1.
    10030    2    1    2    0    0  0.00000000000E+00  0.00000000000E+00  0.19908496747E+03  0.30000025978E+04  0.29933895106E+04 0.  0.
        2    1    3    3  502    0 -0.42892161051E+03 -0.32629013235E+03  0.14989281301E+04  0.15928667671E+04  0.25500000920E-02 0. -1.
       -2    1    3    3    0  502  0.42892161051E+03  0.32629013235E+03 -0.12998431627E+04  0.14071358307E+04  0.25500000920E-02 0.  1.
</event>
<event>
 5   0  0.5887179E-07  0.2941284E+04  0.7818609E-02  0.8260699E-01
       -1   -1    0    0    0  501  0.00000000000E+00  0.00000000000E+00  0.11732345936E+04  0.11732345936E+04  0.50400001928E-02 0.  1.
        1   -1    0    0  501    0  0.00000000000E+00  0.00000000000E+00 -0.18434399667E+04  0.18434399667E+04  0.50400001928E-02 0. -1.
    10030    2    1    2    0    0  0.00000000000E+00  0.00000000000E+00 -0.67020537311E+03  0.30166745603E+04  0.29412837606E+04 0.  0.
        3    1    3    3  502    0 -0.23640832778E+01  0.13751131254E+04 -0.86985525138E+03  0.16271416241E+04  0.10100000352E+00 0. -1.
       -3    1    3    3    0  502  0.23640832778E+01 -0.13751131254E+04  0.19964987828E+03  0.13895329361E+04  0.10100000352E+00 0.  1.
</event>
<event>
 5   0  0.1723916E-06  0.3009839E+04  0.7818609E-02  0.8240927E-01
       -2   -1    0    0    0  501  0.00000000000E+00  0.00000000000E+00  0.13082596895E+04  0.13082596895E+04  0.25500000920E-02 0.  1.
        2   -1    0    0  501    0  0.00000000000E+00  0.00000000000E+00 -0.17311419317E+04  0.17311419317E+04  0.25500000920E-02 0. -1.
    10030    2    1    2    0    0  0.00000000000E+00  0.00000000000E+00 -0.42288224216E+03  0.30394016212E+04  0.30098393353E+04 0.  0.
        1    1    3    3  502    0 -0.13382574999E+04  0.40880972678E+03 -0.77070804650E+03  0.15975135122E+04  0.50400001928E-02 0.  1.
       -1    1    3    3    0  502  0.13382574999E+04 -0.40880972678E+03  0.34782580434E+03  0.14418881090E+04  0.50400001928E-02 0. -1.
</event>
<event>
 5   0  0.1674806E-06  0.2996227E+04  0.7818609E-02  0.8244809E-01
        2   -1    0    0  501    0  0.00000000000E+00  0.00000000000E+00  0.18122435230E+04  0.18122435230E+04  0.25500000920E-02 0. -1.
       -2   -1    0    0    0  501  0.00000000000E+00  0.00000000000E+00 -0.12384339805E+04  0.12384339805E+04  0.25500000920E-02 0.  1.
    10030    2    1    2    0    0  0.00000000000E+00  0.00000000000E+00  0.57380954251E+03  0.30506775035E+04  0.29962269338E+04 0.  0.
        2    1    3    3  502    0  0.34270127122E+03 -0.85523537382E+02  0.17692421777E+04  0.18041552927E+04  0.25500000920E-02 0. -1.
       -2    1    3    3    0  502 -0.34270127122E+03  0.85523537382E+02 -0.11954326352E+04  0.12465222108E+04  0.25500000920E-02 0.  1.
</event>
<event>
 5   0  0.5887179E-07  0.3030040E+04  0.7818609E-02  0.8235204E-01
       -1   -1    0    0    0  501  0.00000000000E+00  0.00000000000E+00  0.18476476396E+04  0.18476476396E+04  0.50400001928E-02 0. -1.
        1   -1    0    0  501    0  0.00000000000E+00  0.00000000000E+00 -0.12422744725E+04  0.12422744725E+04  0.50400001928E-02 0.  1.
    10030    2    1    2    0    0  0.00000000000E+00  0.00000000000E+00  0.60537316712E+03  0.30899221121E+04  0.30300399316E+04 0.  0.
        3    1    3    3  502    0  0.21528359222E+03 -0.11409074180E+04  0.12951986144E+04  0.17394126084E+04  0.10100000352E+00 0. -1.
       -3    1    3    3    0  502 -0.21528359222E+03  0.11409074180E+04 -0.68982544728E+03  0.13505095036E+04  0.10100000352E+00 0.  1.
</event>
<event>
 5   0  0.1723916E-06  0.3015836E+04  0.7818609E-02  0.8239223E-01
       -2   -1    0    0    0  501  0.00000000000E+00  0.00000000000E+00  0.15177717565E+04  0.15177717565E+04  0.25500000920E-02 0. -1.
        2   -1    0    0  501    0  0.00000000000E+00  0.00000000000E+00 -0.14981284596E+04  0.14981284596E+04  0.25500000920E-02 0.  1.
    10030    2    1    2    0    0  0.00000000000E+00  0.00000000000E+00  0.19643296907E+02  0.30159002161E+04  0.30158362446E+04 0.  0.
        1    1    3    3  502    0  0.82546857800E+03  0.20236129888E+03 -0.12357843947E+04  0.14998371708E+04  0.50400001928E-02 0.  1.
       -1    1    3    3    0  502 -0.82546857800E+03 -0.20236129888E+03  0.12554276916E+04  0.15160630453E+04  0.50400001928E-02 0. -1.
</event>
<event>
 5   0  0.6291798E-07  0.3002476E+04  0.7818609E-02  0.8243024E-01
       -1   -1    0    0    0  501  0.00000000000E+00  0.00000000000E+00  0.10418725755E+04  0.10418725755E+04  0.50400001928E-02 0. -1.
        1   -1    0    0  501    0  0.00000000000E+00  0.00000000000E+00 -0.21631391557E+04  0.21631391557E+04  0.50400001928E-02 0.  1.
    10030    2    1    2    0    0  0.00000000000E+00  0.00000000000E+00 -0.11212665802E+04  0.32050117312E+04  0.30024758872E+04 0.  0.
        1    1    3    3  502    0 -0.11617730734E+04 -0.80602851877E+03 -0.22316967164E+02  0.14141770378E+04  0.50400001928E-02 0. -1.
       -1    1    3    3    0  502  0.11617730734E+04  0.80602851877E+03 -0.10989496130E+04  0.17908346934E+04  0.50400001928E-02 0.  1.
</event>
<event>
 5   0  0.5887179E-07  0.3001085E+04  0.7818609E-02  0.8243421E-01
       -1   -1    0    0    0  501  0.00000000000E+00  0.00000000000E+00  0.15797409799E+04  0.15797409799E+04  0.50400001928E-02 0.  1.
        1   -1    0    0  501    0  0.00000000000E+00  0.00000000000E+00 -0.14253147334E+04  0.14253147334E+04  0.50400001928E-02 0. -1.
    10030    2    1    2    0    0  0.00000000000E+00  0.00000000000E+00  0.15442624654E+03  0.30050557133E+04  0.30010851995E+04 0.  0.
        3    1    3    3  502    0  0.13207209299E+04 -0.68872898114E+03  0.25904825462E+03  0.15118721483E+04  0.10100000352E+00 0.  1.
       -3    1    3    3    0  502 -0.13207209299E+04  0.68872898114E+03 -0.10462200808E+03  0.14931835651E+04  0.10100000352E+00 0. -1.
</event>
<event>
 5   0  0.1625212E-06  0.2935918E+04  0.7818609E-02  0.8262270E-01
        2   -1    0    0  501    0  0.00000000000E+00  0.00000000000E+00  0.22394748551E+04  0.22394748551E+04  0.25500000920E-02 0.  1.
       -2   -1    0    0    0  501  0.00000000000E+00  0.00000000000E+00 -0.96223599238E+03  0.96223599239E+03  0.25500000920E-02 0. -1.
    10030    2    1    2    0    0  0.00000000000E+00  0.00000000000E+00  0.12772388628E+04  0.32017108475E+04  0.29359177847E+04 0.  0.
        4    1    3    3  502    0  0.11657226636E+04 -0.58128535028E+03 -0.99485702346E+02  0.13064076718E+04  0.12699999809E+01 0. -1.
       -4    1    3    3    0  502 -0.11657226636E+04  0.58128535028E+03  0.13767245651E+04  0.18953031758E+04  0.12699999809E+01 0.  1.
</event>
<event>
 5   0  0.1560174E-06  0.2947640E+04  0.7818609E-02  0.8258843E-01
       -2   -1    0    0    0  501  0.00000000000E+00  0.00000000000E+00  0.11847572795E+04  0.11847572795E+04  0.25500000920E-02 0.  1.
        2   -1    0    0  501    0  0.00000000000E+00  0.00000000000E+00 -0.18334090465E+04  0.18334090465E+04  0.25500000920E-02 0. -1.
    10030    2    1    2    0    0  0.00000000000E+00  0.00000000000E+00 -0.64865176702E+03  0.30181663260E+04  0.29476395398E+04 0.  0.
        5    1    3    3  502    0  0.11037367376E+03 -0.15929118223E+03  0.11716467545E+04  0.11875749391E+04  0.46999998093E+01 0.  1.
       -5    1    3    3    0  502 -0.11037367376E+03  0.15929118223E+03 -0.18202985215E+04  0.18305913870E+04  0.46999998093E+01 0. -1.
</event>
<event>
 5   0  0.1723916E-06  0.2976459E+04  0.7818609E-02  0.8250485E-01
        2   -1    0    0  501    0  0.00000000000E+00  0.00000000000E+00  0.20842522449E+04  0.20842522449E+04  0.25500000920E-02 0.  1.
       -2   -1    0    0    0  501  0.00000000000E+00  0.00000000000E+00 -0.10626484377E+04  0.10626484377E+04  0.25500000920E-02 0. -1.
    10030    2    1    2    0    0  0.00000000000E+00  0.00000000000E+00  0.10216038072E+04  0.31469006827E+04  0.29764592334E+04 0.  0.
        1    1    3    3  502    0  0.14621657026E+04 -0.15916817900E+03  0.75088292651E+03  0.16513897846E+04  0.50400001928E-02 0.  1.
       -1    1    3    3    0  502 -0.14621657026E+04  0.15916817900E+03  0.27072088069E+03  0.14955108981E+04  0.50400001928E-02 0. -1.
</event>
<event>
 5   0  0.1560174E-06  0.2981979E+04  0.7818609E-02  0.8248896E-01
       -2   -1    0    0    0  501  0.00000000000E+00  0.00000000000E+00  0.90802336971E+03  0.90802336972E+03  0.25500000920E-02 0.  1.
        2   -1    0    0  501    0  0.00000000000E+00  0.00000000000E+00 -0.24482288146E+04  0.24482288146E+04  0.25500000920E-02 0. -1.
    10030    2    1    2    0    0  0.00000000000E+00  0.00000000000E+00 -0.15402054448E+04  0.33562521843E+04  0.29819785231E+04 0.  0.
        5    1    3    3  502    0 -0.98209620980E+03  0.11137433879E+04 -0.61872414528E+03  0.16086575016E+04  0.46999998093E+01 0. -1.
       -5    1    3    3    0  502  0.98209620980E+03 -0.11137433879E+04 -0.92148129957E+03  0.17475946827E+04  0.46999998093E+01 0.  1.
</event>
<event>
 5   0  0.1625212E-06  0.2994686E+04  0.7818609E-02  0.8245250E-01
        2   -1    0    0  501    0  0.00000000000E+00  0.00000000000E+00  0.23862181083E+04  0.23862181083E+04  0.25500000920E-02 0. -1.
       -2   -1    0    0    0  501  0.00000000000E+00  0.00000000000E+00 -0.93957702544E+03  0.93957702544E+03  0.25500000920E-02 0.  1.
    10030    2    1    2    0    0  0.00000000000E+00  0.00000000000E+00  0.14466410829E+04  0.33257951338E+04  0.29946857680E+04 0.  0.
        4    1    3    3  502    0  0.10280041610E+04 -0.39834488267E+03 -0.40189835532E+03  0.11734543457E+04  0.12699999809E+01 0.  1.
       -4    1    3    3    0  502 -0.10280041610E+04  0.39834488267E+03  0.18485394382E+04  0.21523407881E+04  0.12699999809E+01 0. -1.
</event>
<event>
 5   0  0.5887179E-07  0.3027990E+04  0.7818609E-02  0.8235783E-01
       -1   -1    0    0    0  501  0.00000000000E+00  0.00000000000E+00  0.12502202312E+04  0.12502202313E+04  0.50400001928E-02 0. -1.
        1   -1    0    0  501    0  0.00000000000E+00  0.00000000000E+00 -0.18334218204E+04  0.18334218205E+04  0.50400001928E-02 0.  1.
    10030    2    1    2    0    0  0.00000000000E+00  0.00000000000E+00 -0.58320158920E+03  0.30836420517E+04  0.30279901270E+04 0.  0.
        3    1    3    3  502    0  0.87429849647E+02 -0.15849598181E+03 -0.18223625846E+04  0.18313302145E+04  0.10100000352E+00 0.  1.
       -3    1    3    3    0  502 -0.87429849647E+02  0.15849598181E+03  0.12391609954E+04  0.12523118372E+04  0.10100000352E+00 0. -1.
</event>
<event>
 5   0  0.5887179E-07  0.2966129E+04  0.7818609E-02  0.8253470E-01
        1   -1    0    0  501    0  0.00000000000E+00  0.00000000000E+00  0.27115189590E+04  0.27115189591E+04  0.50400001928E-02 0.  1.
       -1   -1    0    0    0  501  0.00000000000E+00  0.00000000000E+00 -0.81116173745E+03  0.81116173747E+03  0.50400001928E-02 0. -1.
    10030    2    1    2    0    0  0.00000000000E+00  0.00000000000E+00  0.19003572216E+04  0.35226806965E+04  0.29661290801E+04 0.  0.
        3    1    3    3  502    0 -0.84343709222E+03 -0.11860371170E+04  0.12890405352E+04  0.19441439460E+04  0.10100000352E+00 0. -1.
       -3    1    3    3    0  502  0.84343709222E+03  0.11860371170E+04  0.61131668639E+03  0.15785367505E+04  0.10100000352E+00 0.  1.
</event>
<event>
 5   0  0.1635086E-06  0.2998399E+04  0.7818609E-02  0.8244188E-01
       -2   -1    0    0    0  501  0.00000000000E+00  0.00000000000E+00  0.12411383407E+04  0.12411383407E+04  0.25500000920E-02 0.  1.
        2   -1    0    0  501    0  0.00000000000E+00  0.00000000000E+00 -0.18109175595E+04  0.18109175595E+04  0.25500000920E-02 0. -1.
    10030    2    1    2    0    0  0.00000000000E+00  0.00000000000E+00 -0.56977921879E+03  0.30520559002E+04  0.29983990495E+04 0.  0.
        3    1    3    3  502    0 -0.11635427305E+04 -0.34692020179E+03 -0.11800668597E+04  0.16931459227E+04  0.10100000352E+00 0. -1.
       -3    1    3    3    0  502  0.11635427305E+04  0.34692020179E+03  0.61028764092E+03  0.13589099775E+04  0.10100000352E+00 0.  1.
</event>
<event>
 5   0  0.1625212E-06  0.2996496E+04  0.7818609E-02  0.8244732E-01
        2   -1    0    0  501    0  0.00000000000E+00  0.00000000000E+00  0.15988509851E+04  0.15988509851E+04  0.25500000920E-02 0. -1.
       -2   -1    0    0    0  501  0.00000000000E+00  0.00000000000E+00 -0.14039751872E+04  0.14039751872E+04  0.25500000920E-02 0.  1.
    10030    2    1    2    0    0  0.00000000000E+00  0.00000000000E+00  0.19487579791E+03  0.30028261722E+04  0.29964960277E+04 0.  0.
        4    1    3    3  502    0 -0.10991915913E+04  0.77724843161E+03 -0.56152878242E+03  0.14586478208E+04  0.12699999809E+01 0.  1.
       -4    1    3    3    0  502  0.10991915913E+04 -0.77724843161E+03  0.75640458034E+03  0.15441783514E+04  0.12699999809E+01 0. -1.
</event>
<event>
 5   0  0.5931588E-07  0.3009215E+04  0.7818609E-02  0.8241104E-01
       -1   -1    0    0    0  501  0.00000000000E+00  0.00000000000E+00  0.12081078821E+04  0.12081078821E+04  0.50400001928E-02 0.  1.
        1   -1    0    0  501    0  0.00000000000E+00  0.00000000000E+00 -0.18738757478E+04  0.18738757478E+04  0.50400001928E-02 0. -1.
    10030    2    1    2    0    0  0.00000000000E+00  0.00000000000E+00 -0.66576786574E+03  0.30819836299E+04  0.30092152206E+04 0.  0.
        2    1    3    3  502    0 -0.95128919807E+03 -0.11595790520E+04 -0.21054094122E+03  0.15145633708E+04  0.25500000920E-02 0. -1.
       -2    1    3    3    0  502  0.95128919807E+03  0.11595790520E+04 -0.45522692452E+03  0.15674202592E+04  0.25500000920E-02 0.  1.
</event>
<event>
 5   0  0.6291798E-07  0.3009028E+04  0.7818609E-02  0.8241158E-01
       -1   -1    0    0    0  501  0.00000000000E+00  0.00000000000E+00  0.11612659317E+04  0.11612659317E+04  0.50400001928E-02 0.  1.
        1   -1    0    0  501    0  0.00000000000E+00  0.00000000000E+00 -0.19492196842E+04  0.19492196843E+04  0.50400001928E-02 0. -1.
    10030    2    1    2    0    0  0.00000000000E+00  0.00000000000E+00 -0.78795375252E+03  0.31104856160E+04  0.30090280243E+04 0.  0.
        1    1    3    3  502    0 -0.44242813214E+03  0.10203859463E+04  0.65341553468E+03  0.12899154982E+04  0.50400001928E-02 0.  1.
       -1    1    3    3    0  502  0.44242813214E+03 -0.10203859463E+04 -0.14413692872E+04  0.18205701178E+04  0.50400001928E-02 0. -1.
</event>
<event>
 5   0  0.5931588E-07  0.2971573E+04  0.7818609E-02  0.8251895E-01
        1   -1    0    0  501    0  0.00000000000E+00  0.00000000000E+00  0.12893120109E+04  0.12893120109E+04  0.50400001928E-02 0.  1.
       -1   -1    0    0    0  501  0.00000000000E+00  0.00000000000E+00 -0.17122009261E+04  0.17122009261E+04  0.50400001928E-02 0. -1.
    10030    2    1    2    0    0  0.00000000000E+00  0.00000000000E+00 -0.42288891520E+03  0.30015129370E+04  0.29715727951E+04 0.  0.
        2    1    3    3  502    0 -0.59521520609E+03  0.98745970379E+03 -0.11580115579E+04  0.16341201230E+04  0.25500000920E-02 0. -1.
       -2    1    3    3    0  502  0.59521520609E+03 -0.98745970379E+03  0.73512264266E+03  0.13673928141E+04  0.25500000920E-02 0.  1.
</event>
<event>
 5   0  0.1625212E-06  0.3003822E+04  0.7818609E-02  0.8242640E-01
        2   -1    0    0  501    0  0.00000000000E+00  0.00000000000E+00  0.17117051437E+04  0.17117051437E+04  0.25500000920E-02 0.  1.
       -2   -1    0    0    0  501  0.00000000000E+00  0.00000000000E+00 -0.13178301651E+04  0.13178301651E+04  0.25500000920E-02 0. -1.
    10030    2    1    2    0    0  0.00000000000E+00  0.00000000000E+00  0.39387497855E+03  0.30295353088E+04  0.30038220135E+04 0.  0.
        4    1    3    3  502    0 -0.30272444481E+03  0.88862152396E+03  0.13793403377E+04  0.16684938365E+04  0.12699999809E+01 0.  1.
       -4    1    3    3    0  502  0.30272444481E+03 -0.88862152396E+03 -0.98546535918E+03  0.13610414723E+04  0.12699999809E+01 0. -1.
</event>
<event>
 5   0  0.1625212E-06  0.3024869E+04  0.7818609E-02  0.8236665E-01
        2   -1    0    0  501    0  0.00000000000E+00  0.00000000000E+00  0.22079176564E+04  0.22079176564E+04  0.25500000920E-02 0. -1.
       -2   -1    0    0    0  501  0.00000000000E+00  0.00000000000E+00 -0.10360249160E+04  0.10360249160E+04  0.25500000920E-02 0.  1.
    10030    2    1    2    0    0  0.00000000000E+00  0.00000000000E+00  0.11718927404E+04  0.32439425723E+04  0.30248687273E+04 0.  0.
        4    1    3    3  502    0 -0.11129289281E+04 -0.76237586248E+03  0.13193060613E+04  0.18869016538E+04  0.12699999809E+01 0. -1.
       -4    1    3    3    0  502  0.11129289281E+04  0.76237586248E+03 -0.14741332095E+03  0.13570409186E+04  0.12699999809E+01 0.  1.
</event>
<event>
 5   0  0.1560174E-06  0.3000807E+04  0.7818609E-02  0.8243500E-01
       -2   -1    0    0    0  501  0.00000000000E+00  0.00000000000E+00  0.10077152300E+04  0.10077152300E+04  0.25500000920E-02 0. -1.
        2   -1    0    0  501    0  0.00000000000E+00  0.00000000000E+00 -0.22339757080E+04  0.22339757080E+04  0.25500000920E-02 0.  1.
    10030    2    1    2    0    0  0.00000000000E+00  0.00000000000E+00 -0.12262604780E+04  0.32416909380E+04  0.30008074543E+04 0.  0.
        5    1    3    3  502    0 -0.12666078310E+04 -0.26561746103E+03 -0.14332425254E+04  0.19310759332E+04  0.46999998093E+01 0.  1.
       -5    1    3    3    0  502  0.12666078310E+04  0.26561746103E+03  0.20698204736E+03  0.13106150049E+04  0.46999998093E+01 0. -1.
</event>
<event>
 5   0  0.5887179E-07  0.2988566E+04  0.7818609E-02  0.8247004E-01
        1   -1    0    0  501    0  0.00000000000E+00  0.00000000000E+00  0.21042038858E+04  0.21042038858E+04  0.50400001928E-02 0.  1.
       -1   -1    0    0    0  501  0.00000000000E+00  0.00000000000E+00 -0.10611526133E+04  0.10611526133E+04  0.50400001928E-02 0. -1.
    10030    2    1    2    0    0  0.00000000000E+00  0.00000000000E+00  0.10430512725E+04  0.31653564991E+04  0.29885658449E+04 0.  0.
        3    1    3    3  502    0  0.13106179183E+02 -0.83345016776E+03  0.18350796035E+04  0.20155217973E+04  0.10100000352E+00 0.  1.
       -3    1    3    3    0  502 -0.13106179183E+02  0.83345016776E+03 -0.79202833102E+03  0.11498347018E+04  0.10100000352E+00 0. -1.
</event>
<event>
 5   0  0.5931588E-07  0.2989413E+04  0.7818609E-02  0.8246761E-01
        1   -1    0    0  501    0  0.00000000000E+00  0.00000000000E+00  0.17978720028E+04  0.17978720028E+04  0.50400001928E-02 0.  1.
       -1   -1    0    0    0  501  0.00000000000E+00  0.00000000000E+00 -0.12426617858E+04  0.12426617858E+04  0.50400001928E-02 0. -1.
    10030    2    1    2    0    0  0.00000000000E+00  0.00000000000E+00  0.55521021699E+03  0.30405337886E+04  0.29894125400E+04 0.  0.
        2    1    3    3  502    0 -0.33959433957E+03  0.94754413503E+03 -0.84627173967E+03  0.13150437486E+04  0.25500000920E-02 0. -1.
       -2    1    3    3    0  502  0.33959433957E+03 -0.94754413503E+03  0.14014819567E+04  0.17254900400E+04  0.25500000920E-02 0.  1.
</event>
<event>
 5   0  0.1723916E-06  0.2994830E+04  0.7818609E-02  0.8245209E-01
        2   -1    0    0  501    0  0.00000000000E+00  0.00000000000E+00  0.16479044277E+04  0.16479044277E+04  0.25500000920E-02 0.  1.
       -2   -1    0    0    0  501  0.00000000000E+00  0.00000000000E+00 -0.13606681151E+04  0.13606681151E+04  0.25500000920E-02 0. -1.
    10030    2    1    2    0    0  0.00000000000E+00  0.00000000000E+00  0.28723631255E+03  0.30085725428E+04  0.29948295521E+04 0.  0.
        1    1    3    3  502    0 -0.53973595189E+03 -0.13618504591E+04 -0.16812739172E+03  0.14745231062E+04  0.50400001928E-02 0. -1.
       -1    1    3    3    0  502  0.53973595189E+03  0.13618504591E+04  0.45536370427E+03  0.15340494366E+04  0.50400001928E-02 0.  1.
</event>
<event>
 5   0  0.5874741E-07  0.2997697E+04  0.7818609E-02  0.8244389E-01
        1   -1    0    0  501    0  0.00000000000E+00  0.00000000000E+00  0.22819175926E+04  0.22819175926E+04  0.50400001928E-02 0.  1.
       -1   -1    0    0    0  501  0.00000000000E+00  0.00000000000E+00 -0.98449974951E+03  0.98449974952E+03  0.50400001928E-02 0. -1.
    10030    2    1    2    0    0  0.00000000000E+00  0.00000000000E+00  0.12974178431E+04  0.32664173421E+04  0.29976973151E+04 0.  0.
        4    1    3    3  502    0  0.33946371274E+03  0.14581687106E+04  0.57124398916E+03  0.16024396740E+04  0.12699999809E+01 0.  1.
       -4    1    3    3    0  502 -0.33946371274E+03 -0.14581687106E+04  0.72617385390E+03  0.16639776681E+04  0.12699999809E+01 0. -1.
</event>
<event>
 5   0  0.1625212E-06  0.2796059E+04  0.7818609E-02  0.8304493E-01
       -2   -1    0    0    0  501  0.00000000000E+00  0.00000000000E+00  0.16295550310E+04  0.16295550310E+04  0.25500000920E-02 0. -1.
        2   -1    0    0  501    0  0.00000000000E+00  0.00000000000E+00 -0.11993990453E+04  0.11993990453E+04  0.25500000920E-02 0.  1.
    10030    2    1    2    0    0  0.00000000000E+00  0.00000000000E+00  0.43015598566E+03  0.28289540763E+04  0.27960591900E+04 0.  0.
        4    1    3    3  502    0  0.79348955090E+02  0.13978611938E+03 -0.11900183496E+04  0.12008254249E+04  0.12699999809E+01 0.  1.
       -4    1    3    3    0  502 -0.79348955090E+02 -0.13978611938E+03  0.16201743353E+04  0.16281286514E+04  0.12699999809E+01 0. -1.
</event>
<event>
 5   0  0.1674806E-06  0.3025070E+04  0.7818609E-02  0.8236608E-01
        2   -1    0    0  501    0  0.00000000000E+00  0.00000000000E+00  0.13919201545E+04  0.13919201545E+04  0.25500000920E-02 0. -1.
       -2   -1    0    0    0  501  0.00000000000E+00  0.00000000000E+00 -0.16436020766E+04  0.16436020766E+04  0.25500000920E-02 0.  1.
    10030    2    1    2    0    0  0.00000000000E+00  0.00000000000E+00 -0.25168192214E+03  0.30355222311E+04  0.30250704828E+04 0.  0.
        2    1    3    3  502    0  0.62029860253E+03 -0.23703812707E+03  0.12378265411E+04  0.14046963998E+04  0.25500000920E-02 0. -1.
       -2    1    3    3    0  502 -0.62029860253E+03  0.23703812707E+03 -0.14895084632E+04  0.16308258313E+04  0.25500000920E-02 0.  1.
</event>
<event>
 5   0  0.5874741E-07  0.3018892E+04  0.7818609E-02  0.8238357E-01
        1   -1    0    0  501    0  0.00000000000E+00  0.00000000000E+00  0.14021859314E+04  0.14021859314E+04  0.50400001928E-02 0. -1.
       -1   -1    0    0    0  501  0.00000000000E+00  0.00000000000E+00 -0.16249109723E+04  0.16249109723E+04  0.50400001928E-02 0.  1.
    10030    2    1    2    0    0  0.00000000000E+00  0.00000000000E+00 -0.22272504088E+03  0.30270969037E+04  0.30188920518E+04 0.  0.
        4    1    3    3  502    0  0.47157145600E+03 -0.13677000707E+04 -0.54316333695E+03  0.15453191079E+04  0.12699999809E+01 0.  1.
       -4    1    3    3    0  502 -0.47157145600E+03  0.13677000707E+04  0.32043829607E+03  0.14817777958E+04  0.12699999809E+01 0. -1.
</event>
<event>
 5   0  0.1625212E-06  0.2992034E+04  0.7818609E-02  0.8246009E-01
        2   -1    0    0  501    0  0.00000000000E+00  0.00000000000E+00  0.21145721317E+04  0.21145721317E+04  0.25500000920E-02 0. -1.
       -2   -1    0    0    0  501  0.00000000000E+00  0.00000000000E+00 -0.10584016392E+04  0.10584016392E+04  0.25500000920E-02 0.  1.
    10030    2    1    2    0    0  0.00000000000E+00  0.00000000000E+00  0.10561704925E+04  0.31729737710E+04  0.29920338304E+04 0.  0.
        4    1    3    3  502    0 -0.34439165308E+03 -0.69668785367E+03  0.18837033501E+04  0.20377240982E+04  0.12699999809E+01 0. -1.
       -4    1    3    3    0  502  0.34439165308E+03  0.69668785367E+03 -0.82753285764E+03  0.11352496728E+04  0.12699999809E+01 0.  1.
</event>
<event>
 5   0  0.5887179E-07  0.3009144E+04  0.7818609E-02  0.8241125E-01
        1   -1    0    0  501    0  0.00000000000E+00  0.00000000000E+00  0.16550498921E+04  0.16550498921E+04  0.50400001928E-02 0. -1.
       -1   -1    0    0    0  501  0.00000000000E+00  0.00000000000E+00 -0.13677754782E+04  0.13677754782E+04  0.50400001928E-02 0.  1.
    10030    2    1    2    0    0  0.00000000000E+00  0.00000000000E+00  0.28727441394E+03  0.30228253703E+04  0.30091438368E+04 0.  0.
        3    1    3    3  502    0  0.85695995214E+03 -0.11058196093E+04  0.69979625761E+03  0.15642672982E+04  0.10100000352E+00 0. -1.
       -3    1    3    3    0  502 -0.85695995214E+03  0.11058196093E+04 -0.41252184367E+03  0.14585580721E+04  0.10100000352E+00 0.  1.
</event>
<event>
 5   0  0.1560174E-06  0.2968629E+04  0.7818609E-02  0.8252746E-01
       -2   -1    0    0    0  501  0.00000000000E+00  0.00000000000E+00  0.73360298156E+03  0.73360298156E+03  0.25500000920E-02 0. -1.
        2   -1    0    0  501    0  0.00000000000E+00  0.00000000000E+00 -0.30032441659E+04  0.30032441659E+04  0.25500000920E-02 0.  1.
    10030    2    1    2    0    0  0.00000000000E+00  0.00000000000E+00 -0.22696411844E+04  0.37368471475E+04  0.29686285551E+04 0.  0.
        5    1    3    3  502    0  0.11601096082E+04 -0.59461419822E+03 -0.24140101088E+03  0.13257891558E+04  0.46999998093E+01 0. -1.
       -5    1    3    3    0  502 -0.11601096082E+04  0.59461419822E+03 -0.20282401735E+04  0.24110579916E+04  0.46999998093E+01 0.  1.
</event>
<event>
 5   0  0.1560174E-06  0.3018041E+04  0.7818609E-02  0.8238598E-01
       -2   -1    0    0    0  501  0.00000000000E+00  0.00000000000E+00  0.17490937662E+04  0.17490937662E+04  0.25500000920E-02 0. -1.
        2   -1    0    0  501    0  0.00000000000E+00  0.00000000000E+00 -0.13018988958E+04  0.13018988958E+04  0.25500000920E-02 0.  1.
    10030    2    1    2    0    0  0.00000000000E+00  0.00000000000E+00  0.44719487040E+03  0.30509926619E+04  0.30180412474E+04 0.  0.
        5    1    3    3  502    0 -0.84726428569E+03 -0.12365247344E+04  0.39948256302E+03  0.15512764411E+04  0.46999998093E+01 0.  1.
       -5    1    3    3    0  502  0.84726428569E+03  0.12365247344E+04  0.47712307382E+02  0.14997162208E+04  0.46999998093E+01 0. -1.
</event>
<event>
 5   0  0.1723916E-06  0.3011246E+04  0.7818609E-02  0.8240527E-01
       -2   -1    0    0    0  501  0.00000000000E+00  0.00000000000E+00  0.20727964712E+04  0.20727964712E+04  0.25500000920E-02 0. -1.
        2   -1    0    0  501    0  0.00000000000E+00  0.00000000000E+00 -0.10936436848E+04  0.10936436848E+04  0.25500000920E-02 0.  1.
    10030    2    1    2    0    0  0.00000000000E+00  0.00000000000E+00  0.97915278642E+03  0.31664401559E+04  0.30112461012E+04 0.  0.
        1    1    3    3  502    0  0.36207513360E+03  0.10107094462E+04 -0.62041603352E+03  0.12399790489E+04  0.50400001928E-02 0.  1.
       -1    1    3    3    0  502 -0.36207513360E+03 -0.10107094462E+04  0.15995688199E+04  0.19264611070E+04  0.50400001928E-02 0. -1.
</event>
<event>
 5   0  0.5874741E-07  0.3023064E+04  0.7818609E-02  0.8237175E-01
        1   -1    0    0  501    0  0.00000000000E+00  0.00000000000E+00  0.11618268548E+04  0.11618268548E+04  0.50400001928E-02 0.  1.
       -1   -1    0    0    0  501  0.00000000000E+00  0.00000000000E+00 -0.19664974006E+04  0.19664974006E+04  0.50400001928E-02 0. -1.
    10030    2    1    2    0    0  0.00000000000E+00  0.00000000000E+00 -0.80467054580E+03  0.31283242555E+04  0.30230643328E+04 0.  0.
        4    1    3    3  502    0 -0.88120750083E+03  0.37111809369E+03  0.80909813951E+03  0.12525560711E+04  0.12699999809E+01 0.  1.
       -4    1    3    3    0  502  0.88120750083E+03 -0.37111809369E+03 -0.16137686853E+04  0.18757681844E+04  0.12699999809E+01 0. -1.
</event>
<event>
 5   0  0.5887179E-07  0.2999742E+04  0.7818609E-02  0.8243805E-01
       -1   -1    0    0    0  501  0.00000000000E+00  0.00000000000E+00  0.17382595172E+04  0.17382595172E+04  0.50400001928E-02 0. -1.
        1   -1    0    0  501    0  0.00000000000E+00  0.00000000000E+00 -0.12941752312E+04  0.12941752313E+04  0.50400001928E-02 0.  1.
    10030    2    1    2    0    0  0.00000000000E+00  0.00000000000E+00  0.44408428593E+03  0.30324347484E+04  0.29997415973E+04 0.  0.
        3    1    3    3  502    0 -0.61223367217E+03  0.94269772189E+03  0.12258921666E+04  0.16632259854E+04  0.10100000352E+00 0. -1.
       -3    1    3    3    0  502  0.61223367217E+03 -0.94269772189E+03 -0.78180788070E+03  0.13692087630E+04  0.10100000352E+00 0.  1.
</event>
<event>
 5   0  0.5887179E-07  0.3011291E+04  0.7818609E-02  0.8240514E-01
       -1   -1    0    0    0  501  0.00000000000E+00  0.00000000000E+00  0.17476637049E+04  0.17476637049E+04  0.50400001928E-02 0.  1.
        1   -1    0    0  501    0  0.00000000000E+00  0.00000000000E+00 -0.12971422114E+04  0.12971422114E+04  0.50400001928E-02 0. -1.
    10030    2    1    2    0    0  0.00000000000E+00  0.00000000000E+00  0.45052149349E+03  0.30448059163E+04  0.30112909943E+04 0.  0.
        3    1    3    3  502    0  0.40516245191E+03 -0.63116806445E+03  0.15453326025E+04  0.17177259969E+04  0.10100000352E+00 0.  1.
       -3    1    3    3    0  502 -0.40516245191E+03  0.63116806445E+03 -0.10948111090E+04  0.13270799194E+04  0.10100000352E+00 0. -1.
</event>
<event>
 5   0  0.1625212E-06  0.3050640E+04  0.7818609E-02  0.8229416E-01
        2   -1    0    0  501    0  0.00000000000E+00  0.00000000000E+00  0.16025949544E+04  0.16025949544E+04  0.25500000920E-02 0.  1.
       -2   -1    0    0    0  501  0.00000000000E+00  0.00000000000E+00 -0.14517712013E+04  0.14517712013E+04  0.25500000920E-02 0. -1.
    10030    2    1    2    0    0  0.00000000000E+00  0.00000000000E+00  0.15082375318E+03  0.30543661557E+04  0.30506400654E+04 0.  0.
        4    1    3    3  502    0 -0.66681741455E+03  0.12544319551E+04  0.63138697621E+03  0.15546369740E+04  0.12699999809E+01 0.  1.
       -4    1    3    3    0  502  0.66681741455E+03 -0.12544319551E+04 -0.48056322303E+03  0.14997291817E+04  0.12699999809E+01 0. -1.
</event>
<event>
 5   0  0.5916703E-07  0.2987225E+04  0.7818609E-02  0.8247388E-01
       -1   -1    0    0    0  501  0.00000000000E+00  0.00000000000E+00  0.10740884257E+04  0.10740884257E+04  0.50400001928E-02 0. -1.
        1   -1    0    0  501    0  0.00000000000E+00  0.00000000000E+00 -0.20769966446E+04  0.20769966446E+04  0.50400001928E-02 0.  1.
    10030    2    1    2    0    0  0.00000000000E+00  0.00000000000E+00 -0.10029082189E+04  0.31510850704E+04  0.29872248367E+04 0.  0.
        5    1    3    3  502    0 -0.11626350197E+04  0.23235464943E+03  0.45674972374E+03  0.12705712385E+04  0.46999998093E+01 0. -1.
       -5    1    3    3    0  502  0.11626350197E+04 -0.23235464943E+03 -0.14596579427E+04  0.18805138318E+04  0.46999998093E+01 0.  1.
</event>
<event>
 5   0  0.5874741E-07  0.2994850E+04  0.7818609E-02  0.8245203E-01
       -1   -1    0    0    0  501  0.00000000000E+00  0.00000000000E+00  0.14317078266E+04  0.14317078267E+04  0.50400001928E-02 0.  1.
        1   -1    0    0  501    0  0.00000000000E+00  0.00000000000E+00 -0.15661590670E+04  0.15661590670E+04  0.50400001928E-02 0. -1.
    10030    2    1    2    0    0  0.00000000000E+00  0.00000000000E+00 -0.13445124037E+03  0.29978668937E+04  0.29948503763E+04 0.  0.
        4    1    3    3  502    0 -0.74876202253E+01  0.83022416124E+03  0.11802046622E+04  0.14429874844E+04  0.12699999809E+01 0.  1.
       -4    1    3    3    0  502  0.74876202253E+01 -0.83022416124E+03 -0.13146559026E+04  0.15548794093E+04  0.12699999809E+01 0. -1.
</event>
<event>
 5   0  0.5931588E-07  0.2969720E+04  0.7818609E-02  0.8252431E-01
        1   -1    0    0  501    0  0.00000000000E+00  0.00000000000E+00  0.23763377702E+04  0.23763377702E+04  0.50400001928E-02 0.  1.
       -1   -1    0    0    0  501  0.00000000000E+00  0.00000000000E+00 -0.92781792380E+03  0.92781792381E+03  0.50400001928E-02 0. -1.
    10030    2    1    2    0    0  0.00000000000E+00  0.00000000000E+00  0.14485198464E+04  0.33041556941E+04  0.29697197014E+04 0.  0.
        2    1    3    3  502    0 -0.28728611453E+03 -0.36902626844E+03  0.22922563216E+04  0.23394770233E+04  0.25500000920E-02 0.  1.
       -2    1    3    3    0  502  0.28728611453E+03  0.36902626844E+03 -0.84373647515E+03  0.96467867081E+03  0.25500000920E-02 0. -1.
</event>
<event>
 5   0  0.1635086E-06  0.2999293E+04  0.7818609E-02  0.8243933E-01
       -2   -1    0    0    0  501  0.00000000000E+00  0.00000000000E+00  0.14672789890E+04  0.14672789890E+04  0.25500000920E-02 0.  1.
        2   -1    0    0  501    0  0.00000000000E+00  0.00000000000E+00 -0.15327275318E+04  0.15327275318E+04  0.25500000920E-02 0. -1.
    10030    2    1    2    0    0  0.00000000000E+00  0.00000000000E+00 -0.65448542774E+02  0.30000065208E+04  0.29992925188E+04 0.  0.
        3    1    3    3  502    0 -0.42634644124E+03  0.57963927778E+03  0.12833343338E+04  0.14712919502E+04  0.10100000352E+00 0.  1.
       -3    1    3    3    0  502  0.42634644124E+03 -0.57963927778E+03 -0.13487828765E+04  0.15287145707E+04  0.10100000352E+00 0. -1.
</event>
<event>
 5   0  0.1625212E-06  0.2984560E+04  0.7818609E-02  0.8248154E-01
       -2   -1    0    0    0  501  0.00000000000E+00  0.00000000000E+00  0.13763588078E+04  0.13763588078E+04  0.25500000920E-02 0.  1.
        2   -1    0    0  501    0  0.00000000000E+00  0.00000000000E+00 -0.16179649452E+04  0.16179649452E+04  0.25500000920E-02 0. -1.
    10030    2    1    2    0    0  0.00000000000E+00  0.00000000000E+00 -0.24160613736E+03  0.29943237530E+04  0.29845604722E+04 0.  0.
        4    1    3    3  502    0 -0.97155105171E+03  0.98486166588E+02  0.10112887392E+04  0.14058155989E+04  0.12699999809E+01 0.  1.
       -4    1    3    3    0  502  0.97155105171E+03 -0.98486166588E+02 -0.12528948766E+04  0.15885081541E+04  0.12699999809E+01 0. -1.
</event>
<event>
 5   0  0.1723916E-06  0.3003713E+04  0.7818609E-02  0.8242672E-01
        2   -1    0    0  501    0  0.00000000000E+00  0.00000000000E+00  0.13026556854E+04  0.13026556854E+04  0.25500000920E-02 0. -1.
       -2   -1    0    0    0  501  0.00000000000E+00  0.00000000000E+00 -0.17315183418E+04  0.17315183418E+04  0.25500000920E-02 0.  1.
    10030    2    1    2    0    0  0.00000000000E+00  0.00000000000E+00 -0.42886265645E+03  0.30341740272E+04  0.30037125111E+04 0.  0.
        1    1    3    3  502    0 -0.10507151719E+04  0.37500821579E+03 -0.12300823957E+04  0.16606433195E+04  0.50400001928E-02 0.  1.
       -1    1    3    3    0  502  0.10507151719E+04 -0.37500821579E+03  0.80121973929E+03  0.13735307077E+04  0.50400001928E-02 0. -1.
</event>
<event>
 5   0  0.1635086E-06  0.2997353E+04  0.7818609E-02  0.8244487E-01
        2   -1    0    0  501    0  0.00000000000E+00  0.00000000000E+00  0.28964321947E+04  0.28964321947E+04  0.25500000920E-02 0. -1.
       -2   -1    0    0    0  501  0.00000000000E+00  0.00000000000E+00 -0.77544741350E+03  0.77544741351E+03  0.25500000920E-02 0.  1.
    10030    2    1    2    0    0  0.00000000000E+00  0.00000000000E+00  0.21209847812E+04  0.36718796083E+04  0.29973527345E+04 0.  0.
        3    1    3    3  502    0  0.13686050991E+03  0.14593977495E+04  0.67805540179E+03  0.16150330426E+04  0.10100000352E+00 0.  1.
       -3    1    3    3    0  502 -0.13686050991E+03 -0.14593977495E+04  0.14429293795E+04  0.20568465657E+04  0.10100000352E+00 0. -1.
</event>
<event>
 5   0  0.5916703E-07  0.2992551E+04  0.7818609E-02  0.8245861E-01
       -1   -1    0    0    0  501  0.00000000000E+00  0.00000000000E+00  0.10433523623E+04  0.10433523623E+04  0.50400001928E-02 0. -1.
        1   -1    0    0  501    0  0.00000000000E+00  0.00000000000E+00 -0.21458141277E+04  0.21458141277E+04  0.50400001928E-02 0.  1.
    10030    2    1    2    0    0  0.00000000000E+00  0.00000000000E+00 -0.11024617654E+04  0.31891664900E+04  0.29925509113E+04 0.  0.
        5    1    3    3  502    0 -0.79773949796E+03  0.35089199004E+03  0.74494655120E+03  0.11465081550E+04  0.46999998093E+01 0.  1.
       -5    1    3    3    0  502  0.79773949796E+03 -0.35089199004E+03 -0.18474083166E+04  0.20426583350E+04  0.46999998093E+01 0. -1.
</event>
<event>
 5   0  0.5874741E-07  0.3005967E+04  0.7818609E-02  0.8242029E-01
        1   -1    0    0  501    0  0.00000000000E+00  0.00000000000E+00  0.20706554374E+04  0.20706554374E+04  0.50400001928E-02 0.  1.
       -1   -1    0    0    0  501  0.00000000000E+00  0.00000000000E+00 -0.10909390851E+04  0.10909390852E+04  0.50400001928E-02 0. -1.
    10030    2    1    2    0    0  0.00000000000E+00  0.00000000000E+00  0.97971635221E+03  0.31615945225E+04  0.30059666987E+04 0.  0.
        4    1    3    3  502    0 -0.41273849422E+03 -0.14458567918E+03  0.20022547709E+04  0.20494594076E+04  0.12699999809E+01 0.  1.
       -4    1    3    3    0  502  0.41273849422E+03  0.14458567918E+03 -0.10225384186E+04  0.11121351149E+04  0.12699999809E+01 0. -1.
</event>
<event>
 5   0  0.5916703E-07  0.2999559E+04  0.7818609E-02  0.8243857E-01
       -1   -1    0    0    0  501  0.00000000000E+00  0.00000000000E+00  0.15544135654E+04  0.15544135654E+04  0.50400001928E-02 0.  1.
        1   -1    0    0  501    0  0.00000000000E+00  0.00000000000E+00 -0.14470653480E+04  0.14470653480E+04  0.50400001928E-02 0. -1.
    10030    2    1    2    0    0  0.00000000000E+00  0.00000000000E+00  0.10734821739E+03  0.30014789134E+04  0.29995586388E+04 0.  0.
        5    1    3    3  502    0  0.73719242818E+02 -0.10280812400E+04 -0.10364866832E+04  0.14617497383E+04  0.46999998093E+01 0. -1.
       -5    1    3    3    0  502 -0.73719242818E+02  0.10280812400E+04  0.11438349006E+04  0.15397291751E+04  0.46999998093E+01 0.  1.
</event>
<event>
 5   0  0.6291798E-07  0.3001355E+04  0.7818609E-02  0.8243344E-01
       -1   -1    0    0    0  501  0.00000000000E+00  0.00000000000E+00  0.15503165067E+04  0.15503165067E+04  0.50400001928E-02 0. -1.
        1   -1    0    0  501    0  0.00000000000E+00  0.00000000000E+00 -0.14526278747E+04  0.14526278747E+04  0.50400001928E-02 0.  1.
    10030    2    1    2    0    0  0.00000000000E+00  0.00000000000E+00  0.97688631921E+02  0.30029443814E+04  0.30013550088E+04 0.  0.
        1    1    3    3  502    0  0.14568562567E+04  0.34746983864E+03  0.14306175095E+03  0.15045371733E+04  0.50400001928E-02 0.  1.
       -1    1    3    3    0  502 -0.14568562567E+04 -0.34746983864E+03 -0.45373119030E+02  0.14984072081E+04  0.50400001928E-02 0. -1.
</event>
<event>
 5   0  0.1625212E-06  0.3000556E+04  0.7818609E-02  0.8243572E-01
        2   -1    0    0  501    0  0.00000000000E+00  0.00000000000E+00  0.23896001475E+04  0.23896001475E+04  0.25500000920E-02 0.  1.
       -2   -1    0    0    0  501  0.00000000000E+00  0.00000000000E+00 -0.94192902813E+03  0.94192902813E+03  0.25500000920E-02 0. -1.
    10030    2    1    2    0    0  0.00000000000E+00  0.00000000000E+00  0.14476711193E+04  0.33315291756E+04  0.30005557782E+04 0.  0.
        4    1    3    3  502    0 -0.12056966251E+04 -0.18801407295E+02  0.17149175211E+04  0.20964259018E+04  0.12699999809E+01 0.  1.
       -4    1    3    3    0  502  0.12056966251E+04  0.18801407295E+02 -0.26724640179E+03  0.12351032738E+04  0.12699999809E+01 0. -1.
</event>
<event>
 5   0  0.1723916E-06  0.2988513E+04  0.7818609E-02  0.8247019E-01
        2   -1    0    0  501    0  0.00000000000E+00  0.00000000000E+00  0.23585767721E+04  0.23585767721E+04  0.25500000920E-02 0.  1.
       -2   -1    0    0    0  501  0.00000000000E+00  0.00000000000E+00 -0.94667374377E+03  0.94667374378E+03  0.25500000920E-02 0. -1.
    10030    2    1    2    0    0  0.00000000000E+00  0.00000000000E+00  0.14119030284E+04  0.33052505159E+04  0.29885131439E+04 0.  0.
        1    1    3    3  502    0  0.38510527374E+03 -0.13686343487E+04  0.12143878982E+04  0.18698138997E+04  0.50400001928E-02 0. -1.
       -1    1    3    3    0  502 -0.38510527374E+03  0.13686343487E+04  0.19751513019E+03  0.14354366162E+04  0.50400001928E-02 0.  1.
</event>
<event>
 5   0  0.1674806E-06  0.2998321E+04  0.7818609E-02  0.8244211E-01
        2   -1    0    0  501    0  0.00000000000E+00  0.00000000000E+00  0.90504058470E+03  0.90504058470E+03  0.25500000920E-02 0. -1.
       -2   -1    0    0    0  501  0.00000000000E+00  0.00000000000E+00 -0.24832941984E+04  0.24832941984E+04  0.25500000920E-02 0.  1.
    10030    2    1    2    0    0  0.00000000000E+00  0.00000000000E+00 -0.15782536137E+04  0.33883347831E+04  0.29983208856E+04 0.  0.
        2    1    3    3  502    0 -0.13490970110E+04  0.13066847561E+03 -0.15130338418E+04  0.20313562961E+04  0.25500000920E-02 0. -1.
       -2    1    3    3    0  502  0.13490970110E+04 -0.13066847561E+03 -0.65219771939E+02  0.13569784870E+04  0.25500000920E-02 0.  1.
</event>
<event>
 5   0  0.5887179E-07  0.3031812E+04  0.7818609E-02  0.8234705E-01
       -1   -1    0    0    0  501  0.00000000000E+00  0.00000000000E+00  0.99178308190E+03  0.99178308191E+03  0.50400001928E-02 0. -1.
        1   -1    0    0  501    0  0.00000000000E+00  0.00000000000E+00 -0.23170101662E+04  0.23170101662E+04  0.50400001928E-02 0.  1.
    10030    2    1    2    0    0  0.00000000000E+00  0.00000000000E+00 -0.13252270843E+04  0.33087932481E+04  0.30318123184E+04 0.  0.
        3    1    3    3  502    0 -0.10336788698E+04  0.78793957896E+02 -0.18696729744E+04  0.21378441326E+04  0.10100000352E+00 0.  1.
       -3    1    3    3    0  502  0.10336788698E+04 -0.78793957896E+02  0.54444589012E+03  0.11709491155E+04  0.10100000352E+00 0. -1.
</event>
<event>
 5   0  0.1635086E-06  0.3001676E+04  0.7818609E-02  0.8243252E-01
       -2   -1    0    0    0  501  0.00000000000E+00  0.00000000000E+00  0.11385162472E+04  0.11385162472E+04  0.25500000920E-02 0. -1.
        2   -1    0    0  501    0  0.00000000000E+00  0.00000000000E+00 -0.19784657663E+04  0.19784657663E+04  0.25500000920E-02 0.  1.
    10030    2    1    2    0    0  0.00000000000E+00  0.00000000000E+00 -0.83994951912E+03  0.31169820135E+04  0.30016764779E+04 0.  0.
        3    1    3    3  502    0  0.67438571030E+03  0.39236287333E+02 -0.18116737835E+04  0.19335194544E+04  0.10100000352E+00 0.  1.
       -3    1    3    3    0  502 -0.67438571030E+03 -0.39236287333E+02  0.97172426442E+03  0.11834625591E+04  0.10100000352E+00 0. -1.
</event>
<event>
 5   0  0.1560174E-06  0.2993860E+04  0.7818609E-02  0.8245486E-01
        2   -1    0    0  501    0  0.00000000000E+00  0.00000000000E+00  0.18634754050E+04  0.18634754050E+04  0.25500000920E-02 0.  1.
       -2   -1    0    0    0  501  0.00000000000E+00  0.00000000000E+00 -0.12024837883E+04  0.12024837883E+04  0.25500000920E-02 0. -1.
    10030    2    1    2    0    0  0.00000000000E+00  0.00000000000E+00  0.66099161663E+03  0.30659591933E+04  0.29938596924E+04 0.  0.
        5    1    3    3  502    0  0.30536444495E+03  0.14265410061E+04  0.67399905977E+03  0.16070356278E+04  0.46999998093E+01 0.  1.
       -5    1    3    3    0  502 -0.30536444495E+03 -0.14265410061E+04 -0.13007443139E+02  0.14589235655E+04  0.46999998093E+01 0. -1.
</event>
<event>
 5   0  0.1723916E-06  0.2996911E+04  0.7818609E-02  0.8244613E-01
        2   -1    0    0  501    0  0.00000000000E+00  0.00000000000E+00  0.18995605451E+04  0.18995605451E+04  0.25500000920E-02 0. -1.
       -2   -1    0    0    0  501  0.00000000000E+00  0.00000000000E+00 -0.11820465799E+04  0.11820465799E+04  0.25500000920E-02 0.  1.
    10030    2    1    2    0    0  0.00000000000E+00  0.00000000000E+00  0.71751396526E+03  0.30816071250E+04  0.29969111069E+04 0.  0.
        1    1    3    3  502    0  0.68354726498E+03  0.13284975522E+04  0.24050053666E+03  0.15132690170E+04  0.50400001928E-02 0. -1.
       -1    1    3    3    0  502 -0.68354726498E+03 -0.13284975522E+04  0.47701342860E+03  0.15683381080E+04  0.50400001928E-02 0.  1.
</event>
<event>
 5   0  0.5887179E-07  0.2937662E+04  0.7818609E-02  0.8261759E-01
        1   -1    0    0  501    0  0.00000000000E+00  0.00000000000E+00  0.22630962807E+04  0.22630962807E+04  0.50400001928E-02 0.  1.
       -1   -1    0    0    0  501  0.00000000000E+00  0.00000000000E+00 -0.95332402031E+03  0.95332402032E+03  0.50400001928E-02 0. -1.
    10030    2    1    2    0    0  0.00000000000E+00  0.00000000000E+00  0.13097722604E+04  0.32164203010E+04  0.29376616855E+04 0.  0.
        3    1    3    3  502    0 -0.99551326197E+02  0.20667666487E+03 -0.93358887987E+03  0.96136045122E+03  0.10100000352E+00 0. -1.
       -3    1    3    3    0  502  0.99551326197E+02 -0.20667666487E+03  0.22433611402E+04  0.22550598498E+04  0.10100000352E+00 0.  1.
</event>
<event>
 5   0  0.5874741E-07  0.2985277E+04  0.7818609E-02  0.8247948E-01
       -1   -1    0    0    0  501  0.00000000000E+00  0.00000000000E+00  0.16187507142E+04  0.16187507142E+04  0.50400001928E-02 0. -1.
        1   -1    0    0  501    0  0.00000000000E+00  0.00000000000E+00 -0.13763509157E+04  0.13763509157E+04  0.50400001928E-02 0.  1.
    10030    2    1    2    0    0  0.00000000000E+00  0.00000000000E+00  0.24239979849E+03  0.29951016299E+04  0.29852765552E+04 0.  0.
        4    1    3    3  502    0  0.19438692805E+03  0.14762093975E+04  0.22636353717E+03  0.15060619267E+04  0.12699999809E+01 0. -1.
       -4    1    3    3    0  502 -0.19438692805E+03 -0.14762093975E+04  0.16036261315E+02  0.14890397032E+04  0.12699999809E+01 0.  1.
</event>
<event>
 5   0  0.5887179E-07  0.2999856E+04  0.7818609E-02  0.8243772E-01
       -1   -1    0    0    0  501  0.00000000000E+00  0.00000000000E+00  0.11135553638E+04  0.11135553638E+04  0.50400001928E-02 0. -1.
        1   -1    0    0  501    0  0.00000000000E+00  0.00000000000E+00 -0.20203605281E+04  0.20203605281E+04  0.50400001928E-02 0.  1.
    10030    2    1    2    0    0  0.00000000000E+00  0.00000000000E+00 -0.90680516429E+03  0.31339158919E+04  0.29998555317E+04 0.  0.
        3    1    3    3  502    0  0.14440303002E+03  0.52100264466E+03  0.10082241357E+04  0.11440331765E+04  0.10100000352E+00 0. -1.
       -3    1    3    3    0  502 -0.14440303002E+03 -0.52100264466E+03 -0.19150293000E+04  0.19898827154E+04  0.10100000352E+00 0.  1.
</event>
<event>
 5   0  0.1625212E-06  0.2996958E+04  0.7818609E-02  0.8244600E-01
       -2   -1    0    0    0  501  0.00000000000E+00  0.00000000000E+00  0.15113726595E+04  0.15113726595E+04  0.25500000920E-02 0.  1.
        2   -1    0    0  501    0  0.00000000000E+00  0.00000000000E+00 -0.14856954192E+04  0.14856954192E+04  0.25500000920E-02 0. -1.
    10030    2    1    2    0    0  0.00000000000E+00  0.00000000000E+00  0.25677240314E+02  0.29970680787E+04  0.29969580824E+04 0.  0.
        4    1    3    3  502    0 -0.23635371550E+03 -0.10186769308E+04  0.10861310365E+04  0.15077294218E+04  0.12699999809E+01 0.  1.
       -4    1    3    3    0  502  0.23635371550E+03  0.10186769308E+04 -0.10604537961E+04  0.14893386569E+04  0.12699999809E+01 0. -1.
</event>
<event>
 5   0  0.1560174E-06  0.2980858E+04  0.7818609E-02  0.8249218E-01
        2   -1    0    0  501    0  0.00000000000E+00  0.00000000000E+00  0.25235779778E+04  0.25235779778E+04  0.25500000920E-02 0.  1.
       -2   -1    0    0    0  501  0.00000000000E+00  0.00000000000E+00 -0.88024948315E+03  0.88024948315E+03  0.25500000920E-02 0. -1.
    10030    2    1    2    0    0  0.00000000000E+00  0.00000000000E+00  0.16433284946E+04  0.34038274609E+04  0.29808577360E+04 0.  0.
        5    1    3    3  502    0  0.13412399330E+04 -0.36425434668E+03  0.20699956391E+03  0.14051607368E+04  0.46999998093E+01 0. -1.
       -5    1    3    3    0  502 -0.13412399330E+04  0.36425434668E+03  0.14363289307E+04  0.19986667241E+04  0.46999998093E+01 0.  1.
</event>
<event>
 5   0  0.1674806E-06  0.3041543E+04  0.7818609E-02  0.8231966E-01
        2   -1    0    0  501    0  0.00000000000E+00  0.00000000000E+00  0.13687372366E+04  0.13687372366E+04  0.25500000920E-02 0. -1.
       -2   -1    0    0    0  501  0.00000000000E+00  0.00000000000E+00 -0.16896936273E+04  0.16896936273E+04  0.25500000920E-02 0.  1.
    10030    2    1    2    0    0  0.00000000000E+00  0.00000000000E+00 -0.32095639068E+03  0.30584308639E+04  0.30415434149E+04 0.  0.
        2    1    3    3  502    0 -0.58137626249E+03 -0.12650262737E+04 -0.77580450126E+03  0.15937887112E+04  0.25500000920E-02 0.  1.
       -2    1    3    3    0  502  0.58137626249E+03  0.12650262737E+04  0.45484811058E+03  0.14646421527E+04  0.25500000920E-02 0. -1.
</event>
<event>
 5   0  0.1635086E-06  0.3017005E+04  0.7818609E-02  0.8238892E-01
       -2   -1    0    0    0  501  0.00000000000E+00  0.00000000000E+00  0.13568227919E+04  0.13568227919E+04  0.25500000920E-02 0. -1.
        2   -1    0    0  501    0  0.00000000000E+00  0.00000000000E+00 -0.16771383624E+04  0.16771383624E+04  0.25500000920E-02 0.  1.
    10030    2    1    2    0    0  0.00000000000E+00  0.00000000000E+00 -0.32031557045E+03  0.30339611543E+04  0.30170048427E+04 0.  0.
        3    1    3    3  502    0  0.50519473260E+02  0.31578237416E+03 -0.16426578804E+04  0.16734980273E+04  0.10100000352E+00 0.  1.
       -3    1    3    3    0  502 -0.50519473260E+02 -0.31578237416E+03  0.13223423100E+04  0.13604631270E+04  0.10100000352E+00 0. -1.
</event>
<event>
 5   0  0.1674806E-06  0.3002414E+04  0.7818609E-02  0.8243042E-01
       -2   -1    0    0    0  501  0.00000000000E+00  0.00000000000E+00  0.12704056743E+04  0.12704056743E+04  0.25500000920E-02 0. -1.
        2   -1    0    0  501    0  0.00000000000E+00  0.00000000000E+00 -0.17739397435E+04  0.17739397435E+04  0.25500000920E-02 0.  1.
    10030    2    1    2    0    0  0.00000000000E+00  0.00000000000E+00 -0.50353406925E+03  0.30443454178E+04  0.30024144391E+04 0.  0.
        2    1    3    3  502    0 -0.42573270915E+03 -0.13516032994E+04  0.25067657707E+03  0.14390686449E+04  0.25500000920E-02 0. -1.
       -2    1    3    3    0  502  0.42573270915E+03  0.13516032994E+04 -0.75421064633E+03  0.16052767729E+04  0.25500000920E-02 0.  1.
</event>
<event>
 5   0  0.1635086E-06  0.3024331E+04  0.7818609E-02  0.8236817E-01
        2   -1    0    0  501    0  0.00000000000E+00  0.00000000000E+00  0.12542824737E+04  0.12542824737E+04  0.25500000920E-02 0. -1.
       -2   -1    0    0    0  501  0.00000000000E+00  0.00000000000E+00 -0.18230694068E+04  0.18230694068E+04  0.25500000920E-02 0.  1.
    10030    2    1    2    0    0  0.00000000000E+00  0.00000000000E+00 -0.56878693311E+03  0.30773518805E+04  0.30243306733E+04 0.  0.
        3    1    3    3  502    0  0.92386359031E+03 -0.11872830255E+03 -0.14965053290E+04  0.17627105699E+04  0.10100000352E+00 0.  1.
       -3    1    3    3    0  502 -0.92386359031E+03  0.11872830255E+03  0.92771839589E+03  0.13146413106E+04  0.10100000352E+00 0. -1.
</event>
<event>
 5   0  0.1635086E-06  0.2966815E+04  0.7818609E-02  0.8253271E-01
       -2   -1    0    0    0  501  0.00000000000E+00  0.00000000000E+00  0.16435480095E+04  0.16435480095E+04  0.25500000920E-02 0. -1.
        2   -1    0    0  501    0  0.00000000000E+00  0.00000000000E+00 -0.13388704276E+04  0.13388704276E+04  0.25500000920E-02 0.  1.
    10030    2    1    2    0    0  0.00000000000E+00  0.00000000000E+00  0.30467758197E+03  0.29824184371E+04  0.29668150103E+04 0.  0.
        3    1    3    3  502    0  0.58104868834E+03 -0.12571587043E+04 -0.38189977436E+03  0.14366325326E+04  0.10100000352E+00 0.  1.
       -3    1    3    3    0  502 -0.58104868834E+03  0.12571587043E+04  0.68657735633E+03  0.15457859045E+04  0.10100000352E+00 0. -1.
</event>
<event>
 5   0  0.1625212E-06  0.2997163E+04  0.7818609E-02  0.8244542E-01
        2   -1    0    0  501    0  0.00000000000E+00  0.00000000000E+00  0.32047492243E+04  0.32047492243E+04  0.25500000920E-02 0. -1.
       -2   -1    0    0    0  501  0.00000000000E+00  0.00000000000E+00 -0.70075569027E+03  0.70075569028E+03  0.25500000920E-02 0.  1.
    10030    2    1    2    0    0  0.00000000000E+00  0.00000000000E+00  0.25039935340E+04  0.39055049145E+04  0.29971628283E+04 0.  0.
        4    1    3    3  502    0  0.11185624703E+04 -0.48850530679E+02  0.25499566461E+04  0.27849324739E+04  0.12699999809E+01 0. -1.
       -4    1    3    3    0  502 -0.11185624703E+04  0.48850530679E+02 -0.45963112079E+02  0.11205724407E+04  0.12699999809E+01 0.  1.
</event>
<event>
 5   0  0.5916703E-07  0.2985062E+04  0.7818609E-02  0.8248009E-01
        1   -1    0    0  501    0  0.00000000000E+00  0.00000000000E+00  0.80376875705E+03  0.80376875707E+03  0.50400001928E-02 0.  1.
       -1   -1    0    0    0  501  0.00000000000E+00  0.00000000000E+00 -0.27715042370E+04  0.27715042370E+04  0.50400001928E-02 0. -1.
    10030    2    1    2    0    0  0.00000000000E+00  0.00000000000E+00 -0.19677354799E+04  0.35752729940E+04  0.29850618190E+04 0.  0.
        5    1    3    3  502    0  0.37748736272E+03 -0.13337750653E+04 -0.16466027071E+04  0.21523882546E+04  0.46999998093E+01 0. -1.
       -5    1    3    3    0  502 -0.37748736272E+03  0.13337750653E+04 -0.32113277286E+03  0.14228847394E+04  0.46999998093E+01 0.  1.
</event>
<event>
 5   0  0.5931588E-07  0.3027215E+04  0.7818609E-02  0.8236002E-01
       -1   -1    0    0    0  501  0.00000000000E+00  0.00000000000E+00  0.11433868291E+04  0.11433868292E+04  0.50400001928E-02 0. -1.
        1   -1    0    0  501    0  0.00000000000E+00  0.00000000000E+00 -0.20037030131E+04  0.20037030131E+04  0.50400001928E-02 0.  1.
    10030    2    1    2    0    0  0.00000000000E+00  0.00000000000E+00 -0.86031618391E+03  0.31470898422E+04  0.30272149806E+04 0.  0.
        2    1    3    3  502    0  0.56408097745E+02 -0.14206470451E+03  0.11353425701E+04  0.11455858786E+04  0.25500000920E-02 0. -1.
       -2    1    3    3    0  502 -0.56408097745E+02  0.14206470451E+03 -0.19956587540E+04  0.20015039636E+04  0.25500000920E-02 0.  1.
</event>
<event>
 5   0  0.5931588E-07  0.2983523E+04  0.7818609E-02  0.8248452E-01
       -1   -1    0    0    0  501  0.00000000000E+00  0.00000000000E+00  0.11606497397E+04  0.11606497397E+04  0.50400001928E-02 0.  1.
        1   -1    0    0  501    0  0.00000000000E+00  0.00000000000E+00 -0.19173335661E+04  0.19173335661E+04  0.50400001928E-02 0. -1.
    10030    2    1    2    0    0  0.00000000000E+00  0.00000000000E+00 -0.75668382643E+03  0.30779833058E+04  0.29835232222E+04 0.  0.
        2    1    3    3  502    0  0.97045671053E+03  0.92572591900E+02  0.78656543180E+03  0.12526137035E+04  0.25500000920E-02 0.  1.
       -2    1    3    3    0  502 -0.97045671053E+03 -0.92572591900E+02 -0.15432492582E+04  0.18253696022E+04  0.25500000920E-02 0. -1.
</event>
<event>
 5   0  0.5887179E-07  0.3006996E+04  0.7818609E-02  0.8241736E-01
       -1   -1    0    0    0  501  0.00000000000E+00  0.00000000000E+00  0.80074332883E+03  0.80074332885E+03  0.50400001928E-02 0.  1.
        1   -1    0    0  501    0  0.00000000000E+00  0.00000000000E+00 -0.28230097635E+04  0.28230097635E+04  0.50400001928E-02 0. -1.
    10030    2    1    2    0    0  0.00000000000E+00  0.00000000000E+00 -0.20222664347E+04  0.36237530924E+04  0.30069959996E+04 0.  0.
        3    1    3    3  502    0 -0.32441521486E+03 -0.26661257994E+03  0.72864235161E+03  0.84097989641E+03  0.10100000352E+00 0.  1.
       -3    1    3    3    0  502  0.32441521486E+03  0.26661257994E+03 -0.27509087863E+04  0.27827731959E+04  0.10100000352E+00 0. -1.
</event>
<event>
 5   0  0.1723916E-06  0.2976439E+04  0.7818609E-02  0.8250491E-01
        2   -1    0    0  501    0  0.00000000000E+00  0.00000000000E+00  0.17113798580E+04  0.17113798580E+04  0.25500000920E-02 0. -1.
       -2   -1    0    0    0  501  0.00000000000E+00  0.00000000000E+00 -0.12941586272E+04  0.12941586272E+04  0.25500000920E-02 0.  1.
    10030    2    1    2    0    0  0.00000000000E+00  0.00000000000E+00  0.41722123085E+03  0.30055384852E+04  0.29764388168E+04 0.  0.
        1    1    3    3  502    0  0.16457709515E+03 -0.15913851019E+03 -0.12762715001E+04  0.12966416728E+04  0.50400001928E-02 0.  1.
       -1    1    3    3    0  502 -0.16457709515E+03  0.15913851019E+03  0.16934927309E+04  0.17088968124E+04  0.50400001928E-02 0. -1.
</event>
<event>
 5   0  0.5887179E-07  0.2955898E+04  0.7818609E-02  0.8256438E-01
        1   -1    0    0  501    0  0.00000000000E+00  0.00000000000E+00  0.13816858095E+04  0.13816858095E+04  0.50400001928E-02 0.  1.
       -1   -1    0    0    0  501  0.00000000000E+00  0.00000000000E+00 -0.15809187584E+04  0.15809187584E+04  0.50400001928E-02 0. -1.
    10030    2    1    2    0    0  0.00000000000E+00  0.00000000000E+00 -0.19923294887E+03  0.29626045679E+04  0.29558978429E+04 0.  0.
        3    1    3    3  502    0  0.92869492496E+03 -0.48293711960E+03  0.94612543249E+03  0.14109769202E+04  0.10100000352E+00 0.  1.
       -3    1    3    3    0  502 -0.92869492496E+03  0.48293711960E+03 -0.11453583814E+04  0.15516276477E+04  0.10100000352E+00 0. -1.
</event>
<event>
 5   0  0.1635086E-06  0.3012133E+04  0.7818609E-02  0.8240275E-01
       -2   -1    0    0    0  501  0.00000000000E+00  0.00000000000E+00  0.17324826821E+04  0.17324826821E+04  0.25500000920E-02 0. -1.
        2   -1    0    0  501    0  0.00000000000E+00  0.00000000000E+00 -0.13092405965E+04  0.13092405965E+04  0.25500000920E-02 0.  1.
    10030    2    1    2    0    0  0.00000000000E+00  0.00000000000E+00  0.42324208552E+03  0.30417232786E+04  0.30121332375E+04 0.  0.
        3    1    3    3  502    0  0.54190490135E+03 -0.64373660305E+03 -0.10497205740E+04  0.13453516380E+04  0.10100000352E+00 0.  1.
       -3    1    3    3    0  502 -0.54190490135E+03  0.64373660305E+03  0.14729626596E+04  0.16963716406E+04  0.10100000352E+00 0. -1.
</event>
<event>
 5   0  0.6291798E-07  0.3017049E+04  0.7818609E-02  0.8238879E-01
       -1   -1    0    0    0  501  0.00000000000E+00  0.00000000000E+00  0.20156305248E+04  0.20156305249E+04  0.50400001928E-02 0.  1.
        1   -1    0    0  501    0  0.00000000000E+00  0.00000000000E+00 -0.11289995239E+04  0.11289995239E+04  0.50400001928E-02 0. -1.
    10030    2    1    2    0    0  0.00000000000E+00  0.00000000000E+00  0.88663100094E+03  0.31446300488E+04  0.30170488249E+04 0.  0.
        1    1    3    3  502    0  0.11347704343E+04  0.99086474256E+03  0.52491414857E+03  0.15953218296E+04  0.50400001928E-02 0.  1.
       -1    1    3    3    0  502 -0.11347704343E+04 -0.99086474256E+03  0.36171685237E+03  0.15493082192E+04  0.50400001928E-02 0. -1.
</event>
<event>
 5   0  0.1625212E-06  0.3002679E+04  0.7818609E-02  0.8242966E-01
        2   -1    0    0  501    0  0.00000000000E+00  0.00000000000E+00  0.19442743693E+04  0.19442743693E+04  0.25500000920E-02 0. -1.
       -2   -1    0    0    0  501  0.00000000000E+00  0.00000000000E+00 -0.11593116294E+04  0.11593116294E+04  0.25500000920E-02 0.  1.
    10030    2    1    2    0    0  0.00000000000E+00  0.00000000000E+00  0.78496273987E+03  0.31035859988E+04  0.30026787288E+04 0.  0.
        4    1    3    3  502    0  0.12414320395E+04  0.21021767162E+03 -0.45272333596E+03  0.13380227987E+04  0.12699999809E+01 0. -1.
       -4    1    3    3    0  502 -0.12414320395E+04 -0.21021767162E+03  0.12376860758E+04  0.17655632000E+04  0.12699999809E+01 0.  1.
</event>
<event>
 5   0  0.1625212E-06  0.3012172E+04  0.7818609E-02  0.8240264E-01
       -2   -1    0    0    0  501  0.00000000000E+00  0.00000000000E+00  0.12141532606E+04  0.12141532606E+04  0.25500000920E-02 0.  1.
        2   -1    0    0  501    0  0.00000000000E+00  0.00000000000E+00 -0.18682119087E+04  0.18682119087E+04  0.25500000920E-02 0. -1.
    10030    2    1    2    0    0  0.00000000000E+00  0.00000000000E+00 -0.65405864814E+03  0.30823651693E+04  0.30121723592E+04 0.  0.
        4    1    3    3  502    0 -0.79354164394E+03 -0.20875892236E+02  0.98269857676E+03  0.12632664997E+04  0.12699999809E+01 0.  1.
       -4    1    3    3    0  502  0.79354164394E+03  0.20875892236E+02 -0.16367572249E+04  0.18190986696E+04  0.12699999809E+01 0. -1.
</event>
<event>
 5   0  0.5916703E-07  0.2994221E+04  0.7818609E-02  0.8245383E-01
        1   -1    0    0  501    0  0.00000000000E+00  0.00000000000E+00  0.12350684293E+04  0.12350684293E+04  0.50400001928E-02 0. -1.
       -1   -1    0    0    0  501  0.00000000000E+00  0.00000000000E+00 -0.18147492604E+04  0.18147492604E+04  0.50400001928E-02 0.  1.
    10030    2    1    2    0    0  0.00000000000E+00  0.00000000000E+00 -0.57968083104E+03  0.30498176897E+04  0.29942207792E+04 0.  0.
        5    1    3    3  502    0 -0.67467593116E+03  0.41428780063E+03  0.10043806662E+04  0.12789154024E+04  0.46999998093E+01 0. -1.
       -5    1    3    3    0  502  0.67467593116E+03 -0.41428780063E+03 -0.15840614973E+04  0.17709022873E+04  0.46999998093E+01 0.  1.
</event>
<event>
 5   0  0.5887179E-07  0.3009955E+04  0.7818609E-02  0.8240894E-01
        1   -1    0    0  501    0  0.00000000000E+00  0.00000000000E+00  0.17088795294E+04  0.17088795294E+04  0.50400001928E-02 0. -1.
       -1   -1    0    0    0  501  0.00000000000E+00  0.00000000000E+00 -0.13254050545E+04  0.13254050545E+04  0.50400001928E-02 0.  1.
    10030    2    1    2    0    0  0.00000000000E+00  0.00000000000E+00  0.38347447488E+03  0.30342845839E+04  0.30099551929E+04 0.  0.
        3    1    3    3  502    0 -0.98107725967E+03  0.67619672595E+03 -0.73504304001E+03  0.14000153151E+04  0.10100000352E+00 0.  1.
       -3    1    3    3    0  502  0.98107725967E+03 -0.67619672595E+03  0.11185175149E+04  0.16342692688E+04  0.10100000352E+00 0. -1.
</event>
<event>
 5   0  0.5931588E-07  0.2996673E+04  0.7818609E-02  0.8244681E-01
       -1   -1    0    0    0  501  0.00000000000E+00  0.00000000000E+00  0.14222503040E+04  0.14222503040E+04  0.50400001928E-02 0. -1.
        1   -1    0    0  501    0  0.00000000000E+00  0.00000000000E+00 -0.15784935763E+04  0.15784935763E+04  0.50400001928E-02 0.  1.
    10030    2    1    2    0    0  0.00000000000E+00  0.00000000000E+00 -0.15624327230E+03  0.30007438803E+04  0.29966734682E+04 0.  0.
        2    1    3    3  502    0  0.93863035756E+03  0.13965608119E+03 -0.12392147107E+04  0.15608279433E+04  0.25500000920E-02 0.  1.
       -2    1    3    3    0  502 -0.93863035756E+03 -0.13965608119E+03  0.10829714385E+04  0.14399159370E+04  0.25500000920E-02 0. -1.
</event>
<event>
 5   0  0.1625212E-06  0.2968188E+04  0.7818609E-02  0.8252874E-01
       -2   -1    0    0    0  501  0.00000000000E+00  0.00000000000E+00  0.84006994521E+03  0.84006994522E+03  0.25500000920E-02 0.  1.
        2   -1    0    0  501    0  0.00000000000E+00  0.00000000000E+00 -0.26218479134E+04  0.26218479134E+04  0.25500000920E-02 0. -1.
    10030    2    1    2    0    0  0.00000000000E+00  0.00000000000E+00 -0.17817779682E+04  0.34619178586E+04  0.29681884260E+04 0.  0.
        4    1    3    3  502    0 -0.10030754131E+04 -0.37162788627E+03 -0.20907275186E+04  0.23484911624E+04  0.12699999809E+01 0. -1.
       -4    1    3    3    0  502  0.10030754131E+04  0.37162788627E+03  0.30894955036E+03  0.11134266962E+04  0.12699999809E+01 0.  1.
</event>
<event>
 5   0  0.5887179E-07  0.2984263E+04  0.7818609E-02  0.8248239E-01
       -1   -1    0    0    0  501  0.00000000000E+00  0.00000000000E+00  0.12901254971E+04  0.12901254971E+04  0.50400001928E-02 0.  1.
        1   -1    0    0  501    0  0.00000000000E+00  0.00000000000E+00 -0.17257671493E+04  0.17257671493E+04  0.50400001928E-02 0. -1.
    10030    2    1    2    0    0  0.00000000000E+00  0.00000000000E+00 -0.43564165215E+03  0.30158926464E+04  0.29842628579E+04 0.  0.
        3    1    3    3  502    0 -0.21078453413E+02 -0.61007446728E+03 -0.15938026825E+04  0.17067050588E+04  0.10100000352E+00 0. -1.
       -3    1    3    3    0  502  0.21078453413E+02  0.61007446728E+03  0.11581610304E+04  0.13091875875E+04  0.10100000352E+00 0.  1.
</event>
<event>
 5   0  0.1674806E-06  0.2992821E+04  0.7818609E-02  0.8245784E-01
       -2   -1    0    0    0  501  0.00000000000E+00  0.00000000000E+00  0.15518609330E+04  0.15518609330E+04  0.25500000920E-02 0. -1.
        2   -1    0    0  501    0  0.00000000000E+00  0.00000000000E+00 -0.14429415007E+04  0.14429415007E+04  0.25500000920E-02 0.  1.
    10030    2    1    2    0    0  0.00000000000E+00  0.00000000000E+00  0.10891943229E+03  0.29948024336E+04  0.29928211062E+04 0.  0.
        2    1    3    3  502    0  0.84687668551E+03  0.74652664245E+03  0.10373229764E+04  0.15331474507E+04  0.25500000920E-02 0. -1.
       -2    1    3    3    0  502 -0.84687668551E+03 -0.74652664245E+03 -0.92840354411E+03  0.14616549829E+04  0.25500000920E-02 0.  1.
</event>
<event>
 5   0  0.1625212E-06  0.2998261E+04  0.7818609E-02  0.8244228E-01
       -2   -1    0    0    0  501  0.00000000000E+00  0.00000000000E+00  0.74331938343E+03  0.74331938344E+03  0.25500000920E-02 0.  1.
        2   -1    0    0  501    0  0.00000000000E+00  0.00000000000E+00 -0.30234544118E+04  0.30234544118E+04  0.25500000920E-02 0. -1.
    10030    2    1    2    0    0  0.00000000000E+00  0.00000000000E+00 -0.22801350284E+04  0.37667737953E+04  0.29982610088E+04 0.  0.
        4    1    3    3  502    0 -0.13078858111E+04 -0.11495813195E+03 -0.23098340739E+03  0.13330925003E+04  0.12699999809E+01 0.  1.
       -4    1    3    3    0  502  0.13078858111E+04  0.11495813195E+03 -0.20491516210E+04  0.24336812950E+04  0.12699999809E+01 0. -1.
</event>
<event>
 5   0  0.5916703E-07  0.2993994E+04  0.7818609E-02  0.8245448E-01
       -1   -1    0    0    0  501  0.00000000000E+00  0.00000000000E+00  0.13089390535E+04  0.13089390535E+04  0.50400001928E-02 0. -1.
        1   -1    0    0  501    0  0.00000000000E+00  0.00000000000E+00 -0.17120737637E+04  0.17120737637E+04  0.50400001928E-02 0.  1.
    10030    2    1    2    0    0  0.00000000000E+00  0.00000000000E+00 -0.40313471021E+03  0.30210128173E+04  0.29939941295E+04 0.  0.
        5    1    3    3  502    0  0.18502224914E+03 -0.11167083957E+04  0.78691975570E+03  0.13785991679E+04  0.46999998093E+01 0. -1.
       -5    1    3    3    0  502 -0.18502224914E+03  0.11167083957E+04 -0.11900544659E+04  0.16424136494E+04  0.46999998093E+01 0.  1.
</event>
<event>
 5   0  0.5931588E-07  0.3016932E+04  0.7818609E-02  0.8238912E-01
       -1   -1    0    0    0  501  0.00000000000E+00  0.00000000000E+00  0.10572249123E+04  0.10572249123E+04  0.50400001928E-02 0. -1.
        1   -1    0    0  501    0  0.00000000000E+00  0.00000000000E+00 -0.21523044098E+04  0.21523044098E+04  0.50400001928E-02 0.  1.
    10030    2    1    2    0    0  0.00000000000E+00  0.00000000000E+00 -0.10950794976E+04  0.32095293221E+04  0.30169321112E+04 0.  0.
        2    1    3    3  502    0 -0.77822461803E+03 -0.53767718831E+03 -0.17976021386E+04  0.20312813108E+04  0.25500000920E-02 0.  1.
       -2    1    3    3    0  502  0.77822461803E+03  0.53767718831E+03  0.70252264107E+03  0.11782480113E+04  0.25500000920E-02 0. -1.
</event>
<event>
 5   0  0.1674806E-06  0.2991055E+04  0.7818609E-02  0.8246290E-01
        2   -1    0    0  501    0  0.00000000000E+00  0.00000000000E+00  0.11641306710E+04  0.11641306710E+04  0.25500000920E-02 0. -1.
       -2   -1    0    0    0  501  0.00000000000E+00  0.00000000000E+00 -0.19212637852E+04  0.19212637852E+04  0.25500000920E-02 0.  1.
    10030    2    1    2    0    0  0.00000000000E+00  0.00000000000E+00 -0.75713311424E+03  0.30853944562E+04  0.29910547300E+04 0.  0.
        2    1    3    3  502    0 -0.61259706902E+03  0.80339995800E+03 -0.15160127927E+04  0.18218181713E+04  0.25500000920E-02 0.  1.
       -2    1    3    3    0  502  0.61259706902E+03 -0.80339995800E+03  0.75887967848E+03  0.12635762850E+04  0.25500000920E-02 0. -1.
</event>
<event>
 5   0  0.1635086E-06  0.2987432E+04  0.7818609E-02  0.8247329E-01
        2   -1    0    0  501    0  0.00000000000E+00  0.00000000000E+00  0.99640563712E+03  0.99640563712E+03  0.25500000920E-02 0. -1.
       -2   -1    0    0    0  501  0.00000000000E+00  0.00000000000E+00 -0.22392362197E+04  0.22392362197E+04  0.25500000920E-02 0.  1.
    10030    2    1    2    0    0  0.00000000000E+00  0.00000000000E+00 -0.12428305826E+04  0.32356418568E+04  0.29874320693E+04 0.  0.
        3    1    3    3  502    0  0.11804959325E+04 -0.76796230592E+03 -0.11606248677E+04  0.18249347505E+04  0.10100000352E+00 0.  1.
       -3    1    3    3    0  502 -0.11804959325E+04  0.76796230592E+03 -0.82205714832E+02  0.14107071063E+04  0.10100000352E+00 0. -1.
</event>
<event>
 5   0  0.1560174E-06  0.3009762E+04  0.7818609E-02  0.8240949E-01
       -2   -1    0    0    0  501  0.00000000000E+00  0.00000000000E+00  0.11808895906E+04  0.11808895906E+04  0.25500000920E-02 0. -1.
        2   -1    0    0  501    0  0.00000000000E+00  0.00000000000E+00 -0.19177633575E+04  0.19177633575E+04  0.25500000920E-02 0.  1.
    10030    2    1    2    0    0  0.00000000000E+00  0.00000000000E+00 -0.73687376696E+03  0.30986529481E+04  0.30097619747E+04 0.  0.
        5    1    3    3  502    0 -0.41794939871E+03  0.61231415612E+03 -0.17167079059E+04  0.18699514565E+04  0.46999998093E+01 0.  1.
       -5    1    3    3    0  502  0.41794939871E+03 -0.61231415612E+03  0.97983413892E+03  0.12287014916E+04  0.46999998093E+01 0. -1.
</event>
<event>
 5   0  0.5931588E-07  0.2998624E+04  0.7818609E-02  0.8244124E-01
        1   -1    0    0  501    0  0.00000000000E+00  0.00000000000E+00  0.19909349645E+04  0.19909349645E+04  0.50400001928E-02 0.  1.
       -1   -1    0    0    0  501  0.00000000000E+00  0.00000000000E+00 -0.11290857468E+04  0.11290857468E+04  0.50400001928E-02 0. -1.
    10030    2    1    2    0    0  0.00000000000E+00  0.00000000000E+00  0.86184921772E+03  0.31200207114E+04  0.29986238786E+04 0.  0.
        2    1    3    3  502    0  0.10522877482E+04 -0.92250994446E+03  0.99085804487E+03  0.17146818269E+04  0.25500000920E-02 0.  1.
       -2    1    3    3    0  502 -0.10522877482E+04  0.92250994446E+03 -0.12900882716E+03  0.14053388844E+04  0.25500000920E-02 0. -1.
</event>
<event>
 5   0  0.1674806E-06  0.3002674E+04  0.7818609E-02  0.8242968E-01
        2   -1    0    0  501    0  0.00000000000E+00  0.00000000000E+00  0.17834216143E+04  0.17834216143E+04  0.25500000920E-02 0. -1.
       -2   -1    0    0    0  501  0.00000000000E+00  0.00000000000E+00 -0.12638696812E+04  0.12638696812E+04  0.25500000920E-02 0.  1.
    10030    2    1    2    0    0  0.00000000000E+00  0.00000000000E+00  0.51955193303E+03  0.30472912955E+04  0.30026738132E+04 0.  0.
        2    1    3    3  502    0  0.21920102467E+03  0.36408742608E+03 -0.12015522026E+04  0.12744945816E+04  0.25500000920E-02 0.  1.
       -2    1    3    3    0  502 -0.21920102467E+03 -0.36408742608E+03  0.17211041356E+04  0.17727967139E+04  0.25500000920E-02 0. -1.
</event>
<event>
 5   0  0.5931588E-07  0.3010304E+04  0.7818609E-02  0.8240795E-01
        1   -1    0    0  501    0  0.00000000000E+00  0.00000000000E+00  0.16090770617E+04  0.16090770617E+04  0.50400001928E-02 0. -1.
       -1   -1    0    0    0  501  0.00000000000E+00  0.00000000000E+00 -0.14079389146E+04  0.14079389147E+04  0.50400001928E-02 0.  1.
    10030    2    1    2    0    0  0.00000000000E+00  0.00000000000E+00  0.20113814704E+03  0.30170159763E+04  0.30103037799E+04 0.  0.
        2    1    3    3  502    0 -0.34225194879E+02 -0.14091340751E+04  0.62962108900E+03  0.15437787799E+04  0.25500000920E-02 0.  1.
       -2    1    3    3    0  502  0.34225194879E+02  0.14091340751E+04 -0.42848294196E+03  0.14732371965E+04  0.25500000920E-02 0. -1.
</event>
<event>
 5   0  0.1560174E-06  0.2999433E+04  0.7818609E-02  0.8243893E-01
       -2   -1    0    0    0  501  0.00000000000E+00  0.00000000000E+00  0.13181456869E+04  0.13181456869E+04  0.25500000920E-02 0.  1.
        2   -1    0    0  501    0  0.00000000000E+00  0.00000000000E+00 -0.17062978058E+04  0.17062978058E+04  0.25500000920E-02 0. -1.
    10030    2    1    2    0    0  0.00000000000E+00  0.00000000000E+00 -0.38815211886E+03  0.30244434927E+04  0.29994326752E+04 0.  0.
        5    1    3    3  502    0  0.47831451847E+03 -0.20818795186E+03  0.12237067012E+04  0.13302658315E+04  0.46999998093E+01 0.  1.
       -5    1    3    3    0  502 -0.47831451847E+03  0.20818795186E+03 -0.16118588201E+04  0.16941776612E+04  0.46999998093E+01 0. -1.
</event>
<event>
 5   0  0.6291798E-07  0.2991189E+04  0.7818609E-02  0.8246251E-01
       -1   -1    0    0    0  501  0.00000000000E+00  0.00000000000E+00  0.88623759969E+03  0.88623759971E+03  0.50400001928E-02 0.  1.
        1   -1    0    0  501    0  0.00000000000E+00  0.00000000000E+00 -0.25239313123E+04  0.25239313123E+04  0.50400001928E-02 0. -1.
    10030    2    1    2    0    0  0.00000000000E+00  0.00000000000E+00 -0.16376937126E+04  0.34101689120E+04  0.29911889462E+04 0.  0.
        1    1    3    3  502    0  0.21849374708E+02  0.10150369456E+04 -0.20708640031E+04  0.23063510390E+04  0.50400001928E-02 0. -1.
       -1    1    3    3    0  502 -0.21849374708E+02 -0.10150369456E+04  0.43317029049E+03  0.11038178729E+04  0.50400001928E-02 0.  1.
</event>
<event>
 5   0  0.5931588E-07  0.2987771E+04  0.7818609E-02  0.8247231E-01
        1   -1    0    0  501    0  0.00000000000E+00  0.00000000000E+00  0.74522821537E+03  0.74522821539E+03  0.50400001928E-02 0. -1.
       -1   -1    0    0    0  501  0.00000000000E+00  0.00000000000E+00 -0.29946459090E+04  0.29946459090E+04  0.50400001928E-02 0.  1.
    10030    2    1    2    0    0  0.00000000000E+00  0.00000000000E+00 -0.22494176936E+04  0.37398741244E+04  0.29877714949E+04 0.  0.
        2    1    3    3  502    0 -0.14897840349E+04 -0.10760080208E+03 -0.10925459578E+04  0.18505920871E+04  0.25500000920E-02 0. -1.
       -2    1    3    3    0  502  0.14897840349E+04  0.10760080208E+03 -0.11568717359E+04  0.18892820373E+04  0.25500000920E-02 0.  1.
</event>
<event>
 5   0  0.6291798E-07  0.3040509E+04  0.7818609E-02  0.8232257E-01
        1   -1    0    0  501    0  0.00000000000E+00  0.00000000000E+00  0.18736010883E+04  0.18736010883E+04  0.50400001928E-02 0.  1.
       -1   -1    0    0    0  501  0.00000000000E+00  0.00000000000E+00 -0.12335462590E+04  0.12335462590E+04  0.50400001928E-02 0. -1.
    10030    2    1    2    0    0  0.00000000000E+00  0.00000000000E+00  0.64005482928E+03  0.31071473473E+04  0.30405089135E+04 0.  0.
        1    1    3    3  502    0  0.82953137310E+03 -0.97399438997E+03 -0.51918117240E+03  0.13807014378E+04  0.50400001928E-02 0. -1.
       -1    1    3    3    0  502 -0.82953137310E+03  0.97399438997E+03  0.11592360017E+04  0.17264459095E+04  0.50400001928E-02 0.  1.
</event>
<event>
 5   0  0.1560174E-06  0.3000041E+04  0.7818609E-02  0.8243719E-01
        2   -1    0    0  501    0  0.00000000000E+00  0.00000000000E+00  0.25934438813E+04  0.25934438813E+04  0.25500000920E-02 0. -1.
       -2   -1    0    0    0  501  0.00000000000E+00  0.00000000000E+00 -0.86759626087E+03  0.86759626087E+03  0.25500000920E-02 0.  1.
    10030    2    1    2    0    0  0.00000000000E+00  0.00000000000E+00  0.17258476205E+04  0.34610401422E+04  0.30000414759E+04 0.  0.
        5    1    3    3  502    0 -0.10329600645E+04 -0.10252827759E+04  0.44404863382E+03  0.15216479700E+04  0.46999998093E+01 0.  1.
       -5    1    3    3    0  502  0.10329600645E+04  0.10252827759E+04  0.12817989866E+04  0.19393921722E+04  0.46999998093E+01 0. -1.
</event>
<event>
 5   0  0.5916703E-07  0.3004338E+04  0.7818609E-02  0.8242493E-01
        1   -1    0    0  501    0  0.00000000000E+00  0.00000000000E+00  0.21211139619E+04  0.21211139619E+04  0.50400001928E-02 0. -1.
       -1   -1    0    0    0  501  0.00000000000E+00  0.00000000000E+00 -0.10638333965E+04  0.10638333965E+04  0.50400001928E-02 0.  1.
    10030    2    1    2    0    0  0.00000000000E+00  0.00000000000E+00  0.10572805653E+04  0.31849473584E+04  0.30043381104E+04 0.  0.
        5    1    3    3  502    0 -0.88931131431E+03 -0.60494407952E+03  0.16403265392E+04  0.19615109478E+04  0.46999998093E+01 0. -1.
       -5    1    3    3    0  502  0.88931131431E+03  0.60494407952E+03 -0.58304597388E+03  0.12234364106E+04  0.46999998093E+01 0.  1.
</event>
<event>
 5   0  0.5887179E-07  0.2985236E+04  0.7818609E-02  0.8247959E-01
       -1   -1    0    0    0  501  0.00000000000E+00  0.00000000000E+00  0.17733309726E+04  0.17733309726E+04  0.50400001928E-02 0.  1.
        1   -1    0    0  501    0  0.00000000000E+00  0.00000000000E+00 -0.12563414162E+04  0.12563414162E+04  0.50400001928E-02 0. -1.
    10030    2    1    2    0    0  0.00000000000E+00  0.00000000000E+00  0.51698955643E+03  0.30296723888E+04  0.29852364365E+04 0.  0.
        3    1    3    3  502    0  0.14008694459E+04  0.62198139825E+02 -0.26059230570E+03  0.14262581019E+04  0.10100000352E+00 0. -1.
       -3    1    3    3    0  502 -0.14008694459E+04 -0.62198139825E+02  0.77758186213E+03  0.16034142870E+04  0.10100000352E+00 0.  1.
</event>
<event>
 5   0  0.1723916E-06  0.3009695E+04  0.7818609E-02  0.8240968E-01
        2   -1    0    0  501    0  0.00000000000E+00  0.00000000000E+00  0.25200124612E+04  0.25200124612E+04  0.25500000920E-02 0. -1.
       -2   -1    0    0    0  501  0.00000000000E+00  0.00000000000E+00 -0.89863262657E+03  0.89863262658E+03  0.25500000920E-02 0.  1.
    10030    2    1    2    0    0  0.00000000000E+00  0.00000000000E+00  0.16213798346E+04  0.34186450878E+04  0.30096946138E+04 0.  0.
        1    1    3    3  502    0  0.58481161438E+03 -0.36871411195E+03  0.23289513146E+04  0.24293968277E+04  0.50400001928E-02 0. -1.
       -1    1    3    3    0  502 -0.58481161438E+03  0.36871411195E+03 -0.70757148000E+03  0.98924826005E+03  0.50400001928E-02 0.  1.
</event>
<event>
 5   0  0.5887179E-07  0.3010319E+04  0.7818609E-02  0.8240790E-01
       -1   -1    0    0    0  501  0.00000000000E+00  0.00000000000E+00  0.11627626688E+04  0.11627626688E+04  0.50400001928E-02 0.  1.
        1   -1    0    0  501    0  0.00000000000E+00  0.00000000000E+00 -0.19483813475E+04  0.19483813475E+04  0.50400001928E-02 0. -1.
    10030    2    1    2    0    0  0.00000000000E+00  0.00000000000E+00 -0.78561867869E+03  0.31111440163E+04  0.30103189834E+04 0.  0.
        3    1    3    3  502    0 -0.19409682191E+03 -0.10196394086E+04  0.73372993840E+03  0.12711009923E+04  0.10100000352E+00 0.  1.
       -3    1    3    3    0  502  0.19409682191E+03  0.10196394086E+04 -0.15193486171E+04  0.18400430240E+04  0.10100000352E+00 0. -1.
</event>
<event>
 5   0  0.1635086E-06  0.2995166E+04  0.7818609E-02  0.8245113E-01
       -2   -1    0    0    0  501  0.00000000000E+00  0.00000000000E+00  0.13446692494E+04  0.13446692494E+04  0.25500000920E-02 0.  1.
        2   -1    0    0  501    0  0.00000000000E+00  0.00000000000E+00 -0.16678854513E+04  0.16678854513E+04  0.25500000920E-02 0. -1.
    10030    2    1    2    0    0  0.00000000000E+00  0.00000000000E+00 -0.32321620187E+03  0.30125547007E+04  0.29951656234E+04 0.  0.
        3    1    3    3  502    0 -0.75052895412E+03  0.12662976936E+04  0.11558346494E+03  0.14765375401E+04  0.10100000352E+00 0. -1.
       -3    1    3    3    0  502  0.75052895412E+03 -0.12662976936E+04 -0.43879966681E+03  0.15360171606E+04  0.10100000352E+00 0.  1.
</event>
<event>
 5   0  0.6291798E-07  0.2997728E+04  0.7818609E-02  0.8244380E-01
        1   -1    0    0  501    0  0.00000000000E+00  0.00000000000E+00  0.12078518202E+04  0.12078518202E+04  0.50400001928E-02 0.  1.
       -1   -1    0    0    0  501  0.00000000000E+00  0.00000000000E+00 -0.18599907468E+04  0.18599907468E+04  0.50400001928E-02 0. -1.
    10030    2    1    2    0    0  0.00000000000E+00  0.00000000000E+00 -0.65213892658E+03  0.30678425671E+04  0.29977279458E+04 0.  0.
        1    1    3    3  502    0 -0.75448971784E+03  0.84103294987E+03 -0.13339920536E+04  0.17481778960E+04  0.50400001928E-02 0. -1.
       -1    1    3    3    0  502  0.75448971784E+03 -0.84103294987E+03  0.68185312703E+03  0.13196646710E+04  0.50400001928E-02 0.  1.
</event>
<event>
 5   0  0.6291798E-07  0.2977404E+04  0.7818609E-02  0.8250213E-01
        1   -1    0    0  501    0  0.00000000000E+00  0.00000000000E+00  0.12508598693E+04  0.12508598693E+04  0.50400001928E-02 0.  1.
       -1   -1    0    0    0  501  0.00000000000E+00  0.00000000000E+00 -0.17717683999E+04  0.17717683999E+04  0.50400001928E-02 0. -1.
    10030    2    1    2    0    0  0.00000000000E+00  0.00000000000E+00 -0.52090853065E+03  0.30226282692E+04  0.29774042313E+04 0.  0.
        1    1    3    3  502    0 -0.10027937650E+04 -0.63422900089E+03 -0.11732172156E+04  0.16686163117E+04  0.50400001928E-02 0. -1.
       -1    1    3    3    0  502  0.10027937650E+04  0.63422900089E+03  0.65230868495E+03  0.13540119575E+04  0.50400001928E-02 0.  1.
</event>
<event>
 5   0  0.1723916E-06  0.3039165E+04  0.7818609E-02  0.8232635E-01
       -2   -1    0    0    0  501  0.00000000000E+00  0.00000000000E+00  0.16905712322E+04  0.16905712322E+04  0.25500000920E-02 0.  1.
        2   -1    0    0  501    0  0.00000000000E+00  0.00000000000E+00 -0.13658876601E+04  0.13658876601E+04  0.25500000920E-02 0. -1.
    10030    2    1    2    0    0  0.00000000000E+00  0.00000000000E+00  0.32468357208E+03  0.30564588923E+04  0.30391646119E+04 0.  0.
        1    1    3    3  502    0  0.37167308349E+03  0.14699641139E+04  0.60796887745E+02  0.15174424664E+04  0.50400001928E-02 0. -1.
       -1    1    3    3    0  502 -0.37167308349E+03 -0.14699641139E+04  0.26388668434E+03  0.15390164259E+04  0.50400001928E-02 0.  1.
</event>
<event>
 5   0  0.5887179E-07  0.3001291E+04  0.7818609E-02  0.8243362E-01
        1   -1    0    0  501    0  0.00000000000E+00  0.00000000000E+00  0.23091716894E+04  0.23091716894E+04  0.50400001928E-02 0.  1.
       -1   -1    0    0    0  501  0.00000000000E+00  0.00000000000E+00 -0.97521398197E+03  0.97521398198E+03  0.50400001928E-02 0. -1.
    10030    2    1    2    0    0  0.00000000000E+00  0.00000000000E+00  0.13339577074E+04  0.32843856714E+04  0.30012907345E+04 0.  0.
        3    1    3    3  502    0  0.13143803031E+04  0.17936924906E+03 -0.10074068043E+03  0.13303825027E+04  0.10100000352E+00 0. -1.
       -3    1    3    3    0  502 -0.13143803031E+04 -0.17936924906E+03  0.14346983879E+04  0.19540031686E+04  0.10100000352E+00 0.  1.
</event>
<event>
 5   0  0.6291798E-07  0.3002146E+04  0.7818609E-02  0.8243118E-01
       -1   -1    0    0    0  501  0.00000000000E+00  0.00000000000E+00  0.16214929361E+04  0.16214929361E+04  0.50400001928E-02 0.  1.
        1   -1    0    0  501    0  0.00000000000E+00  0.00000000000E+00 -0.13895964076E+04  0.13895964076E+04  0.50400001928E-02 0. -1.
    10030    2    1    2    0    0  0.00000000000E+00  0.00000000000E+00  0.23189652850E+03  0.30110893437E+04  0.30021464048E+04 0.  0.
        1    1    3    3  502    0  0.37460609086E+03  0.13864230344E+04 -0.32207018603E+03  0.14718110471E+04  0.50400001928E-02 0.  1.
       -1    1    3    3    0  502 -0.37460609086E+03 -0.13864230344E+04  0.55396671453E+03  0.15392782966E+04  0.50400001928E-02 0. -1.
</event>
<event>
 5   0  0.1635086E-06  0.2994170E+04  0.7818609E-02  0.8245398E-01
        2   -1    0    0  501    0  0.00000000000E+00  0.00000000000E+00  0.15710639122E+04  0.15710639122E+04  0.25500000920E-02 0. -1.
       -2   -1    0    0    0  501  0.00000000000E+00  0.00000000000E+00 -0.14265900089E+04  0.14265900089E+04  0.25500000920E-02 0.  1.
    10030    2    1    2    0    0  0.00000000000E+00  0.00000000000E+00  0.14447390328E+03  0.29976539211E+04  0.29941703896E+04 0.  0.
        3    1    3    3  502    0  0.13389321822E+04 -0.56302565406E+03 -0.29085121844E+03  0.14813276873E+04  0.10100000352E+00 0.  1.
       -3    1    3    3    0  502 -0.13389321822E+04  0.56302565406E+03  0.43532512172E+03  0.15163262339E+04  0.10100000352E+00 0. -1.
</event>
<event>
 5   0  0.1560174E-06  0.3004170E+04  0.7818609E-02  0.8242541E-01
        2   -1    0    0  501    0  0.00000000000E+00  0.00000000000E+00  0.12667267966E+04  0.12667267966E+04  0.25500000920E-02 0. -1.
       -2   -1    0    0    0  501  0.00000000000E+00  0.00000000000E+00 -0.17811728511E+04  0.17811728511E+04  0.25500000920E-02 0.  1.
    10030    2    1    2    0    0  0.00000000000E+00  0.00000000000E+00 -0.51444605451E+03  0.30478996477E+04  0.30041700217E+04 0.  0.
        5    1    3    3  502    0 -0.74408165361E+03 -0.10919314391E+04 -0.98194973271E+03  0.16462743218E+04  0.46999998093E+01 0.  1.
       -5    1    3    3    0  502  0.74408165361E+03  0.10919314391E+04  0.46750367821E+03  0.14016253259E+04  0.46999998093E+01 0. -1.
</event>
<event>
 5   0  0.1674806E-06  0.2978428E+04  0.7818609E-02  0.8249918E-01
       -2   -1    0    0    0  501  0.00000000000E+00  0.00000000000E+00  0.15739140034E+04  0.15739140034E+04  0.25500000920E-02 0. -1.
        2   -1    0    0  501    0  0.00000000000E+00  0.00000000000E+00 -0.14090718364E+04  0.14090718364E+04  0.25500000920E-02 0.  1.
    10030    2    1    2    0    0  0.00000000000E+00  0.00000000000E+00  0.16484216706E+03  0.29829858398E+04  0.29784277027E+04 0.  0.
        2    1    3    3  502    0 -0.13858749712E+04 -0.45925194194E+03 -0.21161997018E+03  0.14752439777E+04  0.25500000920E-02 0.  1.
       -2    1    3    3    0  502  0.13858749712E+04  0.45925194194E+03  0.37646213723E+03  0.15077418621E+04  0.25500000920E-02 0. -1.
</event>
<event>
 5   0  0.1674806E-06  0.2999278E+04  0.7818609E-02  0.8243937E-01
        2   -1    0    0  501    0  0.00000000000E+00  0.00000000000E+00  0.23069645130E+04  0.23069645130E+04  0.25500000920E-02 0.  1.
       -2   -1    0    0    0  501  0.00000000000E+00  0.00000000000E+00 -0.97483845600E+03  0.97483845601E+03  0.25500000920E-02 0. -1.
    10030    2    1    2    0    0  0.00000000000E+00  0.00000000000E+00  0.13321260570E+04  0.32818029690E+04  0.29992783958E+04 0.  0.
        2    1    3    3  502    0  0.60873006507E+03  0.13285744969E+04  0.10342978654E+04  0.17903727434E+04  0.25500000920E-02 0.  1.
       -2    1    3    3    0  502 -0.60873006507E+03 -0.13285744969E+04  0.29782819155E+03  0.14914302256E+04  0.25500000920E-02 0. -1.
</event>
<event>
 5   0  0.1635086E-06  0.2992953E+04  0.7818609E-02  0.8245746E-01
        2   -1    0    0  501    0  0.00000000000E+00  0.00000000000E+00  0.15789281662E+04  0.15789281662E+04  0.25500000920E-02 0. -1.
       -2   -1    0    0    0  501  0.00000000000E+00  0.00000000000E+00 -0.14183307239E+04  0.14183307239E+04  0.25500000920E-02 0.  1.
    10030    2    1    2    0    0  0.00000000000E+00  0.00000000000E+00  0.16059744235E+03  0.29972588901E+04  0.29929532766E+04 0.  0.
        3    1    3    3  502    0  0.57203639656E+03 -0.46902731776E+03  0.13830275441E+04  0.15684315291E+04  0.10100000352E+00 0. -1.
       -3    1    3    3    0  502 -0.57203639656E+03  0.46902731776E+03 -0.12224301017E+04  0.14288273610E+04  0.10100000352E+00 0.  1.
</event>
<event>
 5   0  0.5931588E-07  0.2998733E+04  0.7818609E-02  0.8244093E-01
        1   -1    0    0  501    0  0.00000000000E+00  0.00000000000E+00  0.21412094969E+04  0.21412094969E+04  0.50400001928E-02 0. -1.
       -1   -1    0    0    0  501  0.00000000000E+00  0.00000000000E+00 -0.10499208873E+04  0.10499208874E+04  0.50400001928E-02 0.  1.
    10030    2    1    2    0    0  0.00000000000E+00  0.00000000000E+00  0.10912886095E+04  0.31911303842E+04  0.29987334493E+04 0.  0.
        2    1    3    3  502    0  0.18494034754E+03  0.82070215456E+03 -0.77509095858E+03  0.11439060069E+04  0.25500000920E-02 0.  1.
       -2    1    3    3    0  502 -0.18494034754E+03 -0.82070215456E+03  0.18663795681E+04  0.20472243773E+04  0.25500000920E-02 0. -1.
</event>
<event>
 5   0  0.1723916E-06  0.2956842E+04  0.7818609E-02  0.8256163E-01
       -2   -1    0    0    0  501  0.00000000000E+00  0.00000000000E+00  0.16568488892E+04  0.16568488892E+04  0.25500000920E-02 0. -1.
        2   -1    0    0  501    0  0.00000000000E+00  0.00000000000E+00 -0.13192079570E+04  0.13192079570E+04  0.25500000920E-02 0.  1.
    10030    2    1    2    0    0  0.00000000000E+00  0.00000000000E+00  0.33764093214E+03  0.29760568462E+04  0.29568417193E+04 0.  0.
        1    1    3    3  502    0  0.46672730741E+03  0.74106985541E+02  0.15787815816E+04  0.16479919621E+04  0.50400001928E-02 0. -1.
       -1    1    3    3    0  502 -0.46672730741E+03 -0.74106985541E+02 -0.12411406494E+04  0.13280648841E+04  0.50400001928E-02 0.  1.
</event>
<event>
 5   0  0.5887179E-07  0.2941068E+04  0.7818609E-02  0.8260762E-01
       -1   -1    0    0    0  501  0.00000000000E+00  0.00000000000E+00  0.13356724199E+04  0.13356724199E+04  0.50400001928E-02 0. -1.
        1   -1    0    0  501    0  0.00000000000E+00  0.00000000000E+00 -0.16190126785E+04  0.16190126785E+04  0.50400001928E-02 0.  1.
    10030    2    1    2    0    0  0.00000000000E+00  0.00000000000E+00 -0.28334025863E+03  0.29546850985E+04  0.29410682292E+04 0.  0.
        3    1    3    3  502    0  0.14376610410E+04  0.20773338389E+03  0.88405789949E+02  0.14552793620E+04  0.10100000352E+00 0. -1.
       -3    1    3    3    0  502 -0.14376610410E+04 -0.20773338389E+03 -0.37174604857E+03  0.14994057364E+04  0.10100000352E+00 0.  1.
</event>
<event>
 5   0  0.5887179E-07  0.3005499E+04  0.7818609E-02  0.8242162E-01
        1   -1    0    0  501    0  0.00000000000E+00  0.00000000000E+00  0.14061621709E+04  0.14061621709E+04  0.50400001928E-02 0. -1.
       -1   -1    0    0    0  501  0.00000000000E+00  0.00000000000E+00 -0.16059714839E+04  0.16059714839E+04  0.50400001928E-02 0.  1.
    10030    2    1    2    0    0  0.00000000000E+00  0.00000000000E+00 -0.19980931299E+03  0.30121336548E+04  0.30054991919E+04 0.  0.
        3    1    3    3  502    0  0.72092809071E+03 -0.84745714626E+03  0.91244164989E+03  0.14389130277E+04  0.10100000352E+00 0. -1.
       -3    1    3    3    0  502 -0.72092809071E+03  0.84745714626E+03 -0.11122509629E+04  0.15732206270E+04  0.10100000352E+00 0.  1.
</event>
<event>
 5   0  0.5874741E-07  0.2928864E+04  0.7818609E-02  0.8264341E-01
        1   -1    0    0  501    0  0.00000000000E+00  0.00000000000E+00  0.16508449283E+04  0.16508449283E+04  0.50400001928E-02 0.  1.
       -1   -1    0    0    0  501  0.00000000000E+00  0.00000000000E+00 -0.12990685918E+04  0.12990685918E+04  0.50400001928E-02 0. -1.
    10030    2    1    2    0    0  0.00000000000E+00  0.00000000000E+00  0.35177633648E+03  0.29499135202E+04  0.29288638045E+04 0.  0.
        4    1    3    3  502    0  0.53893749503E+03  0.19796161576E+03 -0.11809825265E+04  0.13131503211E+04  0.12699999809E+01 0. -1.
       -4    1    3    3    0  502 -0.53893749503E+03 -0.19796161576E+03  0.15327588630E+04  0.16367631991E+04  0.12699999809E+01 0.  1.
</event>
<event>
 5   0  0.1625212E-06  0.2997355E+04  0.7818609E-02  0.8244486E-01
        2   -1    0    0  501    0  0.00000000000E+00  0.00000000000E+00  0.20898796111E+04  0.20898796111E+04  0.25500000920E-02 0.  1.
       -2   -1    0    0    0  501  0.00000000000E+00  0.00000000000E+00 -0.10747196734E+04  0.10747196734E+04  0.25500000920E-02 0. -1.
    10030    2    1    2    0    0  0.00000000000E+00  0.00000000000E+00  0.10151599377E+04  0.31645992845E+04  0.29973553230E+04 0.  0.
        4    1    3    3  502    0  0.76249702154E+03  0.76493124447E+03  0.16045484602E+04  0.19341920511E+04  0.12699999809E+01 0.  1.
       -4    1    3    3    0  502 -0.76249702154E+03 -0.76493124447E+03 -0.58938852252E+03  0.12304072334E+04  0.12699999809E+01 0. -1.
</event>
<event>
 5   0  0.5887179E-07  0.3107157E+04  0.7818609E-02  0.8213777E-01
        1   -1    0    0  501    0  0.00000000000E+00  0.00000000000E+00  0.26805989869E+04  0.26805989869E+04  0.50400001928E-02 0. -1.
       -1   -1    0    0    0  501  0.00000000000E+00  0.00000000000E+00 -0.90039786560E+03  0.90039786561E+03  0.50400001928E-02 0.  1.
    10030    2    1    2    0    0  0.00000000000E+00  0.00000000000E+00  0.17802011213E+04  0.35809968525E+04  0.31071566464E+04 0.  0.
        3    1    3    3  502    0 -0.20423384836E+03  0.13491870317E+04  0.34150580513E+02  0.13649847559E+04  0.10100000352E+00 0.  1.
       -3    1    3    3    0  502  0.20423384836E+03 -0.13491870317E+04  0.17460505408E+04  0.22160120967E+04  0.10100000352E+00 0. -1.
</event>
<event>
 5   0  0.1560174E-06  0.2999027E+04  0.7818609E-02  0.8244009E-01
       -2   -1    0    0    0  501  0.00000000000E+00  0.00000000000E+00  0.11225508725E+04  0.11225508725E+04  0.25500000920E-02 0. -1.
        2   -1    0    0  501    0  0.00000000000E+00  0.00000000000E+00 -0.20030629521E+04  0.20030629521E+04  0.25500000920E-02 0.  1.
    10030    2    1    2    0    0  0.00000000000E+00  0.00000000000E+00 -0.88051207964E+03  0.31256138246E+04  0.29990265518E+04 0.  0.
        5    1    3    3  502    0  0.26377255462E+03 -0.13486766477E+04 -0.10655932754E+04  0.17389697464E+04  0.46999998093E+01 0.  1.
       -5    1    3    3    0  502 -0.26377255462E+03  0.13486766477E+04  0.18508119575E+03  0.13866440782E+04  0.46999998093E+01 0. -1.
</event>
<event>
 5   0  0.5887179E-07  0.2999987E+04  0.7818609E-02  0.8243735E-01
        1   -1    0    0  501    0  0.00000000000E+00  0.00000000000E+00  0.12596710894E+04  0.12596710895E+04  0.50400001928E-02 0.  1.
       -1   -1    0    0    0  501  0.00000000000E+00  0.00000000000E+00 -0.17861647809E+04  0.17861647810E+04  0.50400001928E-02 0. -1.
    10030    2    1    2    0    0  0.00000000000E+00  0.00000000000E+00 -0.52649369150E+03  0.30458358704E+04  0.29999867570E+04 0.  0.
        3    1    3    3  502    0  0.81628129727E+03 -0.10900381153E+04  0.37523779194E+03  0.14125514716E+04  0.10100000352E+00 0.  1.
       -3    1    3    3    0  502 -0.81628129727E+03  0.10900381153E+04 -0.90173148344E+03  0.16332843988E+04  0.10100000352E+00 0. -1.
</event>
<event>
 5   0  0.1723916E-06  0.3004678E+04  0.7818609E-02  0.8242396E-01
        2   -1    0    0  501    0  0.00000000000E+00  0.00000000000E+00  0.26714483342E+04  0.26714483342E+04  0.25500000920E-02 0. -1.
       -2   -1    0    0    0  501  0.00000000000E+00  0.00000000000E+00 -0.84486853123E+03  0.84486853124E+03  0.25500000920E-02 0.  1.
    10030    2    1    2    0    0  0.00000000000E+00  0.00000000000E+00  0.18265798030E+04  0.35163168654E+04  0.30046781061E+04 0.  0.
        1    1    3    3  502    0 -0.10914436103E+04  0.79520533370E+03  0.16837417539E+04  0.21583760032E+04  0.50400001928E-02 0. -1.
       -1    1    3    3    0  502  0.10914436103E+04 -0.79520533370E+03  0.14283804905E+03  0.13579408623E+04  0.50400001928E-02 0.  1.
</event>
<event>
 5   0  0.5887179E-07  0.2985541E+04  0.7818609E-02  0.8247872E-01
       -1   -1    0    0    0  501  0.00000000000E+00  0.00000000000E+00  0.21182423742E+04  0.21182423742E+04  0.50400001928E-02 0.  1.
        1   -1    0    0  501    0  0.00000000000E+00  0.00000000000E+00 -0.10519873189E+04  0.10519873190E+04  0.50400001928E-02 0. -1.
    10030    2    1    2    0    0  0.00000000000E+00  0.00000000000E+00  0.10662550553E+04  0.31702296932E+04  0.29855412348E+04 0.  0.
        3    1    3    3  502    0 -0.35959125631E+03  0.10331229064E+04  0.16116956738E+04  0.19478736526E+04  0.10100000352E+00 0. -1.
       -3    1    3    3    0  502  0.35959125631E+03 -0.10331229064E+04 -0.54544061854E+03  0.12223560406E+04  0.10100000352E+00 0.  1.
</event>
<event>
 5   0  0.1560174E-06  0.3016144E+04  0.7818609E-02  0.8239136E-01
       -2   -1    0    0    0  501  0.00000000000E+00  0.00000000000E+00  0.97483049914E+03  0.97483049914E+03  0.25500000920E-02 0.  1.
        2   -1    0    0  501    0  0.00000000000E+00  0.00000000000E+00 -0.23330015812E+04  0.23330015812E+04  0.25500000920E-02 0. -1.
    10030    2    1    2    0    0  0.00000000000E+00  0.00000000000E+00 -0.13581710821E+04  0.33078320804E+04  0.30161439594E+04 0.  0.
        5    1    3    3  502    0 -0.53480174709E+03  0.13489484678E+04 -0.11293832433E+04  0.18388049048E+04  0.46999998093E+01 0. -1.
       -5    1    3    3    0  502  0.53480174709E+03 -0.13489484678E+04 -0.22878783881E+03  0.14690271756E+04  0.46999998093E+01 0.  1.
</event>
<event>
 5   0  0.1635086E-06  0.2982094E+04  0.7818609E-02  0.8248863E-01
       -2   -1    0    0    0  501  0.00000000000E+00  0.00000000000E+00  0.19442644954E+04  0.19442644954E+04  0.25500000920E-02 0.  1.
        2   -1    0    0  501    0  0.00000000000E+00  0.00000000000E+00 -0.11434767699E+04  0.11434767699E+04  0.25500000920E-02 0. -1.
    10030    2    1    2    0    0  0.00000000000E+00  0.00000000000E+00  0.80078772545E+03  0.30877412653E+04  0.29820940864E+04 0.  0.
        3    1    3    3  502    0 -0.11054102803E+04 -0.60570785242E+02  0.14345884425E+04  0.18120829776E+04  0.10100000352E+00 0.  1.
       -3    1    3    3    0  502  0.11054102803E+04  0.60570785242E+02 -0.63380071710E+03  0.12756582878E+04  0.10100000352E+00 0. -1.
</event>
<event>
 5   0  0.1635086E-06  0.2998142E+04  0.7818609E-02  0.8244262E-01
        2   -1    0    0  501    0  0.00000000000E+00  0.00000000000E+00  0.15956025855E+04  0.15956025855E+04  0.25500000920E-02 0. -1.
       -2   -1    0    0    0  501  0.00000000000E+00  0.00000000000E+00 -0.14083797665E+04  0.14083797665E+04  0.25500000920E-02 0.  1.
    10030    2    1    2    0    0  0.00000000000E+00  0.00000000000E+00  0.18722281901E+03  0.30039823520E+04  0.29981423560E+04 0.  0.
        3    1    3    3  502    0 -0.15363815401E+03  0.20994544334E+03 -0.13855883009E+04  0.14098002417E+04  0.10100000352E+00 0.  1.
       -3    1    3    3    0  502  0.15363815401E+03 -0.20994544334E+03  0.15728111199E+04  0.15941821103E+04  0.10100000352E+00 0. -1.
</event>
<event>
 5   0  0.6291798E-07  0.3004281E+04  0.7818609E-02  0.8242509E-01
       -1   -1    0    0    0  501  0.00000000000E+00  0.00000000000E+00  0.83315415370E+03  0.83315415372E+03  0.50400001928E-02 0.  1.
        1   -1    0    0  501    0  0.00000000000E+00  0.00000000000E+00 -0.27082943961E+04  0.27082943961E+04  0.50400001928E-02 0. -1.
    10030    2    1    2    0    0  0.00000000000E+00  0.00000000000E+00 -0.18751402424E+04  0.35414485498E+04  0.30042814286E+04 0.  0.
        1    1    3    3  502    0  0.92397992783E+03  0.17782870132E+03 -0.23178568415E+04  0.25015639691E+04  0.50400001928E-02 0. -1.
       -1    1    3    3    0  502 -0.92397992783E+03 -0.17782870132E+03  0.44271659908E+03  0.10398845807E+04  0.50400001928E-02 0.  1.
</event>
<event>
 5   0  0.5874741E-07  0.2987371E+04  0.7818609E-02  0.8247346E-01
        1   -1    0    0  501    0  0.00000000000E+00  0.00000000000E+00  0.20342758584E+04  0.20342758584E+04  0.50400001928E-02 0. -1.
       -1   -1    0    0    0  501  0.00000000000E+00  0.00000000000E+00 -0.10967522606E+04  0.10967522606E+04  0.50400001928E-02 0.  1.
    10030    2    1    2    0    0  0.00000000000E+00  0.00000000000E+00  0.93752359782E+03  0.31310281190E+04  0.29873711831E+04 0.  0.
        4    1    3    3  502    0  0.89915277465E+03  0.11238309506E+04  0.50020356605E+02  0.14401303297E+04  0.12699999809E+01 0.  1.
       -4    1    3    3    0  502 -0.89915277465E+03 -0.11238309506E+04  0.88750324121E+03  0.16908977893E+04  0.12699999809E+01 0. -1.
</event>
<event>
 5   0  0.6291798E-07  0.2995595E+04  0.7818609E-02  0.8244990E-01
        1   -1    0    0  501    0  0.00000000000E+00  0.00000000000E+00  0.14800708006E+04  0.14800708006E+04  0.50400001928E-02 0.  1.
       -1   -1    0    0    0  501  0.00000000000E+00  0.00000000000E+00 -0.15157364912E+04  0.15157364912E+04  0.50400001928E-02 0. -1.
    10030    2    1    2    0    0  0.00000000000E+00  0.00000000000E+00 -0.35665690615E+02  0.29958072917E+04  0.29955949806E+04 0.  0.
        1    1    3    3  502    0  0.10285433938E+04 -0.13119752103E+03 -0.10987808681E+04  0.15107725503E+04  0.50400001928E-02 0. -1.
       -1    1    3    3    0  502 -0.10285433938E+04  0.13119752103E+03  0.10631151775E+04  0.14850347414E+04  0.50400001928E-02 0.  1.
</event>
<event>
 5   0  0.5431625E-07  0.2992856E+04  0.7818609E-02  0.8245774E-01
        3   -1    0    0  501    0  0.00000000000E+00  0.00000000000E+00  0.10838166250E+04  0.10838166297E+04  0.10100000352E+00 0.  1.
       -3   -1    0    0    0  501  0.00000000000E+00  0.00000000000E+00 -0.20661220407E+04  0.20661220431E+04  0.10100000352E+00 0. -1.
    10030    2    1    2    0    0  0.00000000000E+00  0.00000000000E+00 -0.98230541566E+03  0.31499386729E+04  0.29928564472E+04 0.  0.
        2    1    3    3  502    0 -0.13934082974E+04 -0.16883895899E+03  0.54928319697E+02  0.14046744811E+04  0.25500000920E-02 0.  1.
       -2    1    3    3    0  502  0.13934082974E+04  0.16883895899E+03 -0.10372337354E+04  0.17452641918E+04  0.25500000920E-02 0. -1.
</event>
<event>
 5   0  0.5887179E-07  0.2928743E+04  0.7818609E-02  0.8264377E-01
        1   -1    0    0  501    0  0.00000000000E+00  0.00000000000E+00  0.14475501569E+04  0.14475501569E+04  0.50400001928E-02 0.  1.
       -1   -1    0    0    0  501  0.00000000000E+00  0.00000000000E+00 -0.14813882917E+04  0.14813882917E+04  0.50400001928E-02 0. -1.
    10030    2    1    2    0    0  0.00000000000E+00  0.00000000000E+00 -0.33838134787E+02  0.29289384486E+04  0.29287429754E+04 0.  0.
        3    1    3    3  502    0  0.12539112984E+04 -0.64990933435E+03  0.37002814014E+03  0.14599988088E+04  0.10100000352E+00 0.  1.
       -3    1    3    3    0  502 -0.12539112984E+04  0.64990933435E+03 -0.40386627493E+03  0.14689396398E+04  0.10100000352E+00 0. -1.
</event>
<event>
 5   0  0.5874741E-07  0.2997462E+04  0.7818609E-02  0.8244456E-01
       -1   -1    0    0    0  501  0.00000000000E+00  0.00000000000E+00  0.14104660127E+04  0.14104660127E+04  0.50400001928E-02 0. -1.
        1   -1    0    0  501    0  0.00000000000E+00  0.00000000000E+00 -0.15925198354E+04  0.15925198354E+04  0.50400001928E-02 0.  1.
    10030    2    1    2    0    0  0.00000000000E+00  0.00000000000E+00 -0.18205382274E+03  0.30029858481E+04  0.29974623283E+04 0.  0.
        4    1    3    3  502    0 -0.62294455467E+03  0.11952537327E+04  0.56554483531E+03  0.14616887417E+04  0.12699999809E+01 0. -1.
       -4    1    3    3    0  502  0.62294455467E+03 -0.11952537327E+04 -0.74759865805E+03  0.15412971064E+04  0.12699999809E+01 0.  1.
</event>
<event>
 5   0  0.5931588E-07  0.3006654E+04  0.7818609E-02  0.8241833E-01
       -1   -1    0    0    0  501  0.00000000000E+00  0.00000000000E+00  0.15171369186E+04  0.15171369186E+04  0.50400001928E-02 0.  1.
        1   -1    0    0  501    0  0.00000000000E+00  0.00000000000E+00 -0.14896429391E+04  0.14896429391E+04  0.50400001928E-02 0. -1.
    10030    2    1    2    0    0  0.00000000000E+00  0.00000000000E+00  0.27493979477E+02  0.30067798577E+04  0.30066541526E+04 0.  0.
        2    1    3    3  502    0  0.30760313120E+03  0.10546786557E+04 -0.10124662429E+04  0.14940062403E+04  0.25500000920E-02 0. -1.
       -2    1    3    3    0  502 -0.30760313120E+03 -0.10546786557E+04  0.10399602224E+04  0.15127736173E+04  0.25500000920E-02 0.  1.
</event>
<event>
 5   0  0.1674806E-06  0.3000068E+04  0.7818609E-02  0.8243712E-01
       -2   -1    0    0    0  501  0.00000000000E+00  0.00000000000E+00  0.16575346953E+04  0.16575346953E+04  0.25500000920E-02 0. -1.
        2   -1    0    0  501    0  0.00000000000E+00  0.00000000000E+00 -0.13574990098E+04  0.13574990098E+04  0.25500000920E-02 0.  1.
    10030    2    1    2    0    0  0.00000000000E+00  0.00000000000E+00  0.30003568551E+03  0.30150337051E+04  0.30000678043E+04 0.  0.
        2    1    3    3  502    0 -0.96103684974E+03 -0.11493313729E+04  0.75166258511E+02  0.15000681310E+04  0.25500000920E-02 0.  1.
       -2    1    3    3    0  502  0.96103684974E+03  0.11493313729E+04  0.22486942700E+03  0.15149655740E+04  0.25500000920E-02 0. -1.
</event>
<event>
 5   0  0.5916703E-07  0.3014074E+04  0.7818609E-02  0.8239723E-01
       -1   -1    0    0    0  501  0.00000000000E+00  0.00000000000E+00  0.13312550030E+04  0.13312550030E+04  0.50400001928E-02 0.  1.
        1   -1    0    0  501    0  0.00000000000E+00  0.00000000000E+00 -0.17060298438E+04  0.17060298439E+04  0.50400001928E-02 0. -1.
    10030    2    1    2    0    0  0.00000000000E+00  0.00000000000E+00 -0.37477484080E+03  0.30372848469E+04  0.30140741630E+04 0.  0.
        5    1    3    3  502    0 -0.72929192271E+03  0.13026344169E+04  0.20148894840E+02  0.14930342262E+04  0.46999998093E+01 0.  1.
       -5    1    3    3    0  502  0.72929192271E+03 -0.13026344169E+04 -0.39492373564E+03  0.15442506207E+04  0.46999998093E+01 0. -1.
</event>
<event>
 5   0  0.5887179E-07  0.2929606E+04  0.7818609E-02  0.8264123E-01
       -1   -1    0    0    0  501  0.00000000000E+00  0.00000000000E+00  0.12359210136E+04  0.12359210136E+04  0.50400001928E-02 0.  1.
        1   -1    0    0  501    0  0.00000000000E+00  0.00000000000E+00 -0.17360719680E+04  0.17360719681E+04  0.50400001928E-02 0. -1.
    10030    2    1    2    0    0  0.00000000000E+00  0.00000000000E+00 -0.50015095450E+03  0.29719929816E+04  0.29296059983E+04 0.  0.
        3    1    3    3  502    0 -0.89190667435E+02  0.14038079399E+04 -0.66466444761E+03  0.15557668673E+04  0.10100000352E+00 0. -1.
       -3    1    3    3    0  502  0.89190667435E+02 -0.14038079399E+04  0.16451349311E+03  0.14162261143E+04  0.10100000352E+00 0.  1.
</event>
<event>
 5   0  0.1674806E-06  0.3017707E+04  0.7818609E-02  0.8238693E-01
        2   -1    0    0  501    0  0.00000000000E+00  0.00000000000E+00  0.16326613402E+04  0.16326613402E+04  0.25500000920E-02 0. -1.
       -2   -1    0    0    0  501  0.00000000000E+00  0.00000000000E+00 -0.13944339161E+04  0.13944339161E+04  0.25500000920E-02 0.  1.
    10030    2    1    2    0    0  0.00000000000E+00  0.00000000000E+00  0.23822742405E+03  0.30270952563E+04  0.30177066434E+04 0.  0.
        2    1    3    3  502    0  0.19957846771E+03 -0.42231548669E+03 -0.13200821647E+04  0.14002852769E+04  0.25500000920E-02 0.  1.
       -2    1    3    3    0  502 -0.19957846771E+03  0.42231548669E+03  0.15583095887E+04  0.16268099795E+04  0.25500000920E-02 0. -1.
</event>
<event>
 5   0  0.5931588E-07  0.2988407E+04  0.7818609E-02  0.8247049E-01
       -1   -1    0    0    0  501  0.00000000000E+00  0.00000000000E+00  0.19413062623E+04  0.19413062623E+04  0.50400001928E-02 0. -1.
        1   -1    0    0  501    0  0.00000000000E+00  0.00000000000E+00 -0.11500729245E+04  0.11500729245E+04  0.50400001928E-02 0.  1.
    10030    2    1    2    0    0  0.00000000000E+00  0.00000000000E+00  0.79123333772E+03  0.30913791868E+04  0.29884067799E+04 0.  0.
        2    1    3    3  502    0 -0.93658505662E+03 -0.86578527417E+03  0.12008126435E+04  0.17517781578E+04  0.25500000920E-02 0.  1.
       -2    1    3    3    0  502  0.93658505662E+03  0.86578527417E+03 -0.40957930579E+03  0.13396010290E+04  0.25500000920E-02 0. -1.
</event>
<event>
 5   0  0.5916703E-07  0.2978758E+04  0.7818609E-02  0.8249823E-01
        1   -1    0    0  501    0  0.00000000000E+00  0.00000000000E+00  0.21223383947E+04  0.21223383947E+04  0.50400001928E-02 0. -1.
       -1   -1    0    0    0  501  0.00000000000E+00  0.00000000000E+00 -0.10451916769E+04  0.10451916769E+04  0.50400001928E-02 0.  1.
    10030    2    1    2    0    0  0.00000000000E+00  0.00000000000E+00  0.10771467178E+04  0.31675300716E+04  0.29787584164E+04 0.  0.
        5    1    3    3  502    0  0.87795692320E+03  0.97188969327E+03  0.12926315546E+04  0.18401892187E+04  0.46999998093E+01 0. -1.
       -5    1    3    3    0  502 -0.87795692320E+03 -0.97188969327E+03 -0.21548483683E+03  0.13273408529E+04  0.46999998093E+01 0.  1.
</event>
<event>
 5   0  0.1723916E-06  0.2988544E+04  0.7818609E-02  0.8247010E-01
        2   -1    0    0  501    0  0.00000000000E+00  0.00000000000E+00  0.20102571442E+04  0.20102571442E+04  0.25500000920E-02 0.  1.
       -2   -1    0    0    0  501  0.00000000000E+00  0.00000000000E+00 -0.11107281019E+04  0.11107281019E+04  0.25500000920E-02 0. -1.
    10030    2    1    2    0    0  0.00000000000E+00  0.00000000000E+00  0.89952904234E+03  0.31209852461E+04  0.29885441955E+04 0.  0.
        1    1    3    3  502    0  0.12501357889E+04 -0.88783152524E+02  0.12995371440E+04  0.18054137276E+04  0.50400001928E-02 0.  1.
       -1    1    3    3    0  502 -0.12501357889E+04  0.88783152524E+02 -0.40000810170E+03  0.13155715185E+04  0.50400001928E-02 0. -1.
</event>
<event>
 5   0  0.1674806E-06  0.3040563E+04  0.7818609E-02  0.8232242E-01
       -2   -1    0    0    0  501  0.00000000000E+00  0.00000000000E+00  0.16021361884E+04  0.16021361884E+04  0.25500000920E-02 0.  1.
        2   -1    0    0  501    0  0.00000000000E+00  0.00000000000E+00 -0.14426090164E+04  0.14426090164E+04  0.25500000920E-02 0. -1.
    10030    2    1    2    0    0  0.00000000000E+00  0.00000000000E+00  0.15952717202E+03  0.30447452048E+04  0.30405631786E+04 0.  0.
        2    1    3    3  502    0 -0.69414003907E+03 -0.11918455339E+04  0.72011943078E+03  0.15559235730E+04  0.25500000920E-02 0.  1.
       -2    1    3    3    0  502  0.69414003907E+03  0.11918455339E+04 -0.56059225876E+03  0.14888216317E+04  0.25500000920E-02 0. -1.
</event>
<event>
 5   0  0.1625212E-06  0.2999393E+04  0.7818609E-02  0.8243904E-01
       -2   -1    0    0    0  501  0.00000000000E+00  0.00000000000E+00  0.19235305457E+04  0.19235305457E+04  0.25500000920E-02 0.  1.
        2   -1    0    0  501    0  0.00000000000E+00  0.00000000000E+00 -0.11692505417E+04  0.11692505417E+04  0.25500000920E-02 0. -1.
    10030    2    1    2    0    0  0.00000000000E+00  0.00000000000E+00  0.75428000403E+03  0.30927810874E+04  0.29993926936E+04 0.  0.
        4    1    3    3  502    0  0.23030157147E+02  0.83934790639E+03  0.16584282545E+04  0.18588763230E+04  0.12699999809E+01 0.  1.
       -4    1    3    3    0  502 -0.23030157147E+02 -0.83934790639E+03 -0.90414825042E+03  0.12339047645E+04  0.12699999809E+01 0. -1.
</event>
<event>
 5   0  0.1560174E-06  0.2985262E+04  0.7818609E-02  0.8247952E-01
        2   -1    0    0  501    0  0.00000000000E+00  0.00000000000E+00  0.11574419897E+04  0.11574419897E+04  0.25500000920E-02 0. -1.
       -2   -1    0    0    0  501  0.00000000000E+00  0.00000000000E+00 -0.19248887086E+04  0.19248887086E+04  0.25500000920E-02 0.  1.
    10030    2    1    2    0    0  0.00000000000E+00  0.00000000000E+00 -0.76744671885E+03  0.30823306983E+04  0.29852618088E+04 0.  0.
        5    1    3    3  502    0  0.14080559049E+04  0.49448664953E+03 -0.41267892727E+03  0.15483747818E+04  0.46999998093E+01 0. -1.
       -5    1    3    3    0  502 -0.14080559049E+04 -0.49448664953E+03 -0.35476779158E+03  0.15339559165E+04  0.46999998093E+01 0.  1.
</event>
<event>
 5   0  0.1625212E-06  0.3002624E+04  0.7818609E-02  0.8242982E-01
        2   -1    0    0  501    0  0.00000000000E+00  0.00000000000E+00  0.22360933659E+04  0.22360933659E+04  0.25500000920E-02 0. -1.
       -2   -1    0    0    0  501  0.00000000000E+00  0.00000000000E+00 -0.10079801087E+04  0.10079801087E+04  0.25500000920E-02 0.  1.
    10030    2    1    2    0    0  0.00000000000E+00  0.00000000000E+00  0.12281132573E+04  0.32440734746E+04  0.30026239418E+04 0.  0.
        4    1    3    3  502    0  0.91846315256E+03  0.44405955804E+03  0.18040677754E+04  0.20725408572E+04  0.12699999809E+01 0. -1.
       -4    1    3    3    0  502 -0.91846315256E+03 -0.44405955804E+03 -0.57595451813E+03  0.11715326174E+04  0.12699999809E+01 0.  1.
</event>
<event>
 5   0  0.1723916E-06  0.2990977E+04  0.7818609E-02  0.8246312E-01
        2   -1    0    0  501    0  0.00000000000E+00  0.00000000000E+00  0.16613685694E+04  0.16613685694E+04  0.25500000920E-02 0.  1.
       -2   -1    0    0    0  501  0.00000000000E+00  0.00000000000E+00 -0.13461707570E+04  0.13461707570E+04  0.25500000920E-02 0. -1.
    10030    2    1    2    0    0  0.00000000000E+00  0.00000000000E+00  0.31519781235E+03  0.30075393264E+04  0.29909769539E+04 0.  0.
        1    1    3    3  502    0 -0.22091784438E+03 -0.12463563492E+04  0.95842406743E+03  0.15876981880E+04  0.50400001928E-02 0.  1.
       -1    1    3    3    0  502  0.22091784438E+03  0.12463563492E+04 -0.64322625508E+03  0.14198411384E+04  0.50400001928E-02 0. -1.
</event>
<event>
 5   0  0.5931588E-07  0.2993645E+04  0.7818609E-02  0.8245548E-01
       -1   -1    0    0    0  501  0.00000000000E+00  0.00000000000E+00  0.10842365603E+04  0.10842365603E+04  0.50400001928E-02 0. -1.
        1   -1    0    0  501    0  0.00000000000E+00  0.00000000000E+00 -0.20664105173E+04  0.20664105173E+04  0.50400001928E-02 0.  1.
    10030    2    1    2    0    0  0.00000000000E+00  0.00000000000E+00 -0.98217395704E+03  0.31506470776E+04  0.29936451569E+04 0.  0.
        2    1    3    3  502    0 -0.41820039520E+03  0.10491829119E+04  0.54266991087E+03  0.12530630413E+04  0.25500000920E-02 0. -1.
       -2    1    3    3    0  502  0.41820039520E+03 -0.10491829119E+04 -0.15248438679E+04  0.18975840363E+04  0.25500000920E-02 0.  1.
</event>
<event>
 5   0  0.1674806E-06  0.2989758E+04  0.7818609E-02  0.8246662E-01
       -2   -1    0    0    0  501  0.00000000000E+00  0.00000000000E+00  0.15350010234E+04  0.15350010234E+04  0.25500000920E-02 0.  1.
        2   -1    0    0  501    0  0.00000000000E+00  0.00000000000E+00 -0.14558057917E+04  0.14558057917E+04  0.25500000920E-02 0. -1.
    10030    2    1    2    0    0  0.00000000000E+00  0.00000000000E+00  0.79195231703E+02  0.29908068150E+04  0.29897581039E+04 0.  0.
        2    1    3    3  502    0 -0.96820155550E+03  0.11116803357E+04  0.28750697863E+03  0.15019679370E+04  0.25500000920E-02 0. -1.
       -2    1    3    3    0  502  0.96820155550E+03 -0.11116803357E+04 -0.20831174692E+03  0.14888388781E+04  0.25500000920E-02 0.  1.
</event>
<event>
 5   0  0.1635086E-06  0.2969324E+04  0.7818609E-02  0.8252545E-01
        2   -1    0    0  501    0  0.00000000000E+00  0.00000000000E+00  0.20102392484E+04  0.20102392484E+04  0.25500000920E-02 0.  1.
       -2   -1    0    0    0  501  0.00000000000E+00  0.00000000000E+00 -0.10964972148E+04  0.10964972149E+04  0.25500000920E-02 0. -1.
    10030    2    1    2    0    0  0.00000000000E+00  0.00000000000E+00  0.91374203357E+03  0.31067364633E+04  0.29693243252E+04 0.  0.
        3    1    3    3  502    0  0.42822178273E+03 -0.30699118945E+03 -0.99538449885E+03  0.11262361193E+04  0.10100000352E+00 0. -1.
       -3    1    3    3    0  502 -0.42822178273E+03  0.30699118945E+03  0.19091265324E+04  0.19805003440E+04  0.10100000352E+00 0.  1.
</event>
<event>
 5   0  0.1560174E-06  0.3007501E+04  0.7818609E-02  0.8241592E-01
       -2   -1    0    0    0  501  0.00000000000E+00  0.00000000000E+00  0.13409191644E+04  0.13409191644E+04  0.25500000920E-02 0. -1.
        2   -1    0    0  501    0  0.00000000000E+00  0.00000000000E+00 -0.16863553388E+04  0.16863553388E+04  0.25500000920E-02 0.  1.
    10030    2    1    2    0    0  0.00000000000E+00  0.00000000000E+00 -0.34543617443E+03  0.30272745033E+04  0.30075014161E+04 0.  0.
        5    1    3    3  502    0 -0.51688540904E+03 -0.14101108112E+04 -0.96983291563E+02  0.15049953072E+04  0.46999998093E+01 0.  1.
       -5    1    3    3    0  502  0.51688540904E+03  0.14101108112E+04 -0.24845288286E+03  0.15222791961E+04  0.46999998093E+01 0. -1.
</event>
<event>
 5   0  0.1723916E-06  0.2973616E+04  0.7818609E-02  0.8251305E-01
       -2   -1    0    0    0  501  0.00000000000E+00  0.00000000000E+00  0.11152602350E+04  0.11152602350E+04  0.25500000920E-02 0.  1.
        2   -1    0    0  501    0  0.00000000000E+00  0.00000000000E+00 -0.19821368367E+04  0.19821368367E+04  0.25500000920E-02 0. -1.
    10030    2    1    2    0    0  0.00000000000E+00  0.00000000000E+00 -0.86687660171E+03  0.30973970717E+04  0.29736162458E+04 0.  0.
        1    1    3    3  502    0  0.91533653212E+03  0.27066392263E+03 -0.16208459673E+04  0.18810214182E+04  0.50400001928E-02 0. -1.
       -1    1    3    3    0  502 -0.91533653212E+03 -0.27066392263E+03  0.75396936562E+03  0.12163756535E+04  0.50400001928E-02 0.  1.
</event>
<event>
 5   0  0.6291798E-07  0.2997960E+04  0.7818609E-02  0.8244314E-01
        1   -1    0    0  501    0  0.00000000000E+00  0.00000000000E+00  0.19911879442E+04  0.19911879442E+04  0.50400001928E-02 0.  1.
       -1   -1    0    0    0  501  0.00000000000E+00  0.00000000000E+00 -0.11284425568E+04  0.11284425568E+04  0.50400001928E-02 0. -1.
    10030    2    1    2    0    0  0.00000000000E+00  0.00000000000E+00  0.86274538746E+03  0.31196305010E+04  0.29979601164E+04 0.  0.
        1    1    3    3  502    0  0.36419820573E+03 -0.80314014763E+02  0.19421387332E+04  0.19776232030E+04  0.50400001928E-02 0.  1.
       -1    1    3    3    0  502 -0.36419820573E+03  0.80314014763E+02 -0.10793933457E+04  0.11420072980E+04  0.50400001928E-02 0. -1.
</event>
<event>
 5   0  0.1674806E-06  0.3009527E+04  0.7818609E-02  0.8241016E-01
        2   -1    0    0  501    0  0.00000000000E+00  0.00000000000E+00  0.21509278284E+04  0.21509278284E+04  0.25500000920E-02 0. -1.
       -2   -1    0    0    0  501  0.00000000000E+00  0.00000000000E+00 -0.10527149279E+04  0.10527149279E+04  0.25500000920E-02 0.  1.
    10030    2    1    2    0    0  0.00000000000E+00  0.00000000000E+00  0.10982129005E+04  0.32036427563E+04  0.30095274272E+04 0.  0.
        2    1    3    3  502    0  0.79946386502E+02 -0.12705681863E+04 -0.30487152847E+03  0.13090766172E+04  0.25500000920E-02 0.  1.
       -2    1    3    3    0  502 -0.79946386502E+02  0.12705681863E+04  0.14030844289E+04  0.18945661391E+04  0.25500000920E-02 0. -1.
</event>
<event>
 5   0  0.5916703E-07  0.2992845E+04  0.7818609E-02  0.8245777E-01
       -1   -1    0    0    0  501  0.00000000000E+00  0.00000000000E+00  0.14405416926E+04  0.14405416926E+04  0.50400001928E-02 0. -1.
        1   -1    0    0  501    0  0.00000000000E+00  0.00000000000E+00 -0.15544713806E+04  0.15544713806E+04  0.50400001928E-02 0.  1.
    10030    2    1    2    0    0  0.00000000000E+00  0.00000000000E+00 -0.11392968803E+03  0.29950130732E+04  0.29928453576E+04 0.  0.
        5    1    3    3  502    0 -0.83201176107E+03 -0.10567111028E+04 -0.71347111756E+03  0.15224799017E+04  0.46999998093E+01 0.  1.
       -5    1    3    3    0  502  0.83201176107E+03  0.10567111028E+04  0.59954142953E+03  0.14725331715E+04  0.46999998093E+01 0. -1.
</event>
<event>
 5   0  0.1560174E-06  0.3005585E+04  0.7818609E-02  0.8242138E-01
        2   -1    0    0  501    0  0.00000000000E+00  0.00000000000E+00  0.17867816904E+04  0.17867816904E+04  0.25500000920E-02 0. -1.
       -2   -1    0    0    0  501  0.00000000000E+00  0.00000000000E+00 -0.12639401963E+04  0.12639401963E+04  0.25500000920E-02 0.  1.
    10030    2    1    2    0    0  0.00000000000E+00  0.00000000000E+00  0.52284149405E+03  0.30507218867E+04  0.30055849351E+04 0.  0.
        5    1    3    3  502    0  0.14681303316E+03  0.14743768087E+04  0.51623278618E+03  0.15690313637E+04  0.46999998093E+01 0.  1.
       -5    1    3    3    0  502 -0.14681303316E+03 -0.14743768087E+04  0.66087078693E+01  0.14816905230E+04  0.46999998093E+01 0. -1.
</event>
<event>
 5   0  0.5874741E-07  0.3006341E+04  0.7818609E-02  0.8241923E-01
       -1   -1    0    0    0  501  0.00000000000E+00  0.00000000000E+00  0.20735867994E+04  0.20735867994E+04  0.50400001928E-02 0.  1.
        1   -1    0    0  501    0  0.00000000000E+00  0.00000000000E+00 -0.10896678429E+04  0.10896678430E+04  0.50400001928E-02 0. -1.
    10030    2    1    2    0    0  0.00000000000E+00  0.00000000000E+00  0.98391895644E+03  0.31632546423E+04  0.30063405362E+04 0.  0.
        4    1    3    3  502    0 -0.62505531159E+03  0.11332080629E+04  0.12965026913E+04  0.18318775881E+04  0.12699999809E+01 0.  1.
       -4    1    3    3    0  502  0.62505531159E+03 -0.11332080629E+04 -0.31258373487E+03  0.13313770542E+04  0.12699999809E+01 0. -1.
</event>
<event>
 5   0  0.1625212E-06  0.3003708E+04  0.7818609E-02  0.8242673E-01
        2   -1    0    0  501    0  0.00000000000E+00  0.00000000000E+00  0.18584429171E+04  0.18584429171E+04  0.25500000920E-02 0. -1.
       -2   -1    0    0    0  501  0.00000000000E+00  0.00000000000E+00 -0.12136853593E+04  0.12136853593E+04  0.25500000920E-02 0.  1.
    10030    2    1    2    0    0  0.00000000000E+00  0.00000000000E+00  0.64475755783E+03  0.30721282764E+04  0.30037076819E+04 0.  0.
        4    1    3    3  502    0 -0.23487734632E+03 -0.66640785612E+03 -0.10330621775E+04  0.12515933342E+04  0.12699999809E+01 0.  1.
       -4    1    3    3    0  502  0.23487734632E+03  0.66640785612E+03  0.16778197354E+04  0.18205349422E+04  0.12699999809E+01 0. -1.
</event>
<event>
 5   0  0.6291798E-07  0.2962093E+04  0.7818609E-02  0.8254639E-01
       -1   -1    0    0    0  501  0.00000000000E+00  0.00000000000E+00  0.19556445720E+04  0.19556445720E+04  0.50400001928E-02 0. -1.
        1   -1    0    0  501    0  0.00000000000E+00  0.00000000000E+00 -0.11216245809E+04  0.11216245809E+04  0.50400001928E-02 0.  1.
    10030    2    1    2    0    0  0.00000000000E+00  0.00000000000E+00  0.83401999105E+03  0.30772691529E+04  0.29620931947E+04 0.  0.
        1    1    3    3  502    0 -0.12474420285E+04 -0.59815847529E+03 -0.13231652979E+03  0.13897527982E+04  0.50400001928E-02 0.  1.
       -1    1    3    3    0  502  0.12474420285E+04  0.59815847529E+03  0.96633652084E+03  0.16875163547E+04  0.50400001928E-02 0. -1.
</event>
<event>
 5   0  0.1723916E-06  0.2991267E+04  0.7818609E-02  0.8246229E-01
       -2   -1    0    0    0  501  0.00000000000E+00  0.00000000000E+00  0.13395389582E+04  0.13395389582E+04  0.25500000920E-02 0.  1.
        2   -1    0    0  501    0  0.00000000000E+00  0.00000000000E+00 -0.16699174551E+04  0.16699174551E+04  0.25500000920E-02 0. -1.
    10030    2    1    2    0    0  0.00000000000E+00  0.00000000000E+00 -0.33037849693E+03  0.30094564133E+04  0.29912669477E+04 0.  0.
        1    1    3    3  502    0 -0.45092851524E+03 -0.21790140412E+03  0.12526717400E+04  0.13490752522E+04  0.50400001928E-02 0.  1.
       -1    1    3    3    0  502  0.45092851524E+03  0.21790140412E+03 -0.15830502369E+04  0.16603811612E+04  0.50400001928E-02 0. -1.
</event>
<event>
 5   0  0.5874741E-07  0.2993355E+04  0.7818609E-02  0.8245631E-01
        1   -1    0    0  501    0  0.00000000000E+00  0.00000000000E+00  0.15357425871E+04  0.15357425871E+04  0.50400001928E-02 0. -1.
       -1   -1    0    0    0  501  0.00000000000E+00  0.00000000000E+00 -0.14586065115E+04  0.14586065115E+04  0.50400001928E-02 0.  1.
    10030    2    1    2    0    0  0.00000000000E+00  0.00000000000E+00  0.77136075575E+02  0.29943490986E+04  0.29933553999E+04 0.  0.
        4    1    3    3  502    0 -0.61655746096E+03 -0.11857906204E+04  0.71243847842E+03  0.15145338215E+04  0.12699999809E+01 0. -1.
       -4    1    3    3    0  502  0.61655746096E+03  0.11857906204E+04 -0.63530240285E+03  0.14798152770E+04  0.12699999809E+01 0.  1.
</event>
<event>
 5   0  0.1635086E-06  0.3043178E+04  0.7818609E-02  0.8231507E-01
       -2   -1    0    0    0  501  0.00000000000E+00  0.00000000000E+00  0.14425425027E+04  0.14425425027E+04  0.25500000920E-02 0.  1.
        2   -1    0    0  501    0  0.00000000000E+00  0.00000000000E+00 -0.16049671925E+04  0.16049671925E+04  0.25500000920E-02 0. -1.
    10030    2    1    2    0    0  0.00000000000E+00  0.00000000000E+00 -0.16242468977E+03  0.30475096952E+04  0.30431782009E+04 0.  0.
        3    1    3    3  502    0  0.39285916765E+03 -0.13064055070E+04  0.59369030929E+03  0.14877842141E+04  0.10100000352E+00 0.  1.
       -3    1    3    3    0  502 -0.39285916765E+03  0.13064055070E+04 -0.75611499906E+03  0.15597254811E+04  0.10100000352E+00 0. -1.
</event>
<event>
 5   0  0.5887179E-07  0.2930033E+04  0.7818609E-02  0.8263997E-01
        1   -1    0    0  501    0  0.00000000000E+00  0.00000000000E+00  0.15744227733E+04  0.15744227733E+04  0.50400001928E-02 0. -1.
       -1   -1    0    0    0  501  0.00000000000E+00  0.00000000000E+00 -0.13632129885E+04  0.13632129885E+04  0.50400001928E-02 0.  1.
    10030    2    1    2    0    0  0.00000000000E+00  0.00000000000E+00  0.21120978477E+03  0.29376357618E+04  0.29300331561E+04 0.  0.
        3    1    3    3  502    0 -0.42957549844E+03  0.33637052258E+03  0.14687625956E+04  0.15668260305E+04  0.10100000352E+00 0. -1.
       -3    1    3    3    0  502  0.42957549844E+03 -0.33637052258E+03 -0.12575528108E+04  0.13708097313E+04  0.10100000352E+00 0.  1.
</event>
<event>
 5   0  0.1723916E-06  0.2937235E+04  0.7818609E-02  0.8261884E-01
       -2   -1    0    0    0  501  0.00000000000E+00  0.00000000000E+00  0.12972984586E+04  0.12972984586E+04  0.25500000920E-02 0. -1.
        2   -1    0    0  501    0  0.00000000000E+00  0.00000000000E+00 -0.16625608330E+04  0.16625608330E+04  0.25500000920E-02 0.  1.
    10030    2    1    2    0    0  0.00000000000E+00  0.00000000000E+00 -0.36526237436E+03  0.29598592916E+04  0.29372351666E+04 0.  0.
        1    1    3    3  502    0 -0.61688057650E+03 -0.69555424330E+03  0.96300748473E+03  0.13385517423E+04  0.50400001928E-02 0. -1.
       -1    1    3    3    0  502  0.61688057650E+03  0.69555424330E+03 -0.13282698591E+04  0.16213075494E+04  0.50400001928E-02 0.  1.
</event>
<event>
 5   0  0.5874741E-07  0.2972167E+04  0.7818609E-02  0.8251724E-01
       -1   -1    0    0    0  501  0.00000000000E+00  0.00000000000E+00  0.23399890472E+04  0.23399890472E+04  0.50400001928E-02 0. -1.
        1   -1    0    0  501    0  0.00000000000E+00  0.00000000000E+00 -0.94378387052E+03  0.94378387053E+03  0.50400001928E-02 0.  1.
    10030    2    1    2    0    0  0.00000000000E+00  0.00000000000E+00  0.13962051767E+04  0.32837729177E+04  0.29721668324E+04 0.  0.
        4    1    3    3  502    0  0.19448161989E+03  0.94592201157E+03 -0.54985512822E+03  0.11112757657E+04  0.12699999809E+01 0.  1.
       -4    1    3    3    0  502 -0.19448161989E+03 -0.94592201157E+03  0.19460603049E+04  0.21724971520E+04  0.12699999809E+01 0. -1.
</event>
<event>
 5   0  0.1635086E-06  0.2990788E+04  0.7818609E-02  0.8246366E-01
       -2   -1    0    0    0  501  0.00000000000E+00  0.00000000000E+00  0.75599546058E+03  0.75599546059E+03  0.25500000920E-02 0. -1.
        2   -1    0    0  501    0  0.00000000000E+00  0.00000000000E+00 -0.29579593605E+04  0.29579593605E+04  0.25500000920E-02 0.  1.
    10030    2    1    2    0    0  0.00000000000E+00  0.00000000000E+00 -0.22019638999E+04  0.37139548211E+04  0.29907884239E+04 0.  0.
        3    1    3    3  502    0 -0.14184687094E+03  0.84717561992E+03 -0.26210444375E+04  0.27582061235E+04  0.10100000352E+00 0.  1.
       -3    1    3    3    0  502  0.14184687094E+03 -0.84717561992E+03  0.41908053762E+03  0.95574869762E+03  0.10100000352E+00 0. -1.
</event>
<event>
 5   0  0.5874741E-07  0.3015176E+04  0.7818609E-02  0.8239411E-01
       -1   -1    0    0    0  501  0.00000000000E+00  0.00000000000E+00  0.88915823706E+03  0.88915823708E+03  0.50400001928E-02 0.  1.
        1   -1    0    0  501    0  0.00000000000E+00  0.00000000000E+00 -0.25561494272E+04  0.25561494272E+04  0.50400001928E-02 0. -1.
    10030    2    1    2    0    0  0.00000000000E+00  0.00000000000E+00 -0.16669911902E+04  0.34453076643E+04  0.30151758280E+04 0.  0.
        4    1    3    3  502    0  0.12182577649E+04  0.60342954719E+03 -0.88978055130E+02  0.13624235419E+04  0.12699999809E+01 0. -1.
       -4    1    3    3    0  502 -0.12182577649E+04 -0.60342954719E+03 -0.15780131350E+04  0.20828841224E+04  0.12699999809E+01 0.  1.
</event>
<event>
 5   0  0.5431625E-07  0.3022038E+04  0.7818609E-02  0.8237466E-01
        3   -1    0    0  501    0  0.00000000000E+00  0.00000000000E+00  0.16801831905E+04  0.16801831935E+04  0.10100000352E+00 0. -1.
       -3   -1    0    0    0  501  0.00000000000E+00  0.00000000000E+00 -0.13588864901E+04  0.13588864938E+04  0.10100000352E+00 0.  1.
    10030    2    1    2    0    0  0.00000000000E+00  0.00000000000E+00  0.32129670043E+03  0.30390696874E+04  0.30220378877E+04 0.  0.
        4    1    3    3  502    0 -0.43931502734E+03  0.13145836961E+04 -0.44444756241E+03  0.14555628588E+04  0.12699999809E+01 0.  1.
       -4    1    3    3    0  502  0.43931502734E+03 -0.13145836961E+04  0.76574426284E+03  0.15835068286E+04  0.12699999809E+01 0. -1.
</event>
<event>
 5   0  0.5874741E-07  0.2981460E+04  0.7818609E-02  0.8249045E-01
       -1   -1    0    0    0  501  0.00000000000E+00  0.00000000000E+00  0.25641321334E+04  0.25641321334E+04  0.50400001928E-02 0. -1.
        1   -1    0    0  501    0  0.00000000000E+00  0.00000000000E+00 -0.86667750594E+03  0.86667750595E+03  0.50400001928E-02 0.  1.
    10030    2    1    2    0    0  0.00000000000E+00  0.00000000000E+00  0.16974546275E+04  0.34308096394E+04  0.29814598051E+04 0.  0.
        4    1    3    3  502    0 -0.88960525184E+03 -0.38180464229E+03 -0.45574966397E+03  0.10699914290E+04  0.12699999809E+01 0.  1.
       -4    1    3    3    0  502  0.88960525184E+03  0.38180464229E+03  0.21532042915E+04  0.23608182104E+04  0.12699999809E+01 0. -1.
</event>
<event>
 5   0  0.5916703E-07  0.3005872E+04  0.7818609E-02  0.8242056E-01
        1   -1    0    0  501    0  0.00000000000E+00  0.00000000000E+00  0.19182611131E+04  0.19182611131E+04  0.50400001928E-02 0.  1.
       -1   -1    0    0    0  501  0.00000000000E+00  0.00000000000E+00 -0.11775335666E+04  0.11775335666E+04  0.50400001928E-02 0. -1.
    10030    2    1    2    0    0  0.00000000000E+00  0.00000000000E+00  0.74072754647E+03  0.30957946797E+04  0.30058721531E+04 0.  0.
        5    1    3    3  502    0 -0.75815162087E+03  0.12819902105E+04  0.16309218595E+03  0.14983036845E+04  0.46999998093E+01 0.  1.
       -5    1    3    3    0  502  0.75815162087E+03 -0.12819902105E+04  0.57763536052E+03  0.15974909952E+04  0.46999998093E+01 0. -1.
</event>
<event>
 5   0  0.1674806E-06  0.3051810E+04  0.7818609E-02  0.8229089E-01
        2   -1    0    0  501    0  0.00000000000E+00  0.00000000000E+00  0.24805467210E+04  0.24805467210E+04  0.25500000920E-02 0. -1.
       -2   -1    0    0    0  501  0.00000000000E+00  0.00000000000E+00 -0.93865848479E+03  0.93865848480E+03  0.25500000920E-02 0.  1.
    10030    2    1    2    0    0  0.00000000000E+00  0.00000000000E+00  0.15418882362E+04  0.34192052058E+04  0.30518101033E+04 0.  0.
        2    1    3    3  502    0 -0.84598374161E+03  0.32982864929E+03 -0.60303046324E+03  0.10900097103E+04  0.25500000920E-02 0.  1.
       -2    1    3    3    0  502  0.84598374161E+03 -0.32982864929E+03  0.21449186994E+04  0.23291954955E+04  0.25500000920E-02 0. -1.
</event>
<event>
 5   0  0.1625212E-06  0.2993604E+04  0.7818609E-02  0.8245560E-01
        2   -1    0    0  501    0  0.00000000000E+00  0.00000000000E+00  0.28379481600E+04  0.28379481600E+04  0.25500000920E-02 0. -1.
       -2   -1    0    0    0  501  0.00000000000E+00  0.00000000000E+00 -0.78944910709E+03  0.78944910710E+03  0.25500000920E-02 0.  1.
    10030    2    1    2    0    0  0.00000000000E+00  0.00000000000E+00  0.20484990529E+04  0.36273972670E+04  0.29936036083E+04 0.  0.
        4    1    3    3  502    0  0.24189043875E+03 -0.82012290053E+03 -0.46438752988E+03  0.97302104147E+03  0.12699999809E+01 0.  1.
       -4    1    3    3    0  502 -0.24189043875E+03  0.82012290053E+03  0.25128865827E+04  0.26543762256E+04  0.12699999809E+01 0. -1.
</event>
<event>
 5   0  0.1560174E-06  0.3034055E+04  0.7818609E-02  0.8234073E-01
       -2   -1    0    0    0  501  0.00000000000E+00  0.00000000000E+00  0.98083452609E+03  0.98083452609E+03  0.25500000920E-02 0. -1.
        2   -1    0    0  501    0  0.00000000000E+00  0.00000000000E+00 -0.23463405766E+04  0.23463405766E+04  0.25500000920E-02 0.  1.
    10030    2    1    2    0    0  0.00000000000E+00  0.00000000000E+00 -0.13655060505E+04  0.33271751027E+04  0.30340546122E+04 0.  0.
        5    1    3    3  502    0 -0.77005955916E+03  0.63849709104E+03 -0.19334077010E+04  0.21768687807E+04  0.46999998093E+01 0.  1.
       -5    1    3    3    0  502  0.77005955916E+03 -0.63849709104E+03  0.56790165048E+03  0.11503063220E+04  0.46999998093E+01 0. -1.
</event>
<event>
 5   0  0.1560174E-06  0.2996381E+04  0.7818609E-02  0.8244765E-01
       -2   -1    0    0    0  501  0.00000000000E+00  0.00000000000E+00  0.92475879466E+03  0.92475879466E+03  0.25500000920E-02 0.  1.
        2   -1    0    0  501    0  0.00000000000E+00  0.00000000000E+00 -0.24272010480E+04  0.24272010480E+04  0.25500000920E-02 0. -1.
    10030    2    1    2    0    0  0.00000000000E+00  0.00000000000E+00 -0.15024422533E+04  0.33519598426E+04  0.29963814947E+04 0.  0.
        5    1    3    3  502    0  0.71741931627E+03  0.13150402744E+04 -0.77702402380E+03  0.16875455023E+04  0.46999998093E+01 0.  1.
       -5    1    3    3    0  502 -0.71741931627E+03 -0.13150402744E+04 -0.72541822951E+03  0.16644143404E+04  0.46999998093E+01 0. -1.
</event>
<event>
 5   0  0.5874741E-07  0.2970323E+04  0.7818609E-02  0.8252257E-01
        1   -1    0    0  501    0  0.00000000000E+00  0.00000000000E+00  0.17263942210E+04  0.17263942210E+04  0.50400001928E-02 0. -1.
       -1   -1    0    0    0  501  0.00000000000E+00  0.00000000000E+00 -0.12776364065E+04  0.12776364065E+04  0.50400001928E-02 0.  1.
    10030    2    1    2    0    0  0.00000000000E+00  0.00000000000E+00  0.44875781458E+03  0.30040306275E+04  0.29703226146E+04 0.  0.
        4    1    3    3  502    0  0.91708281766E+03 -0.12477882910E+03  0.13990640963E+04  0.16774959342E+04  0.12699999809E+01 0. -1.
       -4    1    3    3    0  502 -0.91708281766E+03  0.12477882910E+03 -0.95030628175E+03  0.13265346934E+04  0.12699999809E+01 0.  1.
</event>
<event>
 5   0  0.6291798E-07  0.3000922E+04  0.7818609E-02  0.8243468E-01
       -1   -1    0    0    0  501  0.00000000000E+00  0.00000000000E+00  0.14929540760E+04  0.14929540760E+04  0.50400001928E-02 0.  1.
        1   -1    0    0  501    0  0.00000000000E+00  0.00000000000E+00 -0.15080054225E+04  0.15080054225E+04  0.50400001928E-02 0. -1.
    10030    2    1    2    0    0  0.00000000000E+00  0.00000000000E+00 -0.15051346450E+02  0.30009594985E+04  0.30009217532E+04 0.  0.
        1    1    3    3  502    0 -0.74813462532E+03  0.12996202408E+02  0.12930707572E+04  0.14939565931E+04  0.50400001928E-02 0.  1.
       -1    1    3    3    0  502  0.74813462532E+03 -0.12996202408E+02 -0.13081221037E+04  0.15070029054E+04  0.50400001928E-02 0. -1.
</event>
<event>
 5   0  0.1635086E-06  0.3005644E+04  0.7818609E-02  0.8242121E-01
       -2   -1    0    0    0  501  0.00000000000E+00  0.00000000000E+00  0.19704985446E+04  0.19704985446E+04  0.25500000920E-02 0. -1.
        2   -1    0    0  501    0  0.00000000000E+00  0.00000000000E+00 -0.11461434771E+04  0.11461434771E+04  0.25500000920E-02 0.  1.
    10030    2    1    2    0    0  0.00000000000E+00  0.00000000000E+00  0.82435506759E+03  0.31166420217E+04  0.30056440598E+04 0.  0.
        3    1    3    3  502    0  0.12955339997E+04 -0.32335683272E+03 -0.30285763091E+03  0.13691934635E+04  0.10100000352E+00 0.  1.
       -3    1    3    3    0  502 -0.12955339997E+04  0.32335683272E+03  0.11272126985E+04  0.17474485582E+04  0.10100000352E+00 0. -1.
</event>
<event>
 5   0  0.1723916E-06  0.3017308E+04  0.7818609E-02  0.8238806E-01
        2   -1    0    0  501    0  0.00000000000E+00  0.00000000000E+00  0.18087694517E+04  0.18087694517E+04  0.25500000920E-02 0.  1.
       -2   -1    0    0    0  501  0.00000000000E+00  0.00000000000E+00 -0.12583342999E+04  0.12583342999E+04  0.25500000920E-02 0. -1.
    10030    2    1    2    0    0  0.00000000000E+00  0.00000000000E+00  0.55043515177E+03  0.30671037516E+04  0.30173078343E+04 0.  0.
        1    1    3    3  502    0  0.50972644411E+03  0.14126031486E+04  0.12872839819E+03  0.15072623208E+04  0.50400001928E-02 0. -1.
       -1    1    3    3    0  502 -0.50972644411E+03 -0.14126031486E+04  0.42170675358E+03  0.15598414308E+04  0.50400001928E-02 0.  1.
</event>
<event>
 5   0  0.1560174E-06  0.3007846E+04  0.7818609E-02  0.8241494E-01
       -2   -1    0    0    0  501  0.00000000000E+00  0.00000000000E+00  0.10620289134E+04  0.10620289134E+04  0.25500000920E-02 0. -1.
        2   -1    0    0  501    0  0.00000000000E+00  0.00000000000E+00 -0.21296826994E+04  0.21296826994E+04  0.25500000920E-02 0.  1.
    10030    2    1    2    0    0  0.00000000000E+00  0.00000000000E+00 -0.10676537861E+04  0.31917116128E+04  0.30078461418E+04 0.  0.
        5    1    3    3  502    0  0.18668337465E+03 -0.75820652712E+03  0.83005765180E+03  0.11396252083E+04  0.46999998093E+01 0. -1.
       -5    1    3    3    0  502 -0.18668337465E+03  0.75820652712E+03 -0.18977114379E+04  0.20520864045E+04  0.46999998093E+01 0.  1.
</event>
<event>
 5   0  0.5887179E-07  0.2996431E+04  0.7818609E-02  0.8244751E-01
       -1   -1    0    0    0  501  0.00000000000E+00  0.00000000000E+00  0.23592758320E+04  0.23592758320E+04  0.50400001928E-02 0. -1.
        1   -1    0    0  501    0  0.00000000000E+00  0.00000000000E+00 -0.95141473185E+03  0.95141473186E+03  0.50400001928E-02 0.  1.
    10030    2    1    2    0    0  0.00000000000E+00  0.00000000000E+00  0.14078611001E+04  0.33106905638E+04  0.29964310658E+04 0.  0.
        3    1    3    3  502    0  0.75224237851E+03 -0.11490715552E+04  0.13653970216E+04  0.19366318886E+04  0.10100000352E+00 0. -1.
       -3    1    3    3    0  502 -0.75224237851E+03  0.11490715552E+04  0.42464078489E+02  0.13740586753E+04  0.10100000352E+00 0.  1.
</event>
<event>
 5   0  0.1674806E-06  0.2997092E+04  0.7818609E-02  0.8244562E-01
       -2   -1    0    0    0  501  0.00000000000E+00  0.00000000000E+00  0.10946453404E+04  0.10946453404E+04  0.25500000920E-02 0. -1.
        2   -1    0    0  501    0  0.00000000000E+00  0.00000000000E+00 -0.20514776441E+04  0.20514776441E+04  0.25500000920E-02 0.  1.
    10030    2    1    2    0    0  0.00000000000E+00  0.00000000000E+00 -0.95683230368E+03  0.31461229845E+04  0.29970922202E+04 0.  0.
        2    1    3    3  502    0 -0.63801702252E+03 -0.11979209147E+04  0.18843630613E+03  0.13702512472E+04  0.25500000920E-02 0. -1.
       -2    1    3    3    0  502  0.63801702252E+03  0.11979209147E+04 -0.11452686098E+04  0.17758717374E+04  0.25500000920E-02 0.  1.
</event>
<event>
 5   0  0.6291798E-07  0.3002394E+04  0.7818609E-02  0.8243048E-01
        1   -1    0    0  501    0  0.00000000000E+00  0.00000000000E+00  0.20877184471E+04  0.20877184471E+04  0.50400001928E-02 0.  1.
       -1   -1    0    0    0  501  0.00000000000E+00  0.00000000000E+00 -0.10794523432E+04  0.10794523432E+04  0.50400001928E-02 0. -1.
    10030    2    1    2    0    0  0.00000000000E+00  0.00000000000E+00  0.10082661039E+04  0.31671707902E+04  0.30023940911E+04 0.  0.
        1    1    3    3  502    0 -0.10108560123E+04  0.29755991219E+03  0.16320284993E+04  0.19426499431E+04  0.50400001928E-02 0.  1.
       -1    1    3    3    0  502  0.10108560123E+04 -0.29755991219E+03 -0.62376239540E+03  0.12245208471E+04  0.50400001928E-02 0. -1.
</event>
<event>
 5   0  0.1635086E-06  0.3001415E+04  0.7818609E-02  0.8243327E-01
       -2   -1    0    0    0  501  0.00000000000E+00  0.00000000000E+00  0.11468117156E+04  0.11468117156E+04  0.25500000920E-02 0. -1.
        2   -1    0    0  501    0  0.00000000000E+00  0.00000000000E+00 -0.19638117219E+04  0.19638117219E+04  0.25500000920E-02 0.  1.
    10030    2    1    2    0    0  0.00000000000E+00  0.00000000000E+00 -0.81700000634E+03  0.31106234375E+04  0.30014145264E+04 0.  0.
        3    1    3    3  502    0  0.11458769820E+03  0.58373890393E+03  0.10193977664E+04  0.11802767747E+04  0.10100000352E+00 0. -1.
       -3    1    3    3    0  502 -0.11458769820E+03 -0.58373890393E+03 -0.18363977728E+04  0.19303466628E+04  0.10100000352E+00 0.  1.
</event>
<event>
 5   0  0.1674806E-06  0.2998339E+04  0.7818609E-02  0.8244205E-01
       -2   -1    0    0    0  501  0.00000000000E+00  0.00000000000E+00  0.14069804137E+04  0.14069804137E+04  0.25500000920E-02 0.  1.
        2   -1    0    0  501    0  0.00000000000E+00  0.00000000000E+00 -0.15973990029E+04  0.15973990029E+04  0.25500000920E-02 0. -1.
    10030    2    1    2    0    0  0.00000000000E+00  0.00000000000E+00 -0.19041858922E+03  0.30043794166E+04  0.29983389468E+04 0.  0.
        2    1    3    3  502    0 -0.10479558580E+04  0.73922504593E+03  0.68278517397E+03  0.14528801543E+04  0.25500000920E-02 0.  1.
       -2    1    3    3    0  502  0.10479558580E+04 -0.73922504593E+03 -0.87320376319E+03  0.15514992623E+04  0.25500000920E-02 0. -1.
</event>
<event>
 5   0  0.6291798E-07  0.2986054E+04  0.7818609E-02  0.8247725E-01
       -1   -1    0    0    0  501  0.00000000000E+00  0.00000000000E+00  0.11409754928E+04  0.11409754928E+04  0.50400001928E-02 0.  1.
        1   -1    0    0  501    0  0.00000000000E+00  0.00000000000E+00 -0.19537046705E+04  0.19537046705E+04  0.50400001928E-02 0. -1.
    10030    2    1    2    0    0  0.00000000000E+00  0.00000000000E+00 -0.81272917770E+03  0.30946801634E+04  0.29860536829E+04 0.  0.
        1    1    3    3  502    0  0.11761981828E+04  0.83581627521E+03 -0.88786701193E+01  0.14429517808E+04  0.50400001928E-02 0.  1.
       -1    1    3    3    0  502 -0.11761981828E+04 -0.83581627521E+03 -0.80385050758E+03  0.16517283825E+04  0.50400001928E-02 0. -1.
</event>
<event>
 5   0  0.1560174E-06  0.3024434E+04  0.7818609E-02  0.8236788E-01
        2   -1    0    0  501    0  0.00000000000E+00  0.00000000000E+00  0.17523428646E+04  0.17523428646E+04  0.25500000920E-02 0. -1.
       -2   -1    0    0    0  501  0.00000000000E+00  0.00000000000E+00 -0.13049957540E+04  0.13049957540E+04  0.25500000920E-02 0.  1.
    10030    2    1    2    0    0  0.00000000000E+00  0.00000000000E+00  0.44734711057E+03  0.30573386187E+04  0.30244338300E+04 0.  0.
        5    1    3    3  502    0  0.66968202236E+03  0.33804915533E+03 -0.11036336264E+04  0.13344588843E+04  0.46999998093E+01 0.  1.
       -5    1    3    3    0  502 -0.66968202236E+03 -0.33804915533E+03  0.15509807370E+04  0.17228797344E+04  0.46999998093E+01 0. -1.
</event>
<event>
 5   0  0.1674806E-06  0.2992022E+04  0.7818609E-02  0.8246013E-01
        2   -1    0    0  501    0  0.00000000000E+00  0.00000000000E+00  0.19091178841E+04  0.19091178841E+04  0.25500000920E-02 0. -1.
       -2   -1    0    0    0  501  0.00000000000E+00  0.00000000000E+00 -0.11722947489E+04  0.11722947489E+04  0.25500000920E-02 0.  1.
    10030    2    1    2    0    0  0.00000000000E+00  0.00000000000E+00  0.73682313525E+03  0.30814126330E+04  0.29920219722E+04 0.  0.
        2    1    3    3  502    0 -0.41905804249E+03 -0.11988074894E+04  0.11827955738E+04  0.17354406959E+04  0.25500000920E-02 0. -1.
       -2    1    3    3    0  502  0.41905804249E+03  0.11988074894E+04 -0.44597243855E+03  0.13459719371E+04  0.25500000920E-02 0.  1.
</event>
<event>
 5   0  0.1560174E-06  0.2986794E+04  0.7818609E-02  0.8247512E-01
       -2   -1    0    0    0  501  0.00000000000E+00  0.00000000000E+00  0.17480502603E+04  0.17480502603E+04  0.25500000920E-02 0. -1.
        2   -1    0    0  501    0  0.00000000000E+00  0.00000000000E+00 -0.12758413994E+04  0.12758413994E+04  0.25500000920E-02 0.  1.
    10030    2    1    2    0    0  0.00000000000E+00  0.00000000000E+00  0.47220886090E+03  0.30238916597E+04  0.29867941947E+04 0.  0.
        5    1    3    3  502    0 -0.66940968311E+03 -0.41607516488E+03 -0.10481081420E+04  0.13114040697E+04  0.46999998093E+01 0.  1.
       -5    1    3    3    0  502  0.66940968311E+03  0.41607516488E+03  0.15203170029E+04  0.17124875900E+04  0.46999998093E+01 0. -1.
</event>
<event>
 5   0  0.6291798E-07  0.2995088E+04  0.7818609E-02  0.8245135E-01
        1   -1    0    0  501    0  0.00000000000E+00  0.00000000000E+00  0.17726550942E+04  0.17726550943E+04  0.50400001928E-02 0.  1.
       -1   -1    0    0    0  501  0.00000000000E+00  0.00000000000E+00 -0.12651294597E+04  0.12651294597E+04  0.50400001928E-02 0. -1.
    10030    2    1    2    0    0  0.00000000000E+00  0.00000000000E+00  0.50752563454E+03  0.30377845540E+04  0.29950881000E+04 0.  0.
        1    1    3    3  502    0 -0.82279269729E+03 -0.11568576001E+04 -0.22982634319E+03  0.14380985633E+04  0.50400001928E-02 0. -1.
       -1    1    3    3    0  502  0.82279269729E+03  0.11568576001E+04  0.73735197773E+03  0.15996859907E+04  0.50400001928E-02 0.  1.
</event>
<event>
 5   0  0.1625212E-06  0.3006316E+04  0.7818609E-02  0.8241929E-01
        2   -1    0    0  501    0  0.00000000000E+00  0.00000000000E+00  0.17351503934E+04  0.17351503934E+04  0.25500000920E-02 0. -1.
       -2   -1    0    0    0  501  0.00000000000E+00  0.00000000000E+00 -0.13021837605E+04  0.13021837605E+04  0.25500000920E-02 0.  1.
    10030    2    1    2    0    0  0.00000000000E+00  0.00000000000E+00  0.43296663285E+03  0.30373341539E+04  0.30063164599E+04 0.  0.
        4    1    3    3  502    0 -0.11332838177E+04 -0.12997277725E+03 -0.77252304952E+03  0.13776859618E+04  0.12699999809E+01 0.  1.
       -4    1    3    3    0  502  0.11332838177E+04  0.12997277725E+03  0.12054896824E+04  0.16596481921E+04  0.12699999809E+01 0. -1.
</event>
<event>
 5   0  0.1635086E-06  0.2990840E+04  0.7818609E-02  0.8246351E-01
        2   -1    0    0  501    0  0.00000000000E+00  0.00000000000E+00  0.12015882318E+04  0.12015882318E+04  0.25500000920E-02 0. -1.
       -2   -1    0    0    0  501  0.00000000000E+00  0.00000000000E+00 -0.18611042071E+04  0.18611042071E+04  0.25500000920E-02 0.  1.
    10030    2    1    2    0    0  0.00000000000E+00  0.00000000000E+00 -0.65951597526E+03  0.30626924389E+04  0.29908399579E+04 0.  0.
        3    1    3    3  502    0  0.11661097684E+02 -0.29634842477E+03  0.11711703388E+04  0.12081383790E+04  0.10100000352E+00 0. -1.
       -3    1    3    3    0  502 -0.11661097684E+02  0.29634842477E+03 -0.18306863141E+04  0.18545540599E+04  0.10100000352E+00 0.  1.
</event>
<event>
 5   0  0.1560174E-06  0.3022587E+04  0.7818609E-02  0.8237310E-01
       -2   -1    0    0    0  501  0.00000000000E+00  0.00000000000E+00  0.17795596519E+04  0.17795596519E+04  0.25500000920E-02 0.  1.
        2   -1    0    0  501    0  0.00000000000E+00  0.00000000000E+00 -0.12834684306E+04  0.12834684306E+04  0.25500000920E-02 0. -1.
    10030    2    1    2    0    0  0.00000000000E+00  0.00000000000E+00  0.49609122126E+03  0.30630280825E+04  0.30225873907E+04 0.  0.
        5    1    3    3  502    0 -0.69509428683E+03  0.33866183524E+03 -0.10678418619E+04  0.13183915345E+04  0.46999998093E+01 0. -1.
       -5    1    3    3    0  502  0.69509428683E+03 -0.33866183524E+03  0.15639330831E+04  0.17446365480E+04  0.46999998093E+01 0.  1.
</event>
<event>
 5   0  0.1635086E-06  0.2990504E+04  0.7818609E-02  0.8246448E-01
       -2   -1    0    0    0  501  0.00000000000E+00  0.00000000000E+00  0.12191118095E+04  0.12191118095E+04  0.25500000920E-02 0. -1.
        2   -1    0    0  501    0  0.00000000000E+00  0.00000000000E+00 -0.18339405695E+04  0.18339405695E+04  0.25500000920E-02 0.  1.
    10030    2    1    2    0    0  0.00000000000E+00  0.00000000000E+00 -0.61482875999E+03  0.30530523789E+04  0.29905040419E+04 0.  0.
        3    1    3    3  502    0 -0.48921802252E+02 -0.63906576630E+03 -0.16865879946E+04  0.18042664631E+04  0.10100000352E+00 0.  1.
       -3    1    3    3    0  502  0.48921802252E+02  0.63906576630E+03  0.10717592346E+04  0.12487859158E+04  0.10100000352E+00 0. -1.
</event>
<event>
 5   0  0.5887179E-07  0.2980988E+04  0.7818609E-02  0.8249181E-01
        1   -1    0    0  501    0  0.00000000000E+00  0.00000000000E+00  0.19202755968E+04  0.19202755968E+04  0.50400001928E-02 0.  1.
       -1   -1    0    0    0  501  0.00000000000E+00  0.00000000000E+00 -0.11569026888E+04  0.11569026888E+04  0.50400001928E-02 0. -1.
    10030    2    1    2    0    0  0.00000000000E+00  0.00000000000E+00  0.76337290803E+03  0.30771782856E+04  0.29809877565E+04 0.  0.
        3    1    3    3  502    0  0.36157021402E+03  0.96106969093E+03  0.14969105217E+04  0.18152490437E+04  0.10100000352E+00 0.  1.
       -3    1    3    3    0  502 -0.36157021402E+03 -0.96106969093E+03 -0.73353761372E+03  0.12619292418E+04  0.10100000352E+00 0. -1.
</event>
<event>
 5   0  0.5887179E-07  0.3002635E+04  0.7818609E-02  0.8242979E-01
       -1   -1    0    0    0  501  0.00000000000E+00  0.00000000000E+00  0.13583254858E+04  0.13583254858E+04  0.50400001928E-02 0.  1.
        1   -1    0    0  501    0  0.00000000000E+00  0.00000000000E+00 -0.16593622240E+04  0.16593622240E+04  0.50400001928E-02 0. -1.
    10030    2    1    2    0    0  0.00000000000E+00  0.00000000000E+00 -0.30103673825E+03  0.30176877098E+04  0.30026348423E+04 0.  0.
        3    1    3    3  502    0 -0.12366113070E+02 -0.77418107136E+03  0.11421821013E+04  0.13798873920E+04  0.10100000352E+00 0.  1.
       -3    1    3    3    0  502  0.12366113070E+02  0.77418107136E+03 -0.14432188395E+04  0.16378003178E+04  0.10100000352E+00 0. -1.
</event>
<event>
 5   0  0.1625212E-06  0.2995757E+04  0.7818609E-02  0.8244943E-01
        2   -1    0    0  501    0  0.00000000000E+00  0.00000000000E+00  0.13805280347E+04  0.13805280347E+04  0.25500000920E-02 0.  1.
       -2   -1    0    0    0  501  0.00000000000E+00  0.00000000000E+00 -0.16252046451E+04  0.16252046451E+04  0.25500000920E-02 0. -1.
    10030    2    1    2    0    0  0.00000000000E+00  0.00000000000E+00 -0.24467661037E+03  0.30057326799E+04  0.29957573832E+04 0.  0.
        4    1    3    3  502    0  0.55456067014E+03 -0.98442343103E+03 -0.11089803797E+04  0.15831822776E+04  0.12699999809E+01 0. -1.
       -4    1    3    3    0  502 -0.55456067014E+03  0.98442343103E+03  0.86430376937E+03  0.14225504023E+04  0.12699999809E+01 0.  1.
</event>
<event>
 5   0  0.5916703E-07  0.3004699E+04  0.7818609E-02  0.8242390E-01
        1   -1    0    0  501    0  0.00000000000E+00  0.00000000000E+00  0.12990527989E+04  0.12990527989E+04  0.50400001928E-02 0.  1.
       -1   -1    0    0    0  501  0.00000000000E+00  0.00000000000E+00 -0.17374610379E+04  0.17374610379E+04  0.50400001928E-02 0. -1.
    10030    2    1    2    0    0  0.00000000000E+00  0.00000000000E+00 -0.43840823898E+03  0.30365138368E+04  0.30046987365E+04 0.  0.
        5    1    3    3  502    0  0.87858765060E+03  0.14575590603E+03 -0.14419202965E+04  0.16947912188E+04  0.46999998093E+01 0. -1.
       -5    1    3    3    0  502 -0.87858765060E+03 -0.14575590603E+03  0.10035120575E+04  0.13417226180E+04  0.46999998093E+01 0.  1.
</event>
<event>
 5   0  0.5887179E-07  0.2991459E+04  0.7818609E-02  0.8246174E-01
       -1   -1    0    0    0  501  0.00000000000E+00  0.00000000000E+00  0.10540390046E+04  0.10540390046E+04  0.50400001928E-02 0. -1.
        1   -1    0    0  501    0  0.00000000000E+00  0.00000000000E+00 -0.21225088423E+04  0.21225088423E+04  0.50400001928E-02 0.  1.
    10030    2    1    2    0    0  0.00000000000E+00  0.00000000000E+00 -0.10684698377E+04  0.31765478469E+04  0.29914592475E+04 0.  0.
        3    1    3    3  502    0  0.93042409996E+03  0.48230073021E+03  0.59898940578E+03  0.12071003763E+04  0.10100000352E+00 0. -1.
       -3    1    3    3    0  502 -0.93042409996E+03 -0.48230073021E+03 -0.16674592435E+04  0.19694474705E+04  0.10100000352E+00 0.  1.
</event>
<event>
 5   0  0.5431625E-07  0.3005879E+04  0.7818609E-02  0.8242054E-01
        3   -1    0    0  501    0  0.00000000000E+00  0.00000000000E+00  0.14475560208E+04  0.14475560244E+04  0.10100000352E+00 0.  1.
       -3   -1    0    0    0  501  0.00000000000E+00  0.00000000000E+00 -0.15604418428E+04  0.15604418460E+04  0.10100000352E+00 0. -1.
    10030    2    1    2    0    0  0.00000000000E+00  0.00000000000E+00 -0.11288582193E+03  0.30079978704E+04  0.30058789030E+04 0.  0.
        1    1    3    3  502    0 -0.99468372613E+03  0.32629080527E+03  0.10227261270E+04  0.14634992776E+04  0.50400001928E-02 0.  1.
       -1    1    3    3    0  502  0.99468372613E+03 -0.32629080527E+03 -0.11356119489E+04  0.15444985928E+04  0.50400001928E-02 0. -1.
</event>
<event>
 5   0  0.5887179E-07  0.2991723E+04  0.7818609E-02  0.8246098E-01
        1   -1    0    0  501    0  0.00000000000E+00  0.00000000000E+00  0.15389030351E+04  0.15389030351E+04  0.50400001928E-02 0. -1.
       -1   -1    0    0    0  501  0.00000000000E+00  0.00000000000E+00 -0.14540234790E+04  0.14540234790E+04  0.50400001928E-02 0.  1.
    10030    2    1    2    0    0  0.00000000000E+00  0.00000000000E+00  0.84879556148E+02  0.29929265141E+04  0.29917226776E+04 0.  0.
        3    1    3    3  502    0 -0.11777769499E+04  0.70443476811E+03 -0.55295871847E+03  0.14795777238E+04  0.10100000352E+00 0.  1.
       -3    1    3    3    0  502  0.11777769499E+04 -0.70443476811E+03  0.63783827462E+03  0.15133487903E+04  0.10100000352E+00 0. -1.
</event>
<event>
 5   0  0.1723916E-06  0.2983735E+04  0.7818609E-02  0.8248391E-01
       -2   -1    0    0    0  501  0.00000000000E+00  0.00000000000E+00  0.97968065155E+03  0.97968065156E+03  0.25500000920E-02 0. -1.
        2   -1    0    0  501    0  0.00000000000E+00  0.00000000000E+00 -0.22718307804E+04  0.22718307804E+04  0.25500000920E-02 0.  1.
    10030    2    1    2    0    0  0.00000000000E+00  0.00000000000E+00 -0.12921501288E+04  0.32515114319E+04  0.29837350145E+04 0.  0.
        1    1    3    3  502    0  0.12306468562E+04  0.72923574212E+03 -0.18451649281E+03  0.14423324126E+04  0.50400001928E-02 0. -1.
       -1    1    3    3    0  502 -0.12306468562E+04 -0.72923574212E+03 -0.11076336360E+04  0.18091790193E+04  0.50400001928E-02 0.  1.
</event>
<event>
 5   0  0.5931588E-07  0.2998608E+04  0.7818609E-02  0.8244129E-01
       -1   -1    0    0    0  501  0.00000000000E+00  0.00000000000E+00  0.11761603680E+04  0.11761603680E+04  0.50400001928E-02 0.  1.
        1   -1    0    0  501    0  0.00000000000E+00  0.00000000000E+00 -0.19112294360E+04  0.19112294360E+04  0.50400001928E-02 0. -1.
    10030    2    1    2    0    0  0.00000000000E+00  0.00000000000E+00 -0.73506906805E+03  0.30873898040E+04  0.29986078881E+04 0.  0.
        2    1    3    3  502    0 -0.13854563217E+04 -0.57170579632E+03 -0.40840334234E+03  0.15534252563E+04  0.25500000920E-02 0.  1.
       -2    1    3    3    0  502  0.13854563217E+04  0.57170579632E+03 -0.32666572570E+03  0.15339645476E+04  0.25500000920E-02 0. -1.
</event>
<event>
 5   0  0.5887179E-07  0.2995373E+04  0.7818609E-02  0.8245053E-01
       -1   -1    0    0    0  501  0.00000000000E+00  0.00000000000E+00  0.16140223454E+04  0.16140223454E+04  0.50400001928E-02 0.  1.
        1   -1    0    0  501    0  0.00000000000E+00  0.00000000000E+00 -0.13897355728E+04  0.13897355729E+04  0.50400001928E-02 0. -1.
    10030    2    1    2    0    0  0.00000000000E+00  0.00000000000E+00  0.22428677257E+03  0.30037579183E+04  0.29953726104E+04 0.  0.
        3    1    3    3  502    0 -0.10230464316E+04 -0.42402089972E+03  0.11232549250E+04  0.15773773681E+04  0.10100000352E+00 0.  1.
       -3    1    3    3    0  502  0.10230464316E+04  0.42402089972E+03 -0.89896815244E+03  0.14263805502E+04  0.10100000352E+00 0. -1.
</event>
<event>
 5   0  0.5931588E-07  0.3000647E+04  0.7818609E-02  0.8243546E-01
       -1   -1    0    0    0  501  0.00000000000E+00  0.00000000000E+00  0.11967651008E+04  0.11967651008E+04  0.50400001928E-02 0. -1.
        1   -1    0    0  501    0  0.00000000000E+00  0.00000000000E+00 -0.18808798041E+04  0.18808798041E+04  0.50400001928E-02 0.  1.
    10030    2    1    2    0    0  0.00000000000E+00  0.00000000000E+00 -0.68411470335E+03  0.30776449049E+04  0.30006474690E+04 0.  0.
        2    1    3    3  502    0 -0.11191905728E+04  0.27963066864E+03 -0.13259379525E+04  0.17575244815E+04  0.25500000920E-02 0.  1.
       -2    1    3    3    0  502  0.11191905728E+04 -0.27963066864E+03  0.64182324919E+03  0.13201204234E+04  0.25500000920E-02 0. -1.
</event>
<event>
 5   0  0.5887179E-07  0.3015539E+04  0.7818609E-02  0.8239307E-01
        1   -1    0    0  501    0  0.00000000000E+00  0.00000000000E+00  0.19604083930E+04  0.19604083930E+04  0.50400001928E-02 0. -1.
       -1   -1    0    0    0  501  0.00000000000E+00  0.00000000000E+00 -0.11596406818E+04  0.11596406818E+04  0.50400001928E-02 0.  1.
    10030    2    1    2    0    0  0.00000000000E+00  0.00000000000E+00  0.80076771119E+03  0.31200490747E+04  0.30155393053E+04 0.  0.
        3    1    3    3  502    0 -0.88122190844E+02 -0.15814003117E+03  0.19491226018E+04  0.19575118689E+04  0.10100000352E+00 0. -1.
       -3    1    3    3    0  502  0.88122190844E+02  0.15814003117E+03 -0.11483548906E+04  0.11625372058E+04  0.10100000352E+00 0.  1.
</event>
<event>
 5   0  0.1560174E-06  0.2951196E+04  0.7818609E-02  0.8257806E-01
        2   -1    0    0  501    0  0.00000000000E+00  0.00000000000E+00  0.22616447761E+04  0.22616447761E+04  0.25500000920E-02 0. -1.
       -2   -1    0    0    0  501  0.00000000000E+00  0.00000000000E+00 -0.96274624421E+03  0.96274624421E+03  0.25500000920E-02 0.  1.
    10030    2    1    2    0    0  0.00000000000E+00  0.00000000000E+00  0.12988985319E+04  0.32243910203E+04  0.29511963770E+04 0.  0.
        5    1    3    3  502    0 -0.70446798959E+03  0.23403025115E+03  0.20427759188E+04  0.21734766738E+04  0.46999998093E+01 0. -1.
       -5    1    3    3    0  502  0.70446798959E+03 -0.23403025115E+03 -0.74387738699E+03  0.10509143465E+04  0.46999998093E+01 0.  1.
</event>
<event>
 5   0  0.1723916E-06  0.3005185E+04  0.7818609E-02  0.8242252E-01
        2   -1    0    0  501    0  0.00000000000E+00  0.00000000000E+00  0.12125160359E+04  0.12125160359E+04  0.25500000920E-02 0. -1.
       -2   -1    0    0    0  501  0.00000000000E+00  0.00000000000E+00 -0.18620650910E+04  0.18620650910E+04  0.25500000920E-02 0.  1.
    10030    2    1    2    0    0  0.00000000000E+00  0.00000000000E+00 -0.64954905502E+03  0.30745811269E+04  0.30051847083E+04 0.  0.
        1    1    3    3  502    0  0.10705458533E+04 -0.92961580964E+03  0.18423807692E+03  0.14297544008E+04  0.50400001928E-02 0.  1.
       -1    1    3    3    0  502 -0.10705458533E+04  0.92961580964E+03 -0.83378713193E+03  0.16448267261E+04  0.50400001928E-02 0. -1.
</event>
<event>
 5   0  0.6291798E-07  0.2909636E+04  0.7818609E-02  0.8270016E-01
       -1   -1    0    0    0  501  0.00000000000E+00  0.00000000000E+00  0.89069093732E+03  0.89069093734E+03  0.50400001928E-02 0. -1.
        1   -1    0    0  501    0  0.00000000000E+00  0.00000000000E+00 -0.23762391671E+04  0.23762391671E+04  0.50400001928E-02 0.  1.
    10030    2    1    2    0    0  0.00000000000E+00  0.00000000000E+00 -0.14855482298E+04  0.32669301045E+04  0.29096355037E+04 0.  0.
        1    1    3    3  502    0 -0.14247313245E+04  0.29433737930E+03 -0.74173825783E+03  0.16329940242E+04  0.50400001928E-02 0.  1.
       -1    1    3    3    0  502  0.14247313245E+04 -0.29433737930E+03 -0.74380997196E+03  0.16339360803E+04  0.50400001928E-02 0. -1.
</event>
<event>
 5   0  0.1674806E-06  0.3008467E+04  0.7818609E-02  0.8241317E-01
        2   -1    0    0  501    0  0.00000000000E+00  0.00000000000E+00  0.17717335309E+04  0.17717335309E+04  0.25500000920E-02 0. -1.
       -2   -1    0    0    0  501  0.00000000000E+00  0.00000000000E+00 -0.12771213203E+04  0.12771213203E+04  0.25500000920E-02 0.  1.
    10030    2    1    2    0    0  0.00000000000E+00  0.00000000000E+00  0.49461221066E+03  0.30488548512E+04  0.30084671620E+04 0.  0.
        2    1    3    3  502    0  0.10774163618E+04  0.68549241567E+03  0.10529581954E+04  0.16551274362E+04  0.25500000920E-02 0. -1.
       -2    1    3    3    0  502 -0.10774163618E+04 -0.68549241567E+03 -0.55834598478E+03  0.13937274150E+04  0.25500000920E-02 0.  1.
</event>
<event>
 5   0  0.1560174E-06  0.2995605E+04  0.7818609E-02  0.8244987E-01
       -2   -1    0    0    0  501  0.00000000000E+00  0.00000000000E+00  0.84252771778E+03  0.84252771778E+03  0.25500000920E-02 0.  1.
        2   -1    0    0  501    0  0.00000000000E+00  0.00000000000E+00 -0.26627167779E+04  0.26627167779E+04  0.25500000920E-02 0. -1.
    10030    2    1    2    0    0  0.00000000000E+00  0.00000000000E+00 -0.18201890602E+04  0.35052444957E+04  0.29956052410E+04 0.  0.
        5    1    3    3  502    0 -0.12744888138E+04  0.72175163908E+03 -0.54351824862E+03  0.15622680121E+04  0.46999998093E+01 0.  1.
       -5    1    3    3    0  502  0.12744888138E+04 -0.72175163908E+03 -0.12766708115E+04  0.19429764836E+04  0.46999998093E+01 0. -1.
</event>
<event>
 5   0  0.5931588E-07  0.2989252E+04  0.7818609E-02  0.8246807E-01
        1   -1    0    0  501    0  0.00000000000E+00  0.00000000000E+00  0.12716715745E+04  0.12716715745E+04  0.50400001928E-02 0. -1.
       -1   -1    0    0    0  501  0.00000000000E+00  0.00000000000E+00 -0.17566701130E+04  0.17566701131E+04  0.50400001928E-02 0.  1.
    10030    2    1    2    0    0  0.00000000000E+00  0.00000000000E+00 -0.48499853851E+03  0.30283416876E+04  0.29892523805E+04 0.  0.
        2    1    3    3  502    0 -0.14058989814E+04  0.49277509149E+03 -0.12039007257E+03  0.14946146682E+04  0.25500000920E-02 0. -1.
       -2    1    3    3    0  502  0.14058989814E+04 -0.49277509149E+03 -0.36460846594E+03  0.15337270194E+04  0.25500000920E-02 0.  1.
</event>
<event>
 5   0  0.1674806E-06  0.3005927E+04  0.7818609E-02  0.8242040E-01
        2   -1    0    0  501    0  0.00000000000E+00  0.00000000000E+00  0.25576849735E+04  0.25576849735E+04  0.25500000920E-02 0.  1.
       -2   -1    0    0    0  501  0.00000000000E+00  0.00000000000E+00 -0.88318103952E+03  0.88318103953E+03  0.25500000920E-02 0. -1.
    10030    2    1    2    0    0  0.00000000000E+00  0.00000000000E+00  0.16745039340E+04  0.34408660130E+04  0.30059267281E+04 0.  0.
        2    1    3    3  502    0 -0.11964838421E+04  0.54860730104E+03  0.67725383499E+01  0.13162786265E+04  0.25500000920E-02 0.  1.
       -2    1    3    3    0  502  0.11964838421E+04 -0.54860730104E+03  0.16677313956E+04  0.21245873866E+04  0.25500000920E-02 0. -1.
</event>
<event>
 5   0  0.1635086E-06  0.2998454E+04  0.7818609E-02  0.8244172E-01
       -2   -1    0    0    0  501  0.00000000000E+00  0.00000000000E+00  0.18863268651E+04  0.18863268651E+04  0.25500000920E-02 0. -1.
        2   -1    0    0  501    0  0.00000000000E+00  0.00000000000E+00 -0.11915656519E+04  0.11915656519E+04  0.25500000920E-02 0.  1.
    10030    2    1    2    0    0  0.00000000000E+00  0.00000000000E+00  0.69476121314E+03  0.30778925170E+04  0.29984544691E+04 0.  0.
        3    1    3    3  502    0  0.64985059590E+03  0.35414317966E+03  0.16857476314E+04  0.18410508618E+04  0.10100000352E+00 0. -1.
       -3    1    3    3    0  502 -0.64985059590E+03 -0.35414317966E+03 -0.99098641828E+03  0.12368416552E+04  0.10100000352E+00 0.  1.
</event>
<event>
 5   0  0.5431625E-07  0.2996094E+04  0.7818609E-02  0.8244847E-01
        3   -1    0    0  501    0  0.00000000000E+00  0.00000000000E+00  0.12351735151E+04  0.12351735193E+04  0.10100000352E+00 0.  1.
       -3   -1    0    0    0  501  0.00000000000E+00  0.00000000000E+00 -0.18168664355E+04  0.18168664383E+04  0.10100000352E+00 0. -1.
    10030    2    1    2    0    0  0.00000000000E+00  0.00000000000E+00 -0.58169292039E+03  0.30520399576E+04  0.29960943325E+04 0.  0.
        2    1    3    3  502    0  0.16766933229E+02  0.73943722662E+03  0.10362058291E+04  0.12730950720E+04  0.25500000920E-02 0.  1.
       -2    1    3    3    0  502 -0.16766933229E+02 -0.73943722662E+03 -0.16178987495E+04  0.17789448856E+04  0.25500000920E-02 0. -1.
</event>
<event>
 5   0  0.5916703E-07  0.2995626E+04  0.7818609E-02  0.8244981E-01
        1   -1    0    0  501    0  0.00000000000E+00  0.00000000000E+00  0.19603487703E+04  0.19603487703E+04  0.50400001928E-02 0. -1.
       -1   -1    0    0    0  501  0.00000000000E+00  0.00000000000E+00 -0.11444108405E+04  0.11444108405E+04  0.50400001928E-02 0.  1.
    10030    2    1    2    0    0  0.00000000000E+00  0.00000000000E+00  0.81593792979E+03  0.31047596108E+04  0.29956264012E+04 0.  0.
        5    1    3    3  502    0  0.59616608759E+03  0.53149567233E+03 -0.90528365903E+03  0.12072540110E+04  0.46999998093E+01 0.  1.
       -5    1    3    3    0  502 -0.59616608759E+03 -0.53149567233E+03  0.17212215888E+04  0.18975055999E+04  0.46999998093E+01 0. -1.
</event>
<event>
 5   0  0.1723916E-06  0.2981047E+04  0.7818609E-02  0.8249164E-01
       -2   -1    0    0    0  501  0.00000000000E+00  0.00000000000E+00  0.78086822916E+03  0.78086822916E+03  0.25500000920E-02 0. -1.
        2   -1    0    0  501    0  0.00000000000E+00  0.00000000000E+00 -0.28451158428E+04  0.28451158428E+04  0.25500000920E-02 0.  1.
    10030    2    1    2    0    0  0.00000000000E+00  0.00000000000E+00 -0.20642476137E+04  0.36259840720E+04  0.29810471784E+04 0.  0.
        1    1    3    3  502    0 -0.22311164467E+03  0.12868185269E+04 -0.19058460874E+04  0.23103960777E+04  0.50400001928E-02 0.  1.
       -1    1    3    3    0  502  0.22311164467E+03 -0.12868185269E+04 -0.15840152625E+03  0.13155879942E+04  0.50400001928E-02 0. -1.
</event>
<event>
 5   0  0.5874741E-07  0.2984233E+04  0.7818609E-02  0.8248248E-01
       -1   -1    0    0    0  501  0.00000000000E+00  0.00000000000E+00  0.10761030190E+04  0.10761030190E+04  0.50400001928E-02 0. -1.
        1   -1    0    0  501    0  0.00000000000E+00  0.00000000000E+00 -0.20689572035E+04  0.20689572035E+04  0.50400001928E-02 0.  1.
    10030    2    1    2    0    0  0.00000000000E+00  0.00000000000E+00 -0.99285418447E+03  0.31450602226E+04  0.29842326270E+04 0.  0.
        4    1    3    3  502    0 -0.12972849700E+04 -0.64605899712E+03 -0.87062415565E+03  0.16906592070E+04  0.12699999809E+01 0.  1.
       -4    1    3    3    0  502  0.12972849700E+04  0.64605899712E+03 -0.12223002882E+03  0.14544010155E+04  0.12699999809E+01 0. -1.
</event>
<event>
 5   0  0.5931588E-07  0.2995752E+04  0.7818609E-02  0.8244945E-01
        1   -1    0    0  501    0  0.00000000000E+00  0.00000000000E+00  0.17199700933E+04  0.17199700933E+04  0.50400001928E-02 0.  1.
       -1   -1    0    0    0  501  0.00000000000E+00  0.00000000000E+00 -0.13044600817E+04  0.13044600817E+04  0.50400001928E-02 0. -1.
    10030    2    1    2    0    0  0.00000000000E+00  0.00000000000E+00  0.41551001163E+03  0.30244301750E+04  0.29957518779E+04 0.  0.
        2    1    3    3  502    0  0.37440498597E+03  0.88775348259E+03 -0.95010989671E+03  0.13531423263E+04  0.25500000920E-02 0. -1.
       -2    1    3    3    0  502 -0.37440498597E+03 -0.88775348259E+03  0.13656199083E+04  0.16712878488E+04  0.25500000920E-02 0.  1.
</event>
<event>
 5   0  0.1625212E-06  0.2999979E+04  0.7818609E-02  0.8243737E-01
        2   -1    0    0  501    0  0.00000000000E+00  0.00000000000E+00  0.19575801295E+04  0.19575801295E+04  0.25500000920E-02 0.  1.
       -2   -1    0    0    0  501  0.00000000000E+00  0.00000000000E+00 -0.11493622095E+04  0.11493622095E+04  0.25500000920E-02 0. -1.
    10030    2    1    2    0    0  0.00000000000E+00  0.00000000000E+00  0.80821791997E+03  0.31069423389E+04  0.29999790818E+04 0.  0.
        4    1    3    3  502    0 -0.13589315842E+04  0.21201152758E+03  0.10240528056E+04  0.17147389597E+04  0.12699999809E+01 0.  1.
       -4    1    3    3    0  502  0.13589315842E+04 -0.21201152758E+03 -0.21583488560E+03  0.13922033792E+04  0.12699999809E+01 0. -1.
</event>
<event>
 5   0  0.1674806E-06  0.2985751E+04  0.7818609E-02  0.8247811E-01
       -2   -1    0    0    0  501  0.00000000000E+00  0.00000000000E+00  0.13292945900E+04  0.13292945900E+04  0.25500000920E-02 0.  1.
        2   -1    0    0  501    0  0.00000000000E+00  0.00000000000E+00 -0.16765869440E+04  0.16765869440E+04  0.25500000920E-02 0. -1.
    10030    2    1    2    0    0  0.00000000000E+00  0.00000000000E+00 -0.34729235403E+03  0.30058815340E+04  0.29857514661E+04 0.  0.
        2    1    3    3  502    0 -0.14593237109E+03  0.13760076691E+04 -0.73776731658E+03  0.15681179725E+04  0.25500000920E-02 0. -1.
       -2    1    3    3    0  502  0.14593237109E+03 -0.13760076691E+04  0.39047496256E+03  0.14377635615E+04  0.25500000920E-02 0.  1.
</event>
<event>
 5   0  0.1635086E-06  0.2946114E+04  0.7818609E-02  0.8259288E-01
        2   -1    0    0  501    0  0.00000000000E+00  0.00000000000E+00  0.16864347931E+04  0.16864347931E+04  0.25500000920E-02 0. -1.
       -2   -1    0    0    0  501  0.00000000000E+00  0.00000000000E+00 -0.12866773088E+04  0.12866773088E+04  0.25500000920E-02 0.  1.
    10030    2    1    2    0    0  0.00000000000E+00  0.00000000000E+00  0.39975748428E+03  0.29731121019E+04  0.29461143094E+04 0.  0.
        3    1    3    3  502    0  0.29704513792E+03 -0.18286204128E+02  0.16557798221E+04  0.16823129996E+04  0.10100000352E+00 0. -1.
       -3    1    3    3    0  502 -0.29704513792E+03  0.18286204128E+02 -0.12560223378E+04  0.12907991023E+04  0.10100000352E+00 0.  1.
</event>
<event>
 5   0  0.5931588E-07  0.2872592E+04  0.7818609E-02  0.8281079E-01
       -1   -1    0    0    0  501  0.00000000000E+00  0.00000000000E+00  0.12633902988E+04  0.12633902989E+04  0.50400001928E-02 0.  1.
        1   -1    0    0  501    0  0.00000000000E+00  0.00000000000E+00 -0.16328650501E+04  0.16328650501E+04  0.50400001928E-02 0. -1.
    10030    2    1    2    0    0  0.00000000000E+00  0.00000000000E+00 -0.36947475123E+03  0.28962553489E+04  0.28725917661E+04 0.  0.
        2    1    3    3  502    0  0.14348641420E+04  0.17955610617E+02 -0.24679400641E+03  0.14560442272E+04  0.25500000920E-02 0.  1.
       -2    1    3    3    0  502 -0.14348641420E+04 -0.17955610617E+02 -0.12268074483E+03  0.14402111217E+04  0.25500000920E-02 0. -1.
</event>
<event>
 5   0  0.1625212E-06  0.3005854E+04  0.7818609E-02  0.8242061E-01
        2   -1    0    0  501    0  0.00000000000E+00  0.00000000000E+00  0.19963312593E+04  0.19963312593E+04  0.25500000920E-02 0.  1.
       -2   -1    0    0    0  501  0.00000000000E+00  0.00000000000E+00 -0.11314701146E+04  0.11314701146E+04  0.25500000920E-02 0. -1.
    10030    2    1    2    0    0  0.00000000000E+00  0.00000000000E+00  0.86486114471E+03  0.31278013739E+04  0.30058537281E+04 0.  0.
        4    1    3    3  502    0 -0.51281303314E+03 -0.71851994345E+03 -0.83328054544E+03  0.12139218247E+04  0.12699999809E+01 0. -1.
       -4    1    3    3    0  502  0.51281303314E+03  0.71851994345E+03  0.16981416902E+04  0.19138795492E+04  0.12699999809E+01 0.  1.
</event>
<event>
 5   0  0.1635086E-06  0.2993618E+04  0.7818609E-02  0.8245556E-01
        2   -1    0    0  501    0  0.00000000000E+00  0.00000000000E+00  0.13523852793E+04  0.13523852793E+04  0.25500000920E-02 0. -1.
       -2   -1    0    0    0  501  0.00000000000E+00  0.00000000000E+00 -0.16566555630E+04  0.16566555630E+04  0.25500000920E-02 0.  1.
    10030    2    1    2    0    0  0.00000000000E+00  0.00000000000E+00 -0.30427028367E+03  0.30090408424E+04  0.29936176084E+04 0.  0.
        3    1    3    3  502    0 -0.10517529074E+04  0.21810236627E+03 -0.11999470925E+04  0.16104737984E+04  0.10100000352E+00 0.  1.
       -3    1    3    3    0  502  0.10517529074E+04 -0.21810236627E+03  0.89567680883E+03  0.13985670440E+04  0.10100000352E+00 0. -1.
</event>
<event>
 5   0  0.5887179E-07  0.3001565E+04  0.7818609E-02  0.8243284E-01
        1   -1    0    0  501    0  0.00000000000E+00  0.00000000000E+00  0.16229075454E+04  0.16229075454E+04  0.50400001928E-02 0. -1.
       -1   -1    0    0    0  501  0.00000000000E+00  0.00000000000E+00 -0.13878476000E+04  0.13878476000E+04  0.50400001928E-02 0.  1.
    10030    2    1    2    0    0  0.00000000000E+00  0.00000000000E+00  0.23505994536E+03  0.30107551455E+04  0.30015651530E+04 0.  0.
        3    1    3    3  502    0  0.14216845183E+04 -0.16686236549E+02  0.59950403900E+03  0.15430069355E+04  0.10100000352E+00 0. -1.
       -3    1    3    3    0  502 -0.14216845183E+04  0.16686236549E+02 -0.36444409364E+03  0.14677482099E+04  0.10100000352E+00 0.  1.
</event>
<event>
 5   0  0.1635086E-06  0.2993974E+04  0.7818609E-02  0.8245454E-01
       -2   -1    0    0    0  501  0.00000000000E+00  0.00000000000E+00  0.90293388631E+03  0.90293388631E+03  0.25500000920E-02 0. -1.
        2   -1    0    0  501    0  0.00000000000E+00  0.00000000000E+00 -0.24818757653E+04  0.24818757653E+04  0.25500000920E-02 0.  1.
    10030    2    1    2    0    0  0.00000000000E+00  0.00000000000E+00 -0.15789418790E+04  0.33848096516E+04  0.29939737675E+04 0.  0.
        3    1    3    3  502    0  0.18308551105E+03  0.14555920820E+04 -0.45276499925E+03  0.15353386494E+04  0.10100000352E+00 0. -1.
       -3    1    3    3    0  502 -0.18308551105E+03 -0.14555920820E+04 -0.11261768797E+04  0.18494710022E+04  0.10100000352E+00 0.  1.
</event>
<event>
 5   0  0.5931588E-07  0.3008271E+04  0.7818609E-02  0.8241373E-01
        1   -1    0    0  501    0  0.00000000000E+00  0.00000000000E+00  0.10969690224E+04  0.10969690224E+04  0.50400001928E-02 0. -1.
       -1   -1    0    0    0  501  0.00000000000E+00  0.00000000000E+00 -0.20624309965E+04  0.20624309965E+04  0.50400001928E-02 0.  1.
    10030    2    1    2    0    0  0.00000000000E+00  0.00000000000E+00 -0.96546197414E+03  0.31594000189E+04  0.30082705424E+04 0.  0.
        2    1    3    3  502    0 -0.85657355018E+03 -0.41299641929E+03 -0.17066699931E+04  0.19537161397E+04  0.25500000920E-02 0.  1.
       -2    1    3    3    0  502  0.85657355018E+03  0.41299641929E+03  0.74120801895E+03  0.12056838792E+04  0.25500000920E-02 0. -1.
</event>
<event>
 5   0  0.6291798E-07  0.3004251E+04  0.7818609E-02  0.8242518E-01
        1   -1    0    0  501    0  0.00000000000E+00  0.00000000000E+00  0.16591352439E+04  0.16591352440E+04  0.50400001928E-02 0.  1.
       -1   -1    0    0    0  501  0.00000000000E+00  0.00000000000E+00 -0.13599743570E+04  0.13599743570E+04  0.50400001928E-02 0. -1.
    10030    2    1    2    0    0  0.00000000000E+00  0.00000000000E+00  0.29916088694E+03  0.30191096010E+04  0.30042512456E+04 0.  0.
        1    1    3    3  502    0 -0.11943866260E+04  0.89482872180E+03 -0.21860869563E+02  0.14925668332E+04  0.50400001928E-02 0. -1.
       -1    1    3    3    0  502  0.11943866260E+04 -0.89482872180E+03  0.32102175650E+03  0.15265427678E+04  0.50400001928E-02 0.  1.
</event>
<event>
 5   0  0.1625212E-06  0.2997038E+04  0.7818609E-02  0.8244577E-01
       -2   -1    0    0    0  501  0.00000000000E+00  0.00000000000E+00  0.90266043556E+03  0.90266043557E+03  0.25500000920E-02 0. -1.
        2   -1    0    0  501    0  0.00000000000E+00  0.00000000000E+00 -0.24877125730E+04  0.24877125730E+04  0.25500000920E-02 0.  1.
    10030    2    1    2    0    0  0.00000000000E+00  0.00000000000E+00 -0.15850521374E+04  0.33903730086E+04  0.29970383479E+04 0.  0.
        4    1    3    3  502    0  0.46445197957E+03 -0.52097972952E+03  0.70756217741E+03  0.99387190709E+03  0.12699999809E+01 0. -1.
       -4    1    3    3    0  502 -0.46445197957E+03  0.52097972952E+03 -0.22926143148E+04  0.23965011015E+04  0.12699999809E+01 0.  1.
</event>
<event>
 5   0  0.1625212E-06  0.2991539E+04  0.7818609E-02  0.8246151E-01
       -2   -1    0    0    0  501  0.00000000000E+00  0.00000000000E+00  0.15964774169E+04  0.15964774169E+04  0.25500000920E-02 0. -1.
        2   -1    0    0  501    0  0.00000000000E+00  0.00000000000E+00 -0.14014147371E+04  0.14014147371E+04  0.25500000920E-02 0.  1.
    10030    2    1    2    0    0  0.00000000000E+00  0.00000000000E+00  0.19506267983E+03  0.29978921539E+04  0.29915393893E+04 0.  0.
        4    1    3    3  502    0 -0.48596806845E+03 -0.10832708877E+04  0.10092350327E+04  0.15582675457E+04  0.12699999809E+01 0. -1.
       -4    1    3    3    0  502  0.48596806845E+03  0.10832708877E+04 -0.81417235290E+03  0.14396246083E+04  0.12699999809E+01 0.  1.
</event>
<event>
 5   0  0.1625212E-06  0.2991201E+04  0.7818609E-02  0.8246248E-01
        2   -1    0    0  501    0  0.00000000000E+00  0.00000000000E+00  0.21841714526E+04  0.21841714526E+04  0.25500000920E-02 0.  1.
       -2   -1    0    0    0  501  0.00000000000E+00  0.00000000000E+00 -0.10241053003E+04  0.10241053003E+04  0.25500000920E-02 0. -1.
    10030    2    1    2    0    0  0.00000000000E+00  0.00000000000E+00  0.11600661523E+04  0.32082767529E+04  0.29912014719E+04 0.  0.
        4    1    3    3  502    0  0.20111479751E+02 -0.81965019560E+03  0.19216431157E+04  0.20892450291E+04  0.12699999809E+01 0.  1.
       -4    1    3    3    0  502 -0.20111479751E+02  0.81965019560E+03 -0.76157696341E+03  0.11190317238E+04  0.12699999809E+01 0. -1.
</event>
<event>
 5   0  0.6291798E-07  0.2998522E+04  0.7818609E-02  0.8244153E-01
        1   -1    0    0  501    0  0.00000000000E+00  0.00000000000E+00  0.13330671484E+04  0.13330671484E+04  0.50400001928E-02 0.  1.
       -1   -1    0    0    0  501  0.00000000000E+00  0.00000000000E+00 -0.16861744577E+04  0.16861744577E+04  0.50400001928E-02 0. -1.
    10030    2    1    2    0    0  0.00000000000E+00  0.00000000000E+00 -0.35310730934E+03  0.30192416061E+04  0.29985221533E+04 0.  0.
        1    1    3    3  502    0 -0.38177006411E+03 -0.11560623585E+03  0.12786560483E+04  0.13394306527E+04  0.50400001928E-02 0.  1.
       -1    1    3    3    0  502  0.38177006411E+03  0.11560623585E+03 -0.16317633576E+04  0.16798109533E+04  0.50400001928E-02 0. -1.
</event>
<event>
 5   0  0.1635086E-06  0.2994319E+04  0.7818609E-02  0.8245355E-01
       -2   -1    0    0    0  501  0.00000000000E+00  0.00000000000E+00  0.13023494266E+04  0.13023494266E+04  0.25500000920E-02 0. -1.
        2   -1    0    0  501    0  0.00000000000E+00  0.00000000000E+00 -0.17211098102E+04  0.17211098102E+04  0.25500000920E-02 0.  1.
    10030    2    1    2    0    0  0.00000000000E+00  0.00000000000E+00 -0.41876038361E+03  0.30234592368E+04  0.29943188704E+04 0.  0.
        3    1    3    3  502    0 -0.10931082198E+04  0.40270583696E+03 -0.11589731968E+04  0.16432517921E+04  0.10100000352E+00 0.  1.
       -3    1    3    3    0  502  0.10931082198E+04 -0.40270583696E+03  0.74021281320E+03  0.13802074446E+04  0.10100000352E+00 0. -1.
</event>
<event>
 5   0  0.1723916E-06  0.2997800E+04  0.7818609E-02  0.8244359E-01
        2   -1    0    0  501    0  0.00000000000E+00  0.00000000000E+00  0.96499502030E+03  0.96499502031E+03  0.25500000920E-02 0. -1.
       -2   -1    0    0    0  501  0.00000000000E+00  0.00000000000E+00 -0.23282000428E+04  0.23282000428E+04  0.25500000920E-02 0.  1.
    10030    2    1    2    0    0  0.00000000000E+00  0.00000000000E+00 -0.13632050225E+04  0.32931950631E+04  0.29978001585E+04 0.  0.
        1    1    3    3  502    0  0.30273919417E+03 -0.10083550501E+04  0.49042423258E+03  0.11614417139E+04  0.50400001928E-02 0. -1.
       -1    1    3    3    0  502 -0.30273919417E+03  0.10083550501E+04 -0.18536292551E+04  0.21317533493E+04  0.50400001928E-02 0.  1.
</event>
<event>
 5   0  0.5931588E-07  0.3002742E+04  0.7818609E-02  0.8242948E-01
        1   -1    0    0  501    0  0.00000000000E+00  0.00000000000E+00  0.19445596604E+04  0.19445596604E+04  0.50400001928E-02 0. -1.
       -1   -1    0    0    0  501  0.00000000000E+00  0.00000000000E+00 -0.11591906058E+04  0.11591906058E+04  0.50400001928E-02 0.  1.
    10030    2    1    2    0    0  0.00000000000E+00  0.00000000000E+00  0.78536905465E+03  0.31037502662E+04  0.30027422738E+04 0.  0.
        2    1    3    3  502    0 -0.59270141801E+03 -0.26738705759E+03  0.17914708019E+04  0.19058222486E+04  0.25500000920E-02 0. -1.
       -2    1    3    3    0  502  0.59270141801E+03  0.26738705759E+03 -0.10061017472E+04  0.11979280175E+04  0.25500000920E-02 0.  1.
</event>
<event>
 5   0  0.6291798E-07  0.2994444E+04  0.7818609E-02  0.8245319E-01
       -1   -1    0    0    0  501  0.00000000000E+00  0.00000000000E+00  0.83939576625E+03  0.83939576626E+03  0.50400001928E-02 0. -1.
        1   -1    0    0  501    0  0.00000000000E+00  0.00000000000E+00 -0.26705798763E+04  0.26705798763E+04  0.50400001928E-02 0.  1.
    10030    2    1    2    0    0  0.00000000000E+00  0.00000000000E+00 -0.18311841101E+04  0.35099756426E+04  0.29944438159E+04 0.  0.
        1    1    3    3  502    0  0.82289002743E+03  0.53242498900E+03 -0.22422862152E+04  0.24471354349E+04  0.50400001928E-02 0.  1.
       -1    1    3    3    0  502 -0.82289002743E+03 -0.53242498900E+03  0.41110210510E+03  0.10628402076E+04  0.50400001928E-02 0. -1.
</event>
<event>
 5   0  0.5931588E-07  0.3085055E+04  0.7818609E-02  0.8219851E-01
       -1   -1    0    0    0  501  0.00000000000E+00  0.00000000000E+00  0.13616076100E+04  0.13616076100E+04  0.50400001928E-02 0.  1.
        1   -1    0    0  501    0  0.00000000000E+00  0.00000000000E+00 -0.17474867010E+04  0.17474867011E+04  0.50400001928E-02 0. -1.
    10030    2    1    2    0    0  0.00000000000E+00  0.00000000000E+00 -0.38587909104E+03  0.31090943111E+04  0.30850550663E+04 0.  0.
        2    1    3    3  502    0 -0.63135950200E+03 -0.12351168970E+04  0.48704958831E+03  0.14701516491E+04  0.25500000920E-02 0.  1.
       -2    1    3    3    0  502  0.63135950200E+03  0.12351168970E+04 -0.87292867935E+03  0.16389426619E+04  0.25500000920E-02 0. -1.
</event>
<event>
 5   0  0.1635086E-06  0.3004795E+04  0.7818609E-02  0.8242363E-01
        2   -1    0    0  501    0  0.00000000000E+00  0.00000000000E+00  0.22242529930E+04  0.22242529930E+04  0.25500000920E-02 0. -1.
       -2   -1    0    0    0  501  0.00000000000E+00  0.00000000000E+00 -0.10148118109E+04  0.10148118109E+04  0.25500000920E-02 0.  1.
    10030    2    1    2    0    0  0.00000000000E+00  0.00000000000E+00  0.12094411820E+04  0.32390648039E+04  0.30047949732E+04 0.  0.
        3    1    3    3  502    0  0.39480421741E+03 -0.16942136115E+03  0.21566253984E+04  0.21990013840E+04  0.10100000352E+00 0. -1.
       -3    1    3    3    0  502 -0.39480421741E+03  0.16942136115E+03 -0.94718421631E+03  0.10400634199E+04  0.10100000352E+00 0.  1.
</event>
<event>
 5   0  0.5931588E-07  0.3004196E+04  0.7818609E-02  0.8242534E-01
       -1   -1    0    0    0  501  0.00000000000E+00  0.00000000000E+00  0.15331211818E+04  0.15331211818E+04  0.50400001928E-02 0. -1.
        1   -1    0    0  501    0  0.00000000000E+00  0.00000000000E+00 -0.14717027449E+04  0.14717027450E+04  0.50400001928E-02 0.  1.
    10030    2    1    2    0    0  0.00000000000E+00  0.00000000000E+00  0.61418436866E+02  0.30048239268E+04  0.30041961665E+04 0.  0.
        2    1    3    3  502    0 -0.10006219591E+04  0.67232135712E+03  0.92702053824E+03  0.15207325178E+04  0.25500000920E-02 0. -1.
       -2    1    3    3    0  502  0.10006219591E+04 -0.67232135712E+03 -0.86560210137E+03  0.14840914090E+04  0.25500000920E-02 0.  1.
</event>
<event>
 5   0  0.1625212E-06  0.2996763E+04  0.7818609E-02  0.8244656E-01
       -2   -1    0    0    0  501  0.00000000000E+00  0.00000000000E+00  0.12138868138E+04  0.12138868138E+04  0.25500000920E-02 0.  1.
        2   -1    0    0  501    0  0.00000000000E+00  0.00000000000E+00 -0.18495525539E+04  0.18495525539E+04  0.25500000920E-02 0. -1.
    10030    2    1    2    0    0  0.00000000000E+00  0.00000000000E+00 -0.63566574012E+03  0.30634393676E+04  0.29967632249E+04 0.  0.
        4    1    3    3  502    0  0.92943363038E+03 -0.11669588745E+04 -0.17506171516E+03  0.15020945726E+04  0.12699999809E+01 0.  1.
       -4    1    3    3    0  502 -0.92943363038E+03  0.11669588745E+04 -0.46060402496E+03  0.15613447950E+04  0.12699999809E+01 0. -1.
</event>
<event>
 5   0  0.5887179E-07  0.3001276E+04  0.7818609E-02  0.8243367E-01
        1   -1    0    0  501    0  0.00000000000E+00  0.00000000000E+00  0.27497312123E+04  0.27497312123E+04  0.50400001928E-02 0. -1.
       -1   -1    0    0    0  501  0.00000000000E+00  0.00000000000E+00 -0.81895781680E+03  0.81895781681E+03  0.50400001928E-02 0.  1.
    10030    2    1    2    0    0  0.00000000000E+00  0.00000000000E+00  0.19307733955E+04  0.35686890291E+04  0.30012756424E+04 0.  0.
        3    1    3    3  502    0 -0.33093785149E+03  0.83278737247E+03 -0.46586466167E+03  0.10099923576E+04  0.10100000352E+00 0.  1.
       -3    1    3    3    0  502  0.33093785149E+03 -0.83278737247E+03  0.23966380572E+04  0.25586966715E+04  0.10100000352E+00 0. -1.
</event>
<event>
 5   0  0.6291798E-07  0.2994176E+04  0.7818609E-02  0.8245396E-01
       -1   -1    0    0    0  501  0.00000000000E+00  0.00000000000E+00  0.12869115647E+04  0.12869115647E+04  0.50400001928E-02 0.  1.
        1   -1    0    0  501    0  0.00000000000E+00  0.00000000000E+00 -0.17415900373E+04  0.17415900373E+04  0.50400001928E-02 0. -1.
    10030    2    1    2    0    0  0.00000000000E+00  0.00000000000E+00 -0.45467847263E+03  0.30285016021E+04  0.29941759200E+04 0.  0.
        1    1    3    3  502    0 -0.12800658212E+03  0.14613716617E+04 -0.52956151082E+03  0.15596243818E+04  0.50400001928E-02 0. -1.
       -1    1    3    3    0  502  0.12800658212E+03 -0.14613716617E+04  0.74883038189E+02  0.14688772202E+04  0.50400001928E-02 0.  1.
</event>
<event>
 5   0  0.1625212E-06  0.3052562E+04  0.7818609E-02  0.8228879E-01
       -2   -1    0    0    0  501  0.00000000000E+00  0.00000000000E+00  0.20261575216E+04  0.20261575216E+04  0.25500000920E-02 0. -1.
        2   -1    0    0  501    0  0.00000000000E+00  0.00000000000E+00 -0.11497300908E+04  0.11497300908E+04  0.25500000920E-02 0.  1.
    10030    2    1    2    0    0  0.00000000000E+00  0.00000000000E+00  0.87642743080E+03  0.31758876124E+04  0.30525623802E+04 0.  0.
        4    1    3    3  502    0  0.80404510853E+03 -0.80146608285E+02 -0.90894257127E+03  0.12161785338E+04  0.12699999809E+01 0.  1.
       -4    1    3    3    0  502 -0.80404510853E+03  0.80146608285E+02  0.17853700021E+04  0.19597090785E+04  0.12699999809E+01 0. -1.
</event>
<event>
 5   0  0.1560174E-06  0.2975087E+04  0.7818609E-02  0.8250881E-01
       -2   -1    0    0    0  501  0.00000000000E+00  0.00000000000E+00  0.21624355563E+04  0.21624355563E+04  0.25500000920E-02 0.  1.
        2   -1    0    0  501    0  0.00000000000E+00  0.00000000000E+00 -0.10232837461E+04  0.10232837461E+04  0.25500000920E-02 0. -1.
    10030    2    1    2    0    0  0.00000000000E+00  0.00000000000E+00  0.11391518102E+04  0.31857193024E+04  0.29750866587E+04 0.  0.
        5    1    3    3  502    0 -0.12539144956E+04 -0.52845568175E+03  0.12131216318E+04  0.18229791972E+04  0.46999998093E+01 0.  1.
       -5    1    3    3    0  502  0.12539144956E+04  0.52845568175E+03 -0.73969821630E+02  0.13627401052E+04  0.46999998093E+01 0. -1.
</event>
<event>
 5   0  0.5931588E-07  0.2991484E+04  0.7818609E-02  0.8246167E-01
        1   -1    0    0  501    0  0.00000000000E+00  0.00000000000E+00  0.18346862369E+04  0.18346862369E+04  0.50400001928E-02 0. -1.
       -1   -1    0    0    0  501  0.00000000000E+00  0.00000000000E+00 -0.12194150694E+04  0.12194150694E+04  0.50400001928E-02 0.  1.
    10030    2    1    2    0    0  0.00000000000E+00  0.00000000000E+00  0.61527116749E+03  0.30541013063E+04  0.29914839427E+04 0.  0.
        2    1    3    3  502    0  0.13223434738E+04  0.48174506601E+03 -0.20949787731E+03  0.14228703145E+04  0.25500000920E-02 0.  1.
       -2    1    3    3    0  502 -0.13223434738E+04 -0.48174506601E+03  0.82476904480E+03  0.16312309918E+04  0.25500000920E-02 0. -1.
</event>
<event>
 5   0  0.5931588E-07  0.3037031E+04  0.7818609E-02  0.8233235E-01
        1   -1    0    0  501    0  0.00000000000E+00  0.00000000000E+00  0.21299375832E+04  0.21299375832E+04  0.50400001928E-02 0. -1.
       -1   -1    0    0    0  501  0.00000000000E+00  0.00000000000E+00 -0.10826087737E+04  0.10826087737E+04  0.50400001928E-02 0.  1.
    10030    2    1    2    0    0  0.00000000000E+00  0.00000000000E+00  0.10473288095E+04  0.32125463569E+04  0.30370308626E+04 0.  0.
        2    1    3    3  502    0  0.10756017124E+04 -0.82118637096E+03 -0.20507892918E+03  0.13686940734E+04  0.25500000920E-02 0.  1.
       -2    1    3    3    0  502 -0.10756017124E+04  0.82118637096E+03  0.12524077386E+04  0.18438522835E+04  0.25500000920E-02 0. -1.
</event>
<event>
 5   0  0.6291798E-07  0.2995753E+04  0.7818609E-02  0.8244945E-01
        1   -1    0    0  501    0  0.00000000000E+00  0.00000000000E+00  0.15391701417E+04  0.15391701417E+04  0.50400001928E-02 0.  1.
       -1   -1    0    0    0  501  0.00000000000E+00  0.00000000000E+00 -0.14576902511E+04  0.14576902511E+04  0.50400001928E-02 0. -1.
    10030    2    1    2    0    0  0.00000000000E+00  0.00000000000E+00  0.81479890518E+02  0.29968603928E+04  0.29957525334E+04 0.  0.
        1    1    3    3  502    0  0.14238405052E+04 -0.11690162170E+03  0.49106809831E+03  0.15106739061E+04  0.50400001928E-02 0.  1.
       -1    1    3    3    0  502 -0.14238405052E+04  0.11690162170E+03 -0.40958820779E+03  0.14861864867E+04  0.50400001928E-02 0. -1.
</event>
<event>
 5   0  0.5916703E-07  0.3021027E+04  0.7818609E-02  0.8237752E-01
        1   -1    0    0  501    0  0.00000000000E+00  0.00000000000E+00  0.28417893124E+04  0.28417893124E+04  0.50400001928E-02 0. -1.
       -1   -1    0    0    0  501  0.00000000000E+00  0.00000000000E+00 -0.80289241832E+03  0.80289241834E+03  0.50400001928E-02 0.  1.
    10030    2    1    2    0    0  0.00000000000E+00  0.00000000000E+00  0.20388968941E+04  0.36446817307E+04  0.30210270396E+04 0.  0.
        5    1    3    3  502    0  0.74273697003E+03  0.61107423912E+02 -0.56564608423E+03  0.93561204914E+03  0.46999998093E+01 0.  1.
       -5    1    3    3    0  502 -0.74273697003E+03 -0.61107423912E+02  0.26045429783E+04  0.27090696816E+04  0.46999998093E+01 0. -1.
</event>
<event>
 5   0  0.5887179E-07  0.2990637E+04  0.7818609E-02  0.8246410E-01
        1   -1    0    0  501    0  0.00000000000E+00  0.00000000000E+00  0.23675117317E+04  0.23675117317E+04  0.50400001928E-02 0.  1.
       -1   -1    0    0    0  501  0.00000000000E+00  0.00000000000E+00 -0.94444212541E+03  0.94444212542E+03  0.50400001928E-02 0. -1.
    10030    2    1    2    0    0  0.00000000000E+00  0.00000000000E+00  0.14230696063E+04  0.33119538571E+04  0.29906372644E+04 0.  0.
        3    1    3    3  502    0  0.14327781011E+04 -0.24367929816E+03  0.32196564435E+03  0.14885881142E+04  0.10100000352E+00 0. -1.
       -3    1    3    3    0  502 -0.14327781011E+04  0.24367929816E+03  0.11011039619E+04  0.18233657429E+04  0.10100000352E+00 0.  1.
</event>
<event>
 5   0  0.1723916E-06  0.2993065E+04  0.7818609E-02  0.8245714E-01
        2   -1    0    0  501    0  0.00000000000E+00  0.00000000000E+00  0.18711859835E+04  0.18711859835E+04  0.25500000920E-02 0.  1.
       -2   -1    0    0    0  501  0.00000000000E+00  0.00000000000E+00 -0.11968933912E+04  0.11968933912E+04  0.25500000920E-02 0. -1.
    10030    2    1    2    0    0  0.00000000000E+00  0.00000000000E+00  0.67429259230E+03  0.30680793748E+04  0.29930654102E+04 0.  0.
        1    1    3    3  502    0  0.51139009932E+03  0.13951313640E+04  0.15464260033E+03  0.14939296136E+04  0.50400001928E-02 0.  1.
       -1    1    3    3    0  502 -0.51139009932E+03 -0.13951313640E+04  0.51964999197E+03  0.15741497612E+04  0.50400001928E-02 0. -1.
</event>
<event>
 5   0  0.5916703E-07  0.2999578E+04  0.7818609E-02  0.8243851E-01
       -1   -1    0    0    0  501  0.00000000000E+00  0.00000000000E+00  0.13484481327E+04  0.13484481327E+04  0.50400001928E-02 0.  1.
        1   -1    0    0  501    0  0.00000000000E+00  0.00000000000E+00 -0.16681152225E+04  0.16681152225E+04  0.50400001928E-02 0. -1.
    10030    2    1    2    0    0  0.00000000000E+00  0.00000000000E+00 -0.31966708980E+03  0.30165633553E+04  0.29995778750E+04 0.  0.
        5    1    3    3  502    0  0.61058932577E+02 -0.68746137789E+03  0.11792519994E+04  0.13663779519E+04  0.46999998093E+01 0.  1.
       -5    1    3    3    0  502 -0.61058932577E+02  0.68746137789E+03 -0.14989190892E+04  0.16501854033E+04  0.46999998093E+01 0. -1.
</event>
<event>
 5   0  0.6291798E-07  0.3024833E+04  0.7818609E-02  0.8236675E-01
        1   -1    0    0  501    0  0.00000000000E+00  0.00000000000E+00  0.24355864523E+04  0.24355864523E+04  0.50400001928E-02 0.  1.
       -1   -1    0    0    0  501  0.00000000000E+00  0.00000000000E+00 -0.93915908424E+03  0.93915908425E+03  0.50400001928E-02 0. -1.
    10030    2    1    2    0    0  0.00000000000E+00  0.00000000000E+00  0.14964273680E+04  0.33747455365E+04  0.30248326513E+04 0.  0.
        1    1    3    3  502    0  0.57928118442E+03 -0.81030202396E+03 -0.52152979309E+03  0.11243439802E+04  0.50400001928E-02 0. -1.
       -1    1    3    3    0  502 -0.57928118442E+03  0.81030202396E+03  0.20179571611E+04  0.22504015563E+04  0.50400001928E-02 0.  1.
</event>
<event>
 5   0  0.6291798E-07  0.2985259E+04  0.7818609E-02  0.8247953E-01
        1   -1    0    0  501    0  0.00000000000E+00  0.00000000000E+00  0.15254672467E+04  0.15254672467E+04  0.50400001928E-02 0.  1.
       -1   -1    0    0    0  501  0.00000000000E+00  0.00000000000E+00 -0.14604986049E+04  0.14604986049E+04  0.50400001928E-02 0. -1.
    10030    2    1    2    0    0  0.00000000000E+00  0.00000000000E+00  0.64968641840E+02  0.29859658516E+04  0.29852589741E+04 0.  0.
        1    1    3    3  502    0 -0.85685282991E+02 -0.63289101878E+03 -0.13169273342E+04  0.14636224284E+04  0.50400001928E-02 0. -1.
       -1    1    3    3    0  502  0.85685282991E+02  0.63289101878E+03  0.13818959761E+04  0.15223434232E+04  0.50400001928E-02 0.  1.
</event>
<event>
 5   0  0.5874741E-07  0.3003875E+04  0.7818609E-02  0.8242625E-01
       -1   -1    0    0    0  501  0.00000000000E+00  0.00000000000E+00  0.98795244095E+03  0.98795244096E+03  0.50400001928E-02 0. -1.
        1   -1    0    0  501    0  0.00000000000E+00  0.00000000000E+00 -0.22833242390E+04  0.22833242390E+04  0.50400001928E-02 0.  1.
    10030    2    1    2    0    0  0.00000000000E+00  0.00000000000E+00 -0.12953717981E+04  0.32712766800E+04  0.30038746681E+04 0.  0.
        4    1    3    3  502    0  0.67841440785E+03  0.92680621067E+03  0.40624502490E+03  0.12182990167E+04  0.12699999809E+01 0. -1.
       -4    1    3    3    0  502 -0.67841440785E+03 -0.92680621067E+03 -0.17016168230E+04  0.20529776633E+04  0.12699999809E+01 0.  1.
</event>
<event>
 5   0  0.5887179E-07  0.2992105E+04  0.7818609E-02  0.8245989E-01
        1   -1    0    0  501    0  0.00000000000E+00  0.00000000000E+00  0.13047639406E+04  0.13047639407E+04  0.50400001928E-02 0. -1.
       -1   -1    0    0    0  501  0.00000000000E+00  0.00000000000E+00 -0.17153850418E+04  0.17153850418E+04  0.50400001928E-02 0.  1.
    10030    2    1    2    0    0  0.00000000000E+00  0.00000000000E+00 -0.41062110119E+03  0.30201489825E+04  0.29921046418E+04 0.  0.
        3    1    3    3  502    0  0.43433366174E+03  0.65848921442E+03 -0.14884130495E+04  0.16845258061E+04  0.10100000352E+00 0.  1.
       -3    1    3    3    0  502 -0.43433366174E+03 -0.65848921442E+03  0.10777919483E+04  0.13356231764E+04  0.10100000352E+00 0. -1.
</event>
<event>
 5   0  0.1723916E-06  0.3044249E+04  0.7818609E-02  0.8231207E-01
       -2   -1    0    0    0  501  0.00000000000E+00  0.00000000000E+00  0.16818352911E+04  0.16818352911E+04  0.25500000920E-02 0.  1.
        2   -1    0    0  501    0  0.00000000000E+00  0.00000000000E+00 -0.13775799424E+04  0.13775799424E+04  0.25500000920E-02 0. -1.
    10030    2    1    2    0    0  0.00000000000E+00  0.00000000000E+00  0.30425534872E+03  0.30594152335E+04  0.30442487174E+04 0.  0.
        1    1    3    3  502    0 -0.41911414984E+03 -0.12204621194E+04 -0.65915996452E+03  0.14490259882E+04  0.50400001928E-02 0. -1.
       -1    1    3    3    0  502  0.41911414984E+03  0.12204621194E+04  0.96341531324E+03  0.16103892453E+04  0.50400001928E-02 0.  1.
</event>
<event>
 5   0  0.1635086E-06  0.2974449E+04  0.7818609E-02  0.8251065E-01
       -2   -1    0    0    0  501  0.00000000000E+00  0.00000000000E+00  0.10536411308E+04  0.10536411308E+04  0.25500000920E-02 0.  1.
        2   -1    0    0  501    0  0.00000000000E+00  0.00000000000E+00 -0.20992316543E+04  0.20992316543E+04  0.25500000920E-02 0. -1.
    10030    2    1    2    0    0  0.00000000000E+00  0.00000000000E+00 -0.10455905235E+04  0.31528727851E+04  0.29744490677E+04 0.  0.
        3    1    3    3  502    0 -0.11059748498E+04 -0.74155628088E+02  0.52822583232E+03  0.12278851598E+04  0.10100000352E+00 0. -1.
       -3    1    3    3    0  502  0.11059748498E+04  0.74155628088E+02 -0.15738163558E+04  0.19249876253E+04  0.10100000352E+00 0.  1.
</event>
<event>
 5   0  0.5887179E-07  0.3003074E+04  0.7818609E-02  0.8242854E-01
       -1   -1    0    0    0  501  0.00000000000E+00  0.00000000000E+00  0.10994611766E+04  0.10994611766E+04  0.50400001928E-02 0.  1.
        1   -1    0    0  501    0  0.00000000000E+00  0.00000000000E+00 -0.20506535590E+04  0.20506535590E+04  0.50400001928E-02 0. -1.
    10030    2    1    2    0    0  0.00000000000E+00  0.00000000000E+00 -0.95119238236E+03  0.31501147356E+04  0.30030744078E+04 0.  0.
        3    1    3    3  502    0 -0.58014155089E+03 -0.57263868655E+03 -0.17983445581E+04  0.19744676357E+04  0.10100000352E+00 0. -1.
       -3    1    3    3    0  502  0.58014155089E+03  0.57263868655E+03  0.84715217575E+03  0.11756470999E+04  0.10100000352E+00 0.  1.
</event>
<event>
 5   0  0.1560174E-06  0.2999319E+04  0.7818609E-02  0.8243925E-01
        2   -1    0    0  501    0  0.00000000000E+00  0.00000000000E+00  0.23321571480E+04  0.23321571480E+04  0.25500000920E-02 0.  1.
       -2   -1    0    0    0  501  0.00000000000E+00  0.00000000000E+00 -0.96433435944E+03  0.96433435944E+03  0.25500000920E-02 0. -1.
    10030    2    1    2    0    0  0.00000000000E+00  0.00000000000E+00  0.13678227885E+04  0.32964915074E+04  0.29993194357E+04 0.  0.
        5    1    3    3  502    0 -0.95285249596E+03  0.11027275503E+04  0.29529496408E+03  0.14869960105E+04  0.46999998093E+01 0. -1.
       -5    1    3    3    0  502  0.95285249596E+03 -0.11027275503E+04  0.10725278244E+04  0.18094954969E+04  0.46999998093E+01 0.  1.
</event>
<event>
 5   0  0.5874741E-07  0.3016393E+04  0.7818609E-02  0.8239065E-01
       -1   -1    0    0    0  501  0.00000000000E+00  0.00000000000E+00  0.12815394774E+04  0.12815394774E+04  0.50400001928E-02 0. -1.
        1   -1    0    0  501    0  0.00000000000E+00  0.00000000000E+00 -0.17749405339E+04  0.17749405339E+04  0.50400001928E-02 0.  1.
    10030    2    1    2    0    0  0.00000000000E+00  0.00000000000E+00 -0.49340105649E+03  0.30564800113E+04  0.30163927889E+04 0.  0.
        4    1    3    3  502    0 -0.13950407528E+04 -0.56378720283E+03 -0.35132013128E+03  0.15451285253E+04  0.12699999809E+01 0. -1.
       -4    1    3    3    0  502  0.13950407528E+04  0.56378720283E+03 -0.14208092521E+03  0.15113514860E+04  0.12699999809E+01 0.  1.
</event>
<event>
 5   0  0.5931588E-07  0.2997488E+04  0.7818609E-02  0.8244449E-01
       -1   -1    0    0    0  501  0.00000000000E+00  0.00000000000E+00  0.13202434312E+04  0.13202434312E+04  0.50400001928E-02 0. -1.
        1   -1    0    0  501    0  0.00000000000E+00  0.00000000000E+00 -0.17013782820E+04  0.17013782820E+04  0.50400001928E-02 0.  1.
    10030    2    1    2    0    0  0.00000000000E+00  0.00000000000E+00 -0.38113485082E+03  0.30216217132E+04  0.29974879488E+04 0.  0.
        2    1    3    3  502    0 -0.23237364113E+03 -0.95996893063E+03  0.94575981406E+03  0.13674792440E+04  0.25500000920E-02 0. -1.
       -2    1    3    3    0  502  0.23237364113E+03  0.95996893063E+03 -0.13268946649E+04  0.16541424692E+04  0.25500000920E-02 0.  1.
</event>
<event>
 5   0  0.6291798E-07  0.3021719E+04  0.7818609E-02  0.8237556E-01
       -1   -1    0    0    0  501  0.00000000000E+00  0.00000000000E+00  0.17919341165E+04  0.17919341165E+04  0.50400001928E-02 0.  1.
        1   -1    0    0  501    0  0.00000000000E+00  0.00000000000E+00 -0.12738726812E+04  0.12738726812E+04  0.50400001928E-02 0. -1.
    10030    2    1    2    0    0  0.00000000000E+00  0.00000000000E+00  0.51806143531E+03  0.30658067977E+04  0.30217186616E+04 0.  0.
        1    1    3    3  502    0 -0.19243406056E+03 -0.10148551459E+04  0.13777214808E+04  0.17219402758E+04  0.50400001928E-02 0.  1.
       -1    1    3    3    0  502  0.19243406056E+03  0.10148551459E+04 -0.85966004548E+03  0.13438665219E+04  0.50400001928E-02 0. -1.
</event>
<event>
 5   0  0.5916703E-07  0.3017868E+04  0.7818609E-02  0.8238647E-01
       -1   -1    0    0    0  501  0.00000000000E+00  0.00000000000E+00  0.92879487403E+03  0.92879487404E+03  0.50400001928E-02 0. -1.
        1   -1    0    0  501    0  0.00000000000E+00  0.00000000000E+00 -0.24514372224E+04  0.24514372224E+04  0.50400001928E-02 0.  1.
    10030    2    1    2    0    0  0.00000000000E+00  0.00000000000E+00 -0.15226423484E+04  0.33802320964E+04  0.30178683379E+04 0.  0.
        5    1    3    3  502    0 -0.71803501276E+03 -0.59402946318E+03 -0.20905861022E+04  0.22888900418E+04  0.46999998093E+01 0.  1.
       -5    1    3    3    0  502  0.71803501276E+03  0.59402946318E+03  0.56794375386E+03  0.10913420546E+04  0.46999998093E+01 0. -1.
</event>
<event>
 5   0  0.1560174E-06  0.3010325E+04  0.7818609E-02  0.8240789E-01
       -2   -1    0    0    0  501  0.00000000000E+00  0.00000000000E+00  0.87821902510E+03  0.87821902511E+03  0.25500000920E-02 0. -1.
        2   -1    0    0  501    0  0.00000000000E+00  0.00000000000E+00 -0.25796688385E+04  0.25796688385E+04  0.25500000920E-02 0.  1.
    10030    2    1    2    0    0  0.00000000000E+00  0.00000000000E+00 -0.17014498134E+04  0.34578878636E+04  0.30103250671E+04 0.  0.
        5    1    3    3  502    0 -0.65217203009E+03  0.51245974408E+03  0.59201788754E+03  0.10190439712E+04  0.46999998093E+01 0. -1.
       -5    1    3    3    0  502  0.65217203009E+03 -0.51245974408E+03 -0.22934677009E+04  0.24388438924E+04  0.46999998093E+01 0.  1.
</event>
<event>
 5   0  0.1625212E-06  0.2997896E+04  0.7818609E-02  0.8244332E-01
        2   -1    0    0  501    0  0.00000000000E+00  0.00000000000E+00  0.25848738747E+04  0.25848738747E+04  0.25500000920E-02 0.  1.
       -2   -1    0    0    0  501  0.00000000000E+00  0.00000000000E+00 -0.86922813508E+03  0.86922813509E+03  0.25500000920E-02 0. -1.
    10030    2    1    2    0    0  0.00000000000E+00  0.00000000000E+00  0.17156457396E+04  0.34541020098E+04  0.29978959939E+04 0.  0.
        4    1    3    3  502    0 -0.13142669426E+04 -0.44447072466E+03  0.15116168406E+04  0.20517891966E+04  0.12699999809E+01 0.  1.
       -4    1    3    3    0  502  0.13142669426E+04  0.44447072466E+03  0.20402889899E+03  0.14023128132E+04  0.12699999809E+01 0. -1.
</event>
<event>
 5   0  0.5916703E-07  0.2995272E+04  0.7818609E-02  0.8245082E-01
       -1   -1    0    0    0  501  0.00000000000E+00  0.00000000000E+00  0.18234736865E+04  0.18234736865E+04  0.50400001928E-02 0.  1.
        1   -1    0    0  501    0  0.00000000000E+00  0.00000000000E+00 -0.12300223990E+04  0.12300223990E+04  0.50400001928E-02 0. -1.
    10030    2    1    2    0    0  0.00000000000E+00  0.00000000000E+00  0.59345128747E+03  0.30534960856E+04  0.29952719265E+04 0.  0.
        5    1    3    3  502    0 -0.97361393347E+03 -0.10259584889E+04  0.79861310421E+03  0.16242905813E+04  0.46999998093E+01 0.  1.
       -5    1    3    3    0  502  0.97361393347E+03  0.10259584889E+04 -0.20516181673E+03  0.14292055042E+04  0.46999998093E+01 0. -1.
</event>
<event>
 5   0  0.5431625E-07  0.2996374E+04  0.7818609E-02  0.8244767E-01
        3   -1    0    0  501    0  0.00000000000E+00  0.00000000000E+00  0.15880754458E+04  0.15880754490E+04  0.10100000352E+00 0. -1.
       -3   -1    0    0    0  501  0.00000000000E+00  0.00000000000E+00 -0.14133865066E+04  0.14133865102E+04  0.10100000352E+00 0.  1.
    10030    2    1    2    0    0  0.00000000000E+00  0.00000000000E+00  0.17468893921E+03  0.30014619591E+04  0.29963740866E+04 0.  0.
        4    1    3    3  502    0 -0.70015385293E+03  0.67774063993E+03 -0.10525751070E+04  0.14343861968E+04  0.12699999809E+01 0.  1.
       -4    1    3    3    0  502  0.70015385293E+03 -0.67774063993E+03  0.12272640462E+04  0.15670757623E+04  0.12699999809E+01 0. -1.
</event>
<event>
 5   0  0.1723916E-06  0.2993652E+04  0.7818609E-02  0.8245546E-01
       -2   -1    0    0    0  501  0.00000000000E+00  0.00000000000E+00  0.10073542764E+04  0.10073542764E+04  0.25500000920E-02 0.  1.
        2   -1    0    0  501    0  0.00000000000E+00  0.00000000000E+00 -0.22241309683E+04  0.22241309683E+04  0.25500000920E-02 0. -1.
    10030    2    1    2    0    0  0.00000000000E+00  0.00000000000E+00 -0.12167766919E+04  0.32314852447E+04  0.29936518450E+04 0.  0.
        1    1    3    3  502    0  0.63703816905E+03 -0.11169576346E+04  0.21869256177E+03  0.13043153081E+04  0.50400001928E-02 0.  1.
       -1    1    3    3    0  502 -0.63703816905E+03  0.11169576346E+04 -0.14354692537E+04  0.19271699366E+04  0.50400001928E-02 0. -1.
</event>
<event>
 5   0  0.1625212E-06  0.2996380E+04  0.7818609E-02  0.8244765E-01
        2   -1    0    0  501    0  0.00000000000E+00  0.00000000000E+00  0.24700923166E+04  0.24700923166E+04  0.25500000920E-02 0.  1.
       -2   -1    0    0    0  501  0.00000000000E+00  0.00000000000E+00 -0.90870034498E+03  0.90870034499E+03  0.25500000920E-02 0. -1.
    10030    2    1    2    0    0  0.00000000000E+00  0.00000000000E+00  0.15613919716E+04  0.33787926616E+04  0.29963803098E+04 0.  0.
        4    1    3    3  502    0 -0.30067569911E+03  0.13786780804E+04  0.13483439108E+04  0.19517151534E+04  0.12699999809E+01 0.  1.
       -4    1    3    3    0  502  0.30067569911E+03 -0.13786780804E+04  0.21304806089E+03  0.14270775082E+04  0.12699999809E+01 0. -1.
</event>
<event>
 5   0  0.1625212E-06  0.3004538E+04  0.7818609E-02  0.8242436E-01
        2   -1    0    0  501    0  0.00000000000E+00  0.00000000000E+00  0.14979165447E+04  0.14979165447E+04  0.25500000920E-02 0. -1.
       -2   -1    0    0    0  501  0.00000000000E+00  0.00000000000E+00 -0.15066342912E+04  0.15066342912E+04  0.25500000920E-02 0.  1.
    10030    2    1    2    0    0  0.00000000000E+00  0.00000000000E+00 -0.87177464985E+01  0.30045508359E+04  0.30045381886E+04 0.  0.
        4    1    3    3  502    0 -0.12062964869E+04  0.89173725849E+03  0.76042126034E+02  0.15020421333E+04  0.12699999809E+01 0. -1.
       -4    1    3    3    0  502  0.12062964869E+04 -0.89173725849E+03 -0.84759872532E+02  0.15025087026E+04  0.12699999809E+01 0.  1.
</event>
<event>
 5   0  0.5874741E-07  0.3000571E+04  0.7818609E-02  0.8243568E-01
       -1   -1    0    0    0  501  0.00000000000E+00  0.00000000000E+00  0.26764033144E+04  0.26764033144E+04  0.50400001928E-02 0.  1.
        1   -1    0    0  501    0  0.00000000000E+00  0.00000000000E+00 -0.84100058540E+03  0.84100058542E+03  0.50400001928E-02 0. -1.
    10030    2    1    2    0    0  0.00000000000E+00  0.00000000000E+00  0.18354027290E+04  0.35174038998E+04  0.30005711151E+04 0.  0.
        4    1    3    3  502    0 -0.60235839064E+03 -0.26801416182E+03 -0.66208626166E+03  0.93435916675E+03  0.12699999809E+01 0. -1.
       -4    1    3    3    0  502  0.60235839064E+03  0.26801416182E+03  0.24974889907E+04  0.25830447331E+04  0.12699999809E+01 0.  1.
</event>
<event>
 5   0  0.5887179E-07  0.2999330E+04  0.7818609E-02  0.8243922E-01
        1   -1    0    0  501    0  0.00000000000E+00  0.00000000000E+00  0.24852830672E+04  0.24852830672E+04  0.50400001928E-02 0. -1.
       -1   -1    0    0    0  501  0.00000000000E+00  0.00000000000E+00 -0.90492531363E+03  0.90492531365E+03  0.50400001928E-02 0.  1.
    10030    2    1    2    0    0  0.00000000000E+00  0.00000000000E+00  0.15803577536E+04  0.33902083808E+04  0.29993302980E+04 0.  0.
        3    1    3    3  502    0  0.51560469619E+03  0.13024613871E+04  0.13954465958E+04  0.19772519009E+04  0.10100000352E+00 0. -1.
       -3    1    3    3    0  502 -0.51560469619E+03 -0.13024613871E+04  0.18491115776E+03  0.14129564799E+04  0.10100000352E+00 0.  1.
</event>
<event>
 5   0  0.5887179E-07  0.3007143E+04  0.7818609E-02  0.8241694E-01
       -1   -1    0    0    0  501  0.00000000000E+00  0.00000000000E+00  0.10897912256E+04  0.10897912256E+04  0.50400001928E-02 0.  1.
        1   -1    0    0  501    0  0.00000000000E+00  0.00000000000E+00 -0.20744585810E+04  0.20744585810E+04  0.50400001928E-02 0. -1.
    10030    2    1    2    0    0  0.00000000000E+00  0.00000000000E+00 -0.98466735542E+03  0.31642498066E+04  0.30071426700E+04 0.  0.
        3    1    3    3  502    0 -0.69136858101E+03  0.13349856207E+04 -0.46766472088E+03  0.15744482918E+04  0.10100000352E+00 0. -1.
       -3    1    3    3    0  502  0.69136858101E+03 -0.13349856207E+04 -0.51700263454E+03  0.15898015148E+04  0.10100000352E+00 0.  1.
</event>
<event>
 5   0  0.1625212E-06  0.3000327E+04  0.7818609E-02  0.8243637E-01
       -2   -1    0    0    0  501  0.00000000000E+00  0.00000000000E+00  0.16061300536E+04  0.16061300536E+04  0.25500000920E-02 0.  1.
        2   -1    0    0  501    0  0.00000000000E+00  0.00000000000E+00 -0.14011886862E+04  0.14011886863E+04  0.25500000920E-02 0. -1.
    10030    2    1    2    0    0  0.00000000000E+00  0.00000000000E+00  0.20494136737E+03  0.30073187399E+04  0.30003274886E+04 0.  0.
        4    1    3    3  502    0 -0.75898503095E+03  0.10045551685E+04 -0.71508935165E+03  0.14479446666E+04  0.12699999809E+01 0. -1.
       -4    1    3    3    0  502  0.75898503095E+03 -0.10045551685E+04  0.92003071902E+03  0.15593740733E+04  0.12699999809E+01 0.  1.
</event>
<event>
 5   0  0.5874741E-07  0.3020050E+04  0.7818609E-02  0.8238029E-01
       -1   -1    0    0    0  501  0.00000000000E+00  0.00000000000E+00  0.12233649384E+04  0.12233649384E+04  0.50400001928E-02 0. -1.
        1   -1    0    0  501    0  0.00000000000E+00  0.00000000000E+00 -0.18638552508E+04  0.18638552508E+04  0.50400001928E-02 0.  1.
    10030    2    1    2    0    0  0.00000000000E+00  0.00000000000E+00 -0.64049031246E+03  0.30872201892E+04  0.30200497771E+04 0.  0.
        4    1    3    3  502    0  0.12170039419E+04 -0.14161475655E+03 -0.12224971884E+04  0.17307958639E+04  0.12699999809E+01 0.  1.
       -4    1    3    3    0  502 -0.12170039419E+04  0.14161475655E+03  0.58200687593E+03  0.13564243253E+04  0.12699999809E+01 0. -1.
</event>
<event>
 5   0  0.1635086E-06  0.3002837E+04  0.7818609E-02  0.8242921E-01
        2   -1    0    0  501    0  0.00000000000E+00  0.00000000000E+00  0.15593902857E+04  0.15593902857E+04  0.25500000920E-02 0.  1.
       -2   -1    0    0    0  501  0.00000000000E+00  0.00000000000E+00 -0.14456014972E+04  0.14456014972E+04  0.25500000920E-02 0. -1.
    10030    2    1    2    0    0  0.00000000000E+00  0.00000000000E+00  0.11378878844E+03  0.30049917829E+04  0.30028366134E+04 0.  0.
        3    1    3    3  502    0 -0.29879193956E+03  0.54097540485E+03 -0.13124172769E+04  0.14506447293E+04  0.10100000352E+00 0. -1.
       -3    1    3    3    0  502  0.29879193956E+03 -0.54097540485E+03  0.14262060654E+04  0.15543470536E+04  0.10100000352E+00 0.  1.
</event>
<event>
 5   0  0.5916703E-07  0.3006642E+04  0.7818609E-02  0.8241837E-01
        1   -1    0    0  501    0  0.00000000000E+00  0.00000000000E+00  0.18139673486E+04  0.18139673486E+04  0.50400001928E-02 0.  1.
       -1   -1    0    0    0  501  0.00000000000E+00  0.00000000000E+00 -0.12458736655E+04  0.12458736655E+04  0.50400001928E-02 0. -1.
    10030    2    1    2    0    0  0.00000000000E+00  0.00000000000E+00  0.56809368317E+03  0.30598410141E+04  0.30066420802E+04 0.  0.
        5    1    3    3  502    0 -0.74038687852E+03  0.12276570049E+04 -0.17632616946E+03  0.14444471121E+04  0.46999998093E+01 0.  1.
       -5    1    3    3    0  502  0.74038687852E+03 -0.12276570049E+04  0.74441985262E+03  0.16153939020E+04  0.46999998093E+01 0. -1.
</event>
<event>
 5   0  0.1635086E-06  0.2995110E+04  0.7818609E-02  0.8245129E-01
        2   -1    0    0  501    0  0.00000000000E+00  0.00000000000E+00  0.21429066458E+04  0.21429066458E+04  0.25500000920E-02 0. -1.
       -2   -1    0    0    0  501  0.00000000000E+00  0.00000000000E+00 -0.10465556334E+04  0.10465556334E+04  0.25500000920E-02 0.  1.
    10030    2    1    2    0    0  0.00000000000E+00  0.00000000000E+00  0.10963510123E+04  0.31894622792E+04  0.29951100294E+04 0.  0.
        3    1    3    3  502    0  0.25120496955E+03  0.30918936769E+03 -0.98909507821E+03  0.10663072192E+04  0.10100000352E+00 0.  1.
       -3    1    3    3    0  502 -0.25120496955E+03 -0.30918936769E+03  0.20854460906E+04  0.21231550600E+04  0.10100000352E+00 0. -1.
</event>
<event>
 5   0  0.1723916E-06  0.3021253E+04  0.7818609E-02  0.8237688E-01
       -2   -1    0    0    0  501  0.00000000000E+00  0.00000000000E+00  0.15196732403E+04  0.15196732403E+04  0.25500000920E-02 0.  1.
        2   -1    0    0  501    0  0.00000000000E+00  0.00000000000E+00 -0.15016340407E+04  0.15016340407E+04  0.25500000920E-02 0. -1.
    10030    2    1    2    0    0  0.00000000000E+00  0.00000000000E+00  0.18039199555E+02  0.30213072810E+04  0.30212534275E+04 0.  0.
        1    1    3    3  502    0 -0.13315491308E+04  0.41178565975E+02 -0.70322501458E+03  0.15064010698E+04  0.50400001928E-02 0. -1.
       -1    1    3    3    0  502  0.13315491308E+04 -0.41178565975E+02  0.72126421413E+03  0.15149062112E+04  0.50400001928E-02 0.  1.
</event>
<event>
 5   0  0.5916703E-07  0.3005646E+04  0.7818609E-02  0.8242121E-01
       -1   -1    0    0    0  501  0.00000000000E+00  0.00000000000E+00  0.10832063805E+04  0.10832063805E+04  0.50400001928E-02 0. -1.
        1   -1    0    0  501    0  0.00000000000E+00  0.00000000000E+00 -0.20849919037E+04  0.20849919037E+04  0.50400001928E-02 0.  1.
    10030    2    1    2    0    0  0.00000000000E+00  0.00000000000E+00 -0.10017855232E+04  0.31681982842E+04  0.30056457099E+04 0.  0.
        5    1    3    3  502    0 -0.27488704073E+03  0.14711274058E+04 -0.64494273267E+03  0.16296477987E+04  0.46999998093E+01 0.  1.
       -5    1    3    3    0  502  0.27488704073E+03 -0.14711274058E+04 -0.35684279057E+03  0.15385504855E+04  0.46999998093E+01 0. -1.
</event>
<event>
 5   0  0.5931588E-07  0.3000593E+04  0.7818609E-02  0.8243562E-01
        1   -1    0    0  501    0  0.00000000000E+00  0.00000000000E+00  0.14676437614E+04  0.14676437614E+04  0.50400001928E-02 0. -1.
       -1   -1    0    0    0  501  0.00000000000E+00  0.00000000000E+00 -0.15336759422E+04  0.15336759423E+04  0.50400001928E-02 0.  1.
    10030    2    1    2    0    0  0.00000000000E+00  0.00000000000E+00 -0.66032180860E+02  0.30013197036E+04  0.30005932271E+04 0.  0.
        2    1    3    3  502    0  0.56266820588E+03 -0.13521759804E+04  0.29250783988E+03  0.14934979840E+04  0.25500000920E-02 0. -1.
       -2    1    3    3    0  502 -0.56266820588E+03  0.13521759804E+04 -0.35854002074E+03  0.15078217197E+04  0.25500000920E-02 0.  1.
</event>
<event>
 5   0  0.1674806E-06  0.3040311E+04  0.7818609E-02  0.8232313E-01
        2   -1    0    0  501    0  0.00000000000E+00  0.00000000000E+00  0.82127792490E+03  0.82127792491E+03  0.25500000920E-02 0. -1.
       -2   -1    0    0    0  501  0.00000000000E+00  0.00000000000E+00 -0.28137527991E+04  0.28137527991E+04  0.25500000920E-02 0.  1.
    10030    2    1    2    0    0  0.00000000000E+00  0.00000000000E+00 -0.19924748742E+04  0.36350307240E+04  0.30403112078E+04 0.  0.
        2    1    3    3  502    0  0.78856339416E+03 -0.38468592512E+03 -0.24804615311E+04  0.26310653536E+04  0.25500000920E-02 0.  1.
       -2    1    3    3    0  502 -0.78856339416E+03  0.38468592512E+03  0.48798665693E+03  0.10039653704E+04  0.25500000920E-02 0. -1.
</event>
<event>
 5   0  0.1674806E-06  0.2997629E+04  0.7818609E-02  0.8244408E-01
       -2   -1    0    0    0  501  0.00000000000E+00  0.00000000000E+00  0.10497491795E+04  0.10497491795E+04  0.25500000920E-02 0. -1.
        2   -1    0    0  501    0  0.00000000000E+00  0.00000000000E+00 -0.21399820180E+04  0.21399820180E+04  0.25500000920E-02 0.  1.
    10030    2    1    2    0    0  0.00000000000E+00  0.00000000000E+00 -0.10902328384E+04  0.31897311975E+04  0.29976286412E+04 0.  0.
        2    1    3    3  502    0  0.14698211934E+03 -0.99868815259E+03 -0.17240257099E+04  0.19978104059E+04  0.25500000920E-02 0.  1.
       -2    1    3    3    0  502 -0.14698211934E+03  0.99868815259E+03  0.63379287146E+03  0.11919207916E+04  0.25500000920E-02 0. -1.
</event>
<event>
 5   0  0.5887179E-07  0.2997734E+04  0.7818609E-02  0.8244378E-01
       -1   -1    0    0    0  501  0.00000000000E+00  0.00000000000E+00  0.13578455066E+04  0.13578455066E+04  0.50400001928E-02 0.  1.
        1   -1    0    0  501    0  0.00000000000E+00  0.00000000000E+00 -0.16545343799E+04  0.16545343799E+04  0.50400001928E-02 0. -1.
    10030    2    1    2    0    0  0.00000000000E+00  0.00000000000E+00 -0.29668887331E+03  0.30123798866E+04  0.29977338597E+04 0.  0.
        3    1    3    3  502    0 -0.16717835481E+02 -0.11896990223E+04  0.76766761713E+03  0.14159720443E+04  0.10100000352E+00 0.  1.
       -3    1    3    3    0  502  0.16717835481E+02  0.11896990223E+04 -0.10643564904E+04  0.15964078422E+04  0.10100000352E+00 0. -1.
</event>
<event>
 5   0  0.5931588E-07  0.2998638E+04  0.7818609E-02  0.8244120E-01
       -1   -1    0    0    0  501  0.00000000000E+00  0.00000000000E+00  0.15847864114E+04  0.15847864114E+04  0.50400001928E-02 0.  1.
        1   -1    0    0  501    0  0.00000000000E+00  0.00000000000E+00 -0.14184604869E+04  0.14184604869E+04  0.50400001928E-02 0. -1.
    10030    2    1    2    0    0  0.00000000000E+00  0.00000000000E+00  0.16632592451E+03  0.30032468982E+04  0.29986376271E+04 0.  0.
        2    1    3    3  502    0  0.43681546437E+02 -0.52130648410E+03  0.14904164877E+04  0.15795600130E+04  0.25500000920E-02 0.  1.
       -2    1    3    3    0  502 -0.43681546437E+02  0.52130648410E+03 -0.13240905632E+04  0.14236868853E+04  0.25500000920E-02 0. -1.
</event>
<event>
 5   0  0.1723916E-06  0.2999202E+04  0.7818609E-02  0.8243959E-01
       -2   -1    0    0    0  501  0.00000000000E+00  0.00000000000E+00  0.10331380155E+04  0.10331380155E+04  0.25500000920E-02 0. -1.
        2   -1    0    0  501    0  0.00000000000E+00  0.00000000000E+00 -0.21766724655E+04  0.21766724655E+04  0.25500000920E-02 0.  1.
    10030    2    1    2    0    0  0.00000000000E+00  0.00000000000E+00 -0.11435344500E+04  0.32098104810E+04  0.29992019414E+04 0.  0.
        1    1    3    3  502    0 -0.28858324977E+03 -0.56964150468E+02  0.10019599111E+04  0.10442455985E+04  0.50400001928E-02 0. -1.
       -1    1    3    3    0  502  0.28858324977E+03  0.56964150468E+02 -0.21454943611E+04  0.21655648824E+04  0.50400001928E-02 0.  1.
</event>
<event>
 5   0  0.5874741E-07  0.2968954E+04  0.7818609E-02  0.8252652E-01
       -1   -1    0    0    0  501  0.00000000000E+00  0.00000000000E+00  0.15916555200E+04  0.15916555200E+04  0.50400001928E-02 0.  1.
        1   -1    0    0  501    0  0.00000000000E+00  0.00000000000E+00 -0.13845153509E+04  0.13845153510E+04  0.50400001928E-02 0. -1.
    10030    2    1    2    0    0  0.00000000000E+00  0.00000000000E+00  0.20714016903E+03  0.29761708709E+04  0.29689536883E+04 0.  0.
        4    1    3    3  502    0 -0.21042063203E+02 -0.12604142843E+04  0.88942919609E+03  0.15427808801E+04  0.12699999809E+01 0.  1.
       -4    1    3    3    0  502  0.21042063203E+02  0.12604142843E+04 -0.68228902706E+03  0.14333899908E+04  0.12699999809E+01 0. -1.
</event>
<event>
 5   0  0.1723916E-06  0.2997594E+04  0.7818609E-02  0.8244418E-01
        2   -1    0    0  501    0  0.00000000000E+00  0.00000000000E+00  0.22069530146E+04  0.22069530146E+04  0.25500000920E-02 0. -1.
       -2   -1    0    0    0  501  0.00000000000E+00  0.00000000000E+00 -0.10178706589E+04  0.10178706589E+04  0.25500000920E-02 0.  1.
    10030    2    1    2    0    0  0.00000000000E+00  0.00000000000E+00  0.11890823557E+04  0.32248236735E+04  0.29975941815E+04 0.  0.
        1    1    3    3  502    0 -0.72239236370E+03  0.91719994603E-01 -0.81822413104E+03  0.10914858974E+04  0.50400001928E-02 0.  1.
       -1    1    3    3    0  502  0.72239236370E+03 -0.91719994603E-01  0.20073064867E+04  0.21333377761E+04  0.50400001928E-02 0. -1.
</event>
<event>
 5   0  0.6291798E-07  0.3034961E+04  0.7818609E-02  0.8233817E-01
        1   -1    0    0  501    0  0.00000000000E+00  0.00000000000E+00  0.27855840745E+04  0.27855840745E+04  0.50400001928E-02 0.  1.
       -1   -1    0    0    0  501  0.00000000000E+00  0.00000000000E+00 -0.82666606357E+03  0.82666606358E+03  0.50400001928E-02 0. -1.
    10030    2    1    2    0    0  0.00000000000E+00  0.00000000000E+00  0.19589180109E+04  0.36122501380E+04  0.30349614967E+04 0.  0.
        1    1    3    3  502    0  0.14803288268E+04  0.28281404058E+03  0.76858430881E+03  0.16917680269E+04  0.50400001928E-02 0. -1.
       -1    1    3    3    0  502 -0.14803288268E+04 -0.28281404058E+03  0.11903337021E+04  0.19204821112E+04  0.50400001928E-02 0.  1.
</event>
<event>
 5   0  0.1625212E-06  0.3001383E+04  0.7818609E-02  0.8243336E-01
       -2   -1    0    0    0  501  0.00000000000E+00  0.00000000000E+00  0.14422751611E+04  0.14422751611E+04  0.25500000920E-02 0. -1.
        2   -1    0    0  501    0  0.00000000000E+00  0.00000000000E+00 -0.15614736747E+04  0.15614736747E+04  0.25500000920E-02 0.  1.
    10030    2    1    2    0    0  0.00000000000E+00  0.00000000000E+00 -0.11919851358E+03  0.30037488358E+04  0.30013828118E+04 0.  0.
        4    1    3    3  502    0 -0.13705063500E+04  0.62590273221E+02  0.54904781411E+03  0.14777213245E+04  0.12699999809E+01 0. -1.
       -4    1    3    3    0  502  0.13705063500E+04 -0.62590273221E+02 -0.66824632769E+03  0.15260275113E+04  0.12699999809E+01 0.  1.
</event>
<event>
 5   0  0.5431625E-07  0.2953337E+04  0.7818609E-02  0.8257183E-01
       -3   -1    0    0    0  501  0.00000000000E+00  0.00000000000E+00  0.18612832651E+04  0.18612832679E+04  0.10100000352E+00 0.  1.
        3   -1    0    0  501    0  0.00000000000E+00  0.00000000000E+00 -0.11715306113E+04  0.11715306156E+04  0.10100000352E+00 0. -1.
    10030    2    1    2    0    0  0.00000000000E+00  0.00000000000E+00  0.68975265383E+03  0.30328138835E+04  0.29533373205E+04 0.  0.
        4    1    3    3  502    0  0.85283268998E+03  0.56437924339E+02 -0.89170498769E+03  0.12351713381E+04  0.12699999809E+01 0. -1.
       -4    1    3    3    0  502 -0.85283268998E+03 -0.56437924339E+02  0.15814576415E+04  0.17976425455E+04  0.12699999809E+01 0.  1.
</event>
<event>
 5   0  0.1635086E-06  0.3003565E+04  0.7818609E-02  0.8242714E-01
        2   -1    0    0  501    0  0.00000000000E+00  0.00000000000E+00  0.15457748183E+04  0.15457748183E+04  0.25500000920E-02 0. -1.
       -2   -1    0    0    0  501  0.00000000000E+00  0.00000000000E+00 -0.14590422728E+04  0.14590422728E+04  0.25500000920E-02 0.  1.
    10030    2    1    2    0    0  0.00000000000E+00  0.00000000000E+00  0.86732545440E+02  0.30048170911E+04  0.30035650845E+04 0.  0.
        3    1    3    3  502    0  0.13197136027E+03  0.75910418707E+03  0.13329711729E+04  0.15396323473E+04  0.10100000352E+00 0. -1.
       -3    1    3    3    0  502 -0.13197136027E+03 -0.75910418707E+03 -0.12462386275E+04  0.14651847438E+04  0.10100000352E+00 0.  1.
</event>
<event>
 5   0  0.1674806E-06  0.2977009E+04  0.7818609E-02  0.8250327E-01
        2   -1    0    0  501    0  0.00000000000E+00  0.00000000000E+00  0.18479688260E+04  0.18479688260E+04  0.25500000920E-02 0. -1.
       -2   -1    0    0    0  501  0.00000000000E+00  0.00000000000E+00 -0.11989623208E+04  0.11989623208E+04  0.25500000920E-02 0.  1.
    10030    2    1    2    0    0  0.00000000000E+00  0.00000000000E+00  0.64900650522E+03  0.30469311468E+04  0.29770085605E+04 0.  0.
        2    1    3    3  502    0 -0.47680625134E+03 -0.14019195525E+04  0.16954589023E+03  0.14904591379E+04  0.25500000920E-02 0.  1.
       -2    1    3    3    0  502  0.47680625134E+03  0.14019195525E+04  0.47946061499E+03  0.15564720088E+04  0.25500000920E-02 0. -1.
</event>
<event>
 5   0  0.1723916E-06  0.2981654E+04  0.7818609E-02  0.8248989E-01
        2   -1    0    0  501    0  0.00000000000E+00  0.00000000000E+00  0.20572360286E+04  0.20572360286E+04  0.25500000920E-02 0.  1.
       -2   -1    0    0    0  501  0.00000000000E+00  0.00000000000E+00 -0.10803645523E+04  0.10803645523E+04  0.25500000920E-02 0. -1.
    10030    2    1    2    0    0  0.00000000000E+00  0.00000000000E+00  0.97687147636E+03  0.31376005809E+04  0.29816538236E+04 0.  0.
        1    1    3    3  502    0  0.58935396754E+03  0.16498126125E+03 -0.94207906597E+03  0.11234188365E+04  0.50400001928E-02 0. -1.
       -1    1    3    3    0  502 -0.58935396754E+03 -0.16498126125E+03  0.19189505423E+04  0.20141817444E+04  0.50400001928E-02 0.  1.
</event>
<event>
 5   0  0.5874741E-07  0.2992164E+04  0.7818609E-02  0.8245972E-01
        1   -1    0    0  501    0  0.00000000000E+00  0.00000000000E+00  0.11452633332E+04  0.11452633332E+04  0.50400001928E-02 0. -1.
       -1   -1    0    0    0  501  0.00000000000E+00  0.00000000000E+00 -0.19543640200E+04  0.19543640200E+04  0.50400001928E-02 0.  1.
    10030    2    1    2    0    0  0.00000000000E+00  0.00000000000E+00 -0.80910068681E+03  0.30996273532E+04  0.29921640676E+04 0.  0.
        4    1    3    3  502    0  0.13281046179E+03 -0.11743263269E+04  0.54577322519E+03  0.13017491952E+04  0.12699999809E+01 0. -1.
       -4    1    3    3    0  502 -0.13281046179E+03  0.11743263269E+04 -0.13548739120E+04  0.17978781581E+04  0.12699999809E+01 0.  1.
</event>
<event>
 5   0  0.1674806E-06  0.3067553E+04  0.7818609E-02  0.8224700E-01
        2   -1    0    0  501    0  0.00000000000E+00  0.00000000000E+00  0.17407547058E+04  0.17407547058E+04  0.25500000920E-02 0.  1.
       -2   -1    0    0    0  501  0.00000000000E+00  0.00000000000E+00 -0.13514081882E+04  0.13514081882E+04  0.25500000920E-02 0. -1.
    10030    2    1    2    0    0  0.00000000000E+00  0.00000000000E+00  0.38934651758E+03  0.30921628940E+04  0.30675528769E+04 0.  0.
        2    1    3    3  502    0  0.85478152519E+03 -0.10135523743E+04  0.97191711948E+03  0.16439473101E+04  0.25500000920E-02 0.  1.
       -2    1    3    3    0  502 -0.85478152519E+03  0.10135523743E+04 -0.58257060190E+03  0.14482155839E+04  0.25500000920E-02 0. -1.
</event>
<event>
 5   0  0.5887179E-07  0.3031987E+04  0.7818609E-02  0.8234655E-01
       -1   -1    0    0    0  501  0.00000000000E+00  0.00000000000E+00  0.13473288209E+04  0.13473288209E+04  0.50400001928E-02 0. -1.
        1   -1    0    0  501    0  0.00000000000E+00  0.00000000000E+00 -0.17057725979E+04  0.17057725979E+04  0.50400001928E-02 0.  1.
    10030    2    1    2    0    0  0.00000000000E+00  0.00000000000E+00 -0.35844377701E+03  0.30531014188E+04  0.30319871920E+04 0.  0.
        3    1    3    3  502    0 -0.25291099480E+03  0.59887404456E+03  0.11998489763E+04  0.13646434218E+04  0.10100000352E+00 0. -1.
       -3    1    3    3    0  502  0.25291099480E+03 -0.59887404456E+03 -0.15582927533E+04  0.16884579970E+04  0.10100000352E+00 0.  1.
</event>
<event>
 5   0  0.5874741E-07  0.3003663E+04  0.7818609E-02  0.8242686E-01
        1   -1    0    0  501    0  0.00000000000E+00  0.00000000000E+00  0.10809632040E+04  0.10809632040E+04  0.50400001928E-02 0. -1.
       -1   -1    0    0    0  501  0.00000000000E+00  0.00000000000E+00 -0.20865637082E+04  0.20865637082E+04  0.50400001928E-02 0.  1.
    10030    2    1    2    0    0  0.00000000000E+00  0.00000000000E+00 -0.10056005043E+04  0.31675269122E+04  0.30036634907E+04 0.  0.
        4    1    3    3  502    0 -0.95912418020E+03  0.43076605864E+03  0.62809252412E+03  0.12247368787E+04  0.12699999809E+01 0. -1.
       -4    1    3    3    0  502  0.95912418020E+03 -0.43076605864E+03 -0.16336930284E+04  0.19427900335E+04  0.12699999809E+01 0.  1.
</event>
<event>
 5   0  0.5931588E-07  0.2994047E+04  0.7818609E-02  0.8245433E-01
       -1   -1    0    0    0  501  0.00000000000E+00  0.00000000000E+00  0.21346247217E+04  0.21346247217E+04  0.50400001928E-02 0.  1.
        1   -1    0    0  501    0  0.00000000000E+00  0.00000000000E+00 -0.10498705803E+04  0.10498705803E+04  0.50400001928E-02 0. -1.
    10030    2    1    2    0    0  0.00000000000E+00  0.00000000000E+00  0.10847541414E+04  0.31844953020E+04  0.29940472243E+04 0.  0.
        2    1    3    3  502    0  0.81198789441E+03 -0.12342517131E+04  0.28539264267E+03  0.15047094711E+04  0.25500000920E-02 0. -1.
       -2    1    3    3    0  502 -0.81198789441E+03  0.12342517131E+04  0.79936149868E+03  0.16797858309E+04  0.25500000920E-02 0.  1.
</event>
<event>
 5   0  0.5916703E-07  0.2990207E+04  0.7818609E-02  0.8246533E-01
       -1   -1    0    0    0  501  0.00000000000E+00  0.00000000000E+00  0.13846160220E+04  0.13846160220E+04  0.50400001928E-02 0.  1.
        1   -1    0    0  501    0  0.00000000000E+00  0.00000000000E+00 -0.16144072595E+04  0.16144072595E+04  0.50400001928E-02 0. -1.
    10030    2    1    2    0    0  0.00000000000E+00  0.00000000000E+00 -0.22979123748E+03  0.29990232814E+04  0.29902067871E+04 0.  0.
        5    1    3    3  502    0  0.52918770814E+03 -0.27020826069E+03  0.12611043154E+04  0.13940797391E+04  0.46999998093E+01 0.  1.
       -5    1    3    3    0  502 -0.52918770814E+03  0.27020826069E+03 -0.14908955529E+04  0.16049435424E+04  0.46999998093E+01 0. -1.
</event>
<event>
 5   0  0.1635086E-06  0.3001461E+04  0.7818609E-02  0.8243314E-01
       -2   -1    0    0    0  501  0.00000000000E+00  0.00000000000E+00  0.14575649850E+04  0.14575649850E+04  0.25500000920E-02 0. -1.
        2   -1    0    0  501    0  0.00000000000E+00  0.00000000000E+00 -0.15451747222E+04  0.15451747222E+04  0.25500000920E-02 0.  1.
    10030    2    1    2    0    0  0.00000000000E+00  0.00000000000E+00 -0.87609737167E+02  0.30027397073E+04  0.30014613580E+04 0.  0.
        3    1    3    3  502    0  0.24483924617E+03 -0.67304533986E+03  0.12755654812E+04  0.14628751119E+04  0.10100000352E+00 0. -1.
       -3    1    3    3    0  502 -0.24483924617E+03  0.67304533986E+03 -0.13631752184E+04  0.15398645954E+04  0.10100000352E+00 0.  1.
</event>
<event>
 5   0  0.1625212E-06  0.3011255E+04  0.7818609E-02  0.8240524E-01
       -2   -1    0    0    0  501  0.00000000000E+00  0.00000000000E+00  0.15665708896E+04  0.15665708896E+04  0.25500000920E-02 0. -1.
        2   -1    0    0  501    0  0.00000000000E+00  0.00000000000E+00 -0.14470549186E+04  0.14470549186E+04  0.25500000920E-02 0.  1.
    10030    2    1    2    0    0  0.00000000000E+00  0.00000000000E+00  0.11951597101E+03  0.30136258083E+04  0.30112549618E+04 0.  0.
        4    1    3    3  502    0 -0.44078915046E+03  0.90757945341E+03 -0.10586714261E+04  0.14624576372E+04  0.12699999809E+01 0.  1.
       -4    1    3    3    0  502  0.44078915046E+03 -0.90757945341E+03  0.11781873971E+04  0.15511681711E+04  0.12699999809E+01 0. -1.
</event>
<event>
 5   0  0.1560174E-06  0.2996364E+04  0.7818609E-02  0.8244770E-01
        2   -1    0    0  501    0  0.00000000000E+00  0.00000000000E+00  0.19626277112E+04  0.19626277112E+04  0.25500000920E-02 0. -1.
       -2   -1    0    0    0  501  0.00000000000E+00  0.00000000000E+00 -0.11436447514E+04  0.11436447514E+04  0.25500000920E-02 0.  1.
    10030    2    1    2    0    0  0.00000000000E+00  0.00000000000E+00  0.81898295973E+03  0.31062724626E+04  0.29963637168E+04 0.  0.
        5    1    3    3  502    0 -0.26484391193E+03 -0.12925251600E+04 -0.32630590224E+03  0.13591398820E+04  0.46999998093E+01 0.  1.
       -5    1    3    3    0  502  0.26484391193E+03  0.12925251600E+04  0.11452888620E+04  0.17471325806E+04  0.46999998093E+01 0. -1.
</event>
<event>
 5   0  0.5931588E-07  0.3007308E+04  0.7818609E-02  0.8241647E-01
        1   -1    0    0  501    0  0.00000000000E+00  0.00000000000E+00  0.16148683937E+04  0.16148683937E+04  0.50400001928E-02 0. -1.
       -1   -1    0    0    0  501  0.00000000000E+00  0.00000000000E+00 -0.14000988627E+04  0.14000988627E+04  0.50400001928E-02 0.  1.
    10030    2    1    2    0    0  0.00000000000E+00  0.00000000000E+00  0.21476953103E+03  0.30149672564E+04  0.30073080331E+04 0.  0.
        2    1    3    3  502    0 -0.76374680029E+03  0.11403125866E+04 -0.50847075290E+03  0.14636134997E+04  0.25500000920E-02 0.  1.
       -2    1    3    3    0  502  0.76374680029E+03 -0.11403125866E+04  0.72324028393E+03  0.15513537567E+04  0.25500000920E-02 0. -1.
</event>
<event>
 5   0  0.5931588E-07  0.3003907E+04  0.7818609E-02  0.8242616E-01
       -1   -1    0    0    0  501  0.00000000000E+00  0.00000000000E+00  0.14460703433E+04  0.14460703433E+04  0.50400001928E-02 0.  1.
        1   -1    0    0  501    0  0.00000000000E+00  0.00000000000E+00 -0.15599963538E+04  0.15599963538E+04  0.50400001928E-02 0. -1.
    10030    2    1    2    0    0  0.00000000000E+00  0.00000000000E+00 -0.11392601047E+03  0.30060666971E+04  0.30039070977E+04 0.  0.
        2    1    3    3  502    0  0.24901658306E+03  0.14581134403E+04  0.20353241607E+03  0.14931609116E+04  0.25500000920E-02 0.  1.
       -2    1    3    3    0  502 -0.24901658306E+03 -0.14581134403E+04 -0.31745842654E+03  0.15129057856E+04  0.25500000920E-02 0. -1.
</event>
<event>
 5   0  0.5431625E-07  0.2994398E+04  0.7818609E-02  0.8245332E-01
       -3   -1    0    0    0  501  0.00000000000E+00  0.00000000000E+00  0.21739462790E+04  0.21739462814E+04  0.10100000352E+00 0. -1.
        3   -1    0    0  501    0  0.00000000000E+00  0.00000000000E+00 -0.10311226887E+04  0.10311226937E+04  0.10100000352E+00 0.  1.
    10030    2    1    2    0    0  0.00000000000E+00  0.00000000000E+00  0.11428235903E+04  0.32050689751E+04  0.29943983330E+04 0.  0.
        3    1    3    3  502    0  0.81181966069E+03  0.66980574281E+03 -0.56836011823E+03  0.11961288094E+04  0.10100000352E+00 0.  1.
       -3    1    3    3    0  502 -0.81181966069E+03 -0.66980574281E+03  0.17111837085E+04  0.20089401656E+04  0.10100000352E+00 0. -1.
</event>
<event>
 5   0  0.5431625E-07  0.3003067E+04  0.7818609E-02  0.8242856E-01
        3   -1    0    0  501    0  0.00000000000E+00  0.00000000000E+00  0.12453441807E+04  0.12453441848E+04  0.10100000352E+00 0.  1.
       -3   -1    0    0    0  501  0.00000000000E+00  0.00000000000E+00 -0.18104252520E+04  0.18104252548E+04  0.10100000352E+00 0. -1.
    10030    2    1    2    0    0  0.00000000000E+00  0.00000000000E+00 -0.56508107123E+03  0.30557694396E+04  0.30030668076E+04 0.  0.
        4    1    3    3  502    0  0.93935713603E+03  0.51203808036E+03 -0.13546081815E+04  0.17261343410E+04  0.12699999809E+01 0. -1.
       -4    1    3    3    0  502 -0.93935713603E+03 -0.51203808036E+03  0.78952711029E+03  0.13296350986E+04  0.12699999809E+01 0.  1.
</event>
<event>
 5   0  0.5874741E-07  0.2987912E+04  0.7818609E-02  0.8247191E-01
        1   -1    0    0  501    0  0.00000000000E+00  0.00000000000E+00  0.10462388288E+04  0.10462388288E+04  0.50400001928E-02 0.  1.
       -1   -1    0    0    0  501  0.00000000000E+00  0.00000000000E+00 -0.21332650468E+04  0.21332650468E+04  0.50400001928E-02 0. -1.
    10030    2    1    2    0    0  0.00000000000E+00  0.00000000000E+00 -0.10870262181E+04  0.31795038756E+04  0.29879121299E+04 0.  0.
        4    1    3    3  502    0 -0.90682496136E+03  0.98837146536E+03 -0.12434867667E+04  0.18290627698E+04  0.12699999809E+01 0. -1.
       -4    1    3    3    0  502  0.90682496136E+03 -0.98837146536E+03  0.15646054860E+03  0.13504411058E+04  0.12699999809E+01 0.  1.
</event>
<event>
 5   0  0.6291798E-07  0.2984001E+04  0.7818609E-02  0.8248314E-01
        1   -1    0    0  501    0  0.00000000000E+00  0.00000000000E+00  0.83205113066E+03  0.83205113067E+03  0.50400001928E-02 0. -1.
       -1   -1    0    0    0  501  0.00000000000E+00  0.00000000000E+00 -0.26753944387E+04  0.26753944387E+04  0.50400001928E-02 0.  1.
    10030    2    1    2    0    0  0.00000000000E+00  0.00000000000E+00 -0.18433433080E+04  0.35074455694E+04  0.29840006486E+04 0.  0.
        1    1    3    3  502    0 -0.71009443644E+03  0.10782969139E+04 -0.18005714141E+04  0.22156298789E+04  0.50400001928E-02 0.  1.
       -1    1    3    3    0  502  0.71009443644E+03 -0.10782969139E+04 -0.42771893946E+02  0.12918156904E+04  0.50400001928E-02 0. -1.
</event>
<event>
 5   0  0.1625212E-06  0.2994605E+04  0.7818609E-02  0.8245273E-01
        2   -1    0    0  501    0  0.00000000000E+00  0.00000000000E+00  0.14961745166E+04  0.14961745166E+04  0.25500000920E-02 0. -1.
       -2   -1    0    0    0  501  0.00000000000E+00  0.00000000000E+00 -0.14984316328E+04  0.14984316328E+04  0.25500000920E-02 0.  1.
    10030    2    1    2    0    0  0.00000000000E+00  0.00000000000E+00 -0.22571162400E+01  0.29946061494E+04  0.29946052988E+04 0.  0.
        4    1    3    3  502    0 -0.14034209336E+04 -0.33940120196E+03 -0.39752508604E+03  0.14976018496E+04  0.12699999809E+01 0. -1.
       -4    1    3    3    0  502  0.14034209336E+04  0.33940120196E+03  0.39526796980E+03  0.14970042998E+04  0.12699999809E+01 0.  1.
</event>
<event>
 5   0  0.1560174E-06  0.3000033E+04  0.7818609E-02  0.8243721E-01
        2   -1    0    0  501    0  0.00000000000E+00  0.00000000000E+00  0.14869136506E+04  0.14869136506E+04  0.25500000920E-02 0.  1.
       -2   -1    0    0    0  501  0.00000000000E+00  0.00000000000E+00 -0.15132346870E+04  0.15132346870E+04  0.25500000920E-02 0. -1.
    10030    2    1    2    0    0  0.00000000000E+00  0.00000000000E+00 -0.26321036386E+02  0.30001483376E+04  0.30000328749E+04 0.  0.
        5    1    3    3  502    0  0.72027119153E+03 -0.95022629026E+03  0.89698803571E+03  0.14920892126E+04  0.46999998093E+01 0.  1.
       -5    1    3    3    0  502 -0.72027119153E+03  0.95022629026E+03 -0.92330907209E+03  0.15080591251E+04  0.46999998093E+01 0. -1.
</event>
<event>
 5   0  0.5916703E-07  0.2980070E+04  0.7818609E-02  0.8249445E-01
        1   -1    0    0  501    0  0.00000000000E+00  0.00000000000E+00  0.21088861466E+04  0.21088861466E+04  0.50400001928E-02 0.  1.
       -1   -1    0    0    0  501  0.00000000000E+00  0.00000000000E+00 -0.10527855196E+04  0.10527855196E+04  0.50400001928E-02 0. -1.
    10030    2    1    2    0    0  0.00000000000E+00  0.00000000000E+00  0.10561006270E+04  0.31616716662E+04  0.29800703332E+04 0.  0.
        5    1    3    3  502    0  0.20226671491E+03 -0.11001973313E+04  0.15723269162E+04  0.19296580042E+04  0.46999998093E+01 0.  1.
       -5    1    3    3    0  502 -0.20226671491E+03  0.11001973313E+04 -0.51622628918E+03  0.12320136620E+04  0.46999998093E+01 0. -1.
</event>
<event>
 5   0  0.1723916E-06  0.2989687E+04  0.7818609E-02  0.8246682E-01
       -2   -1    0    0    0  501  0.00000000000E+00  0.00000000000E+00  0.16337095392E+04  0.16337095392E+04  0.25500000920E-02 0. -1.
        2   -1    0    0  501    0  0.00000000000E+00  0.00000000000E+00 -0.13677811360E+04  0.13677811360E+04  0.25500000920E-02 0.  1.
    10030    2    1    2    0    0  0.00000000000E+00  0.00000000000E+00  0.26592840319E+03  0.30014906752E+04  0.29896870000E+04 0.  0.
        1    1    3    3  502    0  0.46406406015E+03  0.94761466345E+03  0.11960253827E+04  0.15949312582E+04  0.50400001928E-02 0. -1.
       -1    1    3    3    0  502 -0.46406406015E+03 -0.94761466345E+03 -0.93009697952E+03  0.14065594170E+04  0.50400001928E-02 0.  1.
</event>
<event>
 5   0  0.1674806E-06  0.2989092E+04  0.7818609E-02  0.8246853E-01
        2   -1    0    0  501    0  0.00000000000E+00  0.00000000000E+00  0.17038803499E+04  0.17038803499E+04  0.25500000920E-02 0. -1.
       -2   -1    0    0    0  501  0.00000000000E+00  0.00000000000E+00 -0.13109300466E+04  0.13109300466E+04  0.25500000920E-02 0.  1.
    10030    2    1    2    0    0  0.00000000000E+00  0.00000000000E+00  0.39295030326E+03  0.30148103965E+04  0.29890921340E+04 0.  0.
        2    1    3    3  502    0  0.56341076668E+03  0.13610108305E+04  0.45140622934E+03  0.15406329078E+04  0.25500000920E-02 0. -1.
       -2    1    3    3    0  502 -0.56341076668E+03 -0.13610108305E+04 -0.58455926079E+02  0.14741774886E+04  0.25500000920E-02 0.  1.
</event>
<event>
 5   0  0.1674806E-06  0.3003829E+04  0.7818609E-02  0.8242638E-01
       -2   -1    0    0    0  501  0.00000000000E+00  0.00000000000E+00  0.10178748795E+04  0.10178748795E+04  0.25500000920E-02 0.  1.
        2   -1    0    0  501    0  0.00000000000E+00  0.00000000000E+00 -0.22161343325E+04  0.22161343325E+04  0.25500000920E-02 0. -1.
    10030    2    1    2    0    0  0.00000000000E+00  0.00000000000E+00 -0.11982594530E+04  0.32340092120E+04  0.30038292006E+04 0.  0.
        2    1    3    3  502    0  0.61663115232E+03 -0.25110367985E+03 -0.20485698682E+04  0.21540486394E+04  0.25500000920E-02 0. -1.
       -2    1    3    3    0  502 -0.61663115232E+03  0.25110367985E+03  0.85031041524E+03  0.10799605726E+04  0.25500000920E-02 0.  1.
</event>
<event>
 5   0  0.5874741E-07  0.2996229E+04  0.7818609E-02  0.8244809E-01
       -1   -1    0    0    0  501  0.00000000000E+00  0.00000000000E+00  0.85863795175E+03  0.85863795177E+03  0.50400001928E-02 0. -1.
        1   -1    0    0  501    0  0.00000000000E+00  0.00000000000E+00 -0.26138447901E+04  0.26138447901E+04  0.50400001928E-02 0.  1.
    10030    2    1    2    0    0  0.00000000000E+00  0.00000000000E+00 -0.17552068384E+04  0.34724827419E+04  0.29962285205E+04 0.  0.
        4    1    3    3  502    0  0.59862483677E+02  0.62674285293E+03  0.69786902449E+03  0.93990047818E+03  0.12699999809E+01 0. -1.
       -4    1    3    3    0  502 -0.59862483677E+02 -0.62674285293E+03 -0.24530758628E+04  0.25325822637E+04  0.12699999809E+01 0.  1.
</event>
<event>
 5   0  0.6291798E-07  0.2992127E+04  0.7818609E-02  0.8245983E-01
       -1   -1    0    0    0  501  0.00000000000E+00  0.00000000000E+00  0.99414406959E+03  0.99414406960E+03  0.50400001928E-02 0. -1.
        1   -1    0    0  501    0  0.00000000000E+00  0.00000000000E+00 -0.22513898219E+04  0.22513898219E+04  0.50400001928E-02 0.  1.
    10030    2    1    2    0    0  0.00000000000E+00  0.00000000000E+00 -0.12572457524E+04  0.32455338915E+04  0.29921268956E+04 0.  0.
        1    1    3    3  502    0  0.68090620495E+02  0.94473892531E+03  0.62748419896E+03  0.11361797347E+04  0.50400001928E-02 0. -1.
       -1    1    3    3    0  502 -0.68090620495E+02 -0.94473892531E+03 -0.18847299513E+04  0.21093541568E+04  0.50400001928E-02 0.  1.
</event>
<event>
 5   0  0.1560174E-06  0.3007935E+04  0.7818609E-02  0.8241469E-01
        2   -1    0    0  501    0  0.00000000000E+00  0.00000000000E+00  0.14075164729E+04  0.14075164729E+04  0.25500000920E-02 0.  1.
       -2   -1    0    0    0  501  0.00000000000E+00  0.00000000000E+00 -0.16070276134E+04  0.16070276134E+04  0.25500000920E-02 0. -1.
    10030    2    1    2    0    0  0.00000000000E+00  0.00000000000E+00 -0.19951114053E+03  0.30145440863E+04  0.30079347322E+04 0.  0.
        5    1    3    3  502    0 -0.62422979986E+02 -0.14581804217E+04  0.26395918541E+03  0.14832003615E+04  0.46999998093E+01 0.  1.
       -5    1    3    3    0  502  0.62422979986E+02  0.14581804217E+04 -0.46347032595E+03  0.15313437249E+04  0.46999998093E+01 0. -1.
</event>
<event>
 5   0  0.5916703E-07  0.3008190E+04  0.7818609E-02  0.8241396E-01
       -1   -1    0    0    0  501  0.00000000000E+00  0.00000000000E+00  0.16720241468E+04  0.16720241468E+04  0.50400001928E-02 0. -1.
        1   -1    0    0  501    0  0.00000000000E+00  0.00000000000E+00 -0.13530313108E+04  0.13530313108E+04  0.50400001928E-02 0.  1.
    10030    2    1    2    0    0  0.00000000000E+00  0.00000000000E+00  0.31899283592E+03  0.30250554576E+04  0.30081895040E+04 0.  0.
        5    1    3    3  502    0 -0.89361419676E+03 -0.92354093408E+03 -0.62642540804E+03  0.14296520805E+04  0.46999998093E+01 0.  1.
       -5    1    3    3    0  502  0.89361419676E+03  0.92354093408E+03  0.94541824395E+03  0.15954033771E+04  0.46999998093E+01 0. -1.
</event>
<event>
 5   0  0.1674806E-06  0.2977659E+04  0.7818609E-02  0.8250139E-01
       -2   -1    0    0    0  501  0.00000000000E+00  0.00000000000E+00  0.11138625691E+04  0.11138625691E+04  0.25500000920E-02 0.  1.
        2   -1    0    0  501    0  0.00000000000E+00  0.00000000000E+00 -0.19900245050E+04  0.19900245050E+04  0.25500000920E-02 0. -1.
    10030    2    1    2    0    0  0.00000000000E+00  0.00000000000E+00 -0.87616193591E+03  0.31038870742E+04  0.29776593545E+04 0.  0.
        2    1    3    3  502    0  0.19202997149E+03 -0.37926343680E+03  0.10492542404E+04  0.11321001393E+04  0.25500000920E-02 0.  1.
       -2    1    3    3    0  502 -0.19202997149E+03  0.37926343680E+03 -0.19254161763E+04  0.19717869349E+04  0.25500000920E-02 0. -1.
</event>
<event>
 5   0  0.1625212E-06  0.3013482E+04  0.7818609E-02  0.8239892E-01
       -2   -1    0    0    0  501  0.00000000000E+00  0.00000000000E+00  0.95425667220E+03  0.95425667220E+03  0.25500000920E-02 0. -1.
        2   -1    0    0  501    0  0.00000000000E+00  0.00000000000E+00 -0.23790959980E+04  0.23790959980E+04  0.25500000920E-02 0.  1.
    10030    2    1    2    0    0  0.00000000000E+00  0.00000000000E+00 -0.14248393258E+04  0.33333526702E+04  0.30134818598E+04 0.  0.
        4    1    3    3  502    0 -0.63952436655E+03  0.79729883325E+03 -0.19369942630E+04  0.21901199128E+04  0.12699999809E+01 0.  1.
       -4    1    3    3    0  502  0.63952436655E+03 -0.79729883325E+03  0.51215493718E+03  0.11432327574E+04  0.12699999809E+01 0. -1.
</event>
<event>
 5   0  0.5874741E-07  0.2998631E+04  0.7818609E-02  0.8244122E-01
       -1   -1    0    0    0  501  0.00000000000E+00  0.00000000000E+00  0.10572884542E+04  0.10572884543E+04  0.50400001928E-02 0. -1.
        1   -1    0    0  501    0  0.00000000000E+00  0.00000000000E+00 -0.21261441082E+04  0.21261441082E+04  0.50400001928E-02 0.  1.
    10030    2    1    2    0    0  0.00000000000E+00  0.00000000000E+00 -0.10688556540E+04  0.31834325625E+04  0.29986314330E+04 0.  0.
        4    1    3    3  502    0  0.68146633145E+03  0.59544464051E+03 -0.18035048143E+04  0.20178161236E+04  0.12699999809E+01 0.  1.
       -4    1    3    3    0  502 -0.68146633145E+03 -0.59544464051E+03  0.73464916032E+03  0.11656164388E+04  0.12699999809E+01 0. -1.
</event>
<event>
 5   0  0.1560174E-06  0.3015857E+04  0.7818609E-02  0.8239217E-01
       -2   -1    0    0    0  501  0.00000000000E+00  0.00000000000E+00  0.12622976887E+04  0.12622976887E+04  0.25500000920E-02 0.  1.
        2   -1    0    0  501    0  0.00000000000E+00  0.00000000000E+00 -0.18013567653E+04  0.18013567653E+04  0.25500000920E-02 0. -1.
    10030    2    1    2    0    0  0.00000000000E+00  0.00000000000E+00 -0.53905907653E+03  0.30636544540E+04  0.30158570798E+04 0.  0.
        5    1    3    3  502    0  0.86578349038E+03  0.54847463262E+03 -0.13931431045E+04  0.17295303624E+04  0.46999998093E+01 0. -1.
       -5    1    3    3    0  502 -0.86578349038E+03 -0.54847463262E+03  0.85408402801E+03  0.13341240916E+04  0.46999998093E+01 0.  1.
</event>
<event>
 5   0  0.1635086E-06  0.2978588E+04  0.7818609E-02  0.8249872E-01
        2   -1    0    0  501    0  0.00000000000E+00  0.00000000000E+00  0.18410950865E+04  0.18410950865E+04  0.25500000920E-02 0.  1.
       -2   -1    0    0    0  501  0.00000000000E+00  0.00000000000E+00 -0.12047163378E+04  0.12047163378E+04  0.25500000920E-02 0. -1.
    10030    2    1    2    0    0  0.00000000000E+00  0.00000000000E+00  0.63637874869E+03  0.30458114243E+04  0.29785884779E+04 0.  0.
        3    1    3    3  502    0 -0.94117333287E+03 -0.10533547050E+02  0.14983945555E+04  0.17694927104E+04  0.10100000352E+00 0.  1.
       -3    1    3    3    0  502  0.94117333287E+03  0.10533547050E+02 -0.86201580677E+03  0.12763187139E+04  0.10100000352E+00 0. -1.
</event>
<event>
 5   0  0.1625212E-06  0.2854709E+04  0.7818609E-02  0.8286482E-01
       -2   -1    0    0    0  501  0.00000000000E+00  0.00000000000E+00  0.10514670501E+04  0.10514670501E+04  0.25500000920E-02 0. -1.
        2   -1    0    0  501    0  0.00000000000E+00  0.00000000000E+00 -0.19376179851E+04  0.19376179851E+04  0.25500000920E-02 0.  1.
    10030    2    1    2    0    0  0.00000000000E+00  0.00000000000E+00 -0.88615093501E+03  0.29890850352E+04  0.28547094192E+04 0.  0.
        4    1    3    3  502    0  0.85978602564E+03  0.17580231715E+03 -0.16217643371E+04  0.18439792956E+04  0.12699999809E+01 0.  1.
       -4    1    3    3    0  502 -0.85978602564E+03 -0.17580231715E+03  0.73561340210E+03  0.11451057396E+04  0.12699999809E+01 0. -1.
</event>
<event>
 5   0  0.5931588E-07  0.3003382E+04  0.7818609E-02  0.8242766E-01
        1   -1    0    0  501    0  0.00000000000E+00  0.00000000000E+00  0.16992202548E+04  0.16992202548E+04  0.50400001928E-02 0.  1.
       -1   -1    0    0    0  501  0.00000000000E+00  0.00000000000E+00 -0.13271237274E+04  0.13271237274E+04  0.50400001928E-02 0. -1.
    10030    2    1    2    0    0  0.00000000000E+00  0.00000000000E+00  0.37209652736E+03  0.30263439822E+04  0.30033817728E+04 0.  0.
        2    1    3    3  502    0 -0.29288738510E+02  0.10262019487E+03 -0.13232979293E+04  0.13275941188E+04  0.25500000920E-02 0. -1.
       -2    1    3    3    0  502  0.29288738510E+02 -0.10262019487E+03  0.16953944567E+04  0.16987498634E+04  0.25500000920E-02 0.  1.
</event>
<event>
 5   0  0.1560174E-06  0.3009796E+04  0.7818609E-02  0.8240939E-01
        2   -1    0    0  501    0  0.00000000000E+00  0.00000000000E+00  0.12495465728E+04  0.12495465728E+04  0.25500000920E-02 0.  1.
       -2   -1    0    0    0  501  0.00000000000E+00  0.00000000000E+00 -0.18124313002E+04  0.18124313002E+04  0.25500000920E-02 0. -1.
    10030    2    1    2    0    0  0.00000000000E+00  0.00000000000E+00 -0.56288472741E+03  0.30619778729E+04  0.30097955542E+04 0.  0.
        5    1    3    3  502    0  0.89794678566E+03  0.73076772753E+03  0.69666578085E+03  0.13511828898E+04  0.46999998093E+01 0.  1.
       -5    1    3    3    0  502 -0.89794678566E+03 -0.73076772753E+03 -0.12595505083E+04  0.17107949831E+04  0.46999998093E+01 0. -1.
</event>
<event>
 5   0  0.5916703E-07  0.2995927E+04  0.7818609E-02  0.8244895E-01
       -1   -1    0    0    0  501  0.00000000000E+00  0.00000000000E+00  0.22926312557E+04  0.22926312557E+04  0.50400001928E-02 0.  1.
        1   -1    0    0  501    0  0.00000000000E+00  0.00000000000E+00 -0.97874205252E+03  0.97874205253E+03  0.50400001928E-02 0. -1.
    10030    2    1    2    0    0  0.00000000000E+00  0.00000000000E+00  0.13138892031E+04  0.32713733082E+04  0.29959269823E+04 0.  0.
        5    1    3    3  502    0  0.14974459318E+03 -0.96558851169E+03 -0.58282261992E+03  0.11377560869E+04  0.46999998093E+01 0. -1.
       -5    1    3    3    0  502 -0.14974459318E+03  0.96558851169E+03  0.18967118231E+04  0.21336172213E+04  0.46999998093E+01 0.  1.
</event>
<event>
 5   0  0.1625212E-06  0.2981996E+04  0.7818609E-02  0.8248891E-01
       -2   -1    0    0    0  501  0.00000000000E+00  0.00000000000E+00  0.11015106192E+04  0.11015106192E+04  0.25500000920E-02 0.  1.
        2   -1    0    0  501    0  0.00000000000E+00  0.00000000000E+00 -0.20182055810E+04  0.20182055810E+04  0.25500000920E-02 0. -1.
    10030    2    1    2    0    0  0.00000000000E+00  0.00000000000E+00 -0.91669496180E+03  0.31197162002E+04  0.29819958948E+04 0.  0.
        4    1    3    3  502    0  0.71751834182E+03  0.53844686419E+02 -0.18245457173E+04  0.19613007185E+04  0.12699999809E+01 0. -1.
       -4    1    3    3    0  502 -0.71751834182E+03 -0.53844686419E+02  0.90785075547E+03  0.11584154817E+04  0.12699999809E+01 0.  1.
</event>
<event>
 5   0  0.6291798E-07  0.3037406E+04  0.7818609E-02  0.8233129E-01
        1   -1    0    0  501    0  0.00000000000E+00  0.00000000000E+00  0.22611161037E+04  0.22611161037E+04  0.50400001928E-02 0. -1.
       -1   -1    0    0    0  501  0.00000000000E+00  0.00000000000E+00 -0.10200529635E+04  0.10200529635E+04  0.50400001928E-02 0.  1.
    10030    2    1    2    0    0  0.00000000000E+00  0.00000000000E+00  0.12410631403E+04  0.32811690672E+04  0.30374055919E+04 0.  0.
        1    1    3    3  502    0 -0.13990144633E+04  0.51950803854E+03  0.31627541067E+03  0.15255032632E+04  0.50400001928E-02 0.  1.
       -1    1    3    3    0  502  0.13990144633E+04 -0.51950803854E+03  0.92478772962E+03  0.17556658040E+04  0.50400001928E-02 0. -1.
</event>
<event>
 5   0  0.1560174E-06  0.2914475E+04  0.7818609E-02  0.8268584E-01
        2   -1    0    0  501    0  0.00000000000E+00  0.00000000000E+00  0.19758005459E+04  0.19758005459E+04  0.25500000920E-02 0. -1.
       -2   -1    0    0    0  501  0.00000000000E+00  0.00000000000E+00 -0.10747753330E+04  0.10747753330E+04  0.25500000920E-02 0.  1.
    10030    2    1    2    0    0  0.00000000000E+00  0.00000000000E+00  0.90102521295E+03  0.30505758789E+04  0.29144753830E+04 0.  0.
        5    1    3    3  502    0 -0.30936556171E+03 -0.46877036825E+02  0.19402163276E+04  0.19652903081E+04  0.46999998093E+01 0. -1.
       -5    1    3    3    0  502  0.30936556171E+03  0.46877036825E+02 -0.10391911146E+04  0.10852855708E+04  0.46999998093E+01 0.  1.
</event>
<event>
 5   0  0.5916703E-07  0.2983422E+04  0.7818609E-02  0.8248481E-01
        1   -1    0    0  501    0  0.00000000000E+00  0.00000000000E+00  0.11404921465E+04  0.11404921465E+04  0.50400001928E-02 0.  1.
       -1   -1    0    0    0  501  0.00000000000E+00  0.00000000000E+00 -0.19510885029E+04  0.19510885029E+04  0.50400001928E-02 0. -1.
    10030    2    1    2    0    0  0.00000000000E+00  0.00000000000E+00 -0.81059635638E+03  0.30915806493E+04  0.29834216025E+04 0.  0.
        5    1    3    3  502    0 -0.27123287461E+03 -0.69003131343E+03 -0.17466233935E+04  0.18974788153E+04  0.46999998093E+01 0. -1.
       -5    1    3    3    0  502  0.27123287461E+03  0.69003131343E+03  0.93602703714E+03  0.11941018340E+04  0.46999998093E+01 0.  1.
</event>
<event>
 5   0  0.5916703E-07  0.3001736E+04  0.7818609E-02  0.8243235E-01
        1   -1    0    0  501    0  0.00000000000E+00  0.00000000000E+00  0.15645387293E+04  0.15645387293E+04  0.50400001928E-02 0.  1.
       -1   -1    0    0    0  501  0.00000000000E+00  0.00000000000E+00 -0.14397881806E+04  0.14397881806E+04  0.50400001928E-02 0. -1.
    10030    2    1    2    0    0  0.00000000000E+00  0.00000000000E+00  0.12475054869E+03  0.30043269099E+04  0.30017357449E+04 0.  0.
        5    1    3    3  502    0 -0.11014270685E+04 -0.70711030362E+03 -0.67272160334E+03  0.14716395667E+04  0.46999998093E+01 0.  1.
       -5    1    3    3    0  502  0.11014270685E+04  0.70711030362E+03  0.79747215203E+03  0.15326873432E+04  0.46999998093E+01 0. -1.
</event>
<event>
 5   0  0.1560174E-06  0.3012616E+04  0.7818609E-02  0.8240137E-01
       -2   -1    0    0    0  501  0.00000000000E+00  0.00000000000E+00  0.12107048731E+04  0.12107048731E+04  0.25500000920E-02 0.  1.
        2   -1    0    0  501    0  0.00000000000E+00  0.00000000000E+00 -0.18740850221E+04  0.18740850221E+04  0.25500000920E-02 0. -1.
    10030    2    1    2    0    0  0.00000000000E+00  0.00000000000E+00 -0.66338014897E+03  0.30847898952E+04  0.30126160518E+04 0.  0.
        5    1    3    3  502    0  0.13308767058E+04 -0.49732182261E+03  0.18067745822E+03  0.14322109605E+04  0.46999998093E+01 0. -1.
       -5    1    3    3    0  502 -0.13308767058E+04  0.49732182261E+03 -0.84405760719E+03  0.16525789348E+04  0.46999998093E+01 0.  1.
</event>
<event>
 5   0  0.5874741E-07  0.2994375E+04  0.7818609E-02  0.8245339E-01
       -1   -1    0    0    0  501  0.00000000000E+00  0.00000000000E+00  0.16022919963E+04  0.16022919963E+04  0.50400001928E-02 0.  1.
        1   -1    0    0  501    0  0.00000000000E+00  0.00000000000E+00 -0.13989770282E+04  0.13989770282E+04  0.50400001928E-02 0. -1.
    10030    2    1    2    0    0  0.00000000000E+00  0.00000000000E+00  0.20331496811E+03  0.30012690244E+04  0.29943745225E+04 0.  0.
        4    1    3    3  502    0  0.10719394973E+04 -0.38601239324E+03 -0.87192253706E+03  0.14346812807E+04  0.12699999809E+01 0. -1.
       -4    1    3    3    0  502 -0.10719394973E+04  0.38601239324E+03  0.10752375052E+04  0.15665877438E+04  0.12699999809E+01 0.  1.
</event>
<event>
 5   0  0.5874741E-07  0.2998583E+04  0.7818609E-02  0.8244136E-01
       -1   -1    0    0    0  501  0.00000000000E+00  0.00000000000E+00  0.10486502321E+04  0.10486502321E+04  0.50400001928E-02 0. -1.
        1   -1    0    0  501    0  0.00000000000E+00  0.00000000000E+00 -0.21435885042E+04  0.21435885042E+04  0.50400001928E-02 0.  1.
    10030    2    1    2    0    0  0.00000000000E+00  0.00000000000E+00 -0.10949382721E+04  0.31922387362E+04  0.29985827201E+04 0.  0.
        4    1    3    3  502    0 -0.11341920950E+04  0.95784037315E+03 -0.77083641016E+03  0.16727343701E+04  0.12699999809E+01 0.  1.
       -4    1    3    3    0  502  0.11341920950E+04 -0.95784037315E+03 -0.32410186194E+03  0.15195043661E+04  0.12699999809E+01 0. -1.
</event>
<event>
 5   0  0.5916703E-07  0.3000321E+04  0.7818609E-02  0.8243639E-01
       -1   -1    0    0    0  501  0.00000000000E+00  0.00000000000E+00  0.14586058171E+04  0.14586058171E+04  0.50400001928E-02 0. -1.
        1   -1    0    0  501    0  0.00000000000E+00  0.00000000000E+00 -0.15428988490E+04  0.15428988490E+04  0.50400001928E-02 0.  1.
    10030    2    1    2    0    0  0.00000000000E+00  0.00000000000E+00 -0.84293031858E+02  0.30015046661E+04  0.30003208071E+04 0.  0.
        5    1    3    3  502    0 -0.96754482957E+03  0.95979899783E+03  0.58507937042E+03  0.14831375773E+04  0.46999998093E+01 0. -1.
       -5    1    3    3    0  502  0.96754482957E+03 -0.95979899783E+03 -0.66937240228E+03  0.15183670888E+04  0.46999998093E+01 0.  1.
</event>
<event>
 5   0  0.5874741E-07  0.2999559E+04  0.7818609E-02  0.8243857E-01
        1   -1    0    0  501    0  0.00000000000E+00  0.00000000000E+00  0.20357640617E+04  0.20357640617E+04  0.50400001928E-02 0. -1.
       -1   -1    0    0    0  501  0.00000000000E+00  0.00000000000E+00 -0.11049115779E+04  0.11049115779E+04  0.50400001928E-02 0.  1.
    10030    2    1    2    0    0  0.00000000000E+00  0.00000000000E+00  0.93085248378E+03  0.31406756396E+04  0.29995594888E+04 0.  0.
        4    1    3    3  502    0 -0.23575474617E+03  0.84387217294E+03 -0.80906405117E+03  0.11925966612E+04  0.12699999809E+01 0.  1.
       -4    1    3    3    0  502  0.23575474617E+03 -0.84387217294E+03  0.17399165349E+04  0.19480789784E+04  0.12699999809E+01 0. -1.
</event>
<event>
 5   0  0.5874741E-07  0.3008394E+04  0.7818609E-02  0.8241338E-01
        1   -1    0    0  501    0  0.00000000000E+00  0.00000000000E+00  0.20554914832E+04  0.20554914832E+04  0.50400001928E-02 0.  1.
       -1   -1    0    0    0  501  0.00000000000E+00  0.00000000000E+00 -0.11007629045E+04  0.11007629046E+04  0.50400001928E-02 0. -1.
    10030    2    1    2    0    0  0.00000000000E+00  0.00000000000E+00  0.95472857864E+03  0.31562543878E+04  0.30083941067E+04 0.  0.
        4    1    3    3  502    0  0.10031377300E+04 -0.71870585588E+03 -0.42501613125E+03  0.13051680878E+04  0.12699999809E+01 0. -1.
       -4    1    3    3    0  502 -0.10031377300E+04  0.71870585588E+03  0.13797447099E+04  0.18510863000E+04  0.12699999809E+01 0.  1.
</event>
<event>
 5   0  0.5874741E-07  0.3006273E+04  0.7818609E-02  0.8241942E-01
       -1   -1    0    0    0  501  0.00000000000E+00  0.00000000000E+00  0.21665765943E+04  0.21665765943E+04  0.50400001928E-02 0. -1.
        1   -1    0    0  501    0  0.00000000000E+00  0.00000000000E+00 -0.10428521689E+04  0.10428521689E+04  0.50400001928E-02 0.  1.
    10030    2    1    2    0    0  0.00000000000E+00  0.00000000000E+00  0.11237244255E+04  0.32094287632E+04  0.30062728422E+04 0.  0.
        4    1    3    3  502    0 -0.14187429118E+04 -0.47966295244E+02  0.34209726153E+02  0.14199662438E+04  0.12699999809E+01 0.  1.
       -4    1    3    3    0  502  0.14187429118E+04  0.47966295244E+02  0.10895146993E+04  0.17894625194E+04  0.12699999809E+01 0. -1.
</event>
<event>
 5   0  0.6291798E-07  0.3014303E+04  0.7818609E-02  0.8239658E-01
       -1   -1    0    0    0  501  0.00000000000E+00  0.00000000000E+00  0.10152816955E+04  0.10152816955E+04  0.50400001928E-02 0. -1.
        1   -1    0    0  501    0  0.00000000000E+00  0.00000000000E+00 -0.22373162337E+04  0.22373162337E+04  0.50400001928E-02 0.  1.
    10030    2    1    2    0    0  0.00000000000E+00  0.00000000000E+00 -0.12220345382E+04  0.32525979292E+04  0.30143033816E+04 0.  0.
        1    1    3    3  502    0  0.13522536819E+04 -0.10837935396E+03  0.97528233815E+02  0.13600911223E+04  0.50400001928E-02 0.  1.
       -1    1    3    3    0  502 -0.13522536819E+04  0.10837935396E+03 -0.13195627720E+04  0.18925068068E+04  0.50400001928E-02 0. -1.
</event>
<event>
 5   0  0.1674806E-06  0.3001316E+04  0.7818609E-02  0.8243355E-01
       -2   -1    0    0    0  501  0.00000000000E+00  0.00000000000E+00  0.16308569710E+04  0.16308569710E+04  0.25500000920E-02 0.  1.
        2   -1    0    0  501    0  0.00000000000E+00  0.00000000000E+00 -0.13808538046E+04  0.13808538046E+04  0.25500000920E-02 0. -1.
    10030    2    1    2    0    0  0.00000000000E+00  0.00000000000E+00  0.25000316640E+03  0.30117107755E+04  0.30013164132E+04 0.  0.
        2    1    3    3  502    0 -0.41928011279E+03  0.28718793993E+03  0.15418769094E+04  0.16234707049E+04  0.25500000920E-02 0.  1.
       -2    1    3    3    0  502  0.41928011279E+03 -0.28718793993E+03 -0.12918737430E+04  0.13882400706E+04  0.25500000920E-02 0. -1.
</event>
<event>
 5   0  0.6291798E-07  0.2969734E+04  0.7818609E-02  0.8252427E-01
       -1   -1    0    0    0  501  0.00000000000E+00  0.00000000000E+00  0.14758593478E+04  0.14758593478E+04  0.50400001928E-02 0.  1.
        1   -1    0    0  501    0  0.00000000000E+00  0.00000000000E+00 -0.14939296078E+04  0.14939296078E+04  0.50400001928E-02 0. -1.
    10030    2    1    2    0    0  0.00000000000E+00  0.00000000000E+00 -0.18070260022E+02  0.29697889556E+04  0.29697339791E+04 0.  0.
        1    1    3    3  502    0 -0.11936511501E+04  0.54674880786E+03 -0.70265639689E+03  0.14891149516E+04  0.50400001928E-02 0. -1.
       -1    1    3    3    0  502  0.11936511501E+04 -0.54674880786E+03  0.68458613687E+03  0.14806740039E+04  0.50400001928E-02 0.  1.
</event>
<event>
 5   0  0.5874741E-07  0.2996393E+04  0.7818609E-02  0.8244762E-01
       -1   -1    0    0    0  501  0.00000000000E+00  0.00000000000E+00  0.14394161961E+04  0.14394161961E+04  0.50400001928E-02 0. -1.
        1   -1    0    0  501    0  0.00000000000E+00  0.00000000000E+00 -0.15593772806E+04  0.15593772806E+04  0.50400001928E-02 0.  1.
    10030    2    1    2    0    0  0.00000000000E+00  0.00000000000E+00 -0.11996108450E+03  0.29987934768E+04  0.29963931075E+04 0.  0.
        4    1    3    3  502    0  0.96364879289E+03 -0.55641606645E+03  0.94400476412E+03  0.14592341973E+04  0.12699999809E+01 0. -1.
       -4    1    3    3    0  502 -0.96364879289E+03  0.55641606645E+03 -0.10639658486E+04  0.15395592795E+04  0.12699999809E+01 0.  1.
</event>
<event>
 5   0  0.1560174E-06  0.3006473E+04  0.7818609E-02  0.8241885E-01
        2   -1    0    0  501    0  0.00000000000E+00  0.00000000000E+00  0.22118260480E+04  0.22118260480E+04  0.25500000920E-02 0. -1.
       -2   -1    0    0    0  501  0.00000000000E+00  0.00000000000E+00 -0.10216537420E+04  0.10216537420E+04  0.25500000920E-02 0.  1.
    10030    2    1    2    0    0  0.00000000000E+00  0.00000000000E+00  0.11901723060E+04  0.32334797900E+04  0.30064732552E+04 0.  0.
        5    1    3    3  502    0  0.11122067248E+04 -0.71874264316E+03 -0.17003898179E+03  0.13351142764E+04  0.46999998093E+01 0.  1.
       -5    1    3    3    0  502 -0.11122067248E+04  0.71874264316E+03  0.13602112878E+04  0.18983655136E+04  0.46999998093E+01 0. -1.
</event>
<event>
 5   0  0.1560174E-06  0.2947089E+04  0.7818609E-02  0.8259003E-01
        2   -1    0    0  501    0  0.00000000000E+00  0.00000000000E+00  0.15717307905E+04  0.15717307905E+04  0.25500000920E-02 0. -1.
       -2   -1    0    0    0  501  0.00000000000E+00  0.00000000000E+00 -0.13814920001E+04  0.13814920001E+04  0.25500000920E-02 0.  1.
    10030    2    1    2    0    0  0.00000000000E+00  0.00000000000E+00  0.19023879034E+03  0.29532227906E+04  0.29470890814E+04 0.  0.
        5    1    3    3  502    0 -0.75787060564E+03 -0.29629798004E+03  0.13261512941E+04  0.15559112097E+04  0.46999998093E+01 0. -1.
       -5    1    3    3    0  502  0.75787060564E+03  0.29629798004E+03 -0.11359125037E+04  0.13973115808E+04  0.46999998093E+01 0.  1.
</event>
<event>
 5   0  0.5887179E-07  0.3006198E+04  0.7818609E-02  0.8241963E-01
       -1   -1    0    0    0  501  0.00000000000E+00  0.00000000000E+00  0.80515092981E+03  0.80515092982E+03  0.50400001928E-02 0. -1.
        1   -1    0    0  501    0  0.00000000000E+00  0.00000000000E+00 -0.28060656582E+04  0.28060656582E+04  0.50400001928E-02 0.  1.
    10030    2    1    2    0    0  0.00000000000E+00  0.00000000000E+00 -0.20009147283E+04  0.36112165880E+04  0.30061978470E+04 0.  0.
        3    1    3    3  502    0  0.36533702981E+03  0.57978817795E+03 -0.26074865982E+04  0.26960363215E+04  0.10100000352E+00 0.  1.
       -3    1    3    3    0  502 -0.36533702981E+03 -0.57978817795E+03  0.60657186988E+03  0.91518026649E+03  0.10100000352E+00 0. -1.
</event>
<event>
 5   0  0.5874741E-07  0.2986815E+04  0.7818609E-02  0.8247506E-01
       -1   -1    0    0    0  501  0.00000000000E+00  0.00000000000E+00  0.10265749290E+04  0.10265749290E+04  0.50400001928E-02 0. -1.
        1   -1    0    0  501    0  0.00000000000E+00  0.00000000000E+00 -0.21725314972E+04  0.21725314972E+04  0.50400001928E-02 0.  1.
    10030    2    1    2    0    0  0.00000000000E+00  0.00000000000E+00 -0.11459565683E+04  0.31991064262E+04  0.29868152721E+04 0.  0.
        4    1    3    3  502    0 -0.69067207454E+03  0.87437276515E+03 -0.16379905075E+04  0.19810527914E+04  0.12699999809E+01 0.  1.
       -4    1    3    3    0  502  0.69067207454E+03 -0.87437276515E+03  0.49203393918E+03  0.12180536348E+04  0.12699999809E+01 0. -1.
</event>
<event>
 5   0  0.5874741E-07  0.2985559E+04  0.7818609E-02  0.8247867E-01
        1   -1    0    0  501    0  0.00000000000E+00  0.00000000000E+00  0.20144787323E+04  0.20144787323E+04  0.50400001928E-02 0.  1.
       -1   -1    0    0    0  501  0.00000000000E+00  0.00000000000E+00 -0.11061872525E+04  0.11061872526E+04  0.50400001928E-02 0. -1.
    10030    2    1    2    0    0  0.00000000000E+00  0.00000000000E+00  0.90829147978E+03  0.31206659849E+04  0.29855590393E+04 0.  0.
        4    1    3    3  502    0  0.22114449565E+03  0.76039633934E+02  0.19952131727E+04  0.20088713576E+04  0.12699999809E+01 0.  1.
       -4    1    3    3    0  502 -0.22114449565E+03 -0.76039633934E+02 -0.10869216929E+04  0.11117946273E+04  0.12699999809E+01 0. -1.
</event>
<event>
 5   0  0.1625212E-06  0.2998834E+04  0.7818609E-02  0.8244064E-01
       -2   -1    0    0    0  501  0.00000000000E+00  0.00000000000E+00  0.11041941578E+04  0.11041941578E+04  0.25500000920E-02 0. -1.
        2   -1    0    0  501    0  0.00000000000E+00  0.00000000000E+00 -0.20361009882E+04  0.20361009882E+04  0.25500000920E-02 0.  1.
    10030    2    1    2    0    0  0.00000000000E+00  0.00000000000E+00 -0.93190683038E+03  0.31402951460E+04  0.29988336505E+04 0.  0.
        4    1    3    3  502    0 -0.14695194136E+04  0.11926342302E+03 -0.18005789876E+03  0.14853058711E+04  0.12699999809E+01 0. -1.
       -4    1    3    3    0  502  0.14695194136E+04 -0.11926342302E+03 -0.75184893162E+03  0.16549892749E+04  0.12699999809E+01 0.  1.
</event>
<event>
 5   0  0.5431625E-07  0.3001092E+04  0.7818609E-02  0.8243419E-01
        3   -1    0    0  501    0  0.00000000000E+00  0.00000000000E+00  0.11187925131E+04  0.11187925177E+04  0.10100000352E+00 0.  1.
       -3   -1    0    0    0  501  0.00000000000E+00  0.00000000000E+00 -0.20125606749E+04  0.20125606774E+04  0.10100000352E+00 0. -1.
    10030    2    1    2    0    0  0.00000000000E+00  0.00000000000E+00 -0.89376816177E+03  0.31313531952E+04  0.30010916857E+04 0.  0.
        3    1    3    3  502    0 -0.45841898021E+01 -0.52188132857E+03 -0.19148090300E+04  0.19846598619E+04  0.10100000352E+00 0. -1.
       -3    1    3    3    0  502  0.45841898021E+01  0.52188132857E+03  0.10210408682E+04  0.11466933333E+04  0.10100000352E+00 0.  1.
</event>
<event>
 5   0  0.5887179E-07  0.2996163E+04  0.7818609E-02  0.8244828E-01
        1   -1    0    0  501    0  0.00000000000E+00  0.00000000000E+00  0.12759658295E+04  0.12759658295E+04  0.50400001928E-02 0. -1.
       -1   -1    0    0    0  501  0.00000000000E+00  0.00000000000E+00 -0.17588617190E+04  0.17588617190E+04  0.50400001928E-02 0.  1.
    10030    2    1    2    0    0  0.00000000000E+00  0.00000000000E+00 -0.48289588954E+03  0.30348275485E+04  0.29961625138E+04 0.  0.
        3    1    3    3  502    0  0.63457070415E+03  0.12508184160E+04  0.29167184587E+03  0.14325847843E+04  0.10100000352E+00 0. -1.
       -3    1    3    3    0  502 -0.63457070415E+03 -0.12508184160E+04 -0.77456773541E+03  0.16022427642E+04  0.10100000352E+00 0.  1.
</event>
<event>
 5   0  0.1674806E-06  0.3007695E+04  0.7818609E-02  0.8241537E-01
       -2   -1    0    0    0  501  0.00000000000E+00  0.00000000000E+00  0.14298213376E+04  0.14298213376E+04  0.25500000920E-02 0. -1.
        2   -1    0    0  501    0  0.00000000000E+00  0.00000000000E+00 -0.15817065440E+04  0.15817065440E+04  0.25500000920E-02 0.  1.
    10030    2    1    2    0    0  0.00000000000E+00  0.00000000000E+00 -0.15188520646E+03  0.30115278816E+04  0.30076953080E+04 0.  0.
        2    1    3    3  502    0  0.23537262857E+02 -0.14951980714E+04  0.83591812513E+02  0.14977178862E+04  0.25500000920E-02 0. -1.
       -2    1    3    3    0  502 -0.23537262857E+02  0.14951980714E+04 -0.23547701897E+03  0.15138099954E+04  0.25500000920E-02 0.  1.
</event>
<event>
 5   0  0.1560174E-06  0.3003635E+04  0.7818609E-02  0.8242694E-01
        2   -1    0    0  501    0  0.00000000000E+00  0.00000000000E+00  0.85867096706E+03  0.85867096706E+03  0.25500000920E-02 0. -1.
       -2   -1    0    0    0  501  0.00000000000E+00  0.00000000000E+00 -0.26266825206E+04  0.26266825206E+04  0.25500000920E-02 0.  1.
    10030    2    1    2    0    0  0.00000000000E+00  0.00000000000E+00 -0.17680115536E+04  0.34853534877E+04  0.30036351444E+04 0.  0.
        5    1    3    3  502    0  0.14230661042E+04  0.39547207498E+03 -0.11994892491E+04  0.19027117090E+04  0.46999998093E+01 0. -1.
       -5    1    3    3    0  502 -0.14230661042E+04 -0.39547207498E+03 -0.56852230442E+03  0.15826417787E+04  0.46999998093E+01 0.  1.
</event>
<event>
 5   0  0.1635086E-06  0.3031490E+04  0.7818609E-02  0.8234795E-01
        2   -1    0    0  501    0  0.00000000000E+00  0.00000000000E+00  0.20605029428E+04  0.20605029428E+04  0.25500000920E-02 0. -1.
       -2   -1    0    0    0  501  0.00000000000E+00  0.00000000000E+00 -0.11150109923E+04  0.11150109923E+04  0.25500000920E-02 0.  1.
    10030    2    1    2    0    0  0.00000000000E+00  0.00000000000E+00  0.94549195049E+03  0.31755139351E+04  0.30314903470E+04 0.  0.
        3    1    3    3  502    0 -0.53003577290E+03  0.90158721278E+03 -0.67650382650E+03  0.12455741087E+04  0.10100000352E+00 0.  1.
       -3    1    3    3    0  502  0.53003577290E+03 -0.90158721278E+03  0.16219957770E+04  0.19299398264E+04  0.10100000352E+00 0. -1.
</event>
<event>
 5   0  0.5931588E-07  0.2997984E+04  0.7818609E-02  0.8244307E-01
        1   -1    0    0  501    0  0.00000000000E+00  0.00000000000E+00  0.27640562963E+04  0.27640562963E+04  0.50400001928E-02 0. -1.
       -1   -1    0    0    0  501  0.00000000000E+00  0.00000000000E+00 -0.81292763524E+03  0.81292763525E+03  0.50400001928E-02 0.  1.
    10030    2    1    2    0    0  0.00000000000E+00  0.00000000000E+00  0.19511286611E+04  0.35769839316E+04  0.29979844887E+04 0.  0.
        2    1    3    3  502    0  0.88668890668E+02 -0.86370389387E+03 -0.48236538262E+03  0.99323861726E+03  0.25500000920E-02 0.  1.
       -2    1    3    3    0  502 -0.88668890668E+02  0.86370389387E+03  0.24334940437E+04  0.25837453143E+04  0.25500000920E-02 0. -1.
</event>
<event>
 5   0  0.1635086E-06  0.2977841E+04  0.7818609E-02  0.8250087E-01
        2   -1    0    0  501    0  0.00000000000E+00  0.00000000000E+00  0.11844995823E+04  0.11844995823E+04  0.25500000920E-02 0.  1.
       -2   -1    0    0    0  501  0.00000000000E+00  0.00000000000E+00 -0.18715782293E+04  0.18715782293E+04  0.25500000920E-02 0. -1.
    10030    2    1    2    0    0  0.00000000000E+00  0.00000000000E+00 -0.68707864699E+03  0.30560778115E+04  0.29778405805E+04 0.  0.
        3    1    3    3  502    0  0.58030962375E+03  0.43947773912E+03  0.98942462655E+03  0.12283570509E+04  0.10100000352E+00 0.  1.
       -3    1    3    3    0  502 -0.58030962375E+03 -0.43947773912E+03 -0.16765032735E+04  0.18277207607E+04  0.10100000352E+00 0. -1.
</event>
<event>
 5   0  0.5916703E-07  0.3009456E+04  0.7818609E-02  0.8241036E-01
        1   -1    0    0  501    0  0.00000000000E+00  0.00000000000E+00  0.19055596249E+04  0.19055596250E+04  0.50400001928E-02 0. -1.
       -1   -1    0    0    0  501  0.00000000000E+00  0.00000000000E+00 -0.11882103328E+04  0.11882103328E+04  0.50400001928E-02 0.  1.
    10030    2    1    2    0    0  0.00000000000E+00  0.00000000000E+00  0.71734929216E+03  0.30937699578E+04  0.30094555229E+04 0.  0.
        5    1    3    3  502    0  0.10878348226E+04  0.83802491208E+03  0.99114561915E+03  0.16935353799E+04  0.46999998093E+01 0. -1.
       -5    1    3    3    0  502 -0.10878348226E+04 -0.83802491208E+03 -0.27379632699E+03  0.14002345779E+04  0.46999998093E+01 0.  1.
</event>
<event>
 5   0  0.5887179E-07  0.2998588E+04  0.7818609E-02  0.8244134E-01
       -1   -1    0    0    0  501  0.00000000000E+00  0.00000000000E+00  0.11501092607E+04  0.11501092607E+04  0.50400001928E-02 0.  1.
        1   -1    0    0  501    0  0.00000000000E+00  0.00000000000E+00 -0.19544947415E+04  0.19544947416E+04  0.50400001928E-02 0. -1.
    10030    2    1    2    0    0  0.00000000000E+00  0.00000000000E+00 -0.80438548089E+03  0.31046040022E+04  0.29985880025E+04 0.  0.
        3    1    3    3  502    0 -0.27893651921E+02 -0.14410298076E+04  0.25369553179E+02  0.14415230094E+04  0.10100000352E+00 0.  1.
       -3    1    3    3    0  502  0.27893651921E+02  0.14410298076E+04 -0.82975503407E+03  0.16630809929E+04  0.10100000352E+00 0. -1.
</event>
<event>
 5   0  0.5874741E-07  0.2935339E+04  0.7818609E-02  0.8262440E-01
        1   -1    0    0  501    0  0.00000000000E+00  0.00000000000E+00  0.78312083007E+03  0.78312083009E+03  0.50400001928E-02 0.  1.
       -1   -1    0    0    0  501  0.00000000000E+00  0.00000000000E+00 -0.27506012911E+04  0.27506012911E+04  0.50400001928E-02 0. -1.
    10030    2    1    2    0    0  0.00000000000E+00  0.00000000000E+00 -0.19674804611E+04  0.35337221212E+04  0.29353385947E+04 0.  0.
        4    1    3    3  502    0 -0.60699583756E+03  0.13259846814E+04 -0.78456776835E+03  0.16559672455E+04  0.12699999809E+01 0.  1.
       -4    1    3    3    0  502  0.60699583756E+03 -0.13259846814E+04 -0.11829126927E+04  0.18777548758E+04  0.12699999809E+01 0. -1.
</event>
<event>
 5   0  0.1625212E-06  0.2994967E+04  0.7818609E-02  0.8245170E-01
       -2   -1    0    0    0  501  0.00000000000E+00  0.00000000000E+00  0.21650506462E+04  0.21650506462E+04  0.25500000920E-02 0.  1.
        2   -1    0    0  501    0  0.00000000000E+00  0.00000000000E+00 -0.10357527025E+04  0.10357527025E+04  0.25500000920E-02 0. -1.
    10030    2    1    2    0    0  0.00000000000E+00  0.00000000000E+00  0.11292979437E+04  0.32008033486E+04  0.29949671502E+04 0.  0.
        4    1    3    3  502    0 -0.79330624909E+03 -0.10241286576E+03 -0.78830763478E+03  0.11230555373E+04  0.12699999809E+01 0. -1.
       -4    1    3    3    0  502  0.79330624909E+03  0.10241286576E+03  0.19176055785E+04  0.20777478113E+04  0.12699999809E+01 0.  1.
</event>
<event>
 5   0  0.5874741E-07  0.3015657E+04  0.7818609E-02  0.8239274E-01
       -1   -1    0    0    0  501  0.00000000000E+00  0.00000000000E+00  0.88998975391E+03  0.88998975393E+03  0.50400001928E-02 0. -1.
        1   -1    0    0  501    0  0.00000000000E+00  0.00000000000E+00 -0.25545755974E+04  0.25545755974E+04  0.50400001928E-02 0.  1.
    10030    2    1    2    0    0  0.00000000000E+00  0.00000000000E+00 -0.16645858435E+04  0.34445653514E+04  0.30156565503E+04 0.  0.
        4    1    3    3  502    0  0.77255797789E+03 -0.51938271917E+03  0.52255446528E+03  0.10675528185E+04  0.12699999809E+01 0. -1.
       -4    1    3    3    0  502 -0.77255797789E+03  0.51938271917E+03 -0.21871403088E+04  0.23770125329E+04  0.12699999809E+01 0.  1.
</event>
<event>
 5   0  0.1560174E-06  0.3002624E+04  0.7818609E-02  0.8242982E-01
        2   -1    0    0  501    0  0.00000000000E+00  0.00000000000E+00  0.16112657789E+04  0.16112657789E+04  0.25500000920E-02 0.  1.
       -2   -1    0    0    0  501  0.00000000000E+00  0.00000000000E+00 -0.13988613124E+04  0.13988613124E+04  0.25500000920E-02 0. -1.
    10030    2    1    2    0    0  0.00000000000E+00  0.00000000000E+00  0.21240446650E+03  0.30101270913E+04  0.30026237607E+04 0.  0.
        5    1    3    3  502    0 -0.23002570930E+03 -0.13109619541E+04 -0.59007076348E+03  0.14559322333E+04  0.46999998093E+01 0. -1.
       -5    1    3    3    0  502  0.23002570930E+03  0.13109619541E+04  0.80247522998E+03  0.15541948580E+04  0.46999998093E+01 0.  1.
</event>
<event>
 5   0  0.5887179E-07  0.2999935E+04  0.7818609E-02  0.8243749E-01
       -1   -1    0    0    0  501  0.00000000000E+00  0.00000000000E+00  0.87154179272E+03  0.87154179273E+03  0.50400001928E-02 0. -1.
        1   -1    0    0  501    0  0.00000000000E+00  0.00000000000E+00 -0.25815204837E+04  0.25815204837E+04  0.50400001928E-02 0.  1.
    10030    2    1    2    0    0  0.00000000000E+00  0.00000000000E+00 -0.17099786910E+04  0.34530622765E+04  0.29999353262E+04 0.  0.
        3    1    3    3  502    0 -0.13454795528E+04 -0.33410409045E+03 -0.19580873999E+03  0.14001006546E+04  0.10100000352E+00 0. -1.
       -3    1    3    3    0  502  0.13454795528E+04  0.33410409045E+03 -0.15141699510E+04  0.20529616219E+04  0.10100000352E+00 0.  1.
</event>
<event>
 5   0  0.1674806E-06  0.3015376E+04  0.7818609E-02  0.8239354E-01
        2   -1    0    0  501    0  0.00000000000E+00  0.00000000000E+00  0.18908249281E+04  0.18908249281E+04  0.25500000920E-02 0. -1.
       -2   -1    0    0    0  501  0.00000000000E+00  0.00000000000E+00 -0.12021857329E+04  0.12021857329E+04  0.25500000920E-02 0.  1.
    10030    2    1    2    0    0  0.00000000000E+00  0.00000000000E+00  0.68863919520E+03  0.30930106611E+04  0.30153757657E+04 0.  0.
        2    1    3    3  502    0  0.30882803784E+03  0.13500213107E+04 -0.26700324042E+03  0.14103981802E+04  0.25500000920E-02 0.  1.
       -2    1    3    3    0  502 -0.30882803784E+03 -0.13500213107E+04  0.95564243561E+03  0.16826124809E+04  0.25500000920E-02 0. -1.
</event>
<event>
 5   0  0.1625212E-06  0.3003452E+04  0.7818609E-02  0.8242746E-01
       -2   -1    0    0    0  501  0.00000000000E+00  0.00000000000E+00  0.26206300643E+04  0.26206300643E+04  0.25500000920E-02 0. -1.
        2   -1    0    0  501    0  0.00000000000E+00  0.00000000000E+00 -0.86054905394E+03  0.86054905394E+03  0.25500000920E-02 0.  1.
    10030    2    1    2    0    0  0.00000000000E+00  0.00000000000E+00  0.17600810104E+04  0.34811791183E+04  0.30034518292E+04 0.  0.
        4    1    3    3  502    0 -0.76284528185E+03  0.28371904034E+03  0.23428220206E+04  0.24801705689E+04  0.12699999809E+01 0. -1.
       -4    1    3    3    0  502  0.76284528185E+03 -0.28371904034E+03 -0.58274101023E+03  0.10010085493E+04  0.12699999809E+01 0.  1.
</event>
<event>
 5   0  0.1674806E-06  0.3004533E+04  0.7818609E-02  0.8242438E-01
        2   -1    0    0  501    0  0.00000000000E+00  0.00000000000E+00  0.19097026817E+04  0.19097026817E+04  0.25500000920E-02 0. -1.
       -2   -1    0    0    0  501  0.00000000000E+00  0.00000000000E+00 -0.11817568372E+04  0.11817568372E+04  0.25500000920E-02 0.  1.
    10030    2    1    2    0    0  0.00000000000E+00  0.00000000000E+00  0.72794584452E+03  0.30914595189E+04  0.30045327098E+04 0.  0.
        2    1    3    3  502    0  0.95795498865E+02  0.26830471019E+03  0.18816526935E+04  0.19030977521E+04  0.25500000920E-02 0. -1.
       -2    1    3    3    0  502 -0.95795498865E+02 -0.26830471019E+03 -0.11537068490E+04  0.11883617667E+04  0.25500000920E-02 0.  1.
</event>
<event>
 5   0  0.5874741E-07  0.2975867E+04  0.7818609E-02  0.8250656E-01
        1   -1    0    0  501    0  0.00000000000E+00  0.00000000000E+00  0.19147923082E+04  0.19147923082E+04  0.50400001928E-02 0. -1.
       -1   -1    0    0    0  501  0.00000000000E+00  0.00000000000E+00 -0.11562329922E+04  0.11562329922E+04  0.50400001928E-02 0.  1.
    10030    2    1    2    0    0  0.00000000000E+00  0.00000000000E+00  0.75855931599E+03  0.30710253004E+04  0.29758669594E+04 0.  0.
        4    1    3    3  502    0 -0.29715932663E+03  0.23488822341E+03  0.18642034782E+04  0.19022966025E+04  0.12699999809E+01 0. -1.
       -4    1    3    3    0  502  0.29715932663E+03 -0.23488822341E+03 -0.11056441622E+04  0.11687286979E+04  0.12699999809E+01 0.  1.
</event>
<event>
 5   0  0.1560174E-06  0.3031718E+04  0.7818609E-02  0.8234731E-01
        2   -1    0    0  501    0  0.00000000000E+00  0.00000000000E+00  0.18804278542E+04  0.18804278542E+04  0.25500000920E-02 0.  1.
       -2   -1    0    0    0  501  0.00000000000E+00  0.00000000000E+00 -0.12219713987E+04  0.12219713987E+04  0.25500000920E-02 0. -1.
    10030    2    1    2    0    0  0.00000000000E+00  0.00000000000E+00  0.65845645551E+03  0.31023992529E+04  0.30317183611E+04 0.  0.
        5    1    3    3  502    0  0.14162567154E+04 -0.20211673468E+03  0.84208377367E+03  0.16600486228E+04  0.46999998093E+01 0. -1.
       -5    1    3    3    0  502 -0.14162567154E+04  0.20211673468E+03 -0.18362731816E+03  0.14423506301E+04  0.46999998093E+01 0.  1.
</event>
<event>
 5   0  0.5931588E-07  0.3040965E+04  0.7818609E-02  0.8232129E-01
       -1   -1    0    0    0  501  0.00000000000E+00  0.00000000000E+00  0.10635804616E+04  0.10635804616E+04  0.50400001928E-02 0.  1.
        1   -1    0    0  501    0  0.00000000000E+00  0.00000000000E+00 -0.21736645298E+04  0.21736645298E+04  0.50400001928E-02 0. -1.
    10030    2    1    2    0    0  0.00000000000E+00  0.00000000000E+00 -0.11100840683E+04  0.32372449914E+04  0.30409650600E+04 0.  0.
        2    1    3    3  502    0 -0.80298013813E+03 -0.33769634788E+03  0.77160998980E+03  0.11637000911E+04  0.25500000920E-02 0.  1.
       -2    1    3    3    0  502  0.80298013813E+03  0.33769634788E+03 -0.18816940581E+04  0.20735449004E+04  0.25500000920E-02 0. -1.
</event>
<event>
 5   0  0.6291798E-07  0.2855691E+04  0.7818609E-02  0.8286184E-01
        1   -1    0    0  501    0  0.00000000000E+00  0.00000000000E+00  0.11037574795E+04  0.11037574795E+04  0.50400001928E-02 0. -1.
       -1   -1    0    0    0  501  0.00000000000E+00  0.00000000000E+00 -0.18470933122E+04  0.18470933122E+04  0.50400001928E-02 0.  1.
    10030    2    1    2    0    0  0.00000000000E+00  0.00000000000E+00 -0.74333583270E+03  0.29508507918E+04  0.28556912010E+04 0.  0.
        1    1    3    3  502    0  0.76566953370E+03 -0.56661571587E+03  0.72746886951E+03  0.11985466868E+04  0.50400001928E-02 0. -1.
       -1    1    3    3    0  502 -0.76566953370E+03  0.56661571587E+03 -0.14708047022E+04  0.17523041050E+04  0.50400001928E-02 0.  1.
</event>
<event>
 5   0  0.5916703E-07  0.2989681E+04  0.7818609E-02  0.8246684E-01
       -1   -1    0    0    0  501  0.00000000000E+00  0.00000000000E+00  0.15924402433E+04  0.15924402433E+04  0.50400001928E-02 0.  1.
        1   -1    0    0  501    0  0.00000000000E+00  0.00000000000E+00 -0.14032222978E+04  0.14032222978E+04  0.50400001928E-02 0. -1.
    10030    2    1    2    0    0  0.00000000000E+00  0.00000000000E+00  0.18921794555E+03  0.29956625411E+04  0.29896806902E+04 0.  0.
        5    1    3    3  502    0 -0.69326261592E+03  0.91935520537E+03  0.10497730761E+04  0.15581632295E+04  0.46999998093E+01 0.  1.
       -5    1    3    3    0  502  0.69326261592E+03 -0.91935520537E+03 -0.86055513060E+03  0.14374993117E+04  0.46999998093E+01 0. -1.
</event>
<event>
 5   0  0.5874741E-07  0.2997131E+04  0.7818609E-02  0.8244551E-01
        1   -1    0    0  501    0  0.00000000000E+00  0.00000000000E+00  0.12719603722E+04  0.12719603723E+04  0.50400001928E-02 0.  1.
       -1   -1    0    0    0  501  0.00000000000E+00  0.00000000000E+00 -0.17655410207E+04  0.17655410207E+04  0.50400001928E-02 0. -1.
    10030    2    1    2    0    0  0.00000000000E+00  0.00000000000E+00 -0.49358064841E+03  0.30375013929E+04  0.29971307705E+04 0.  0.
        4    1    3    3  502    0 -0.35709240894E+03  0.17761901747E+02 -0.17216817318E+04  0.17584140787E+04  0.12699999809E+01 0. -1.
       -4    1    3    3    0  502  0.35709240894E+03 -0.17761901747E+02  0.12281010833E+04  0.12790873143E+04  0.12699999809E+01 0.  1.
</event>
<event>
 5   0  0.1723916E-06  0.3198450E+04  0.7818609E-02  0.8189227E-01
        2   -1    0    0  501    0  0.00000000000E+00  0.00000000000E+00  0.29971615533E+04  0.29971615533E+04  0.25500000920E-02 0. -1.
       -2   -1    0    0    0  501  0.00000000000E+00  0.00000000000E+00 -0.85331426411E+03  0.85331426412E+03  0.25500000920E-02 0.  1.
    10030    2    1    2    0    0  0.00000000000E+00  0.00000000000E+00  0.21438472892E+04  0.38504758174E+04  0.31984500655E+04 0.  0.
        1    1    3    3  502    0 -0.13174992680E+03 -0.14599347574E+04  0.18415951175E+04  0.23537714664E+04  0.50400001928E-02 0. -1.
       -1    1    3    3    0  502  0.13174992680E+03  0.14599347574E+04  0.30225217176E+03  0.14967043511E+04  0.50400001928E-02 0.  1.
</event>
<event>
 5   0  0.6291798E-07  0.2973601E+04  0.7818609E-02  0.8251310E-01
        1   -1    0    0  501    0  0.00000000000E+00  0.00000000000E+00  0.15298327617E+04  0.15298327617E+04  0.50400001928E-02 0.  1.
       -1   -1    0    0    0  501  0.00000000000E+00  0.00000000000E+00 -0.14449790952E+04  0.14449790953E+04  0.50400001928E-02 0. -1.
    10030    2    1    2    0    0  0.00000000000E+00  0.00000000000E+00  0.84853666421E+02  0.29748118569E+04  0.29736014258E+04 0.  0.
        1    1    3    3  502    0  0.35390000371E+03  0.80268604220E+03  0.12433430122E+04  0.15216609153E+04  0.50400001928E-02 0.  1.
       -1    1    3    3    0  502 -0.35390000371E+03 -0.80268604220E+03 -0.11584893458E+04  0.14531509417E+04  0.50400001928E-02 0. -1.
</event>
<event>
 5   0  0.1635086E-06  0.3000693E+04  0.7818609E-02  0.8243533E-01
       -2   -1    0    0    0  501  0.00000000000E+00  0.00000000000E+00  0.10402195057E+04  0.10402195057E+04  0.25500000920E-02 0.  1.
        2   -1    0    0  501    0  0.00000000000E+00  0.00000000000E+00 -0.21640051418E+04  0.21640051418E+04  0.25500000920E-02 0. -1.
    10030    2    1    2    0    0  0.00000000000E+00  0.00000000000E+00 -0.11237856361E+04  0.32042246475E+04  0.30006934924E+04 0.  0.
        3    1    3    3  502    0  0.12872408627E+04  0.69567910493E+03 -0.91618312045E+03  0.17263690150E+04  0.10100000352E+00 0. -1.
       -3    1    3    3    0  502 -0.12872408627E+04 -0.69567910493E+03 -0.20760251568E+03  0.14778556325E+04  0.10100000352E+00 0.  1.
</event>
<event>
 5   0  0.1723916E-06  0.2974487E+04  0.7818609E-02  0.8251054E-01
        2   -1    0    0  501    0  0.00000000000E+00  0.00000000000E+00  0.72195978863E+03  0.72195978863E+03  0.25500000920E-02 0. -1.
       -2   -1    0    0    0  501  0.00000000000E+00  0.00000000000E+00 -0.30637350418E+04  0.30637350418E+04  0.25500000920E-02 0.  1.
    10030    2    1    2    0    0  0.00000000000E+00  0.00000000000E+00 -0.23417752532E+04  0.37856948305E+04  0.29744871849E+04 0.  0.
        1    1    3    3  502    0  0.54502328879E+02 -0.44252573285E+03  0.63489522460E+03  0.77581664995E+03  0.50400001928E-02 0. -1.
       -1    1    3    3    0  502 -0.54502328879E+02  0.44252573285E+03 -0.29766704778E+04  0.30098781805E+04  0.50400001928E-02 0.  1.
</event>
<event>
 5   0  0.1723916E-06  0.3011539E+04  0.7818609E-02  0.8240444E-01
        2   -1    0    0  501    0  0.00000000000E+00  0.00000000000E+00  0.18088691688E+04  0.18088691688E+04  0.25500000920E-02 0.  1.
       -2   -1    0    0    0  501  0.00000000000E+00  0.00000000000E+00 -0.12534581255E+04  0.12534581255E+04  0.25500000920E-02 0. -1.
    10030    2    1    2    0    0  0.00000000000E+00  0.00000000000E+00  0.55541104328E+03  0.30623272943E+04  0.30115389804E+04 0.  0.
        1    1    3    3  502    0  0.23357924381E+03  0.86582971649E+03  0.15077003829E+04  0.17542465065E+04  0.50400001928E-02 0.  1.
       -1    1    3    3    0  502 -0.23357924381E+03 -0.86582971649E+03 -0.95228933959E+03  0.13080807878E+04  0.50400001928E-02 0. -1.
</event>
<event>
 5   0  0.1560174E-06  0.2998510E+04  0.7818609E-02  0.8244156E-01
        2   -1    0    0  501    0  0.00000000000E+00  0.00000000000E+00  0.24326234046E+04  0.24326234046E+04  0.25500000920E-02 0.  1.
       -2   -1    0    0    0  501  0.00000000000E+00  0.00000000000E+00 -0.92400900819E+03  0.92400900819E+03  0.25500000920E-02 0. -1.
    10030    2    1    2    0    0  0.00000000000E+00  0.00000000000E+00  0.15086143964E+04  0.33566324128E+04  0.29985102564E+04 0.  0.
        5    1    3    3  502    0 -0.13126598645E+04  0.49548382855E+03  0.13457703894E+04  0.19441451014E+04  0.46999998093E+01 0.  1.
       -5    1    3    3    0  502  0.13126598645E+04 -0.49548382855E+03  0.16284400700E+03  0.14124873114E+04  0.46999998093E+01 0. -1.
</event>
<event>
 5   0  0.5916703E-07  0.3008258E+04  0.7818609E-02  0.8241377E-01
        1   -1    0    0  501    0  0.00000000000E+00  0.00000000000E+00  0.21382593630E+04  0.21382593630E+04  0.50400001928E-02 0.  1.
       -1   -1    0    0    0  501  0.00000000000E+00  0.00000000000E+00 -0.10580584990E+04  0.10580584990E+04  0.50400001928E-02 0. -1.
    10030    2    1    2    0    0  0.00000000000E+00  0.00000000000E+00  0.10802008640E+04  0.31963178621E+04  0.30082576301E+04 0.  0.
        5    1    3    3  502    0  0.12898307416E+04 -0.77376702679E+03  0.54182959404E+03  0.15987433042E+04  0.46999998093E+01 0.  1.
       -5    1    3    3    0  502 -0.12898307416E+04  0.77376702679E+03  0.53837126998E+03  0.15975745579E+04  0.46999998093E+01 0. -1.
</event>
<event>
 5   0  0.1635086E-06  0.3007671E+04  0.7818609E-02  0.8241544E-01
        2   -1    0    0  501    0  0.00000000000E+00  0.00000000000E+00  0.16486377330E+04  0.16486377330E+04  0.25500000920E-02 0. -1.
       -2   -1    0    0    0  501  0.00000000000E+00  0.00000000000E+00 -0.13717511306E+04  0.13717511306E+04  0.25500000920E-02 0.  1.
    10030    2    1    2    0    0  0.00000000000E+00  0.00000000000E+00  0.27688660244E+03  0.30203888636E+04  0.30076706430E+04 0.  0.
        3    1    3    3  502    0  0.20952903029E+03  0.14603147692E+04 -0.15450762382E+03  0.14833388877E+04  0.10100000352E+00 0. -1.
       -3    1    3    3    0  502 -0.20952903029E+03 -0.14603147692E+04  0.43139422626E+03  0.15370499759E+04  0.10100000352E+00 0.  1.
</event>
<event>
 5   0  0.5931588E-07  0.2991980E+04  0.7818609E-02  0.8246025E-01
        1   -1    0    0  501    0  0.00000000000E+00  0.00000000000E+00  0.19349296596E+04  0.19349296596E+04  0.50400001928E-02 0.  1.
       -1   -1    0    0    0  501  0.00000000000E+00  0.00000000000E+00 -0.11566238811E+04  0.11566238811E+04  0.50400001928E-02 0. -1.
    10030    2    1    2    0    0  0.00000000000E+00  0.00000000000E+00  0.77830577850E+03  0.30915535407E+04  0.29919798479E+04 0.  0.
        2    1    3    3  502    0  0.12303702830E+04 -0.57877773048E+03  0.10337666772E+04  0.17080597875E+04  0.25500000920E-02 0.  1.
       -2    1    3    3    0  502 -0.12303702830E+04  0.57877773048E+03 -0.25546089874E+03  0.13834937533E+04  0.25500000920E-02 0. -1.
</event>
<event>
 5   0  0.6291798E-07  0.2981585E+04  0.7818609E-02  0.8249009E-01
       -1   -1    0    0    0  501  0.00000000000E+00  0.00000000000E+00  0.96715457927E+03  0.96715457929E+03  0.50400001928E-02 0.  1.
        1   -1    0    0  501    0  0.00000000000E+00  0.00000000000E+00 -0.22979390756E+04  0.22979390756E+04  0.50400001928E-02 0. -1.
    10030    2    1    2    0    0  0.00000000000E+00  0.00000000000E+00 -0.13307844963E+04  0.32650936549E+04  0.29815850147E+04 0.  0.
        1    1    3    3  502    0  0.10102620771E+04  0.60846107588E+03  0.33324500602E+03  0.12255229820E+04  0.50400001928E-02 0.  1.
       -1    1    3    3    0  502 -0.10102620771E+04 -0.60846107588E+03 -0.16640295024E+04  0.20395706730E+04  0.50400001928E-02 0. -1.
</event>
<event>
 5   0  0.5887179E-07  0.3179219E+04  0.7818609E-02  0.8194327E-01
       -1   -1    0    0    0  501  0.00000000000E+00  0.00000000000E+00  0.11189721706E+04  0.11189721706E+04  0.50400001928E-02 0.  1.
        1   -1    0    0  501    0  0.00000000000E+00  0.00000000000E+00 -0.22581962139E+04  0.22581962139E+04  0.50400001928E-02 0. -1.
    10030    2    1    2    0    0  0.00000000000E+00  0.00000000000E+00 -0.11392240433E+04  0.33771683846E+04  0.31792192244E+04 0.  0.
        3    1    3    3  502    0 -0.82775804755E+03 -0.77433062706E+03 -0.17534937499E+04  0.20879443590E+04  0.10100000352E+00 0. -1.
       -3    1    3    3    0  502  0.82775804755E+03  0.77433062706E+03  0.61426970661E+03  0.12892240255E+04  0.10100000352E+00 0.  1.
</event>
<event>
 5   0  0.5887179E-07  0.3007962E+04  0.7818609E-02  0.8241461E-01
       -1   -1    0    0    0  501  0.00000000000E+00  0.00000000000E+00  0.13283554298E+04  0.13283554298E+04  0.50400001928E-02 0.  1.
        1   -1    0    0  501    0  0.00000000000E+00  0.00000000000E+00 -0.17028264200E+04  0.17028264200E+04  0.50400001928E-02 0. -1.
    10030    2    1    2    0    0  0.00000000000E+00  0.00000000000E+00 -0.37447099021E+03  0.30311818497E+04  0.30079619153E+04 0.  0.
        3    1    3    3  502    0 -0.32369369816E+03  0.60355339146E+03  0.11620946582E+04  0.13488952188E+04  0.10100000352E+00 0.  1.
       -3    1    3    3    0  502  0.32369369816E+03 -0.60355339146E+03 -0.15365656484E+04  0.16822866309E+04  0.10100000352E+00 0. -1.
</event>
<event>
 5   0  0.1674806E-06  0.2995458E+04  0.7818609E-02  0.8245029E-01
       -2   -1    0    0    0  501  0.00000000000E+00  0.00000000000E+00  0.12715310790E+04  0.12715310790E+04  0.25500000920E-02 0. -1.
        2   -1    0    0  501    0  0.00000000000E+00  0.00000000000E+00 -0.17641659214E+04  0.17641659214E+04  0.25500000920E-02 0.  1.
    10030    2    1    2    0    0  0.00000000000E+00  0.00000000000E+00 -0.49263484242E+03  0.30356970004E+04  0.29954577598E+04 0.  0.
        2    1    3    3  502    0 -0.21311172721E+03  0.11966615237E+04 -0.11331593279E+04  0.16617657696E+04  0.25500000920E-02 0.  1.
       -2    1    3    3    0  502  0.21311172721E+03 -0.11966615237E+04  0.64052448549E+03  0.13739312308E+04  0.25500000920E-02 0. -1.
</event>
<event>
 5   0  0.5916703E-07  0.2996082E+04  0.7818609E-02  0.8244850E-01
       -1   -1    0    0    0  501  0.00000000000E+00  0.00000000000E+00  0.15285995519E+04  0.15285995519E+04  0.50400001928E-02 0.  1.
        1   -1    0    0  501    0  0.00000000000E+00  0.00000000000E+00 -0.14680936570E+04  0.14680936571E+04  0.50400001928E-02 0. -1.
    10030    2    1    2    0    0  0.00000000000E+00  0.00000000000E+00  0.60505894816E+02  0.29966932089E+04  0.29960823128E+04 0.  0.
        5    1    3    3  502    0 -0.10162468478E+03 -0.34935845415E+03 -0.14232213568E+04  0.14689996686E+04  0.46999998093E+01 0. -1.
       -5    1    3    3    0  502  0.10162468478E+03  0.34935845415E+03  0.14837272516E+04  0.15276935403E+04  0.46999998093E+01 0.  1.
</event>
<event>
 5   0  0.1560174E-06  0.2992699E+04  0.7818609E-02  0.8245819E-01
       -2   -1    0    0    0  501  0.00000000000E+00  0.00000000000E+00  0.10329100681E+04  0.10329100681E+04  0.25500000920E-02 0.  1.
        2   -1    0    0  501    0  0.00000000000E+00  0.00000000000E+00 -0.21677226266E+04  0.21677226266E+04  0.25500000920E-02 0. -1.
    10030    2    1    2    0    0  0.00000000000E+00  0.00000000000E+00 -0.11348125586E+04  0.32006326947E+04  0.29926994676E+04 0.  0.
        5    1    3    3  502    0  0.11907182043E+04  0.75243926007E+03 -0.11075369103E+04  0.17918244277E+04  0.46999998093E+01 0. -1.
       -5    1    3    3    0  502 -0.11907182043E+04 -0.75243926007E+03 -0.27275648258E+02  0.14088082670E+04  0.46999998093E+01 0.  1.
</event>
<event>
 5   0  0.5931588E-07  0.2997902E+04  0.7818609E-02  0.8244330E-01
        1   -1    0    0  501    0  0.00000000000E+00  0.00000000000E+00  0.72834817650E+03  0.72834817652E+03  0.50400001928E-02 0. -1.
       -1   -1    0    0    0  501  0.00000000000E+00  0.00000000000E+00 -0.30848623533E+04  0.30848623533E+04  0.50400001928E-02 0.  1.
    10030    2    1    2    0    0  0.00000000000E+00  0.00000000000E+00 -0.23565141768E+04  0.38132105298E+04  0.29979018462E+04 0.  0.
        2    1    3    3  502    0 -0.12649121902E+02 -0.29997370836E+03 -0.30462241512E+04  0.30609844503E+04  0.25500000920E-02 0.  1.
       -2    1    3    3    0  502  0.12649121902E+02  0.29997370836E+03  0.68970997434E+03  0.75222607952E+03  0.25500000920E-02 0. -1.
</event>
<event>
 5   0  0.5431625E-07  0.3006838E+04  0.7818609E-02  0.8241781E-01
       -4   -1    0    0    0  501  0.00000000000E+00  0.00000000000E+00  0.14963974506E+04  0.14963979895E+04  0.12699999809E+01 0. -1.
        4   -1    0    0  501    0  0.00000000000E+00  0.00000000000E+00 -0.15104720623E+04  0.15104725962E+04  0.12699999809E+01 0.  1.
    10030    2    1    2    0    0  0.00000000000E+00  0.00000000000E+00 -0.14074611725E+02  0.30068705857E+04  0.30068376451E+04 0.  0.
        1    1    3    3  502    0 -0.22687278738E+03  0.12191888656E+04  0.84289871058E+03  0.14994568977E+04  0.50400001928E-02 0. -1.
       -1    1    3    3    0  502  0.22687278738E+03 -0.12191888656E+04 -0.85697332231E+03  0.15074136880E+04  0.50400001928E-02 0.  1.
</event>
<event>
 5   0  0.6291798E-07  0.3003340E+04  0.7818609E-02  0.8242778E-01
       -1   -1    0    0    0  501  0.00000000000E+00  0.00000000000E+00  0.79510050854E+03  0.79510050856E+03  0.50400001928E-02 0.  1.
        1   -1    0    0  501    0  0.00000000000E+00  0.00000000000E+00 -0.28361362998E+04  0.28361362998E+04  0.50400001928E-02 0. -1.
    10030    2    1    2    0    0  0.00000000000E+00  0.00000000000E+00 -0.20410357913E+04  0.36312368084E+04  0.30033404165E+04 0.  0.
        1    1    3    3  502    0  0.60800225497E+03 -0.16570408581E+03  0.62749222011E+03  0.88930932325E+03  0.50400001928E-02 0.  1.
       -1    1    3    3    0  502 -0.60800225497E+03  0.16570408581E+03 -0.26685280114E+04  0.27419274851E+04  0.50400001928E-02 0. -1.
</event>
<event>
 5   0  0.5931588E-07  0.2981292E+04  0.7818609E-02  0.8249093E-01
        1   -1    0    0  501    0  0.00000000000E+00  0.00000000000E+00  0.19725250056E+04  0.19725250057E+04  0.50400001928E-02 0.  1.
       -1   -1    0    0    0  501  0.00000000000E+00  0.00000000000E+00 -0.11264879542E+04  0.11264879542E+04  0.50400001928E-02 0. -1.
    10030    2    1    2    0    0  0.00000000000E+00  0.00000000000E+00  0.84603705143E+03  0.30990129599E+04  0.29812921080E+04 0.  0.
        2    1    3    3  502    0  0.71360137874E+03 -0.85168645631E+03  0.14559506431E+04  0.18314991190E+04  0.25500000920E-02 0.  1.
       -2    1    3    3    0  502 -0.71360137874E+03  0.85168645631E+03 -0.60991359167E+03  0.12675138409E+04  0.25500000920E-02 0. -1.
</event>
<event>
 5   0  0.1723916E-06  0.3004368E+04  0.7818609E-02  0.8242485E-01
       -2   -1    0    0    0  501  0.00000000000E+00  0.00000000000E+00  0.11097402514E+04  0.11097402514E+04  0.25500000920E-02 0.  1.
        2   -1    0    0  501    0  0.00000000000E+00  0.00000000000E+00 -0.20334092591E+04  0.20334092591E+04  0.25500000920E-02 0. -1.
    10030    2    1    2    0    0  0.00000000000E+00  0.00000000000E+00 -0.92366900770E+03  0.31431495105E+04  0.30043675557E+04 0.  0.
        1    1    3    3  502    0  0.10048138673E+04 -0.84768746017E+03 -0.12222747446E+04  0.17950433113E+04  0.50400001928E-02 0. -1.
       -1    1    3    3    0  502 -0.10048138673E+04  0.84768746017E+03  0.29860573691E+03  0.13481061992E+04  0.50400001928E-02 0.  1.
</event>
<event>
 5   0  0.1723916E-06  0.2995067E+04  0.7818609E-02  0.8245141E-01
        2   -1    0    0  501    0  0.00000000000E+00  0.00000000000E+00  0.14086584112E+04  0.14086584112E+04  0.25500000920E-02 0. -1.
       -2   -1    0    0    0  501  0.00000000000E+00  0.00000000000E+00 -0.15920157742E+04  0.15920157742E+04  0.25500000920E-02 0.  1.
    10030    2    1    2    0    0  0.00000000000E+00  0.00000000000E+00 -0.18335736304E+03  0.30006741854E+04  0.29950668848E+04 0.  0.
        1    1    3    3  502    0  0.10810075586E+04 -0.78739904072E+03 -0.76675902401E+03  0.15415881396E+04  0.50400001928E-02 0.  1.
       -1    1    3    3    0  502 -0.10810075586E+04  0.78739904072E+03  0.58340166097E+03  0.14590860458E+04  0.50400001928E-02 0. -1.
</event>
<event>
 5   0  0.5431625E-07  0.3033913E+04  0.7818609E-02  0.8234113E-01
       -3   -1    0    0    0  501  0.00000000000E+00  0.00000000000E+00  0.12406148784E+04  0.12406148825E+04  0.10100000352E+00 0. -1.
        3   -1    0    0  501    0  0.00000000000E+00  0.00000000000E+00 -0.18548517668E+04  0.18548517696E+04  0.10100000352E+00 0.  1.
    10030    2    1    2    0    0  0.00000000000E+00  0.00000000000E+00 -0.61423688842E+03  0.30954666521E+04  0.30339127936E+04 0.  0.
        3    1    3    3  502    0 -0.94917383594E+03  0.11803503051E+04 -0.39247512072E+03  0.15646707463E+04  0.10100000352E+00 0.  1.
       -3    1    3    3    0  502  0.94917383594E+03 -0.11803503051E+04 -0.22176176770E+03  0.15307959059E+04  0.10100000352E+00 0. -1.
</event>
<event>
 5   0  0.5874741E-07  0.2973672E+04  0.7818609E-02  0.8251289E-01
       -1   -1    0    0    0  501  0.00000000000E+00  0.00000000000E+00  0.11162601605E+04  0.11162601605E+04  0.50400001928E-02 0.  1.
        1   -1    0    0  501    0  0.00000000000E+00  0.00000000000E+00 -0.19804360587E+04  0.19804360587E+04  0.50400001928E-02 0. -1.
    10030    2    1    2    0    0  0.00000000000E+00  0.00000000000E+00 -0.86417589827E+03  0.30966962192E+04  0.29736723913E+04 0.  0.
        4    1    3    3  502    0  0.31720342827E+03  0.54985254856E+03 -0.18322283766E+04  0.19390766557E+04  0.12699999809E+01 0. -1.
       -4    1    3    3    0  502 -0.31720342827E+03 -0.54985254856E+03  0.96805247830E+03  0.11576195635E+04  0.12699999809E+01 0.  1.
</event>
<event>
 5   0  0.1560174E-06  0.3006852E+04  0.7818609E-02  0.8241777E-01
       -2   -1    0    0    0  501  0.00000000000E+00  0.00000000000E+00  0.12290678268E+04  0.12290678268E+04  0.25500000920E-02 0.  1.
        2   -1    0    0  501    0  0.00000000000E+00  0.00000000000E+00 -0.18390282258E+04  0.18390282258E+04  0.25500000920E-02 0. -1.
    10030    2    1    2    0    0  0.00000000000E+00  0.00000000000E+00 -0.60996039901E+03  0.30680960526E+04  0.30068524572E+04 0.  0.
        5    1    3    3  502    0 -0.23418575433E+03  0.13771095426E+04 -0.87217511797E+03  0.16468106103E+04  0.46999998093E+01 0. -1.
       -5    1    3    3    0  502  0.23418575433E+03 -0.13771095426E+04  0.26221471895E+03  0.14212854423E+04  0.46999998093E+01 0.  1.
</event>
<event>
 5   0  0.5916703E-07  0.3006620E+04  0.7818609E-02  0.8241843E-01
       -1   -1    0    0    0  501  0.00000000000E+00  0.00000000000E+00  0.13776786092E+04  0.13776786092E+04  0.50400001928E-02 0. -1.
        1   -1    0    0  501    0  0.00000000000E+00  0.00000000000E+00 -0.16403977836E+04  0.16403977836E+04  0.50400001928E-02 0.  1.
    10030    2    1    2    0    0  0.00000000000E+00  0.00000000000E+00 -0.26271917438E+03  0.30180763928E+04  0.30066199874E+04 0.  0.
        5    1    3    3  502    0 -0.37109585862E+03  0.21331324873E+03 -0.15779280927E+04  0.16349598876E+04  0.46999998093E+01 0.  1.
       -5    1    3    3    0  502  0.37109585862E+03 -0.21331324873E+03  0.13152089183E+04  0.13831165053E+04  0.46999998093E+01 0. -1.
</event>
<event>
 5   0  0.5931588E-07  0.2999411E+04  0.7818609E-02  0.8243899E-01
       -1   -1    0    0    0  501  0.00000000000E+00  0.00000000000E+00  0.15336139396E+04  0.15336139396E+04  0.50400001928E-02 0. -1.
        1   -1    0    0  501    0  0.00000000000E+00  0.00000000000E+00 -0.14665471425E+04  0.14665471425E+04  0.50400001928E-02 0.  1.
    10030    2    1    2    0    0  0.00000000000E+00  0.00000000000E+00  0.67066797081E+02  0.30001610821E+04  0.29994113694E+04 0.  0.
        2    1    3    3  502    0 -0.19180571482E+03 -0.66033649552E+03  0.13666393613E+04  0.15298813233E+04  0.25500000920E-02 0. -1.
       -2    1    3    3    0  502  0.19180571482E+03  0.66033649552E+03 -0.12995725642E+04  0.14702797588E+04  0.25500000920E-02 0.  1.
</event>
<event>
 5   0  0.1560174E-06  0.2987162E+04  0.7818609E-02  0.8247407E-01
        2   -1    0    0  501    0  0.00000000000E+00  0.00000000000E+00  0.21168957242E+04  0.21168957242E+04  0.25500000920E-02 0. -1.
       -2   -1    0    0    0  501  0.00000000000E+00  0.00000000000E+00 -0.10537994200E+04  0.10537994200E+04  0.25500000920E-02 0.  1.
    10030    2    1    2    0    0  0.00000000000E+00  0.00000000000E+00  0.10630963042E+04  0.31706951443E+04  0.29871615199E+04 0.  0.
        5    1    3    3  502    0 -0.88865456597E+03 -0.11555843390E+04  0.87660506602E+03  0.17010410441E+04  0.46999998093E+01 0. -1.
       -5    1    3    3    0  502  0.88865456597E+03  0.11555843390E+04  0.18649123821E+03  0.14696541001E+04  0.46999998093E+01 0.  1.
</event>
<event>
 5   0  0.1723916E-06  0.2990289E+04  0.7818609E-02  0.8246509E-01
        2   -1    0    0  501    0  0.00000000000E+00  0.00000000000E+00  0.25951622164E+04  0.25951622164E+04  0.25500000920E-02 0. -1.
       -2   -1    0    0    0  501  0.00000000000E+00  0.00000000000E+00 -0.86139370648E+03  0.86139370648E+03  0.25500000920E-02 0.  1.
    10030    2    1    2    0    0  0.00000000000E+00  0.00000000000E+00  0.17337685099E+04  0.34565559228E+04  0.29902885483E+04 0.  0.
        1    1    3    3  502    0 -0.13589470326E+03  0.10935498937E+04 -0.30119587619E+03  0.11423824650E+04  0.50400001928E-02 0. -1.
       -1    1    3    3    0  502  0.13589470326E+03 -0.10935498937E+04  0.20349643861E+04  0.23141734579E+04  0.50400001928E-02 0.  1.
</event>
<event>
 5   0  0.5931588E-07  0.3012199E+04  0.7818609E-02  0.8240256E-01
       -1   -1    0    0    0  501  0.00000000000E+00  0.00000000000E+00  0.11955064882E+04  0.11955064882E+04  0.50400001928E-02 0. -1.
        1   -1    0    0  501    0  0.00000000000E+00  0.00000000000E+00 -0.18973848505E+04  0.18973848505E+04  0.50400001928E-02 0.  1.
    10030    2    1    2    0    0  0.00000000000E+00  0.00000000000E+00 -0.70187836233E+03  0.30928913387E+04  0.30121991297E+04 0.  0.
        2    1    3    3  502    0 -0.98959993631E+03 -0.10709602318E+04  0.36082507027E+02  0.14586177701E+04  0.25500000920E-02 0. -1.
       -2    1    3    3    0  502  0.98959993631E+03  0.10709602318E+04 -0.73796086936E+03  0.16342735685E+04  0.25500000920E-02 0.  1.
</event>
<event>
 5   0  0.5916703E-07  0.2973394E+04  0.7818609E-02  0.8251369E-01
        1   -1    0    0  501    0  0.00000000000E+00  0.00000000000E+00  0.20391299742E+04  0.20391299742E+04  0.50400001928E-02 0. -1.
       -1   -1    0    0    0  501  0.00000000000E+00  0.00000000000E+00 -0.10839268617E+04  0.10839268618E+04  0.50400001928E-02 0.  1.
    10030    2    1    2    0    0  0.00000000000E+00  0.00000000000E+00  0.95520311245E+03  0.31230568360E+04  0.29733938546E+04 0.  0.
        5    1    3    3  502    0  0.11117972226E+04 -0.64172028112E+03  0.12652454354E+04  0.18024333789E+04  0.46999998093E+01 0. -1.
       -5    1    3    3    0  502 -0.11117972226E+04  0.64172028112E+03 -0.31004232294E+03  0.13206234571E+04  0.46999998093E+01 0.  1.
</event>
<event>
 5   0  0.5887179E-07  0.3001922E+04  0.7818609E-02  0.8243182E-01
        1   -1    0    0  501    0  0.00000000000E+00  0.00000000000E+00  0.14168959838E+04  0.14168959838E+04  0.50400001928E-02 0.  1.
       -1   -1    0    0    0  501  0.00000000000E+00  0.00000000000E+00 -0.15900140590E+04  0.15900140590E+04  0.50400001928E-02 0. -1.
    10030    2    1    2    0    0  0.00000000000E+00  0.00000000000E+00 -0.17311807522E+03  0.30069100428E+04  0.30019224069E+04 0.  0.
        3    1    3    3  502    0 -0.26695301093E+03 -0.65922655368E+03 -0.14105118831E+04  0.15796795060E+04  0.10100000352E+00 0. -1.
       -3    1    3    3    0  502  0.26695301093E+03  0.65922655368E+03  0.12373938079E+04  0.14272305368E+04  0.10100000352E+00 0.  1.
</event>
<event>
 5   0  0.5887179E-07  0.3002516E+04  0.7818609E-02  0.8243013E-01
       -1   -1    0    0    0  501  0.00000000000E+00  0.00000000000E+00  0.84332522565E+03  0.84332522567E+03  0.50400001928E-02 0.  1.
        1   -1    0    0  501    0  0.00000000000E+00  0.00000000000E+00 -0.26724861600E+04  0.26724861600E+04  0.50400001928E-02 0. -1.
    10030    2    1    2    0    0  0.00000000000E+00  0.00000000000E+00 -0.18291609344E+04  0.35158113857E+04  0.30025156080E+04 0.  0.
        3    1    3    3  502    0 -0.23845891780E+03 -0.80231423671E+03  0.54475309908E+03  0.99866247505E+03  0.10100000352E+00 0.  1.
       -3    1    3    3    0  502  0.23845891780E+03  0.80231423671E+03 -0.23739140335E+04  0.25171489107E+04  0.10100000352E+00 0. -1.
</event>
<event>
 5   0  0.5916703E-07  0.2999178E+04  0.7818609E-02  0.8243966E-01
        1   -1    0    0  501    0  0.00000000000E+00  0.00000000000E+00  0.13271649033E+04  0.13271649033E+04  0.50400001928E-02 0.  1.
       -1   -1    0    0    0  501  0.00000000000E+00  0.00000000000E+00 -0.16944147656E+04  0.16944147656E+04  0.50400001928E-02 0. -1.
    10030    2    1    2    0    0  0.00000000000E+00  0.00000000000E+00 -0.36724986230E+03  0.30215796690E+04  0.29991784266E+04 0.  0.
        5    1    3    3  502    0  0.40552277378E+03  0.38427888093E+03  0.12183966806E+04  0.13403848476E+04  0.46999998093E+01 0.  1.
       -5    1    3    3    0  502 -0.40552277378E+03 -0.38427888093E+03 -0.15856465429E+04  0.16811948214E+04  0.46999998093E+01 0. -1.
</event>
<event>
 5   0  0.5874741E-07  0.2962275E+04  0.7818609E-02  0.8254586E-01
       -1   -1    0    0    0  501  0.00000000000E+00  0.00000000000E+00  0.30711659578E+04  0.30711659578E+04  0.50400001928E-02 0. -1.
        1   -1    0    0  501    0  0.00000000000E+00  0.00000000000E+00 -0.71431137701E+03  0.71431137703E+03  0.50400001928E-02 0.  1.
    10030    2    1    2    0    0  0.00000000000E+00  0.00000000000E+00  0.23568545808E+04  0.37854773348E+04  0.29622753312E+04 0.  0.
        4    1    3    3  502    0 -0.10768049554E+04  0.58893595651E+03  0.22379347130E+04  0.25523925767E+04  0.12699999809E+01 0. -1.
       -4    1    3    3    0  502  0.10768049554E+04 -0.58893595651E+03  0.11891986777E+03  0.12330847581E+04  0.12699999809E+01 0.  1.
</event>
<event>
 5   0  0.5916703E-07  0.3008712E+04  0.7818609E-02  0.8241247E-01
       -1   -1    0    0    0  501  0.00000000000E+00  0.00000000000E+00  0.19045483525E+04  0.19045483525E+04  0.50400001928E-02 0.  1.
        1   -1    0    0  501    0  0.00000000000E+00  0.00000000000E+00 -0.11882539456E+04  0.11882539456E+04  0.50400001928E-02 0. -1.
    10030    2    1    2    0    0  0.00000000000E+00  0.00000000000E+00  0.71629440682E+03  0.30928022981E+04  0.30087120796E+04 0.  0.
        5    1    3    3  502    0 -0.55447147461E+02  0.69306438346E+03  0.17294681804E+04  0.18639997057E+04  0.46999998093E+01 0.  1.
       -5    1    3    3    0  502  0.55447147461E+02 -0.69306438346E+03 -0.10131737735E+04  0.12288025924E+04  0.46999998093E+01 0. -1.
</event>
<event>
 5   0  0.1625212E-06  0.3003160E+04  0.7818609E-02  0.8242829E-01
       -2   -1    0    0    0  501  0.00000000000E+00  0.00000000000E+00  0.15707570762E+04  0.15707570762E+04  0.25500000920E-02 0. -1.
        2   -1    0    0  501    0  0.00000000000E+00  0.00000000000E+00 -0.14354498992E+04  0.14354498992E+04  0.25500000920E-02 0.  1.
    10030    2    1    2    0    0  0.00000000000E+00  0.00000000000E+00  0.13530717700E+03  0.30062069755E+04  0.30031603932E+04 0.  0.
        4    1    3    3  502    0  0.12130086980E+04  0.58949807400E+03 -0.59320050438E+03  0.14733589284E+04  0.12699999809E+01 0. -1.
       -4    1    3    3    0  502 -0.12130086980E+04 -0.58949807400E+03  0.72850768138E+03  0.15328480471E+04  0.12699999809E+01 0.  1.
</event>
<event>
 5   0  0.5916703E-07  0.2960428E+04  0.7818609E-02  0.8255122E-01
       -1   -1    0    0    0  501  0.00000000000E+00  0.00000000000E+00  0.11364194554E+04  0.11364194554E+04  0.50400001928E-02 0.  1.
        1   -1    0    0  501    0  0.00000000000E+00  0.00000000000E+00 -0.19280143940E+04  0.19280143940E+04  0.50400001928E-02 0. -1.
    10030    2    1    2    0    0  0.00000000000E+00  0.00000000000E+00 -0.79159493864E+03  0.30644338494E+04  0.29604277175E+04 0.  0.
        5    1    3    3  502    0  0.90798998959E+02 -0.27545398110E+03 -0.18983057958E+04  0.19203401621E+04  0.46999998093E+01 0. -1.
       -5    1    3    3    0  502 -0.90798998959E+02  0.27545398110E+03  0.11067108572E+04  0.11440936873E+04  0.46999998093E+01 0.  1.
</event>
<event>
 5   0  0.1635086E-06  0.2978527E+04  0.7818609E-02  0.8249889E-01
        2   -1    0    0  501    0  0.00000000000E+00  0.00000000000E+00  0.17197337196E+04  0.17197337196E+04  0.25500000920E-02 0.  1.
       -2   -1    0    0    0  501  0.00000000000E+00  0.00000000000E+00 -0.12896800906E+04  0.12896800907E+04  0.25500000920E-02 0. -1.
    10030    2    1    2    0    0  0.00000000000E+00  0.00000000000E+00  0.43005362893E+03  0.30094138102E+04  0.29785273807E+04 0.  0.
        3    1    3    3  502    0  0.23179182713E+03  0.12546852097E+04  0.99106960954E+03  0.16156055855E+04  0.10100000352E+00 0.  1.
       -3    1    3    3    0  502 -0.23179182713E+03 -0.12546852097E+04 -0.56101598061E+03  0.13938082248E+04  0.10100000352E+00 0. -1.
</event>
<event>
 5   0  0.1635086E-06  0.2993568E+04  0.7818609E-02  0.8245570E-01
        2   -1    0    0  501    0  0.00000000000E+00  0.00000000000E+00  0.17425120749E+04  0.17425120749E+04  0.25500000920E-02 0.  1.
       -2   -1    0    0    0  501  0.00000000000E+00  0.00000000000E+00 -0.12857085542E+04  0.12857085542E+04  0.25500000920E-02 0. -1.
    10030    2    1    2    0    0  0.00000000000E+00  0.00000000000E+00  0.45680352068E+03  0.30282206291E+04  0.29935682257E+04 0.  0.
        3    1    3    3  502    0  0.15691736477E+03  0.61815150677E+03 -0.11413882914E+04  0.13074790961E+04  0.10100000352E+00 0. -1.
       -3    1    3    3    0  502 -0.15691736477E+03 -0.61815150677E+03  0.15981918121E+04  0.17207415330E+04  0.10100000352E+00 0.  1.
</event>
<event>
 5   0  0.5431625E-07  0.2989757E+04  0.7818609E-02  0.8246662E-01
       -4   -1    0    0    0  501  0.00000000000E+00  0.00000000000E+00  0.18069693768E+04  0.18069698231E+04  0.12699999809E+01 0.  1.
        4   -1    0    0  501    0  0.00000000000E+00  0.00000000000E+00 -0.12366891361E+04  0.12366897882E+04  0.12699999809E+01 0. -1.
    10030    2    1    2    0    0  0.00000000000E+00  0.00000000000E+00  0.57028024066E+03  0.30436596113E+04  0.29897565581E+04 0.  0.
        5    1    3    3  502    0 -0.81532020562E+02 -0.81310199320E+03  0.15594495234E+04  0.17605928626E+04  0.46999998093E+01 0.  1.
       -5    1    3    3    0  502  0.81532020562E+02  0.81310199320E+03 -0.98916928276E+03  0.12830667487E+04  0.46999998093E+01 0. -1.
</event>
<event>
 5   0  0.1560174E-06  0.2989534E+04  0.7818609E-02  0.8246726E-01
        2   -1    0    0  501    0  0.00000000000E+00  0.00000000000E+00  0.14969508289E+04  0.14969508289E+04  0.25500000920E-02 0.  1.
       -2   -1    0    0    0  501  0.00000000000E+00  0.00000000000E+00 -0.14925860651E+04  0.14925860651E+04  0.25500000920E-02 0. -1.
    10030    2    1    2    0    0  0.00000000000E+00  0.00000000000E+00  0.43647637964E+01  0.29895368940E+04  0.29895337077E+04 0.  0.
        5    1    3    3  502    0 -0.14389158543E+04 -0.68073448276E+01 -0.40251630937E+03  0.14941775815E+04  0.46999998093E+01 0. -1.
       -5    1    3    3    0  502  0.14389158543E+04  0.68073448276E+01  0.40688107317E+03  0.14953593125E+04  0.46999998093E+01 0.  1.
</event>
<event>
 5   0  0.5916703E-07  0.3000681E+04  0.7818609E-02  0.8243536E-01
        1   -1    0    0  501    0  0.00000000000E+00  0.00000000000E+00  0.16109118829E+04  0.16109118830E+04  0.50400001928E-02 0. -1.
       -1   -1    0    0    0  501  0.00000000000E+00  0.00000000000E+00 -0.13973590905E+04  0.13973590905E+04  0.50400001928E-02 0.  1.
    10030    2    1    2    0    0  0.00000000000E+00  0.00000000000E+00  0.21355279241E+03  0.30082709735E+04  0.30006814984E+04 0.  0.
        5    1    3    3  502    0  0.29958291581E+03 -0.36312799711E+03  0.15349455225E+04  0.16055191412E+04  0.46999998093E+01 0. -1.
       -5    1    3    3    0  502 -0.29958291581E+03  0.36312799711E+03 -0.13213927301E+04  0.14027518323E+04  0.46999998093E+01 0.  1.
</event>
<event>
 5   0  0.5931588E-07  0.3001627E+04  0.7818609E-02  0.8243266E-01
        1   -1    0    0  501    0  0.00000000000E+00  0.00000000000E+00  0.16880980500E+04  0.16880980500E+04  0.50400001928E-02 0. -1.
       -1   -1    0    0    0  501  0.00000000000E+00  0.00000000000E+00 -0.13343070074E+04  0.13343070074E+04  0.50400001928E-02 0.  1.
    10030    2    1    2    0    0  0.00000000000E+00  0.00000000000E+00  0.35379104259E+03  0.30224050575E+04  0.30016269304E+04 0.  0.
        2    1    3    3  502    0 -0.43515743408E+03  0.39562533563E+03  0.15672359576E+04  0.16739504011E+04  0.25500000920E-02 0. -1.
       -2    1    3    3    0  502  0.43515743408E+03 -0.39562533563E+03 -0.12134449150E+04  0.13484546564E+04  0.25500000920E-02 0.  1.
</event>
<event>
 5   0  0.1560174E-06  0.2985433E+04  0.7818609E-02  0.8247903E-01
       -2   -1    0    0    0  501  0.00000000000E+00  0.00000000000E+00  0.14013008310E+04  0.14013008310E+04  0.25500000920E-02 0.  1.
        2   -1    0    0  501    0  0.00000000000E+00  0.00000000000E+00 -0.15900957841E+04  0.15900957841E+04  0.25500000920E-02 0. -1.
    10030    2    1    2    0    0  0.00000000000E+00  0.00000000000E+00 -0.18879495303E+03  0.29913966151E+04  0.29854329962E+04 0.  0.
        5    1    3    3  502    0 -0.81736875246E+03  0.94235738250E+03 -0.91582243599E+03  0.15475406095E+04  0.46999998093E+01 0.  1.
       -5    1    3    3    0  502  0.81736875246E+03 -0.94235738250E+03  0.72702748296E+03  0.14438560056E+04  0.46999998093E+01 0. -1.
</event>
<event>
 5   0  0.1723916E-06  0.3001932E+04  0.7818609E-02  0.8243179E-01
       -2   -1    0    0    0  501  0.00000000000E+00  0.00000000000E+00  0.12757996239E+04  0.12757996239E+04  0.25500000920E-02 0. -1.
        2   -1    0    0  501    0  0.00000000000E+00  0.00000000000E+00 -0.17658723451E+04  0.17658723451E+04  0.25500000920E-02 0.  1.
    10030    2    1    2    0    0  0.00000000000E+00  0.00000000000E+00 -0.49007272115E+03  0.30416719690E+04  0.30019322269E+04 0.  0.
        1    1    3    3  502    0 -0.51298935138E+03 -0.26135313461E+03 -0.16495450305E+04  0.17471297442E+04  0.50400001928E-02 0.  1.
       -1    1    3    3    0  502  0.51298935138E+03  0.26135313461E+03  0.11594723093E+04  0.12945422248E+04  0.50400001928E-02 0. -1.
</event>
<event>
 5   0  0.5931588E-07  0.3043183E+04  0.7818609E-02  0.8231506E-01
        1   -1    0    0  501    0  0.00000000000E+00  0.00000000000E+00  0.13133096224E+04  0.13133096224E+04  0.50400001928E-02 0. -1.
       -1   -1    0    0    0  501  0.00000000000E+00  0.00000000000E+00 -0.17629060001E+04  0.17629060001E+04  0.50400001928E-02 0.  1.
    10030    2    1    2    0    0  0.00000000000E+00  0.00000000000E+00 -0.44959637775E+03  0.30762156225E+04  0.30431834734E+04 0.  0.
        2    1    3    3  502    0  0.17742573325E+03 -0.15097239510E+04 -0.29257154651E+03  0.15480130519E+04  0.25500000920E-02 0.  1.
       -2    1    3    3    0  502 -0.17742573325E+03  0.15097239510E+04 -0.15702483124E+03  0.15282025706E+04  0.25500000920E-02 0. -1.
</event>
<event>
 5   0  0.1723916E-06  0.3016103E+04  0.7818609E-02  0.8239147E-01
       -2   -1    0    0    0  501  0.00000000000E+00  0.00000000000E+00  0.15532663826E+04  0.15532663826E+04  0.25500000920E-02 0. -1.
        2   -1    0    0  501    0  0.00000000000E+00  0.00000000000E+00 -0.14641532502E+04  0.14641532502E+04  0.25500000920E-02 0.  1.
    10030    2    1    2    0    0  0.00000000000E+00  0.00000000000E+00  0.89113132438E+02  0.30174196327E+04  0.30161034614E+04 0.  0.
        1    1    3    3  502    0 -0.62404901301E+03 -0.13681059882E+04  0.15892555326E+03  0.15120874635E+04  0.50400001928E-02 0.  1.
       -1    1    3    3    0  502  0.62404901301E+03  0.13681059882E+04 -0.69812420822E+02  0.15053321693E+04  0.50400001928E-02 0. -1.
</event>
<event>
 5   0  0.5874741E-07  0.2903075E+04  0.7818609E-02  0.8271963E-01
       -1   -1    0    0    0  501  0.00000000000E+00  0.00000000000E+00  0.97190999007E+03  0.97190999009E+03  0.50400001928E-02 0.  1.
        1   -1    0    0  501    0  0.00000000000E+00  0.00000000000E+00 -0.21678564159E+04  0.21678564159E+04  0.50400001928E-02 0. -1.
    10030    2    1    2    0    0  0.00000000000E+00  0.00000000000E+00 -0.11959464258E+04  0.31397664060E+04  0.29030751335E+04 0.  0.
        4    1    3    3  502    0  0.74985441422E+03 -0.10462993094E+04 -0.13234346656E+04  0.18462136427E+04  0.12699999809E+01 0. -1.
       -4    1    3    3    0  502 -0.74985441422E+03  0.10462993094E+04  0.12748823979E+03  0.12935527633E+04  0.12699999809E+01 0.  1.
</event>
<event>
 5   0  0.1635086E-06  0.3013461E+04  0.7818609E-02  0.8239897E-01
       -2   -1    0    0    0  501  0.00000000000E+00  0.00000000000E+00  0.99670284314E+03  0.99670284314E+03  0.25500000920E-02 0. -1.
        2   -1    0    0  501    0  0.00000000000E+00  0.00000000000E+00 -0.22777473283E+04  0.22777473283E+04  0.25500000920E-02 0.  1.
    10030    2    1    2    0    0  0.00000000000E+00  0.00000000000E+00 -0.12810444852E+04  0.32744501715E+04  0.30134612910E+04 0.  0.
        3    1    3    3  502    0  0.11128006435E+04 -0.88782654517E+03 -0.11769103382E+04  0.18470731444E+04  0.10100000352E+00 0.  1.
       -3    1    3    3    0  502 -0.11128006435E+04  0.88782654517E+03 -0.10413414694E+03  0.14273770270E+04  0.10100000352E+00 0. -1.
</event>
<event>
 5   0  0.5874741E-07  0.2987110E+04  0.7818609E-02  0.8247421E-01
        1   -1    0    0  501    0  0.00000000000E+00  0.00000000000E+00  0.12762655907E+04  0.12762655907E+04  0.50400001928E-02 0.  1.
       -1   -1    0    0    0  501  0.00000000000E+00  0.00000000000E+00 -0.17478385837E+04  0.17478385837E+04  0.50400001928E-02 0. -1.
    10030    2    1    2    0    0  0.00000000000E+00  0.00000000000E+00 -0.47157299302E+03  0.30241041744E+04  0.29871098021E+04 0.  0.
        4    1    3    3  502    0 -0.13101903365E+04 -0.58859415397E+03  0.17875113492E+03  0.14474098857E+04  0.12699999809E+01 0.  1.
       -4    1    3    3    0  502  0.13101903365E+04  0.58859415397E+03 -0.65032412794E+03  0.15766942888E+04  0.12699999809E+01 0. -1.
</event>
<event>
 5   0  0.1635086E-06  0.3047202E+04  0.7818609E-02  0.8230379E-01
       -2   -1    0    0    0  501  0.00000000000E+00  0.00000000000E+00  0.14807041640E+04  0.14807041640E+04  0.25500000920E-02 0.  1.
        2   -1    0    0  501    0  0.00000000000E+00  0.00000000000E+00 -0.15677408579E+04  0.15677408579E+04  0.25500000920E-02 0. -1.
    10030    2    1    2    0    0  0.00000000000E+00  0.00000000000E+00 -0.87036693980E+02  0.30484450219E+04  0.30472022685E+04 0.  0.
        3    1    3    3  502    0 -0.35051297967E+03 -0.10509692338E+04 -0.10898725993E+04  0.15540971566E+04  0.10100000352E+00 0. -1.
       -3    1    3    3    0  502  0.35051297967E+03  0.10509692338E+04  0.10028359054E+04  0.14943478653E+04  0.10100000352E+00 0.  1.
</event>
<event>
 5   0  0.1625212E-06  0.2998226E+04  0.7818609E-02  0.8244238E-01
        2   -1    0    0  501    0  0.00000000000E+00  0.00000000000E+00  0.23473586573E+04  0.23473586573E+04  0.25500000920E-02 0. -1.
       -2   -1    0    0    0  501  0.00000000000E+00  0.00000000000E+00 -0.95739093345E+03  0.95739093345E+03  0.25500000920E-02 0.  1.
    10030    2    1    2    0    0  0.00000000000E+00  0.00000000000E+00  0.13899677238E+04  0.33047495907E+04  0.29982260729E+04 0.  0.
        4    1    3    3  502    0 -0.16021902242E+03 -0.65179352555E+03 -0.78251814875E+03  0.10309419000E+04  0.12699999809E+01 0.  1.
       -4    1    3    3    0  502  0.16021902242E+03  0.65179352555E+03  0.21724858726E+04  0.22738076908E+04  0.12699999809E+01 0. -1.
</event>
<event>
 5   0  0.1674806E-06  0.3005739E+04  0.7818609E-02  0.8242094E-01
       -2   -1    0    0    0  501  0.00000000000E+00  0.00000000000E+00  0.12458161943E+04  0.12458161943E+04  0.25500000920E-02 0.  1.
        2   -1    0    0  501    0  0.00000000000E+00  0.00000000000E+00 -0.18129612279E+04  0.18129612279E+04  0.25500000920E-02 0. -1.
    10030    2    1    2    0    0  0.00000000000E+00  0.00000000000E+00 -0.56714503360E+03  0.30587774221E+04  0.30057388159E+04 0.  0.
        2    1    3    3  502    0 -0.12895274227E+03  0.11159875927E+04 -0.12994661022E+04  0.17177512240E+04  0.25500000920E-02 0. -1.
       -2    1    3    3    0  502  0.12895274227E+03 -0.11159875927E+04  0.73232106859E+03  0.13410261982E+04  0.25500000920E-02 0.  1.
</event>
<event>
 5   0  0.1674806E-06  0.3011688E+04  0.7818609E-02  0.8240401E-01
        2   -1    0    0  501    0  0.00000000000E+00  0.00000000000E+00  0.24370760475E+04  0.24370760475E+04  0.25500000920E-02 0. -1.
       -2   -1    0    0    0  501  0.00000000000E+00  0.00000000000E+00 -0.93044513436E+03  0.93044513436E+03  0.25500000920E-02 0.  1.
    10030    2    1    2    0    0  0.00000000000E+00  0.00000000000E+00  0.15066309131E+04  0.33675211819E+04  0.30116876003E+04 0.  0.
        2    1    3    3  502    0 -0.18836836422E+03 -0.14460064373E+04  0.33322943506E+03  0.14958138633E+04  0.25500000920E-02 0.  1.
       -2    1    3    3    0  502  0.18836836422E+03  0.14460064373E+04  0.11734014781E+04  0.18717073185E+04  0.25500000920E-02 0. -1.
</event>
<event>
 5   0  0.5874741E-07  0.2962455E+04  0.7818609E-02  0.8254534E-01
        1   -1    0    0  501    0  0.00000000000E+00  0.00000000000E+00  0.16481004684E+04  0.16481004684E+04  0.50400001928E-02 0. -1.
       -1   -1    0    0    0  501  0.00000000000E+00  0.00000000000E+00 -0.13312509885E+04  0.13312509885E+04  0.50400001928E-02 0.  1.
    10030    2    1    2    0    0  0.00000000000E+00  0.00000000000E+00  0.31684947988E+03  0.29793514570E+04  0.29624553180E+04 0.  0.
        4    1    3    3  502    0 -0.57365836387E+02 -0.12401245970E+04 -0.65416490003E+03  0.14032580606E+04  0.12699999809E+01 0.  1.
       -4    1    3    3    0  502  0.57365836387E+02  0.12401245970E+04  0.97101437991E+03  0.15760933964E+04  0.12699999809E+01 0. -1.
</event>
<event>
 5   0  0.1674806E-06  0.2994298E+04  0.7818609E-02  0.8245361E-01
       -2   -1    0    0    0  501  0.00000000000E+00  0.00000000000E+00  0.81619435678E+03  0.81619435679E+03  0.25500000920E-02 0. -1.
        2   -1    0    0  501    0  0.00000000000E+00  0.00000000000E+00 -0.27462264190E+04  0.27462264190E+04  0.25500000920E-02 0.  1.
    10030    2    1    2    0    0  0.00000000000E+00  0.00000000000E+00 -0.19300320622E+04  0.35624207758E+04  0.29942975842E+04 0.  0.
        2    1    3    3  502    0  0.81541781214E+03  0.12489648224E+04 -0.11184649644E+04  0.18643452503E+04  0.25500000920E-02 0. -1.
       -2    1    3    3    0  502 -0.81541781214E+03 -0.12489648224E+04 -0.81156709787E+03  0.16980755255E+04  0.25500000920E-02 0.  1.
</event>
<event>
 5   0  0.1560174E-06  0.3003681E+04  0.7818609E-02  0.8242681E-01
       -2   -1    0    0    0  501  0.00000000000E+00  0.00000000000E+00  0.11353028101E+04  0.11353028101E+04  0.25500000920E-02 0. -1.
        2   -1    0    0  501    0  0.00000000000E+00  0.00000000000E+00 -0.19867162757E+04  0.19867162757E+04  0.25500000920E-02 0.  1.
    10030    2    1    2    0    0  0.00000000000E+00  0.00000000000E+00 -0.85141346555E+03  0.31220190858E+04  0.30036807891E+04 0.  0.
        5    1    3    3  502    0  0.44979485132E+03  0.88904389758E+03 -0.15937179226E+04  0.18795407330E+04  0.46999998093E+01 0.  1.
       -5    1    3    3    0  502 -0.44979485132E+03 -0.88904389758E+03  0.74230445709E+03  0.12424783528E+04  0.46999998093E+01 0. -1.
</event>
<event>
 5   0  0.1560174E-06  0.3001228E+04  0.7818609E-02  0.8243380E-01
       -2   -1    0    0    0  501  0.00000000000E+00  0.00000000000E+00  0.11473693344E+04  0.11473693344E+04  0.25500000920E-02 0.  1.
        2   -1    0    0  501    0  0.00000000000E+00  0.00000000000E+00 -0.19626137157E+04  0.19626137157E+04  0.25500000920E-02 0. -1.
    10030    2    1    2    0    0  0.00000000000E+00  0.00000000000E+00 -0.81524438127E+03  0.31099830501E+04  0.30012282770E+04 0.  0.
        5    1    3    3  502    0  0.83574584562E+03 -0.96237970694E+03  0.41301901819E+03  0.13398703737E+04  0.46999998093E+01 0. -1.
       -5    1    3    3    0  502 -0.83574584562E+03  0.96237970694E+03 -0.12282633995E+04  0.17701126764E+04  0.46999998093E+01 0.  1.
</event>
<event>
 5   0  0.1635086E-06  0.2951326E+04  0.7818609E-02  0.8257768E-01
       -2   -1    0    0    0  501  0.00000000000E+00  0.00000000000E+00  0.92050972875E+03  0.92050972875E+03  0.25500000920E-02 0. -1.
        2   -1    0    0  501    0  0.00000000000E+00  0.00000000000E+00 -0.23656255523E+04  0.23656255523E+04  0.25500000920E-02 0.  1.
    10030    2    1    2    0    0  0.00000000000E+00  0.00000000000E+00 -0.14451158235E+04  0.32861352810E+04  0.29513260311E+04 0.  0.
        3    1    3    3  502    0 -0.79046298876E+02 -0.10419747464E+04  0.43757432494E+03  0.11328861327E+04  0.10100000352E+00 0. -1.
       -3    1    3    3    0  502  0.79046298876E+02  0.10419747464E+04 -0.18826901485E+04  0.21532491484E+04  0.10100000352E+00 0.  1.
</event>
<event>
 5   0  0.5916703E-07  0.2998528E+04  0.7818609E-02  0.8244151E-01
       -1   -1    0    0    0  501  0.00000000000E+00  0.00000000000E+00  0.11748530867E+04  0.11748530868E+04  0.50400001928E-02 0. -1.
        1   -1    0    0  501    0  0.00000000000E+00  0.00000000000E+00 -0.19132542887E+04  0.19132542887E+04  0.50400001928E-02 0.  1.
    10030    2    1    2    0    0  0.00000000000E+00  0.00000000000E+00 -0.73840120199E+03  0.30881073755E+04  0.29985281102E+04 0.  0.
        5    1    3    3  502    0 -0.21282956696E+03  0.61672704163E+03  0.10209856462E+04  0.12116445222E+04  0.46999998093E+01 0. -1.
       -5    1    3    3    0  502  0.21282956696E+03 -0.61672704163E+03 -0.17593868482E+04  0.18764628533E+04  0.46999998093E+01 0.  1.
</event>
<event>
 5   0  0.6291798E-07  0.3017471E+04  0.7818609E-02  0.8238759E-01
       -1   -1    0    0    0  501  0.00000000000E+00  0.00000000000E+00  0.12709818890E+04  0.12709818890E+04  0.50400001928E-02 0. -1.
        1   -1    0    0  501    0  0.00000000000E+00  0.00000000000E+00 -0.17909640111E+04  0.17909640111E+04  0.50400001928E-02 0.  1.
    10030    2    1    2    0    0  0.00000000000E+00  0.00000000000E+00 -0.51998212213E+03  0.30619459001E+04  0.30174710086E+04 0.  0.
        1    1    3    3  502    0  0.10689265184E+04 -0.42799442996E+03  0.72931437683E+03  0.13629683027E+04  0.50400001928E-02 0. -1.
       -1    1    3    3    0  502 -0.10689265184E+04  0.42799442996E+03 -0.12492964990E+04  0.16989775973E+04  0.50400001928E-02 0.  1.
</event>
<event>
 5   0  0.1635086E-06  0.3001678E+04  0.7818609E-02  0.8243252E-01
        2   -1    0    0  501    0  0.00000000000E+00  0.00000000000E+00  0.21837498105E+04  0.21837498105E+04  0.25500000920E-02 0. -1.
       -2   -1    0    0    0  501  0.00000000000E+00  0.00000000000E+00 -0.10314905052E+04  0.10314905052E+04  0.25500000920E-02 0.  1.
    10030    2    1    2    0    0  0.00000000000E+00  0.00000000000E+00  0.11522593053E+04  0.32152403157E+04  0.30016776610E+04 0.  0.
        3    1    3    3  502    0  0.49122795396E+03  0.13768232876E+04  0.21198680316E+03  0.14771207408E+04  0.10100000352E+00 0. -1.
       -3    1    3    3    0  502 -0.49122795396E+03 -0.13768232876E+04  0.94027250219E+03  0.17381195749E+04  0.10100000352E+00 0.  1.
</event>
<event>
 5   0  0.5931588E-07  0.3083271E+04  0.7818609E-02  0.8220344E-01
        1   -1    0    0  501    0  0.00000000000E+00  0.00000000000E+00  0.22193205258E+04  0.22193205258E+04  0.50400001928E-02 0.  1.
       -1   -1    0    0    0  501  0.00000000000E+00  0.00000000000E+00 -0.10708865411E+04  0.10708865411E+04  0.50400001928E-02 0. -1.
    10030    2    1    2    0    0  0.00000000000E+00  0.00000000000E+00  0.11484339847E+04  0.32902070670E+04  0.30832713028E+04 0.  0.
        2    1    3    3  502    0 -0.12499191092E+03 -0.98814651432E+03 -0.68144034771E+03  0.12068212208E+04  0.25500000920E-02 0. -1.
       -2    1    3    3    0  502  0.12499191092E+03  0.98814651432E+03  0.18298743324E+04  0.20833858462E+04  0.25500000920E-02 0.  1.
</event>
<event>
 5   0  0.1625212E-06  0.3005834E+04  0.7818609E-02  0.8242067E-01
       -2   -1    0    0    0  501  0.00000000000E+00  0.00000000000E+00  0.15865113982E+04  0.15865113982E+04  0.25500000920E-02 0.  1.
        2   -1    0    0  501    0  0.00000000000E+00  0.00000000000E+00 -0.14237271332E+04  0.14237271332E+04  0.25500000920E-02 0. -1.
    10030    2    1    2    0    0  0.00000000000E+00  0.00000000000E+00  0.16278426501E+03  0.30102385314E+04  0.30058338774E+04 0.  0.
        4    1    3    3  502    0  0.33200839357E+03  0.14649735336E+04  0.13025588692E+03  0.15077616644E+04  0.12699999809E+01 0. -1.
       -4    1    3    3    0  502 -0.33200839357E+03 -0.14649735336E+04  0.32528378092E+02  0.15024768670E+04  0.12699999809E+01 0.  1.
</event>
<event>
 5   0  0.5874741E-07  0.3054473E+04  0.7818609E-02  0.8228345E-01
        1   -1    0    0  501    0  0.00000000000E+00  0.00000000000E+00  0.14709186516E+04  0.14709186516E+04  0.50400001928E-02 0.  1.
       -1   -1    0    0    0  501  0.00000000000E+00  0.00000000000E+00 -0.15857108943E+04  0.15857108943E+04  0.50400001928E-02 0. -1.
    10030    2    1    2    0    0  0.00000000000E+00  0.00000000000E+00 -0.11479224266E+03  0.30566295459E+04  0.30544732642E+04 0.  0.
        4    1    3    3  502    0  0.10622469467E+04  0.71983272321E+03 -0.88618510370E+03  0.15594400842E+04  0.12699999809E+01 0. -1.
       -4    1    3    3    0  502 -0.10622469467E+04 -0.71983272321E+03  0.77139286104E+03  0.14971894617E+04  0.12699999809E+01 0.  1.
</event>
<event>
 5   0  0.1625212E-06  0.3002870E+04  0.7818609E-02  0.8242912E-01
       -2   -1    0    0    0  501  0.00000000000E+00  0.00000000000E+00  0.11792278774E+04  0.11792278774E+04  0.25500000920E-02 0.  1.
        2   -1    0    0  501    0  0.00000000000E+00  0.00000000000E+00 -0.19116807304E+04  0.19116807304E+04  0.25500000920E-02 0. -1.
    10030    2    1    2    0    0  0.00000000000E+00  0.00000000000E+00 -0.73245285305E+03  0.30909086078E+04  0.30028701004E+04 0.  0.
        4    1    3    3  502    0 -0.23308270969E+03  0.49153791837E+03  0.10742190639E+04  0.12041118241E+04  0.12699999809E+01 0.  1.
       -4    1    3    3    0  502  0.23308270969E+03 -0.49153791837E+03 -0.18066719169E+04  0.18867967837E+04  0.12699999809E+01 0. -1.
</event>
<event>
 5   0  0.1723916E-06  0.2997174E+04  0.7818609E-02  0.8244538E-01
        2   -1    0    0  501    0  0.00000000000E+00  0.00000000000E+00  0.12438303502E+04  0.12438303502E+04  0.25500000920E-02 0. -1.
       -2   -1    0    0    0  501  0.00000000000E+00  0.00000000000E+00 -0.18055214429E+04  0.18055214429E+04  0.25500000920E-02 0.  1.
    10030    2    1    2    0    0  0.00000000000E+00  0.00000000000E+00 -0.56169109274E+03  0.30493517931E+04  0.29971735810E+04 0.  0.
        1    1    3    3  502    0 -0.23019812075E+03  0.39231362898E+03  0.11718997107E+04  0.12570799856E+04  0.50400001928E-02 0. -1.
       -1    1    3    3    0  502  0.23019812075E+03 -0.39231362898E+03 -0.17335908034E+04  0.17922718075E+04  0.50400001928E-02 0.  1.
</event>
<event>
 5   0  0.1674806E-06  0.2992153E+04  0.7818609E-02  0.8245975E-01
       -2   -1    0    0    0  501  0.00000000000E+00  0.00000000000E+00  0.12027284435E+04  0.12027284435E+04  0.25500000920E-02 0. -1.
        2   -1    0    0  501    0  0.00000000000E+00  0.00000000000E+00 -0.18609725338E+04  0.18609725338E+04  0.25500000920E-02 0.  1.
    10030    2    1    2    0    0  0.00000000000E+00  0.00000000000E+00 -0.65824409025E+03  0.30637009773E+04  0.29921528029E+04 0.  0.
        2    1    3    3  502    0 -0.20950362591E+03  0.26891030746E+03  0.11624333854E+04  0.12113859411E+04  0.25500000920E-02 0. -1.
       -2    1    3    3    0  502  0.20950362591E+03 -0.26891030746E+03 -0.18206774757E+04  0.18523150362E+04  0.25500000920E-02 0.  1.
</event>
<event>
 5   0  0.5887179E-07  0.3001610E+04  0.7818609E-02  0.8243271E-01
       -1   -1    0    0    0  501  0.00000000000E+00  0.00000000000E+00  0.13186170616E+04  0.13186170616E+04  0.50400001928E-02 0. -1.
        1   -1    0    0  501    0  0.00000000000E+00  0.00000000000E+00 -0.17081648467E+04  0.17081648467E+04  0.50400001928E-02 0.  1.
    10030    2    1    2    0    0  0.00000000000E+00  0.00000000000E+00 -0.38954778509E+03  0.30267819083E+04  0.30016097753E+04 0.  0.
        3    1    3    3  502    0  0.14641994389E+04  0.32571779762E+03 -0.14493043102E+03  0.15069760849E+04  0.10100000352E+00 0.  1.
       -3    1    3    3    0  502 -0.14641994389E+04 -0.32571779762E+03 -0.24461735408E+03  0.15198058233E+04  0.10100000352E+00 0. -1.
</event>
<event>
 5   0  0.6291798E-07  0.3006425E+04  0.7818609E-02  0.8241899E-01
        1   -1    0    0  501    0  0.00000000000E+00  0.00000000000E+00  0.16401013408E+04  0.16401013408E+04  0.50400001928E-02 0. -1.
       -1   -1    0    0    0  501  0.00000000000E+00  0.00000000000E+00 -0.13777486601E+04  0.13777486601E+04  0.50400001928E-02 0.  1.
    10030    2    1    2    0    0  0.00000000000E+00  0.00000000000E+00  0.26235268067E+03  0.30178500009E+04  0.30064247369E+04 0.  0.
        1    1    3    3  502    0 -0.97380236188E+03  0.38801928846E+03 -0.95032118513E+03  0.14149064857E+04  0.50400001928E-02 0.  1.
       -1    1    3    3    0  502  0.97380236188E+03 -0.38801928846E+03  0.12126738658E+04  0.16029435152E+04  0.50400001928E-02 0. -1.
</event>
<event>
 5   0  0.5931588E-07  0.3001123E+04  0.7818609E-02  0.8243410E-01
        1   -1    0    0  501    0  0.00000000000E+00  0.00000000000E+00  0.15398077420E+04  0.15398077420E+04  0.50400001928E-02 0. -1.
       -1   -1    0    0    0  501  0.00000000000E+00  0.00000000000E+00 -0.14623152153E+04  0.14623152153E+04  0.50400001928E-02 0.  1.
    10030    2    1    2    0    0  0.00000000000E+00  0.00000000000E+00  0.77492526648E+02  0.30021229573E+04  0.30011226498E+04 0.  0.
        2    1    3    3  502    0  0.12503446545E+04 -0.78677296571E+03 -0.22461099760E+03  0.14942635494E+04  0.25500000920E-02 0. -1.
       -2    1    3    3    0  502 -0.12503446545E+04  0.78677296571E+03  0.30210352425E+03  0.15078594079E+04  0.25500000920E-02 0.  1.
</event>
<event>
 5   0  0.1674806E-06  0.2986505E+04  0.7818609E-02  0.8247595E-01
        2   -1    0    0  501    0  0.00000000000E+00  0.00000000000E+00  0.93815916125E+03  0.93815916126E+03  0.25500000920E-02 0. -1.
       -2   -1    0    0    0  501  0.00000000000E+00  0.00000000000E+00 -0.23767861633E+04  0.23767861633E+04  0.25500000920E-02 0.  1.
    10030    2    1    2    0    0  0.00000000000E+00  0.00000000000E+00 -0.14386270021E+04  0.33149453246E+04  0.29865054585E+04 0.  0.
        2    1    3    3  502    0  0.12295971469E+04 -0.69905157571E+03 -0.18789007121E+03  0.14268443952E+04  0.25500000920E-02 0.  1.
       -2    1    3    3    0  502 -0.12295971469E+04  0.69905157571E+03 -0.12507369309E+04  0.18881009294E+04  0.25500000920E-02 0. -1.
</event>
<event>
 5   0  0.1560174E-06  0.3007332E+04  0.7818609E-02  0.8241640E-01
        2   -1    0    0  501    0  0.00000000000E+00  0.00000000000E+00  0.26179681316E+04  0.26179681316E+04  0.25500000920E-02 0.  1.
       -2   -1    0    0    0  501  0.00000000000E+00  0.00000000000E+00 -0.86365143774E+03  0.86365143775E+03  0.25500000920E-02 0. -1.
    10030    2    1    2    0    0  0.00000000000E+00  0.00000000000E+00  0.17543166939E+04  0.34816195694E+04  0.30073323334E+04 0.  0.
        5    1    3    3  502    0 -0.14164001404E+03  0.69638043134E+03  0.24112805385E+04  0.25138224925E+04  0.46999998093E+01 0.  1.
       -5    1    3    3    0  502  0.14164001404E+03 -0.69638043134E+03 -0.65696384463E+03  0.96779707681E+03  0.46999998093E+01 0. -1.
</event>
<event>
 5   0  0.6291798E-07  0.3002217E+04  0.7818609E-02  0.8243098E-01
       -1   -1    0    0    0  501  0.00000000000E+00  0.00000000000E+00  0.19975141306E+04  0.19975141306E+04  0.50400001928E-02 0.  1.
        1   -1    0    0  501    0  0.00000000000E+00  0.00000000000E+00 -0.11280651703E+04  0.11280651703E+04  0.50400001928E-02 0. -1.
    10030    2    1    2    0    0  0.00000000000E+00  0.00000000000E+00  0.86944896030E+03  0.31255793009E+04  0.30022165931E+04 0.  0.
        1    1    3    3  502    0 -0.29838933519E+03 -0.24967184139E+03  0.19441097035E+04  0.19826585089E+04  0.50400001928E-02 0.  1.
       -1    1    3    3    0  502  0.29838933519E+03  0.24967184139E+03 -0.10746607432E+04  0.11429207920E+04  0.50400001928E-02 0. -1.
</event>
<event>
 5   0  0.1723916E-06  0.3001176E+04  0.7818609E-02  0.8243395E-01
       -2   -1    0    0    0  501  0.00000000000E+00  0.00000000000E+00  0.83305175528E+03  0.83305175529E+03  0.25500000920E-02 0. -1.
        2   -1    0    0  501    0  0.00000000000E+00  0.00000000000E+00 -0.27030308468E+04  0.27030308468E+04  0.25500000920E-02 0.  1.
    10030    2    1    2    0    0  0.00000000000E+00  0.00000000000E+00 -0.18699790915E+04  0.35360826021E+04  0.30011761638E+04 0.  0.
        1    1    3    3  502    0 -0.77646675895E+03 -0.66893226287E+03 -0.22264275674E+04  0.24509897415E+04  0.50400001928E-02 0.  1.
       -1    1    3    3    0  502  0.77646675895E+03  0.66893226287E+03  0.35644847590E+03  0.10850928606E+04  0.50400001928E-02 0. -1.
</event>
<event>
 5   0  0.6291798E-07  0.3003074E+04  0.7818609E-02  0.8242854E-01
        1   -1    0    0  501    0  0.00000000000E+00  0.00000000000E+00  0.19582453805E+04  0.19582453805E+04  0.50400001928E-02 0.  1.
       -1   -1    0    0    0  501  0.00000000000E+00  0.00000000000E+00 -0.11513434090E+04  0.11513434090E+04  0.50400001928E-02 0. -1.
    10030    2    1    2    0    0  0.00000000000E+00  0.00000000000E+00  0.80690197153E+03  0.31095887896E+04  0.30030737001E+04 0.  0.
        1    1    3    3  502    0  0.52572174915E+03 -0.15086513128E+03  0.18514306704E+04  0.19305282108E+04  0.50400001928E-02 0.  1.
       -1    1    3    3    0  502 -0.52572174915E+03  0.15086513128E+03 -0.10445286989E+04  0.11790605787E+04  0.50400001928E-02 0. -1.
</event>
<event>
 5   0  0.1560174E-06  0.2984757E+04  0.7818609E-02  0.8248097E-01
        2   -1    0    0  501    0  0.00000000000E+00  0.00000000000E+00  0.18970110300E+04  0.18970110300E+04  0.25500000920E-02 0.  1.
       -2   -1    0    0    0  501  0.00000000000E+00  0.00000000000E+00 -0.11740540521E+04  0.11740540521E+04  0.25500000920E-02 0. -1.
    10030    2    1    2    0    0  0.00000000000E+00  0.00000000000E+00  0.72295697798E+03  0.30710650821E+04  0.29847569326E+04 0.  0.
        5    1    3    3  502    0 -0.93284063645E+03 -0.22923093945E+03  0.15366220514E+04  0.18121721484E+04  0.46999998093E+01 0.  1.
       -5    1    3    3    0  502  0.93284063645E+03  0.22923093945E+03 -0.81366507347E+03  0.12588929336E+04  0.46999998093E+01 0. -1.
</event>
<event>
 5   0  0.1625212E-06  0.2998119E+04  0.7818609E-02  0.8244268E-01
       -2   -1    0    0    0  501  0.00000000000E+00  0.00000000000E+00  0.15811428023E+04  0.15811428023E+04  0.25500000920E-02 0. -1.
        2   -1    0    0  501    0  0.00000000000E+00  0.00000000000E+00 -0.14212378676E+04  0.14212378676E+04  0.25500000920E-02 0.  1.
    10030    2    1    2    0    0  0.00000000000E+00  0.00000000000E+00  0.15990493473E+03  0.30023806699E+04  0.29981194271E+04 0.  0.
        4    1    3    3  502    0 -0.14065296656E+03  0.12734557518E+04 -0.69942459915E+03  0.14596811952E+04  0.12699999809E+01 0.  1.
       -4    1    3    3    0  502  0.14065296656E+03 -0.12734557518E+04  0.85932953388E+03  0.15426994748E+04  0.12699999809E+01 0. -1.
</event>
<event>
 5   0  0.1560174E-06  0.3001369E+04  0.7818609E-02  0.8243340E-01
       -2   -1    0    0    0  501  0.00000000000E+00  0.00000000000E+00  0.15595100645E+04  0.15595100645E+04  0.25500000920E-02 0.  1.
        2   -1    0    0  501    0  0.00000000000E+00  0.00000000000E+00 -0.14440776990E+04  0.14440776990E+04  0.25500000920E-02 0. -1.
    10030    2    1    2    0    0  0.00000000000E+00  0.00000000000E+00  0.11543236551E+03  0.30035877635E+04  0.30013688247E+04 0.  0.
        5    1    3    3  502    0  0.16500887418E+03 -0.13868069686E+04 -0.49184381444E+03  0.14806734699E+04  0.46999998093E+01 0. -1.
       -5    1    3    3    0  502 -0.16500887418E+03  0.13868069686E+04  0.60727617995E+03  0.15229142935E+04  0.46999998093E+01 0.  1.
</event>
<event>
 5   0  0.1560174E-06  0.2990142E+04  0.7818609E-02  0.8246552E-01
       -2   -1    0    0    0  501  0.00000000000E+00  0.00000000000E+00  0.16615634960E+04  0.16615634960E+04  0.25500000920E-02 0.  1.
        2   -1    0    0  501    0  0.00000000000E+00  0.00000000000E+00 -0.13452612825E+04  0.13452612825E+04  0.25500000920E-02 0. -1.
    10030    2    1    2    0    0  0.00000000000E+00  0.00000000000E+00  0.31630221355E+03  0.30068247785E+04  0.29901418291E+04 0.  0.
        5    1    3    3  502    0  0.13969382048E+03 -0.17319654221E+02  0.16548776761E+04  0.16608601828E+04  0.46999998093E+01 0.  1.
       -5    1    3    3    0  502 -0.13969382048E+03  0.17319654221E+02 -0.13385754626E+04  0.13459645957E+04  0.46999998093E+01 0. -1.
</event>
<event>
 5   0  0.5431625E-07  0.2984800E+04  0.7818609E-02  0.8248085E-01
       -4   -1    0    0    0  501  0.00000000000E+00  0.00000000000E+00  0.11755601955E+04  0.11755608815E+04  0.12699999809E+01 0.  1.
        4   -1    0    0  501    0  0.00000000000E+00  0.00000000000E+00 -0.18946331918E+04  0.18946336175E+04  0.12699999809E+01 0. -1.
    10030    2    1    2    0    0  0.00000000000E+00  0.00000000000E+00 -0.71907299635E+03  0.30701944990E+04  0.29847995389E+04 0.  0.
        5    1    3    3  502    0 -0.11386443573E+04 -0.42468018444E+03  0.53148599719E+03  0.13264100749E+04  0.46999998093E+01 0.  1.
       -5    1    3    3    0  502  0.11386443573E+04  0.42468018444E+03 -0.12505589935E+04  0.17437844241E+04  0.46999998093E+01 0. -1.
</event>
<event>
 5   0  0.1723916E-06  0.3005797E+04  0.7818609E-02  0.8242077E-01
       -2   -1    0    0    0  501  0.00000000000E+00  0.00000000000E+00  0.12982047795E+04  0.12982047795E+04  0.25500000920E-02 0. -1.
        2   -1    0    0  501    0  0.00000000000E+00  0.00000000000E+00 -0.17398674909E+04  0.17398674909E+04  0.25500000920E-02 0.  1.
    10030    2    1    2    0    0  0.00000000000E+00  0.00000000000E+00 -0.44166271140E+03  0.30380722704E+04  0.30057972602E+04 0.  0.
        1    1    3    3  502    0 -0.35444575936E+03 -0.12538174498E+04 -0.97788278135E+03  0.16290932226E+04  0.50400001928E-02 0.  1.
       -1    1    3    3    0  502  0.35444575936E+03  0.12538174498E+04  0.53622006995E+03  0.14089790478E+04  0.50400001928E-02 0. -1.
</event>
<event>
 5   0  0.5931588E-07  0.3136349E+04  0.7818609E-02  0.8205832E-01
       -1   -1    0    0    0  501  0.00000000000E+00  0.00000000000E+00  0.78488634442E+03  0.78488634444E+03  0.50400001928E-02 0.  1.
        1   -1    0    0  501    0  0.00000000000E+00  0.00000000000E+00 -0.31331557936E+04  0.31331557936E+04  0.50400001928E-02 0. -1.
    10030    2    1    2    0    0  0.00000000000E+00  0.00000000000E+00 -0.23482694492E+04  0.39180421381E+04  0.31363489585E+04 0.  0.
        2    1    3    3  502    0  0.12185140407E+04 -0.77142624239E+03 -0.40476690318E+03  0.14979022534E+04  0.25500000920E-02 0.  1.
       -2    1    3    3    0  502 -0.12185140407E+04  0.77142624239E+03 -0.19435025460E+04  0.24201398846E+04  0.25500000920E-02 0. -1.
</event>
<event>
 5   0  0.1625212E-06  0.2999604E+04  0.7818609E-02  0.8243844E-01
        2   -1    0    0  501    0  0.00000000000E+00  0.00000000000E+00  0.25689633211E+04  0.25689633211E+04  0.25500000920E-02 0.  1.
       -2   -1    0    0    0  501  0.00000000000E+00  0.00000000000E+00 -0.87560840098E+03  0.87560840098E+03  0.25500000920E-02 0. -1.
    10030    2    1    2    0    0  0.00000000000E+00  0.00000000000E+00  0.16933549201E+04  0.34445717221E+04  0.29996038844E+04 0.  0.
        4    1    3    3  502    0 -0.45113008192E+03 -0.14175882406E+04  0.62780005611E+03  0.16146855093E+04  0.12699999809E+01 0.  1.
       -4    1    3    3    0  502  0.45113008192E+03  0.14175882406E+04  0.10655548640E+04  0.18298862128E+04  0.12699999809E+01 0. -1.
</event>
<event>
 5   0  0.5887179E-07  0.2998555E+04  0.7818609E-02  0.8244144E-01
       -1   -1    0    0    0  501  0.00000000000E+00  0.00000000000E+00  0.11067580758E+04  0.11067580758E+04  0.50400001928E-02 0. -1.
        1   -1    0    0  501    0  0.00000000000E+00  0.00000000000E+00 -0.20310060765E+04  0.20310060765E+04  0.50400001928E-02 0.  1.
    10030    2    1    2    0    0  0.00000000000E+00  0.00000000000E+00 -0.92424800064E+03  0.31377641523E+04  0.29985545699E+04 0.  0.
        3    1    3    3  502    0  0.67580697999E+03  0.69144972459E+03 -0.16611900679E+04  0.19220744647E+04  0.10100000352E+00 0.  1.
       -3    1    3    3    0  502 -0.67580697999E+03 -0.69144972459E+03  0.73694206729E+03  0.12156896876E+04  0.10100000352E+00 0. -1.
</event>
<event>
 5   0  0.1635086E-06  0.2995323E+04  0.7818609E-02  0.8245068E-01
       -2   -1    0    0    0  501  0.00000000000E+00  0.00000000000E+00  0.74135975650E+03  0.74135975651E+03  0.25500000920E-02 0. -1.
        2   -1    0    0  501    0  0.00000000000E+00  0.00000000000E+00 -0.30255086082E+04  0.30255086082E+04  0.25500000920E-02 0.  1.
    10030    2    1    2    0    0  0.00000000000E+00  0.00000000000E+00 -0.22841488517E+04  0.37668683647E+04  0.29953232380E+04 0.  0.
        3    1    3    3  502    0 -0.14037778793E+04  0.48274018102E+03 -0.13915705084E+04  0.20347232998E+04  0.10100000352E+00 0.  1.
       -3    1    3    3    0  502  0.14037778793E+04 -0.48274018102E+03 -0.89257834330E+03  0.17321450649E+04  0.10100000352E+00 0. -1.
</event>
<event>
 5   0  0.5874741E-07  0.3026464E+04  0.7818609E-02  0.8236214E-01
       -1   -1    0    0    0  501  0.00000000000E+00  0.00000000000E+00  0.13574155362E+04  0.13574155362E+04  0.50400001928E-02 0.  1.
        1   -1    0    0  501    0  0.00000000000E+00  0.00000000000E+00 -0.16869349777E+04  0.16869349777E+04  0.50400001928E-02 0. -1.
    10030    2    1    2    0    0  0.00000000000E+00  0.00000000000E+00 -0.32951944144E+03  0.30443505139E+04  0.30264644371E+04 0.  0.
        4    1    3    3  502    0 -0.94698266536E+03 -0.11334636546E+04  0.16635750353E+03  0.14863352437E+04  0.12699999809E+01 0.  1.
       -4    1    3    3    0  502  0.94698266536E+03  0.11334636546E+04 -0.49587694497E+03  0.15580152702E+04  0.12699999809E+01 0. -1.
</event>
<event>
 5   0  0.1723916E-06  0.3005980E+04  0.7818609E-02  0.8242025E-01
        2   -1    0    0  501    0  0.00000000000E+00  0.00000000000E+00  0.16584312561E+04  0.16584312561E+04  0.25500000920E-02 0.  1.
       -2   -1    0    0    0  501  0.00000000000E+00  0.00000000000E+00 -0.13621177332E+04  0.13621177332E+04  0.25500000920E-02 0. -1.
    10030    2    1    2    0    0  0.00000000000E+00  0.00000000000E+00  0.29631352292E+03  0.30205489894E+04  0.30059797892E+04 0.  0.
        1    1    3    3  502    0 -0.14941436257E+04 -0.10631022092E+03  0.24223728849E+02  0.14981167599E+04  0.50400001928E-02 0. -1.
       -1    1    3    3    0  502  0.14941436257E+04  0.10631022092E+03  0.27208979407E+03  0.15224322295E+04  0.50400001928E-02 0.  1.
</event>
<event>
 5   0  0.5916703E-07  0.3001366E+04  0.7818609E-02  0.8243341E-01
       -1   -1    0    0    0  501  0.00000000000E+00  0.00000000000E+00  0.18940954720E+04  0.18940954720E+04  0.50400001928E-02 0. -1.
        1   -1    0    0  501    0  0.00000000000E+00  0.00000000000E+00 -0.11889844289E+04  0.11889844289E+04  0.50400001928E-02 0.  1.
    10030    2    1    2    0    0  0.00000000000E+00  0.00000000000E+00  0.70511104309E+03  0.30830799009E+04  0.30013663709E+04 0.  0.
        5    1    3    3  502    0  0.29067669000E+03 -0.39073147959E+03 -0.11055488982E+04  0.12080664235E+04  0.46999998093E+01 0.  1.
       -5    1    3    3    0  502 -0.29067669000E+03  0.39073147959E+03  0.18106599413E+04  0.18750134774E+04  0.46999998093E+01 0. -1.
</event>
<event>
 5   0  0.5874741E-07  0.3002040E+04  0.7818609E-02  0.8243149E-01
        1   -1    0    0  501    0  0.00000000000E+00  0.00000000000E+00  0.11448133038E+04  0.11448133039E+04  0.50400001928E-02 0. -1.
       -1   -1    0    0    0  501  0.00000000000E+00  0.00000000000E+00 -0.19680593420E+04  0.19680593420E+04  0.50400001928E-02 0.  1.
    10030    2    1    2    0    0  0.00000000000E+00  0.00000000000E+00 -0.82324603811E+03  0.31128726458E+04  0.30020396516E+04 0.  0.
        4    1    3    3  502    0 -0.61730261599E+02 -0.67767749365E+03  0.97568094002E+03  0.11895429039E+04  0.12699999809E+01 0. -1.
       -4    1    3    3    0  502  0.61730261599E+02  0.67767749365E+03 -0.17989269781E+04  0.19233297419E+04  0.12699999809E+01 0.  1.
</event>
<event>
 5   0  0.1635086E-06  0.3002644E+04  0.7818609E-02  0.8242976E-01
        2   -1    0    0  501    0  0.00000000000E+00  0.00000000000E+00  0.13603194918E+04  0.13603194918E+04  0.25500000920E-02 0. -1.
       -2   -1    0    0    0  501  0.00000000000E+00  0.00000000000E+00 -0.16569396761E+04  0.16569396761E+04  0.25500000920E-02 0.  1.
    10030    2    1    2    0    0  0.00000000000E+00  0.00000000000E+00 -0.29662018433E+03  0.30172591679E+04  0.30026437272E+04 0.  0.
        3    1    3    3  502    0  0.11800140521E+04 -0.92291631260E+03 -0.24758187373E+03  0.15183887768E+04  0.10100000352E+00 0.  1.
       -3    1    3    3    0  502 -0.11800140521E+04  0.92291631260E+03 -0.49038310603E+02  0.14988703911E+04  0.10100000352E+00 0. -1.
</event>
<event>
 5   0  0.5916703E-07  0.2996173E+04  0.7818609E-02  0.8244825E-01
       -1   -1    0    0    0  501  0.00000000000E+00  0.00000000000E+00  0.14699077264E+04  0.14699077265E+04  0.50400001928E-02 0. -1.
        1   -1    0    0  501    0  0.00000000000E+00  0.00000000000E+00 -0.15268049915E+04  0.15268049915E+04  0.50400001928E-02 0.  1.
    10030    2    1    2    0    0  0.00000000000E+00  0.00000000000E+00 -0.56897265049E+02  0.29967127180E+04  0.29961725276E+04 0.  0.
        5    1    3    3  502    0 -0.63397208639E+03 -0.12673939691E+04 -0.51436776410E+03  0.15075822916E+04  0.46999998093E+01 0. -1.
       -5    1    3    3    0  502  0.63397208639E+03  0.12673939691E+04  0.45747049905E+03  0.14891304264E+04  0.46999998093E+01 0.  1.
</event>
<event>
 5   0  0.5887179E-07  0.3002886E+04  0.7818609E-02  0.8242907E-01
        1   -1    0    0  501    0  0.00000000000E+00  0.00000000000E+00  0.12962331040E+04  0.12962331040E+04  0.50400001928E-02 0.  1.
       -1   -1    0    0    0  501  0.00000000000E+00  0.00000000000E+00 -0.17391397104E+04  0.17391397104E+04  0.50400001928E-02 0. -1.
    10030    2    1    2    0    0  0.00000000000E+00  0.00000000000E+00 -0.44290660641E+03  0.30353728144E+04  0.30028855889E+04 0.  0.
        3    1    3    3  502    0 -0.44925906467E+03  0.48050171494E+03  0.11428204796E+04  0.13186183163E+04  0.10100000352E+00 0.  1.
       -3    1    3    3    0  502  0.44925906467E+03 -0.48050171494E+03 -0.15857270860E+04  0.17167544981E+04  0.10100000352E+00 0. -1.
</event>
<event>
 5   0  0.5931588E-07  0.2997618E+04  0.7818609E-02  0.8244411E-01
        1   -1    0    0  501    0  0.00000000000E+00  0.00000000000E+00  0.16906308651E+04  0.16906308651E+04  0.50400001928E-02 0.  1.
       -1   -1    0    0    0  501  0.00000000000E+00  0.00000000000E+00 -0.13287518472E+04  0.13287518472E+04  0.50400001928E-02 0. -1.
    10030    2    1    2    0    0  0.00000000000E+00  0.00000000000E+00  0.36187901789E+03  0.30193827122E+04  0.29976183112E+04 0.  0.
        2    1    3    3  502    0  0.11615647377E+04  0.30058266031E+03 -0.72382850667E+03  0.14012531116E+04  0.25500000920E-02 0. -1.
       -2    1    3    3    0  502 -0.11615647377E+04 -0.30058266031E+03  0.10857075246E+04  0.16181296007E+04  0.25500000920E-02 0.  1.
</event>
<event>
 5   0  0.1674806E-06  0.2999608E+04  0.7818609E-02  0.8243843E-01
       -2   -1    0    0    0  501  0.00000000000E+00  0.00000000000E+00  0.15985026925E+04  0.15985026925E+04  0.25500000920E-02 0.  1.
        2   -1    0    0  501    0  0.00000000000E+00  0.00000000000E+00 -0.14071998002E+04  0.14071998002E+04  0.25500000920E-02 0. -1.
    10030    2    1    2    0    0  0.00000000000E+00  0.00000000000E+00  0.19130289225E+03  0.30057024927E+04  0.29996084208E+04 0.  0.
        2    1    3    3  502    0 -0.64535812795E+03  0.12267210800E+04  0.66959863481E+03  0.15393810617E+04  0.25500000920E-02 0.  1.
       -2    1    3    3    0  502  0.64535812795E+03 -0.12267210800E+04 -0.47829574256E+03  0.14663214309E+04  0.25500000920E-02 0. -1.
</event>
<event>
 5   0  0.5931588E-07  0.3006033E+04  0.7818609E-02  0.8242010E-01
        1   -1    0    0  501    0  0.00000000000E+00  0.00000000000E+00  0.13501379845E+04  0.13501379845E+04  0.50400001928E-02 0. -1.
       -1   -1    0    0    0  501  0.00000000000E+00  0.00000000000E+00 -0.16732054379E+04  0.16732054379E+04  0.50400001928E-02 0.  1.
    10030    2    1    2    0    0  0.00000000000E+00  0.00000000000E+00 -0.32306745338E+03  0.30233434225E+04  0.30060327461E+04 0.  0.
        2    1    3    3  502    0  0.64108233724E+03  0.13591298809E+04 -0.13242537063E+03  0.15085612599E+04  0.25500000920E-02 0. -1.
       -2    1    3    3    0  502 -0.64108233724E+03 -0.13591298809E+04 -0.19064208275E+03  0.15147821625E+04  0.25500000920E-02 0.  1.
</event>
<event>
 5   0  0.5931588E-07  0.3017539E+04  0.7818609E-02  0.8238740E-01
       -1   -1    0    0    0  501  0.00000000000E+00  0.00000000000E+00  0.26623156584E+04  0.26623156584E+04  0.50400001928E-02 0.  1.
        1   -1    0    0  501    0  0.00000000000E+00  0.00000000000E+00 -0.85503939580E+03  0.85503939581E+03  0.50400001928E-02 0. -1.
    10030    2    1    2    0    0  0.00000000000E+00  0.00000000000E+00  0.18072762626E+04  0.35173550542E+04  0.30175385810E+04 0.  0.
        2    1    3    3  502    0  0.92854997780E+03 -0.92956963523E+03  0.39115618104E+02  0.13144713004E+04  0.25500000920E-02 0. -1.
       -2    1    3    3    0  502 -0.92854997780E+03  0.92956963523E+03  0.17681606445E+04  0.22028837538E+04  0.25500000920E-02 0.  1.
</event>
<event>
 5   0  0.5887179E-07  0.3020920E+04  0.7818609E-02  0.8237782E-01
       -1   -1    0    0    0  501  0.00000000000E+00  0.00000000000E+00  0.13477511489E+04  0.13477511489E+04  0.50400001928E-02 0. -1.
        1   -1    0    0  501    0  0.00000000000E+00  0.00000000000E+00 -0.16928122144E+04  0.16928122144E+04  0.50400001928E-02 0.  1.
    10030    2    1    2    0    0  0.00000000000E+00  0.00000000000E+00 -0.34506106551E+03  0.30405633633E+04  0.30209201292E+04 0.  0.
        3    1    3    3  502    0 -0.19026791613E+03  0.52852366756E+03  0.12387101868E+04  0.13601257604E+04  0.10100000352E+00 0. -1.
       -3    1    3    3    0  502  0.19026791613E+03 -0.52852366756E+03 -0.15837712523E+04  0.16804376028E+04  0.10100000352E+00 0.  1.
</event>
<event>
 5   0  0.1723916E-06  0.3005909E+04  0.7818609E-02  0.8242046E-01
       -2   -1    0    0    0  501  0.00000000000E+00  0.00000000000E+00  0.11355435782E+04  0.11355435783E+04  0.25500000920E-02 0. -1.
        2   -1    0    0  501    0  0.00000000000E+00  0.00000000000E+00 -0.19892425746E+04  0.19892425746E+04  0.25500000920E-02 0.  1.
    10030    2    1    2    0    0  0.00000000000E+00  0.00000000000E+00 -0.85369899634E+03  0.31247861528E+04  0.30059086022E+04 0.  0.
        1    1    3    3  502    0  0.81662744501E+03 -0.71143953624E+03 -0.15100988923E+04  0.18583393829E+04  0.50400001928E-02 0.  1.
       -1    1    3    3    0  502 -0.81662744501E+03  0.71143953624E+03  0.65639989591E+03  0.12664467699E+04  0.50400001928E-02 0. -1.
</event>
<event>
 5   0  0.1625212E-06  0.2983330E+04  0.7818609E-02  0.8248507E-01
       -2   -1    0    0    0  501  0.00000000000E+00  0.00000000000E+00  0.17831883856E+04  0.17831883856E+04  0.25500000920E-02 0.  1.
        2   -1    0    0  501    0  0.00000000000E+00  0.00000000000E+00 -0.12478011018E+04  0.12478011018E+04  0.25500000920E-02 0. -1.
    10030    2    1    2    0    0  0.00000000000E+00  0.00000000000E+00  0.53538728378E+03  0.30309894874E+04  0.29833299732E+04 0.  0.
        4    1    3    3  502    0 -0.10701298683E+04  0.57882350080E+02 -0.78644350653E+03  0.13292942877E+04  0.12699999809E+01 0. -1.
       -4    1    3    3    0  502  0.10701298683E+04 -0.57882350080E+02  0.13218307903E+04  0.17016951997E+04  0.12699999809E+01 0.  1.
</event>
<event>
 5   0  0.6291798E-07  0.2996653E+04  0.7818609E-02  0.8244687E-01
        1   -1    0    0  501    0  0.00000000000E+00  0.00000000000E+00  0.23936853153E+04  0.23936853153E+04  0.50400001928E-02 0. -1.
       -1   -1    0    0    0  501  0.00000000000E+00  0.00000000000E+00 -0.93787694064E+03  0.93787694065E+03  0.50400001928E-02 0.  1.
    10030    2    1    2    0    0  0.00000000000E+00  0.00000000000E+00  0.14558083747E+04  0.33315622560E+04  0.29966529732E+04 0.  0.
        1    1    3    3  502    0  0.10258823127E+04  0.79674765356E+03  0.15581902238E+04  0.20285951091E+04  0.50400001928E-02 0. -1.
       -1    1    3    3    0  502 -0.10258823127E+04 -0.79674765356E+03 -0.10238184915E+03  0.13029671469E+04  0.50400001928E-02 0.  1.
</event>
<event>
 5   0  0.1723916E-06  0.2976437E+04  0.7818609E-02  0.8250492E-01
       -2   -1    0    0    0  501  0.00000000000E+00  0.00000000000E+00  0.99536531109E+03  0.99536531109E+03  0.25500000920E-02 0.  1.
        2   -1    0    0  501    0  0.00000000000E+00  0.00000000000E+00 -0.22251068956E+04  0.22251068957E+04  0.25500000920E-02 0. -1.
    10030    2    1    2    0    0  0.00000000000E+00  0.00000000000E+00 -0.12297415846E+04  0.32204722067E+04  0.29764369420E+04 0.  0.
        1    1    3    3  502    0  0.11359553786E+04  0.90426554797E+03 -0.96830780405E+03  0.17451964952E+04  0.50400001928E-02 0.  1.
       -1    1    3    3    0  502 -0.11359553786E+04 -0.90426554797E+03 -0.26143378052E+03  0.14752757115E+04  0.50400001928E-02 0. -1.
</event>
<event>
 5   0  0.1625212E-06  0.2949286E+04  0.7818609E-02  0.8258363E-01
       -2   -1    0    0    0  501  0.00000000000E+00  0.00000000000E+00  0.99004871325E+03  0.99004871325E+03  0.25500000920E-02 0.  1.
        2   -1    0    0  501    0  0.00000000000E+00  0.00000000000E+00 -0.21964299955E+04  0.21964299955E+04  0.25500000920E-02 0. -1.
    10030    2    1    2    0    0  0.00000000000E+00  0.00000000000E+00 -0.12063812823E+04  0.31864787088E+04  0.29492864837E+04 0.  0.
        4    1    3    3  502    0 -0.34348983822E+03  0.24822882638E+03 -0.21292170715E+04  0.21709835950E+04  0.12699999809E+01 0. -1.
       -4    1    3    3    0  502  0.34348983822E+03 -0.24822882638E+03  0.92283578927E+03  0.10154951138E+04  0.12699999809E+01 0.  1.
</event>
<event>
 5   0  0.1560174E-06  0.2986383E+04  0.7818609E-02  0.8247630E-01
       -2   -1    0    0    0  501  0.00000000000E+00  0.00000000000E+00  0.13084511637E+04  0.13084511637E+04  0.25500000920E-02 0.  1.
        2   -1    0    0  501    0  0.00000000000E+00  0.00000000000E+00 -0.17040156239E+04  0.17040156239E+04  0.25500000920E-02 0. -1.
    10030    2    1    2    0    0  0.00000000000E+00  0.00000000000E+00 -0.39556446019E+03  0.30124667875E+04  0.29863832480E+04 0.  0.
        5    1    3    3  502    0  0.85979959745E+03  0.10858972884E+04  0.36491683281E+03  0.14323458568E+04  0.46999998093E+01 0.  1.
       -5    1    3    3    0  502 -0.85979959745E+03 -0.10858972884E+04 -0.76048129300E+03  0.15801209307E+04  0.46999998093E+01 0. -1.
</event>
<event>
 5   0  0.1723916E-06  0.3002753E+04  0.7818609E-02  0.8242945E-01
        2   -1    0    0  501    0  0.00000000000E+00  0.00000000000E+00  0.24349029606E+04  0.24349029606E+04  0.25500000920E-02 0.  1.
       -2   -1    0    0    0  501  0.00000000000E+00  0.00000000000E+00 -0.92575837483E+03  0.92575837483E+03  0.25500000920E-02 0. -1.
    10030    2    1    2    0    0  0.00000000000E+00  0.00000000000E+00  0.15091445857E+04  0.33606613354E+04  0.30027532750E+04 0.  0.
        1    1    3    3  502    0 -0.63111032679E+03  0.44224222072E+02  0.22784335077E+04  0.23646385084E+04  0.50400001928E-02 0.  1.
       -1    1    3    3    0  502  0.63111032679E+03 -0.44224222072E+02 -0.76928892196E+03  0.99602282699E+03  0.50400001928E-02 0. -1.
</event>
<event>
 5   0  0.1560174E-06  0.2983686E+04  0.7818609E-02  0.8248405E-01
       -2   -1    0    0    0  501  0.00000000000E+00  0.00000000000E+00  0.13457483349E+04  0.13457483349E+04  0.25500000920E-02 0.  1.
        2   -1    0    0  501    0  0.00000000000E+00  0.00000000000E+00 -0.16537975546E+04  0.16537975546E+04  0.25500000920E-02 0. -1.
    10030    2    1    2    0    0  0.00000000000E+00  0.00000000000E+00 -0.30804921964E+03  0.29995458895E+04  0.29836858450E+04 0.  0.
        5    1    3    3  502    0  0.44192671780E+03  0.89147150203E+03 -0.12714872894E+04  0.16145348184E+04  0.46999998093E+01 0. -1.
       -5    1    3    3    0  502 -0.44192671780E+03 -0.89147150203E+03  0.96343806974E+03  0.13850110711E+04  0.46999998093E+01 0.  1.
</event>
<event>
 5   0  0.1723916E-06  0.2999802E+04  0.7818609E-02  0.8243788E-01
       -2   -1    0    0    0  501  0.00000000000E+00  0.00000000000E+00  0.15249380492E+04  0.15249380492E+04  0.25500000920E-02 0. -1.
        2   -1    0    0  501    0  0.00000000000E+00  0.00000000000E+00 -0.14752747037E+04  0.14752747037E+04  0.25500000920E-02 0.  1.
    10030    2    1    2    0    0  0.00000000000E+00  0.00000000000E+00  0.49663345527E+02  0.30002127530E+04  0.29998016793E+04 0.  0.
        1    1    3    3  502    0  0.98626963485E+03 -0.37129449413E+03  0.10922712965E+04  0.15177759977E+04  0.50400001928E-02 0.  1.
       -1    1    3    3    0  502 -0.98626963485E+03  0.37129449413E+03 -0.10426079509E+04  0.14824367553E+04  0.50400001928E-02 0. -1.
</event>
<event>
 5   0  0.5874741E-07  0.2998640E+04  0.7818609E-02  0.8244119E-01
        1   -1    0    0  501    0  0.00000000000E+00  0.00000000000E+00  0.12188605769E+04  0.12188605769E+04  0.50400001928E-02 0. -1.
       -1   -1    0    0    0  501  0.00000000000E+00  0.00000000000E+00 -0.18443124627E+04  0.18443124627E+04  0.50400001928E-02 0.  1.
    10030    2    1    2    0    0  0.00000000000E+00  0.00000000000E+00 -0.62545188585E+03  0.30631730396E+04  0.29986395263E+04 0.  0.
        4    1    3    3  502    0 -0.66377188905E+03 -0.41728674315E+03  0.99275893958E+03  0.12650269846E+04  0.12699999809E+01 0.  1.
       -4    1    3    3    0  502  0.66377188905E+03  0.41728674315E+03 -0.16182108254E+04  0.17981460550E+04  0.12699999809E+01 0. -1.
</event>
<event>
 5   0  0.5887179E-07  0.2999195E+04  0.7818609E-02  0.8243961E-01
        1   -1    0    0  501    0  0.00000000000E+00  0.00000000000E+00  0.28376032149E+04  0.28376032149E+04  0.50400001928E-02 0. -1.
       -1   -1    0    0    0  501  0.00000000000E+00  0.00000000000E+00 -0.79249724391E+03  0.79249724393E+03  0.50400001928E-02 0.  1.
    10030    2    1    2    0    0  0.00000000000E+00  0.00000000000E+00  0.20451059710E+04  0.36301004588E+04  0.29991950434E+04 0.  0.
        3    1    3    3  502    0 -0.14868320632E+04 -0.10975824005E+03  0.12180034011E+04  0.19251620063E+04  0.10100000352E+00 0.  1.
       -3    1    3    3    0  502  0.14868320632E+04  0.10975824005E+03  0.82710256989E+03  0.17049384525E+04  0.10100000352E+00 0. -1.
</event>
<event>
 5   0  0.1723916E-06  0.2977346E+04  0.7818609E-02  0.8250230E-01
        2   -1    0    0  501    0  0.00000000000E+00  0.00000000000E+00  0.19394172050E+04  0.19394172050E+04  0.25500000920E-02 0. -1.
       -2   -1    0    0    0  501  0.00000000000E+00  0.00000000000E+00 -0.11426868945E+04  0.11426868945E+04  0.25500000920E-02 0.  1.
    10030    2    1    2    0    0  0.00000000000E+00  0.00000000000E+00  0.79673031049E+03  0.30821040995E+04  0.29773455447E+04 0.  0.
        1    1    3    3  502    0 -0.74993735736E+03 -0.12845382809E+04  0.46134992903E+03  0.15573337446E+04  0.50400001928E-02 0.  1.
       -1    1    3    3    0  502  0.74993735736E+03  0.12845382809E+04  0.33538038146E+03  0.15247703549E+04  0.50400001928E-02 0. -1.
</event>
<event>
 5   0  0.5931588E-07  0.3002056E+04  0.7818609E-02  0.8243144E-01
        1   -1    0    0  501    0  0.00000000000E+00  0.00000000000E+00  0.11980034589E+04  0.11980034589E+04  0.50400001928E-02 0. -1.
       -1   -1    0    0    0  501  0.00000000000E+00  0.00000000000E+00 -0.18806995796E+04  0.18806995796E+04  0.50400001928E-02 0.  1.
    10030    2    1    2    0    0  0.00000000000E+00  0.00000000000E+00 -0.68269612070E+03  0.30787030386E+04  0.30020556968E+04 0.  0.
        2    1    3    3  502    0 -0.88626966384E+03 -0.43705646871E+03 -0.15000591672E+04  0.17962933444E+04  0.25500000920E-02 0.  1.
       -2    1    3    3    0  502  0.88626966384E+03  0.43705646871E+03  0.81736304654E+03  0.12824096942E+04  0.25500000920E-02 0. -1.
</event>
<event>
 5   0  0.1674806E-06  0.3000307E+04  0.7818609E-02  0.8243643E-01
        2   -1    0    0  501    0  0.00000000000E+00  0.00000000000E+00  0.18602194052E+04  0.18602194052E+04  0.25500000920E-02 0. -1.
       -2   -1    0    0    0  501  0.00000000000E+00  0.00000000000E+00 -0.12097819038E+04  0.12097819038E+04  0.25500000920E-02 0.  1.
    10030    2    1    2    0    0  0.00000000000E+00  0.00000000000E+00  0.65043750139E+03  0.30700013091E+04  0.30003065001E+04 0.  0.
        2    1    3    3  502    0 -0.72058327124E+03 -0.17475356692E+03 -0.10091760193E+04  0.12522840324E+04  0.25500000920E-02 0.  1.
       -2    1    3    3    0  502  0.72058327124E+03  0.17475356692E+03  0.16596135207E+04  0.18177172767E+04  0.25500000920E-02 0. -1.
</event>
<event>
 5   0  0.5874741E-07  0.2977985E+04  0.7818609E-02  0.8250045E-01
        1   -1    0    0  501    0  0.00000000000E+00  0.00000000000E+00  0.13511225487E+04  0.13511225487E+04  0.50400001928E-02 0.  1.
       -1   -1    0    0    0  501  0.00000000000E+00  0.00000000000E+00 -0.16409312568E+04  0.16409312568E+04  0.50400001928E-02 0. -1.
    10030    2    1    2    0    0  0.00000000000E+00  0.00000000000E+00 -0.28980870808E+03  0.29920538056E+04  0.29779853740E+04 0.  0.
        4    1    3    3  502    0  0.51458116432E+02 -0.12657063940E+04 -0.93118493025E+03  0.15721856127E+04  0.12699999809E+01 0.  1.
       -4    1    3    3    0  502 -0.51458116432E+02  0.12657063940E+04  0.64137622218E+03  0.14198681928E+04  0.12699999809E+01 0. -1.
</event>
<event>
 5   0  0.1560174E-06  0.3002537E+04  0.7818609E-02  0.8243007E-01
       -2   -1    0    0    0  501  0.00000000000E+00  0.00000000000E+00  0.19553061248E+04  0.19553061248E+04  0.25500000920E-02 0. -1.
        2   -1    0    0  501    0  0.00000000000E+00  0.00000000000E+00 -0.11526617301E+04  0.11526617301E+04  0.25500000920E-02 0.  1.
    10030    2    1    2    0    0  0.00000000000E+00  0.00000000000E+00  0.80264439475E+03  0.31079678549E+04  0.30025366214E+04 0.  0.
        5    1    3    3  502    0  0.20293375566E+03 -0.40928244192E+03  0.18816041407E+04  0.19362723101E+04  0.46999998093E+01 0. -1.
       -5    1    3    3    0  502 -0.20293375566E+03  0.40928244192E+03 -0.10789597459E+04  0.11716955448E+04  0.46999998093E+01 0.  1.
</event>
<event>
 5   0  0.5874741E-07  0.2997892E+04  0.7818609E-02  0.8244333E-01
        1   -1    0    0  501    0  0.00000000000E+00  0.00000000000E+00  0.12182275930E+04  0.12182275930E+04  0.50400001928E-02 0.  1.
       -1   -1    0    0    0  501  0.00000000000E+00  0.00000000000E+00 -0.18443505748E+04  0.18443505748E+04  0.50400001928E-02 0. -1.
    10030    2    1    2    0    0  0.00000000000E+00  0.00000000000E+00 -0.62612298184E+03  0.30625781678E+04  0.29978917668E+04 0.  0.
        4    1    3    3  502    0 -0.60324554540E+02  0.96689140195E+03 -0.14815597666E+04  0.17701804965E+04  0.12699999809E+01 0. -1.
       -4    1    3    3    0  502  0.60324554540E+02 -0.96689140195E+03  0.85543678481E+03  0.12923976713E+04  0.12699999809E+01 0.  1.
</event>
<event>
 5   0  0.1723916E-06  0.3006568E+04  0.7818609E-02  0.8241858E-01
        2   -1    0    0  501    0  0.00000000000E+00  0.00000000000E+00  0.12540870978E+04  0.12540870978E+04  0.25500000920E-02 0.  1.
       -2   -1    0    0    0  501  0.00000000000E+00  0.00000000000E+00 -0.18019986376E+04  0.18019986376E+04  0.25500000920E-02 0. -1.
    10030    2    1    2    0    0  0.00000000000E+00  0.00000000000E+00 -0.54791153983E+03  0.30560857354E+04  0.30065683040E+04 0.  0.
        1    1    3    3  502    0  0.34504393277E+03 -0.21620743817E+03 -0.17448764538E+04  0.17917574643E+04  0.50400001928E-02 0. -1.
       -1    1    3    3    0  502 -0.34504393277E+03  0.21620743817E+03  0.11969649139E+04  0.12643282711E+04  0.50400001928E-02 0.  1.
</event>
<event>
 5   0  0.5931588E-07  0.3000786E+04  0.7818609E-02  0.8243507E-01
       -1   -1    0    0    0  501  0.00000000000E+00  0.00000000000E+00  0.11626681300E+04  0.11626681300E+04  0.50400001928E-02 0.  1.
        1   -1    0    0  501    0  0.00000000000E+00  0.00000000000E+00 -0.19362176792E+04  0.19362176793E+04  0.50400001928E-02 0. -1.
    10030    2    1    2    0    0  0.00000000000E+00  0.00000000000E+00 -0.77354954929E+03  0.30988858092E+04  0.30007856227E+04 0.  0.
        2    1    3    3  502    0 -0.14608460455E+04 -0.23351666327E+03 -0.12844211375E+03  0.14849574328E+04  0.25500000920E-02 0. -1.
       -2    1    3    3    0  502  0.14608460455E+04  0.23351666327E+03 -0.64510743553E+03  0.16139283764E+04  0.25500000920E-02 0.  1.
</event>
<event>
 5   0  0.5931588E-07  0.2993644E+04  0.7818609E-02  0.8245548E-01
       -1   -1    0    0    0  501  0.00000000000E+00  0.00000000000E+00  0.15908585727E+04  0.15908585727E+04  0.50400001928E-02 0. -1.
        1   -1    0    0  501    0  0.00000000000E+00  0.00000000000E+00 -0.14083436681E+04  0.14083436682E+04  0.50400001928E-02 0.  1.
    10030    2    1    2    0    0  0.00000000000E+00  0.00000000000E+00  0.18251490460E+03  0.29992022409E+04  0.29936436647E+04 0.  0.
        2    1    3    3  502    0  0.85163440748E+03  0.12305839814E+04  0.12059490140E+03  0.15013864358E+04  0.25500000920E-02 0. -1.
       -2    1    3    3    0  502 -0.85163440748E+03 -0.12305839814E+04  0.61920003202E+02  0.14978158051E+04  0.25500000920E-02 0.  1.
</event>
<event>
 5   0  0.5887179E-07  0.3002641E+04  0.7818609E-02  0.8242977E-01
       -1   -1    0    0    0  501  0.00000000000E+00  0.00000000000E+00  0.14992290439E+04  0.14992290439E+04  0.50400001928E-02 0. -1.
        1   -1    0    0  501    0  0.00000000000E+00  0.00000000000E+00 -0.15034144781E+04  0.15034144781E+04  0.50400001928E-02 0.  1.
    10030    2    1    2    0    0  0.00000000000E+00  0.00000000000E+00 -0.41854342121E+01  0.30026435220E+04  0.30026406050E+04 0.  0.
        3    1    3    3  502    0  0.44318158091E+03 -0.46865486207E+03 -0.13577913997E+04  0.15032114917E+04  0.10100000352E+00 0.  1.
       -3    1    3    3    0  502 -0.44318158091E+03  0.46865486207E+03  0.13536059655E+04  0.14994320303E+04  0.10100000352E+00 0. -1.
</event>
<event>
 5   0  0.5916703E-07  0.3003192E+04  0.7818609E-02  0.8242820E-01
        1   -1    0    0  501    0  0.00000000000E+00  0.00000000000E+00  0.26114413415E+04  0.26114413415E+04  0.50400001928E-02 0.  1.
       -1   -1    0    0    0  501  0.00000000000E+00  0.00000000000E+00 -0.86342757718E+03  0.86342757719E+03  0.50400001928E-02 0. -1.
    10030    2    1    2    0    0  0.00000000000E+00  0.00000000000E+00  0.17480137644E+04  0.34748689187E+04  0.30031919489E+04 0.  0.
        5    1    3    3  502    0 -0.11110091820E+04  0.97429503972E+03  0.11826969050E+04  0.18927192835E+04  0.46999998093E+01 0. -1.
       -5    1    3    3    0  502  0.11110091820E+04 -0.97429503972E+03  0.56531685937E+03  0.15821496353E+04  0.46999998093E+01 0.  1.
</event>
<event>
 5   0  0.5874741E-07  0.2998615E+04  0.7818609E-02  0.8244127E-01
       -1   -1    0    0    0  501  0.00000000000E+00  0.00000000000E+00  0.17148878358E+04  0.17148878358E+04  0.50400001928E-02 0.  1.
        1   -1    0    0  501    0  0.00000000000E+00  0.00000000000E+00 -0.13108275585E+04  0.13108275585E+04  0.50400001928E-02 0. -1.
    10030    2    1    2    0    0  0.00000000000E+00  0.00000000000E+00  0.40406027732E+03  0.30257153944E+04  0.29986145034E+04 0.  0.
        4    1    3    3  502    0  0.92422797675E+03 -0.54845669451E+03 -0.85284566561E+03  0.13719874056E+04  0.12699999809E+01 0. -1.
       -4    1    3    3    0  502 -0.92422797675E+03  0.54845669451E+03  0.12569059429E+04  0.16537279888E+04  0.12699999809E+01 0.  1.
</event>
<event>
 5   0  0.1625212E-06  0.3031872E+04  0.7818609E-02  0.8234688E-01
        2   -1    0    0  501    0  0.00000000000E+00  0.00000000000E+00  0.22457980092E+04  0.22457980092E+04  0.25500000920E-02 0.  1.
       -2   -1    0    0    0  501  0.00000000000E+00  0.00000000000E+00 -0.10232717533E+04  0.10232717533E+04  0.25500000920E-02 0. -1.
    10030    2    1    2    0    0  0.00000000000E+00  0.00000000000E+00  0.12225262559E+04  0.32690697625E+04  0.30318718089E+04 0.  0.
        4    1    3    3  502    0 -0.12023341692E+04  0.83192624603E+03  0.17949595121E+03  0.14730679355E+04  0.12699999809E+01 0. -1.
       -4    1    3    3    0  502  0.12023341692E+04 -0.83192624603E+03  0.10430303047E+04  0.17960018270E+04  0.12699999809E+01 0.  1.
</event>
<event>
 5   0  0.1723916E-06  0.2987132E+04  0.7818609E-02  0.8247415E-01
        2   -1    0    0  501    0  0.00000000000E+00  0.00000000000E+00  0.17670861255E+04  0.17670861255E+04  0.25500000920E-02 0. -1.
       -2   -1    0    0    0  501  0.00000000000E+00  0.00000000000E+00 -0.12623829367E+04  0.12623829367E+04  0.25500000920E-02 0.  1.
    10030    2    1    2    0    0  0.00000000000E+00  0.00000000000E+00  0.50470318880E+03  0.30294690623E+04  0.29871319841E+04 0.  0.
        1    1    3    3  502    0 -0.93158444445E+02 -0.67985938423E+03  0.15977477873E+04  0.17388747137E+04  0.50400001928E-02 0. -1.
       -1    1    3    3    0  502  0.93158444445E+02  0.67985938423E+03 -0.10930445985E+04  0.12905943486E+04  0.50400001928E-02 0.  1.
</event>
<event>
 5   0  0.1560174E-06  0.2983731E+04  0.7818609E-02  0.8248392E-01
        2   -1    0    0  501    0  0.00000000000E+00  0.00000000000E+00  0.21998589894E+04  0.21998589894E+04  0.25500000920E-02 0.  1.
       -2   -1    0    0    0  501  0.00000000000E+00  0.00000000000E+00 -0.10117295208E+04  0.10117295208E+04  0.25500000920E-02 0. -1.
    10030    2    1    2    0    0  0.00000000000E+00  0.00000000000E+00  0.11881294686E+04  0.32115885103E+04  0.29837307394E+04 0.  0.
        5    1    3    3  502    0 -0.89305091037E+03 -0.10611852162E+04  0.11855634628E+04  0.18246196332E+04  0.46999998093E+01 0.  1.
       -5    1    3    3    0  502  0.89305091037E+03  0.10611852162E+04  0.25660057465E+01  0.13869688770E+04  0.46999998093E+01 0. -1.
</event>
<event>
 5   0  0.1674806E-06  0.3001312E+04  0.7818609E-02  0.8243356E-01
       -2   -1    0    0    0  501  0.00000000000E+00  0.00000000000E+00  0.18472620933E+04  0.18472620933E+04  0.25500000920E-02 0. -1.
        2   -1    0    0  501    0  0.00000000000E+00  0.00000000000E+00 -0.12190843400E+04  0.12190843400E+04  0.25500000920E-02 0.  1.
    10030    2    1    2    0    0  0.00000000000E+00  0.00000000000E+00  0.62817775337E+03  0.30663464333E+04  0.30013119063E+04 0.  0.
        2    1    3    3  502    0 -0.29699255924E+03 -0.13704232705E+04  0.86018371715E+03  0.16450472783E+04  0.25500000920E-02 0. -1.
       -2    1    3    3    0  502  0.29699255924E+03  0.13704232705E+04 -0.23200596378E+03  0.14212991550E+04  0.25500000920E-02 0.  1.
</event>
<event>
 5   0  0.5931588E-07  0.2990416E+04  0.7818609E-02  0.8246473E-01
        1   -1    0    0  501    0  0.00000000000E+00  0.00000000000E+00  0.19016211685E+04  0.19016211685E+04  0.50400001928E-02 0. -1.
       -1   -1    0    0    0  501  0.00000000000E+00  0.00000000000E+00 -0.11756529923E+04  0.11756529923E+04  0.50400001928E-02 0.  1.
    10030    2    1    2    0    0  0.00000000000E+00  0.00000000000E+00  0.72596817623E+03  0.30772741608E+04  0.29904157684E+04 0.  0.
        2    1    3    3  502    0 -0.16324071706E+03 -0.31996714985E+03  0.18565614719E+04  0.18909910121E+04  0.25500000920E-02 0. -1.
       -2    1    3    3    0  502  0.16324071706E+03  0.31996714985E+03 -0.11305932957E+04  0.11862831487E+04  0.25500000920E-02 0.  1.
</event>
<event>
 5   0  0.6291798E-07  0.2996430E+04  0.7818609E-02  0.8244751E-01
        1   -1    0    0  501    0  0.00000000000E+00  0.00000000000E+00  0.25958612191E+04  0.25958612191E+04  0.50400001928E-02 0.  1.
       -1   -1    0    0    0  501  0.00000000000E+00  0.00000000000E+00 -0.86470272580E+03  0.86470272582E+03  0.50400001928E-02 0. -1.
    10030    2    1    2    0    0  0.00000000000E+00  0.00000000000E+00  0.17311584933E+04  0.34605639449E+04  0.29964300572E+04 0.  0.
        1    1    3    3  502    0  0.22609703200E+03 -0.14352733484E+04  0.44357776529E+03  0.15191743437E+04  0.50400001928E-02 0. -1.
       -1    1    3    3    0  502 -0.22609703200E+03  0.14352733484E+04  0.12875807280E+04  0.19413896012E+04  0.50400001928E-02 0.  1.
</event>
<event>
 5   0  0.1560174E-06  0.2980834E+04  0.7818609E-02  0.8249225E-01
        2   -1    0    0  501    0  0.00000000000E+00  0.00000000000E+00  0.19417348271E+04  0.19417348271E+04  0.25500000920E-02 0.  1.
       -2   -1    0    0    0  501  0.00000000000E+00  0.00000000000E+00 -0.11439990778E+04  0.11439990778E+04  0.25500000920E-02 0. -1.
    10030    2    1    2    0    0  0.00000000000E+00  0.00000000000E+00  0.79773574931E+03  0.30857339050E+04  0.29808340119E+04 0.  0.
        5    1    3    3  502    0 -0.10134111056E+04 -0.28650240497E+03 -0.69287149227E+03  0.12606263093E+04  0.46999998093E+01 0. -1.
       -5    1    3    3    0  502  0.10134111056E+04  0.28650240497E+03  0.14906072416E+04  0.18251075956E+04  0.46999998093E+01 0.  1.
</event>
<event>
 5   0  0.1723916E-06  0.3012032E+04  0.7818609E-02  0.8240303E-01
       -2   -1    0    0    0  501  0.00000000000E+00  0.00000000000E+00  0.10709962302E+04  0.10709962302E+04  0.25500000920E-02 0.  1.
        2   -1    0    0  501    0  0.00000000000E+00  0.00000000000E+00 -0.21177329065E+04  0.21177329065E+04  0.25500000920E-02 0. -1.
    10030    2    1    2    0    0  0.00000000000E+00  0.00000000000E+00 -0.10467366763E+04  0.31887291367E+04  0.30120318454E+04 0.  0.
        1    1    3    3  502    0  0.58272895748E+03 -0.41721138882E+03  0.87888996909E+03  0.11340572995E+04  0.50400001928E-02 0.  1.
       -1    1    3    3    0  502 -0.58272895748E+03  0.41721138882E+03 -0.19256266454E+04  0.20546718371E+04  0.50400001928E-02 0. -1.
</event>
<event>
 5   0  0.5916703E-07  0.2999608E+04  0.7818609E-02  0.8243843E-01
       -1   -1    0    0    0  501  0.00000000000E+00  0.00000000000E+00  0.20056679083E+04  0.20056679083E+04  0.50400001928E-02 0. -1.
        1   -1    0    0  501    0  0.00000000000E+00  0.00000000000E+00 -0.11215273731E+04  0.11215273731E+04  0.50400001928E-02 0.  1.
    10030    2    1    2    0    0  0.00000000000E+00  0.00000000000E+00  0.88414053514E+03  0.31271952814E+04  0.29996076147E+04 0.  0.
        5    1    3    3  502    0 -0.12349561451E+04  0.45897624810E+03 -0.30508139516E+03  0.13523581716E+04  0.46999998093E+01 0.  1.
       -5    1    3    3    0  502  0.12349561451E+04 -0.45897624810E+03  0.11892219303E+04  0.17748371098E+04  0.46999998093E+01 0. -1.
</event>
<event>
 5   0  0.5887179E-07  0.3084389E+04  0.7818609E-02  0.8220035E-01
       -1   -1    0    0    0  501  0.00000000000E+00  0.00000000000E+00  0.83423091430E+03  0.83423091431E+03  0.50400001928E-02 0.  1.
        1   -1    0    0  501    0  0.00000000000E+00  0.00000000000E+00 -0.28509666900E+04  0.28509666900E+04  0.50400001928E-02 0. -1.
    10030    2    1    2    0    0  0.00000000000E+00  0.00000000000E+00 -0.20167357757E+04  0.36851976043E+04  0.30843894362E+04 0.  0.
        3    1    3    3  502    0 -0.20609985059E+03  0.12750635727E+04 -0.15488622845E+01  0.12916139795E+04  0.10100000352E+00 0.  1.
       -3    1    3    3    0  502  0.20609985059E+03 -0.12750635727E+04 -0.20151869134E+04  0.23935836248E+04  0.10100000352E+00 0. -1.
</event>
<event>
 5   0  0.1560174E-06  0.2991546E+04  0.7818609E-02  0.8246149E-01
        2   -1    0    0  501    0  0.00000000000E+00  0.00000000000E+00  0.14076835565E+04  0.14076835565E+04  0.25500000920E-02 0.  1.
       -2   -1    0    0    0  501  0.00000000000E+00  0.00000000000E+00 -0.15893744039E+04  0.15893744039E+04  0.25500000920E-02 0. -1.
    10030    2    1    2    0    0  0.00000000000E+00  0.00000000000E+00 -0.18169084741E+03  0.29970579605E+04  0.29915455628E+04 0.  0.
        5    1    3    3  502    0 -0.30712833365E+03  0.93193974856E+03  0.10401611131E+04  0.14299638945E+04  0.46999998093E+01 0.  1.
       -5    1    3    3    0  502  0.30712833365E+03 -0.93193974856E+03 -0.12218519605E+04  0.15670940660E+04  0.46999998093E+01 0. -1.
</event>
<event>
 5   0  0.5887179E-07  0.3007300E+04  0.7818609E-02  0.8241650E-01
       -1   -1    0    0    0  501  0.00000000000E+00  0.00000000000E+00  0.73967105792E+03  0.73967105794E+03  0.50400001928E-02 0. -1.
        1   -1    0    0  501    0  0.00000000000E+00  0.00000000000E+00 -0.30567138763E+04  0.30567138763E+04  0.50400001928E-02 0.  1.
    10030    2    1    2    0    0  0.00000000000E+00  0.00000000000E+00 -0.23170428184E+04  0.37963849342E+04  0.30072996437E+04 0.  0.
        3    1    3    3  502    0  0.95418398985E+03  0.92599688233E+03 -0.20449182788E+04  0.24391859482E+04  0.10100000352E+00 0.  1.
       -3    1    3    3    0  502 -0.95418398985E+03 -0.92599688233E+03 -0.27212453957E+03  0.13571989861E+04  0.10100000352E+00 0. -1.
</event>
<event>
 5   0  0.1560174E-06  0.3002387E+04  0.7818609E-02  0.8243050E-01
       -2   -1    0    0    0  501  0.00000000000E+00  0.00000000000E+00  0.19678247731E+04  0.19678247731E+04  0.25500000920E-02 0.  1.
        2   -1    0    0  501    0  0.00000000000E+00  0.00000000000E+00 -0.11452143556E+04  0.11452143556E+04  0.25500000920E-02 0. -1.
    10030    2    1    2    0    0  0.00000000000E+00  0.00000000000E+00  0.82261041750E+03  0.31130391287E+04  0.30023865037E+04 0.  0.
        5    1    3    3  502    0 -0.53444018882E+03 -0.30910941088E+03 -0.10074760985E+04  0.11816112399E+04  0.46999998093E+01 0. -1.
       -5    1    3    3    0  502  0.53444018882E+03  0.30910941088E+03  0.18300865160E+04  0.19314278887E+04  0.46999998093E+01 0.  1.
</event>
<event>
 5   0  0.5931588E-07  0.3055933E+04  0.7818609E-02  0.8227937E-01
        1   -1    0    0  501    0  0.00000000000E+00  0.00000000000E+00  0.14864361580E+04  0.14864361580E+04  0.50400001928E-02 0.  1.
       -1   -1    0    0    0  501  0.00000000000E+00  0.00000000000E+00 -0.15706569697E+04  0.15706569697E+04  0.50400001928E-02 0. -1.
    10030    2    1    2    0    0  0.00000000000E+00  0.00000000000E+00 -0.84220811726E+02  0.30570931277E+04  0.30559327947E+04 0.  0.
        2    1    3    3  502    0 -0.11134312282E+04  0.55886557904E+03  0.84288445808E+03  0.15041655644E+04  0.25500000920E-02 0.  1.
       -2    1    3    3    0  502  0.11134312282E+04 -0.55886557904E+03 -0.92710526980E+03  0.15529275633E+04  0.25500000920E-02 0. -1.
</event>
<event>
 5   0  0.1723916E-06  0.2978979E+04  0.7818609E-02  0.8249759E-01
        2   -1    0    0  501    0  0.00000000000E+00  0.00000000000E+00  0.14896137840E+04  0.14896137840E+04  0.25500000920E-02 0.  1.
       -2   -1    0    0    0  501  0.00000000000E+00  0.00000000000E+00 -0.14893653523E+04  0.14893653523E+04  0.25500000920E-02 0. -1.
    10030    2    1    2    0    0  0.00000000000E+00  0.00000000000E+00  0.24843171982E+00  0.29789791363E+04  0.29789791260E+04 0.  0.
        1    1    3    3  502    0 -0.13115834713E+03 -0.11872084859E+03 -0.14788220379E+04  0.14893662316E+04  0.50400001928E-02 0. -1.
       -1    1    3    3    0  502  0.13115834713E+03  0.11872084859E+03  0.14790704696E+04  0.14896129048E+04  0.50400001928E-02 0.  1.
</event>
<event>
 5   0  0.5931588E-07  0.2994425E+04  0.7818609E-02  0.8245325E-01
        1   -1    0    0  501    0  0.00000000000E+00  0.00000000000E+00  0.29282597069E+04  0.29282597069E+04  0.50400001928E-02 0. -1.
       -1   -1    0    0    0  501  0.00000000000E+00  0.00000000000E+00 -0.76552112657E+03  0.76552112659E+03  0.50400001928E-02 0.  1.
    10030    2    1    2    0    0  0.00000000000E+00  0.00000000000E+00  0.21627385803E+04  0.36937808335E+04  0.29944245990E+04 0.  0.
        2    1    3    3  502    0  0.10933401341E+03  0.14660743758E+04  0.73177801718E+03  0.16422018964E+04  0.25500000920E-02 0. -1.
       -2    1    3    3    0  502 -0.10933401341E+03 -0.14660743758E+04  0.14309605631E+04  0.20515789371E+04  0.25500000920E-02 0.  1.
</event>
<event>
 5   0  0.1625212E-06  0.3020606E+04  0.7818609E-02  0.8237871E-01
       -2   -1    0    0    0  501  0.00000000000E+00  0.00000000000E+00  0.13085307220E+04  0.13085307220E+04  0.25500000920E-02 0. -1.
        2   -1    0    0  501    0  0.00000000000E+00  0.00000000000E+00 -0.17431877927E+04  0.17431877927E+04  0.25500000920E-02 0.  1.
    10030    2    1    2    0    0  0.00000000000E+00  0.00000000000E+00 -0.43465707074E+03  0.30517185148E+04  0.30206057545E+04 0.  0.
        4    1    3    3  502    0 -0.82688596807E+03  0.82060201940E+01  0.10594948123E+04  0.13440009721E+04  0.12699999809E+01 0. -1.
       -4    1    3    3    0  502  0.82688596807E+03 -0.82060201940E+01 -0.14941518830E+04  0.17077175426E+04  0.12699999809E+01 0.  1.
</event>
<event>
 5   0  0.5874741E-07  0.3004126E+04  0.7818609E-02  0.8242554E-01
        1   -1    0    0  501    0  0.00000000000E+00  0.00000000000E+00  0.26182057732E+04  0.26182057732E+04  0.50400001928E-02 0. -1.
       -1   -1    0    0    0  501  0.00000000000E+00  0.00000000000E+00 -0.86173268357E+03  0.86173268358E+03  0.50400001928E-02 0.  1.
    10030    2    1    2    0    0  0.00000000000E+00  0.00000000000E+00  0.17564730896E+04  0.34799384568E+04  0.30041261539E+04 0.  0.
        4    1    3    3  502    0  0.10051222041E+04  0.71267284052E+03 -0.11691006079E+03  0.12376763704E+04  0.12699999809E+01 0.  1.
       -4    1    3    3    0  502 -0.10051222041E+04 -0.71267284052E+03  0.18733831504E+04  0.22422620864E+04  0.12699999809E+01 0. -1.
</event>
<event>
 5   0  0.5931588E-07  0.3007897E+04  0.7818609E-02  0.8241480E-01
        1   -1    0    0  501    0  0.00000000000E+00  0.00000000000E+00  0.21979408271E+04  0.21979408271E+04  0.50400001928E-02 0.  1.
       -1   -1    0    0    0  501  0.00000000000E+00  0.00000000000E+00 -0.10290815973E+04  0.10290815973E+04  0.50400001928E-02 0. -1.
    10030    2    1    2    0    0  0.00000000000E+00  0.00000000000E+00  0.11688592298E+04  0.32270224245E+04  0.30078965789E+04 0.  0.
        2    1    3    3  502    0 -0.11360480206E+04  0.84582705894E+03  0.41783791866E+02  0.14169595633E+04  0.25500000920E-02 0. -1.
       -2    1    3    3    0  502  0.11360480206E+04 -0.84582705894E+03  0.11270754379E+04  0.18100628612E+04  0.25500000920E-02 0.  1.
</event>
<event>
 5   0  0.5916703E-07  0.2992116E+04  0.7818609E-02  0.8245986E-01
       -1   -1    0    0    0  501  0.00000000000E+00  0.00000000000E+00  0.11096511582E+04  0.11096511582E+04  0.50400001928E-02 0. -1.
        1   -1    0    0  501    0  0.00000000000E+00  0.00000000000E+00 -0.20170207800E+04  0.20170207800E+04  0.50400001928E-02 0.  1.
    10030    2    1    2    0    0  0.00000000000E+00  0.00000000000E+00 -0.90736962184E+03  0.31266719382E+04  0.29921159366E+04 0.  0.
        5    1    3    3  502    0 -0.99895528437E+03 -0.95305066063E+03 -0.10557455701E+04  0.17380558163E+04  0.46999998093E+01 0. -1.
       -5    1    3    3    0  502  0.99895528437E+03  0.95305066063E+03  0.14837594822E+03  0.13886161219E+04  0.46999998093E+01 0.  1.
</event>
<event>
 5   0  0.5931588E-07  0.2999072E+04  0.7818609E-02  0.8243996E-01
        1   -1    0    0  501    0  0.00000000000E+00  0.00000000000E+00  0.14260523375E+04  0.14260523376E+04  0.50400001928E-02 0. -1.
       -1   -1    0    0    0  501  0.00000000000E+00  0.00000000000E+00 -0.15768058428E+04  0.15768058428E+04  0.50400001928E-02 0.  1.
    10030    2    1    2    0    0  0.00000000000E+00  0.00000000000E+00 -0.15075350530E+03  0.30028581804E+04  0.29990716284E+04 0.  0.
        2    1    3    3  502    0  0.57930425196E+03  0.62680406430E+02 -0.14588178166E+04  0.15708824500E+04  0.25500000920E-02 0.  1.
       -2    1    3    3    0  502 -0.57930425196E+03 -0.62680406430E+02  0.13080643113E+04  0.14319757304E+04  0.25500000920E-02 0. -1.
</event>
<event>
 5   0  0.5887179E-07  0.3005150E+04  0.7818609E-02  0.8242262E-01
       -1   -1    0    0    0  501  0.00000000000E+00  0.00000000000E+00  0.20752178520E+04  0.20752178520E+04  0.50400001928E-02 0. -1.
        1   -1    0    0  501    0  0.00000000000E+00  0.00000000000E+00 -0.10879490822E+04  0.10879490822E+04  0.50400001928E-02 0.  1.
    10030    2    1    2    0    0  0.00000000000E+00  0.00000000000E+00  0.98726876986E+03  0.31631669342E+04  0.30051498182E+04 0.  0.
        3    1    3    3  502    0 -0.43269454134E+03 -0.48061446575E+03 -0.93396985730E+03  0.11360081581E+04  0.10100000352E+00 0.  1.
       -3    1    3    3    0  502  0.43269454134E+03  0.48061446575E+03  0.19212386272E+04  0.20271587761E+04  0.10100000352E+00 0. -1.
</event>
<event>
 5   0  0.5916703E-07  0.2959600E+04  0.7818609E-02  0.8255362E-01
       -1   -1    0    0    0  501  0.00000000000E+00  0.00000000000E+00  0.13246568381E+04  0.13246568381E+04  0.50400001928E-02 0.  1.
        1   -1    0    0  501    0  0.00000000000E+00  0.00000000000E+00 -0.16531129487E+04  0.16531129487E+04  0.50400001928E-02 0. -1.
    10030    2    1    2    0    0  0.00000000000E+00  0.00000000000E+00 -0.32845611061E+03  0.29777697869E+04  0.29595995484E+04 0.  0.
        5    1    3    3  502    0  0.14030022475E+04  0.45952412818E+03 -0.26588076103E+03  0.15000974635E+04  0.46999998093E+01 0. -1.
       -5    1    3    3    0  502 -0.14030022475E+04 -0.45952412818E+03 -0.62575349573E+02  0.14776723234E+04  0.46999998093E+01 0.  1.
</event>
<event>
 5   0  0.5916703E-07  0.3003327E+04  0.7818609E-02  0.8242781E-01
        1   -1    0    0  501    0  0.00000000000E+00  0.00000000000E+00  0.15184823571E+04  0.15184823571E+04  0.50400001928E-02 0. -1.
       -1   -1    0    0    0  501  0.00000000000E+00  0.00000000000E+00 -0.14850308990E+04  0.14850308990E+04  0.50400001928E-02 0.  1.
    10030    2    1    2    0    0  0.00000000000E+00  0.00000000000E+00  0.33451458090E+02  0.30035132562E+04  0.30033269685E+04 0.  0.
        5    1    3    3  502    0  0.86778244177E+02  0.60350067043E+03 -0.13556667937E+04  0.14864716844E+04  0.46999998093E+01 0.  1.
       -5    1    3    3    0  502 -0.86778244177E+02 -0.60350067043E+03  0.13891182518E+04  0.15170415718E+04  0.46999998093E+01 0. -1.
</event>
<event>
 5   0  0.5916703E-07  0.3001397E+04  0.7818609E-02  0.8243332E-01
        1   -1    0    0  501    0  0.00000000000E+00  0.00000000000E+00  0.17866823145E+04  0.17866823146E+04  0.50400001928E-02 0. -1.
       -1   -1    0    0    0  501  0.00000000000E+00  0.00000000000E+00 -0.12604905368E+04  0.12604905368E+04  0.50400001928E-02 0.  1.
    10030    2    1    2    0    0  0.00000000000E+00  0.00000000000E+00  0.52619177774E+03  0.30471728514E+04  0.30013971079E+04 0.  0.
        5    1    3    3  502    0 -0.68762500020E+03  0.12979001547E+04 -0.49332982015E+02  0.14696355962E+04  0.46999998093E+01 0.  1.
       -5    1    3    3    0  502  0.68762500020E+03 -0.12979001547E+04  0.57552475976E+03  0.15775372552E+04  0.46999998093E+01 0. -1.
</event>
<event>
 5   0  0.1625212E-06  0.2990432E+04  0.7818609E-02  0.8246468E-01
       -2   -1    0    0    0  501  0.00000000000E+00  0.00000000000E+00  0.12136353443E+04  0.12136353443E+04  0.25500000920E-02 0.  1.
        2   -1    0    0  501    0  0.00000000000E+00  0.00000000000E+00 -0.18421271051E+04  0.18421271051E+04  0.25500000920E-02 0. -1.
    10030    2    1    2    0    0  0.00000000000E+00  0.00000000000E+00 -0.62849176074E+03  0.30557624494E+04  0.29904317838E+04 0.  0.
        4    1    3    3  502    0  0.60127854882E+03  0.10644478948E+04  0.56542320802E+03  0.13469559128E+04  0.12699999809E+01 0.  1.
       -4    1    3    3    0  502 -0.60127854882E+03 -0.10644478948E+04 -0.11939149688E+04  0.17088065366E+04  0.12699999809E+01 0. -1.
</event>
<event>
 5   0  0.5874741E-07  0.3009178E+04  0.7818609E-02  0.8241115E-01
        1   -1    0    0  501    0  0.00000000000E+00  0.00000000000E+00  0.28273844402E+04  0.28273844402E+04  0.50400001928E-02 0.  1.
       -1   -1    0    0    0  501  0.00000000000E+00  0.00000000000E+00 -0.80066515250E+03  0.80066515251E+03  0.50400001928E-02 0. -1.
    10030    2    1    2    0    0  0.00000000000E+00  0.00000000000E+00  0.20267192877E+04  0.36280495927E+04  0.30091780898E+04 0.  0.
        4    1    3    3  502    0  0.55263338193E+03  0.81076269087E+02 -0.67103574902E+03  0.87307938103E+03  0.12699999809E+01 0. -1.
       -4    1    3    3    0  502 -0.55263338193E+03 -0.81076269087E+02  0.26977550367E+04  0.27549702116E+04  0.12699999809E+01 0.  1.
</event>
<event>
 5   0  0.1635086E-06  0.2963593E+04  0.7818609E-02  0.8254204E-01
        2   -1    0    0  501    0  0.00000000000E+00  0.00000000000E+00  0.20529489812E+04  0.20529489812E+04  0.25500000920E-02 0. -1.
       -2   -1    0    0    0  501  0.00000000000E+00  0.00000000000E+00 -0.10695448785E+04  0.10695448785E+04  0.25500000920E-02 0.  1.
    10030    2    1    2    0    0  0.00000000000E+00  0.00000000000E+00  0.98340410268E+03  0.31224938598E+04  0.29635931359E+04 0.  0.
        3    1    3    3  502    0 -0.32559382363E+03 -0.95173732520E+03 -0.65471222059E+03  0.12001930579E+04  0.10100000352E+00 0.  1.
       -3    1    3    3    0  502  0.32559382363E+03  0.95173732520E+03  0.16381163233E+04  0.19223008019E+04  0.10100000352E+00 0. -1.
</event>
<event>
 5   0  0.1723916E-06  0.2990247E+04  0.7818609E-02  0.8246521E-01
       -2   -1    0    0    0  501  0.00000000000E+00  0.00000000000E+00  0.12767953596E+04  0.12767953596E+04  0.25500000920E-02 0. -1.
        2   -1    0    0  501    0  0.00000000000E+00  0.00000000000E+00 -0.17507849602E+04  0.17507849602E+04  0.25500000920E-02 0.  1.
    10030    2    1    2    0    0  0.00000000000E+00  0.00000000000E+00 -0.47398960052E+03  0.30275803198E+04  0.29902468881E+04 0.  0.
        1    1    3    3  502    0 -0.84720201596E+03 -0.11963653107E+04  0.60532684374E+02  0.14672100799E+04  0.50400001928E-02 0.  1.
       -1    1    3    3    0  502  0.84720201596E+03  0.11963653107E+04 -0.53452228490E+03  0.15603702399E+04  0.50400001928E-02 0. -1.
</event>
<event>
 5   0  0.5874741E-07  0.2989523E+04  0.7818609E-02  0.8246729E-01
        1   -1    0    0  501    0  0.00000000000E+00  0.00000000000E+00  0.12965535747E+04  0.12965535747E+04  0.50400001928E-02 0. -1.
       -1   -1    0    0    0  501  0.00000000000E+00  0.00000000000E+00 -0.17232701194E+04  0.17232701194E+04  0.50400001928E-02 0.  1.
    10030    2    1    2    0    0  0.00000000000E+00  0.00000000000E+00 -0.42671654465E+03  0.30198236941E+04  0.29895230613E+04 0.  0.
        4    1    3    3  502    0  0.13299131928E+04 -0.62334060091E+03 -0.49381931865E+03  0.15495424284E+04  0.12699999809E+01 0.  1.
       -4    1    3    3    0  502 -0.13299131928E+04  0.62334060091E+03  0.67102773999E+02  0.14702812657E+04  0.12699999809E+01 0. -1.
</event>
<event>
 5   0  0.1723916E-06  0.2999963E+04  0.7818609E-02  0.8243742E-01
       -2   -1    0    0    0  501  0.00000000000E+00  0.00000000000E+00  0.95799030117E+03  0.95799030117E+03  0.25500000920E-02 0.  1.
        2   -1    0    0  501    0  0.00000000000E+00  0.00000000000E+00 -0.23486082455E+04  0.23486082455E+04  0.25500000920E-02 0. -1.
    10030    2    1    2    0    0  0.00000000000E+00  0.00000000000E+00 -0.13906179443E+04  0.33065985467E+04  0.29999626134E+04 0.  0.
        1    1    3    3  502    0 -0.46269837736E+03 -0.92984401122E+03  0.49755071945E+03  0.11516320559E+04  0.50400001928E-02 0.  1.
       -1    1    3    3    0  502  0.46269837736E+03  0.92984401122E+03 -0.18881686638E+04  0.21549664908E+04  0.50400001928E-02 0. -1.
</event>
<event>
 5   0  0.1635086E-06  0.3006956E+04  0.7818609E-02  0.8241747E-01
        2   -1    0    0  501    0  0.00000000000E+00  0.00000000000E+00  0.10399528063E+04  0.10399528063E+04  0.25500000920E-02 0.  1.
       -2   -1    0    0    0  501  0.00000000000E+00  0.00000000000E+00 -0.21736037756E+04  0.21736037756E+04  0.25500000920E-02 0. -1.
    10030    2    1    2    0    0  0.00000000000E+00  0.00000000000E+00 -0.11336509693E+04  0.32135565820E+04  0.30069555011E+04 0.  0.
        3    1    3    3  502    0 -0.89121509722E+03 -0.59628612834E+03  0.55944433247E+03  0.12094624706E+04  0.10100000352E+00 0.  1.
       -3    1    3    3    0  502  0.89121509722E+03  0.59628612834E+03 -0.16930953018E+04  0.20040941114E+04  0.10100000352E+00 0. -1.
</event>
<event>
 5   0  0.5931588E-07  0.3007886E+04  0.7818609E-02  0.8241482E-01
       -1   -1    0    0    0  501  0.00000000000E+00  0.00000000000E+00  0.86186330767E+03  0.86186330768E+03  0.50400001928E-02 0. -1.
        1   -1    0    0  501    0  0.00000000000E+00  0.00000000000E+00 -0.26243662985E+04  0.26243662985E+04  0.50400001928E-02 0.  1.
    10030    2    1    2    0    0  0.00000000000E+00  0.00000000000E+00 -0.17625029908E+04  0.34862296062E+04  0.30078863134E+04 0.  0.
        2    1    3    3  502    0  0.86976520300E+03 -0.12060184270E+04 -0.61983167195E+03  0.16109510409E+04  0.25500000920E-02 0. -1.
       -2    1    3    3    0  502 -0.86976520300E+03  0.12060184270E+04 -0.11426713189E+04  0.18752785653E+04  0.25500000920E-02 0.  1.
</event>
<event>
 5   0  0.1635086E-06  0.3020045E+04  0.7818609E-02  0.8238030E-01
       -2   -1    0    0    0  501  0.00000000000E+00  0.00000000000E+00  0.12771492293E+04  0.12771492293E+04  0.25500000920E-02 0. -1.
        2   -1    0    0  501    0  0.00000000000E+00  0.00000000000E+00 -0.17853577517E+04  0.17853577517E+04  0.25500000920E-02 0.  1.
    10030    2    1    2    0    0  0.00000000000E+00  0.00000000000E+00 -0.50820852239E+03  0.30625069810E+04  0.30200452160E+04 0.  0.
        3    1    3    3  502    0  0.13351668397E+04  0.27382414999E+03 -0.91325737352E+03  0.16406368262E+04  0.10100000352E+00 0.  1.
       -3    1    3    3    0  502 -0.13351668397E+04 -0.27382414999E+03  0.40504885113E+03  0.14218701548E+04  0.10100000352E+00 0. -1.
</event>
<event>
 5   0  0.5874741E-07  0.3007953E+04  0.7818609E-02  0.8241464E-01
       -1   -1    0    0    0  501  0.00000000000E+00  0.00000000000E+00  0.13804902661E+04  0.13804902661E+04  0.50400001928E-02 0.  1.
        1   -1    0    0  501    0  0.00000000000E+00  0.00000000000E+00 -0.16385084289E+04  0.16385084290E+04  0.50400001928E-02 0. -1.
    10030    2    1    2    0    0  0.00000000000E+00  0.00000000000E+00 -0.25801816283E+03  0.30189986951E+04  0.30079527504E+04 0.  0.
        4    1    3    3  502    0  0.61460693367E+02 -0.73027106417E+03 -0.14471750944E+04  0.16221561610E+04  0.12699999809E+01 0. -1.
       -4    1    3    3    0  502 -0.61460693367E+02  0.73027106417E+03  0.11891569316E+04  0.13968425340E+04  0.12699999809E+01 0.  1.
</event>
<event>
 5   0  0.5931588E-07  0.2980959E+04  0.7818609E-02  0.8249189E-01
        1   -1    0    0  501    0  0.00000000000E+00  0.00000000000E+00  0.17942682224E+04  0.17942682224E+04  0.50400001928E-02 0.  1.
       -1   -1    0    0    0  501  0.00000000000E+00  0.00000000000E+00 -0.12381257740E+04  0.12381257740E+04  0.50400001928E-02 0. -1.
    10030    2    1    2    0    0  0.00000000000E+00  0.00000000000E+00  0.55614244846E+03  0.30323939964E+04  0.29809593970E+04 0.  0.
        2    1    3    3  502    0  0.78918855308E+03  0.81487592334E+03 -0.70540302117E+03  0.13358273710E+04  0.25500000920E-02 0. -1.
       -2    1    3    3    0  502 -0.78918855308E+03 -0.81487592334E+03  0.12615454696E+04  0.16965666255E+04  0.25500000920E-02 0.  1.
</event>
<event>
 5   0  0.6291798E-07  0.3005667E+04  0.7818609E-02  0.8242114E-01
        1   -1    0    0  501    0  0.00000000000E+00  0.00000000000E+00  0.21906700558E+04  0.21906700558E+04  0.50400001928E-02 0.  1.
       -1   -1    0    0    0  501  0.00000000000E+00  0.00000000000E+00 -0.10309673150E+04  0.10309673150E+04  0.50400001928E-02 0. -1.
    10030    2    1    2    0    0  0.00000000000E+00  0.00000000000E+00  0.11597027408E+04  0.32216373708E+04  0.30056674636E+04 0.  0.
        1    1    3    3  502    0  0.10770423053E+04 -0.10228874895E+04  0.33498420996E+03  0.15226730984E+04  0.50400001928E-02 0. -1.
       -1    1    3    3    0  502 -0.10770423053E+04  0.10228874895E+04  0.82471853088E+03  0.16989642724E+04  0.50400001928E-02 0.  1.
</event>
<event>
 5   0  0.1723916E-06  0.2995734E+04  0.7818609E-02  0.8244950E-01
       -2   -1    0    0    0  501  0.00000000000E+00  0.00000000000E+00  0.13883296033E+04  0.13883296033E+04  0.25500000920E-02 0. -1.
        2   -1    0    0  501    0  0.00000000000E+00  0.00000000000E+00 -0.16160471842E+04  0.16160471842E+04  0.25500000920E-02 0.  1.
    10030    2    1    2    0    0  0.00000000000E+00  0.00000000000E+00 -0.22771758088E+03  0.30043767875E+04  0.29957343982E+04 0.  0.
        1    1    3    3  502    0  0.27105510428E+02 -0.11245903126E+04  0.87801823726E+03  0.14270087964E+04  0.50400001928E-02 0. -1.
       -1    1    3    3    0  502 -0.27105510428E+02  0.11245903126E+04 -0.11057358181E+04  0.15773679911E+04  0.50400001928E-02 0.  1.
</event>
<event>
 5   0  0.6291798E-07  0.3011501E+04  0.7818609E-02  0.8240454E-01
       -1   -1    0    0    0  501  0.00000000000E+00  0.00000000000E+00  0.10780912145E+04  0.10780912145E+04  0.50400001928E-02 0. -1.
        1   -1    0    0  501    0  0.00000000000E+00  0.00000000000E+00 -0.21030538026E+04  0.21030538026E+04  0.50400001928E-02 0.  1.
    10030    2    1    2    0    0  0.00000000000E+00  0.00000000000E+00 -0.10249625881E+04  0.31811450171E+04  0.30115005085E+04 0.  0.
        1    1    3    3  502    0  0.33433347135E+03 -0.11705561189E+04  0.42361224192E+03  0.12889638588E+04  0.50400001928E-02 0. -1.
       -1    1    3    3    0  502 -0.33433347135E+03  0.11705561189E+04 -0.14485748300E+04  0.18921811583E+04  0.50400001928E-02 0.  1.
</event>
<event>
 5   0  0.5874741E-07  0.2975686E+04  0.7818609E-02  0.8250708E-01
        1   -1    0    0  501    0  0.00000000000E+00  0.00000000000E+00  0.77114642150E+03  0.77114642152E+03  0.50400001928E-02 0.  1.
       -1   -1    0    0    0  501  0.00000000000E+00  0.00000000000E+00 -0.28706318282E+04  0.28706318282E+04  0.50400001928E-02 0. -1.
    10030    2    1    2    0    0  0.00000000000E+00  0.00000000000E+00 -0.20994854067E+04  0.36417782497E+04  0.29756864498E+04 0.  0.
        4    1    3    3  502    0  0.62890077824E+03  0.65218446682E+03 -0.24940947487E+04  0.26535581765E+04  0.12699999809E+01 0. -1.
       -4    1    3    3    0  502 -0.62890077824E+03 -0.65218446682E+03  0.39460934194E+03  0.98822007330E+03  0.12699999809E+01 0.  1.
</event>
<event>
 5   0  0.1674806E-06  0.2992351E+04  0.7818609E-02  0.8245918E-01
        2   -1    0    0  501    0  0.00000000000E+00  0.00000000000E+00  0.27916529545E+04  0.27916529545E+04  0.25500000920E-02 0.  1.
       -2   -1    0    0    0  501  0.00000000000E+00  0.00000000000E+00 -0.80186964484E+03  0.80186964485E+03  0.25500000920E-02 0. -1.
    10030    2    1    2    0    0  0.00000000000E+00  0.00000000000E+00  0.19897833097E+04  0.35935225994E+04  0.29923514253E+04 0.  0.
        2    1    3    3  502    0 -0.44192883339E+03  0.48450460502E+02  0.27104991144E+04  0.27467169475E+04  0.25500000920E-02 0.  1.
       -2    1    3    3    0  502  0.44192883339E+03 -0.48450460502E+02 -0.72071580467E+03  0.84680565185E+03  0.25500000920E-02 0. -1.
</event>
<event>
 5   0  0.1674806E-06  0.3000449E+04  0.7818609E-02  0.8243603E-01
       -2   -1    0    0    0  501  0.00000000000E+00  0.00000000000E+00  0.17736502998E+04  0.17736502998E+04  0.25500000920E-02 0. -1.
        2   -1    0    0  501    0  0.00000000000E+00  0.00000000000E+00 -0.12689495854E+04  0.12689495854E+04  0.25500000920E-02 0.  1.
    10030    2    1    2    0    0  0.00000000000E+00  0.00000000000E+00  0.50470071437E+03  0.30425998852E+04  0.30004485082E+04 0.  0.
        2    1    3    3  502    0 -0.11207131137E+04 -0.68060116722E+03  0.99160272524E+03  0.16439257273E+04  0.25500000920E-02 0. -1.
       -2    1    3    3    0  502  0.11207131137E+04  0.68060116722E+03 -0.48690201087E+03  0.13986741580E+04  0.25500000920E-02 0.  1.
</event>
<event>
 5   0  0.1560174E-06  0.2938648E+04  0.7818609E-02  0.8261471E-01
        2   -1    0    0  501    0  0.00000000000E+00  0.00000000000E+00  0.11144864367E+04  0.11144864367E+04  0.25500000920E-02 0. -1.
       -2   -1    0    0    0  501  0.00000000000E+00  0.00000000000E+00 -0.19371366048E+04  0.19371366048E+04  0.25500000920E-02 0.  1.
    10030    2    1    2    0    0  0.00000000000E+00  0.00000000000E+00 -0.82265016808E+03  0.30516230415E+04  0.29386476292E+04 0.  0.
        5    1    3    3  502    0 -0.21971492887E+02  0.46352950794E+03 -0.18590332064E+04  0.19160816537E+04  0.46999998093E+01 0.  1.
       -5    1    3    3    0  502  0.21971492887E+02 -0.46352950794E+03  0.10363830383E+04  0.11355413878E+04  0.46999998093E+01 0. -1.
</event>
<event>
 5   0  0.1723916E-06  0.3011185E+04  0.7818609E-02  0.8240544E-01
        2   -1    0    0  501    0  0.00000000000E+00  0.00000000000E+00  0.14607715911E+04  0.14607715911E+04  0.25500000920E-02 0. -1.
       -2   -1    0    0    0  501  0.00000000000E+00  0.00000000000E+00 -0.15517888576E+04  0.15517888576E+04  0.25500000920E-02 0.  1.
    10030    2    1    2    0    0  0.00000000000E+00  0.00000000000E+00 -0.91017266534E+02  0.30125604487E+04  0.30111852009E+04 0.  0.
        1    1    3    3  502    0  0.10567309801E+04  0.52162824849E+03  0.89195330500E+03  0.14779570672E+04  0.50400001928E-02 0. -1.
       -1    1    3    3    0  502 -0.10567309801E+04 -0.52162824849E+03 -0.98297057154E+03  0.15346033815E+04  0.50400001928E-02 0.  1.
</event>
<event>
 5   0  0.5887179E-07  0.3007880E+04  0.7818609E-02  0.8241484E-01
       -1   -1    0    0    0  501  0.00000000000E+00  0.00000000000E+00  0.27686917032E+04  0.27686917032E+04  0.50400001928E-02 0. -1.
        1   -1    0    0  501    0  0.00000000000E+00  0.00000000000E+00 -0.81693291597E+03  0.81693291599E+03  0.50400001928E-02 0.  1.
    10030    2    1    2    0    0  0.00000000000E+00  0.00000000000E+00  0.19517587872E+04  0.35856246192E+04  0.30078799089E+04 0.  0.
        3    1    3    3  502    0 -0.87352924091E+03  0.11102272925E+04  0.15909003553E+04  0.21275859387E+04  0.10100000352E+00 0. -1.
       -3    1    3    3    0  502  0.87352924091E+03 -0.11102272925E+04  0.36085843196E+03  0.14580386805E+04  0.10100000352E+00 0.  1.
</event>
<event>
 5   0  0.1625212E-06  0.3000106E+04  0.7818609E-02  0.8243701E-01
       -2   -1    0    0    0  501  0.00000000000E+00  0.00000000000E+00  0.16430489362E+04  0.16430489362E+04  0.25500000920E-02 0. -1.
        2   -1    0    0  501    0  0.00000000000E+00  0.00000000000E+00 -0.13695024888E+04  0.13695024888E+04  0.25500000920E-02 0.  1.
    10030    2    1    2    0    0  0.00000000000E+00  0.00000000000E+00  0.27354644741E+03  0.30125514250E+04  0.30001064030E+04 0.  0.
        4    1    3    3  502    0 -0.81159604747E+03  0.98662905317E+03  0.92618505351E+03  0.15779560827E+04  0.12699999809E+01 0. -1.
       -4    1    3    3    0  502  0.81159604747E+03 -0.98662905317E+03 -0.65263860611E+03  0.14345953422E+04  0.12699999809E+01 0.  1.
</event>
<event>
 5   0  0.1560174E-06  0.3011567E+04  0.7818609E-02  0.8240436E-01
       -2   -1    0    0    0  501  0.00000000000E+00  0.00000000000E+00  0.18304686824E+04  0.18304686824E+04  0.25500000920E-02 0. -1.
        2   -1    0    0  501    0  0.00000000000E+00  0.00000000000E+00 -0.12386900865E+04  0.12386900865E+04  0.25500000920E-02 0.  1.
    10030    2    1    2    0    0  0.00000000000E+00  0.00000000000E+00  0.59177859591E+03  0.30691587689E+04  0.30115666425E+04 0.  0.
        5    1    3    3  502    0  0.45458462429E+03 -0.14012038481E+03  0.17518744135E+04  0.18153145605E+04  0.46999998093E+01 0. -1.
       -5    1    3    3    0  502 -0.45458462429E+03  0.14012038481E+03 -0.11600958176E+04  0.12538442084E+04  0.46999998093E+01 0.  1.
</event>
<event>
 5   0  0.1635086E-06  0.3005640E+04  0.7818609E-02  0.8242122E-01
        2   -1    0    0  501    0  0.00000000000E+00  0.00000000000E+00  0.86135208065E+03  0.86135208065E+03  0.25500000920E-02 0.  1.
       -2   -1    0    0    0  501  0.00000000000E+00  0.00000000000E+00 -0.26220025595E+04  0.26220025595E+04  0.25500000920E-02 0. -1.
    10030    2    1    2    0    0  0.00000000000E+00  0.00000000000E+00 -0.17606504788E+04  0.34833546401E+04  0.30056396059E+04 0.  0.
        3    1    3    3  502    0 -0.11136580634E+04  0.12939689368E+03  0.27947712569E+03  0.11554589184E+04  0.10100000352E+00 0.  1.
       -3    1    3    3    0  502  0.11136580634E+04 -0.12939689368E+03 -0.20401276045E+04  0.23278957217E+04  0.10100000352E+00 0. -1.
</event>
<event>
 5   0  0.6291798E-07  0.2999400E+04  0.7818609E-02  0.8243902E-01
        1   -1    0    0  501    0  0.00000000000E+00  0.00000000000E+00  0.22016183133E+04  0.22016183133E+04  0.50400001928E-02 0. -1.
       -1   -1    0    0    0  501  0.00000000000E+00  0.00000000000E+00 -0.10215669315E+04  0.10215669315E+04  0.50400001928E-02 0.  1.
    10030    2    1    2    0    0  0.00000000000E+00  0.00000000000E+00  0.11800513818E+04  0.32231852448E+04  0.29994002499E+04 0.  0.
        1    1    3    3  502    0 -0.86438637495E+03  0.12011686646E+04  0.32871533946E+03  0.15159233953E+04  0.50400001928E-02 0. -1.
       -1    1    3    3    0  502  0.86438637495E+03 -0.12011686646E+04  0.85133604231E+03  0.17072618495E+04  0.50400001928E-02 0.  1.
</event>
<event>
 5   0  0.5931588E-07  0.2997969E+04  0.7818609E-02  0.8244311E-01
        1   -1    0    0  501    0  0.00000000000E+00  0.00000000000E+00  0.31108474457E+04  0.31108474457E+04  0.50400001928E-02 0.  1.
       -1   -1    0    0    0  501  0.00000000000E+00  0.00000000000E+00 -0.72229667085E+03  0.72229667087E+03  0.50400001928E-02 0. -1.
    10030    2    1    2    0    0  0.00000000000E+00  0.00000000000E+00  0.23885507749E+04  0.38331441166E+04  0.29979691483E+04 0.  0.
        2    1    3    3  502    0 -0.11866310581E+04 -0.72603238742E+03  0.19081520424E+04  0.23614107040E+04  0.25500000920E-02 0.  1.
       -2    1    3    3    0  502  0.11866310581E+04  0.72603238742E+03  0.48039873244E+03  0.14717334126E+04  0.25500000920E-02 0. -1.
</event>
<event>
 5   0  0.5931588E-07  0.2996312E+04  0.7818609E-02  0.8244785E-01
       -1   -1    0    0    0  501  0.00000000000E+00  0.00000000000E+00  0.13326384438E+04  0.13326384438E+04  0.50400001928E-02 0. -1.
        1   -1    0    0  501    0  0.00000000000E+00  0.00000000000E+00 -0.16842308920E+04  0.16842308920E+04  0.50400001928E-02 0.  1.
    10030    2    1    2    0    0  0.00000000000E+00  0.00000000000E+00 -0.35159244823E+03  0.30168693358E+04  0.29963116225E+04 0.  0.
        2    1    3    3  502    0 -0.67753476089E+03  0.98192150596E+03 -0.10882409996E+04  0.16147729467E+04  0.25500000920E-02 0.  1.
       -2    1    3    3    0  502  0.67753476089E+03 -0.98192150596E+03  0.73664855136E+03  0.14020963891E+04  0.25500000920E-02 0. -1.
</event>
<event>
 5   0  0.1674806E-06  0.2951205E+04  0.7818609E-02  0.8257803E-01
        2   -1    0    0  501    0  0.00000000000E+00  0.00000000000E+00  0.17856630862E+04  0.17856630862E+04  0.25500000920E-02 0. -1.
       -2   -1    0    0    0  501  0.00000000000E+00  0.00000000000E+00 -0.12193807887E+04  0.12193807887E+04  0.25500000920E-02 0.  1.
    10030    2    1    2    0    0  0.00000000000E+00  0.00000000000E+00  0.56628229748E+03  0.30050438749E+04  0.29512053554E+04 0.  0.
        2    1    3    3  502    0 -0.17165080308E+03  0.55863544921E+03 -0.10965181131E+04  0.12425335149E+04  0.25500000920E-02 0.  1.
       -2    1    3    3    0  502  0.17165080308E+03 -0.55863544921E+03  0.16628004106E+04  0.17625103599E+04  0.25500000920E-02 0. -1.
</event>
<event>
 5   0  0.1625212E-06  0.2993778E+04  0.7818609E-02  0.8245510E-01
       -2   -1    0    0    0  501  0.00000000000E+00  0.00000000000E+00  0.80205031223E+03  0.80205031224E+03  0.25500000920E-02 0. -1.
        2   -1    0    0  501    0  0.00000000000E+00  0.00000000000E+00 -0.27936865481E+04  0.27936865481E+04  0.25500000920E-02 0.  1.
    10030    2    1    2    0    0  0.00000000000E+00  0.00000000000E+00 -0.19916362358E+04  0.35957368603E+04  0.29937783272E+04 0.  0.
        4    1    3    3  502    0 -0.38468204278E+03 -0.10639789388E+04  0.18137989863E+03  0.11458323336E+04  0.12699999809E+01 0. -1.
       -4    1    3    3    0  502  0.38468204278E+03  0.10639789388E+04 -0.21730161345E+04  0.24499045267E+04  0.12699999809E+01 0.  1.
</event>
<event>
 5   0  0.1560174E-06  0.3012308E+04  0.7818609E-02  0.8240225E-01
        2   -1    0    0  501    0  0.00000000000E+00  0.00000000000E+00  0.30648351347E+04  0.30648351347E+04  0.25500000920E-02 0.  1.
       -2   -1    0    0    0  501  0.00000000000E+00  0.00000000000E+00 -0.74017038240E+03  0.74017038241E+03  0.25500000920E-02 0. -1.
    10030    2    1    2    0    0  0.00000000000E+00  0.00000000000E+00  0.23246647523E+04  0.38050055171E+04  0.30123082138E+04 0.  0.
        5    1    3    3  502    0  0.14493824068E+04  0.45960146684E+02  0.16764470554E+04  0.22166006667E+04  0.46999998093E+01 0. -1.
       -5    1    3    3    0  502 -0.14493824068E+04 -0.45960146684E+02  0.64821769689E+03  0.15884048504E+04  0.46999998093E+01 0.  1.
</event>
<event>
 5   0  0.6291798E-07  0.2999522E+04  0.7818609E-02  0.8243867E-01
       -1   -1    0    0    0  501  0.00000000000E+00  0.00000000000E+00  0.12875311035E+04  0.12875311035E+04  0.50400001928E-02 0.  1.
        1   -1    0    0  501    0  0.00000000000E+00  0.00000000000E+00 -0.17469739445E+04  0.17469739445E+04  0.50400001928E-02 0. -1.
    10030    2    1    2    0    0  0.00000000000E+00  0.00000000000E+00 -0.45944284098E+03  0.30345050481E+04  0.29995221557E+04 0.  0.
        1    1    3    3  502    0 -0.12397291159E+04  0.84392631312E+03 -0.21760729589E+03  0.15154183706E+04  0.50400001928E-02 0.  1.
       -1    1    3    3    0  502  0.12397291159E+04 -0.84392631312E+03 -0.24183554509E+03  0.15190866775E+04  0.50400001928E-02 0. -1.
</event>
<event>
 5   0  0.5874741E-07  0.2976561E+04  0.7818609E-02  0.8250456E-01
       -1   -1    0    0    0  501  0.00000000000E+00  0.00000000000E+00  0.75555627424E+03  0.75555627426E+03  0.50400001928E-02 0.  1.
        1   -1    0    0  501    0  0.00000000000E+00  0.00000000000E+00 -0.29315868808E+04  0.29315868808E+04  0.50400001928E-02 0. -1.
    10030    2    1    2    0    0  0.00000000000E+00  0.00000000000E+00 -0.21760306065E+04  0.36871431550E+04  0.29765610098E+04 0.  0.
        4    1    3    3  502    0 -0.13898243892E+04 -0.55081144976E+01 -0.42865107483E+03  0.14544364988E+04  0.12699999809E+01 0. -1.
       -4    1    3    3    0  502  0.13898243892E+04  0.55081144976E+01 -0.17473795317E+04  0.22327066562E+04  0.12699999809E+01 0.  1.
</event>
<event>
 5   0  0.1674806E-06  0.2943959E+04  0.7818609E-02  0.8259917E-01
       -2   -1    0    0    0  501  0.00000000000E+00  0.00000000000E+00  0.15555708726E+04  0.15555708726E+04  0.25500000920E-02 0.  1.
        2   -1    0    0  501    0  0.00000000000E+00  0.00000000000E+00 -0.13928802716E+04  0.13928802716E+04  0.25500000920E-02 0. -1.
    10030    2    1    2    0    0  0.00000000000E+00  0.00000000000E+00  0.16269060100E+03  0.29484511442E+04  0.29439592249E+04 0.  0.
        2    1    3    3  502    0 -0.17119078178E+01  0.27396671232E+03 -0.13671197892E+04  0.13943016919E+04  0.25500000920E-02 0. -1.
       -2    1    3    3    0  502  0.17119078178E+01 -0.27396671232E+03  0.15298103902E+04  0.15541494523E+04  0.25500000920E-02 0.  1.
</event>
<event>
 5   0  0.1723916E-06  0.2984117E+04  0.7818609E-02  0.8248281E-01
        2   -1    0    0  501    0  0.00000000000E+00  0.00000000000E+00  0.18829386837E+04  0.18829386837E+04  0.25500000920E-02 0. -1.
       -2   -1    0    0    0  501  0.00000000000E+00  0.00000000000E+00 -0.11823215275E+04  0.11823215275E+04  0.25500000920E-02 0.  1.
    10030    2    1    2    0    0  0.00000000000E+00  0.00000000000E+00  0.70061715626E+03  0.30652602112E+04  0.29841172502E+04 0.  0.
        1    1    3    3  502    0  0.54002482885E+03 -0.38406894302E+03 -0.10228676532E+04  0.12187674121E+04  0.50400001928E-02 0.  1.
       -1    1    3    3    0  502 -0.54002482885E+03  0.38406894302E+03  0.17234848095E+04  0.18464927991E+04  0.50400001928E-02 0. -1.
</event>
<event>
 5   0  0.1723916E-06  0.2996304E+04  0.7818609E-02  0.8244787E-01
        2   -1    0    0  501    0  0.00000000000E+00  0.00000000000E+00  0.14364154234E+04  0.14364154234E+04  0.25500000920E-02 0. -1.
       -2   -1    0    0    0  501  0.00000000000E+00  0.00000000000E+00 -0.15625420998E+04  0.15625420998E+04  0.25500000920E-02 0.  1.
    10030    2    1    2    0    0  0.00000000000E+00  0.00000000000E+00 -0.12612667642E+03  0.29989575232E+04  0.29963041047E+04 0.  0.
        1    1    3    3  502    0 -0.10243549643E+04 -0.52633895157E+03  0.89597296010E+03  0.14591447256E+04  0.50400001928E-02 0. -1.
       -1    1    3    3    0  502  0.10243549643E+04  0.52633895157E+03 -0.10220996365E+04  0.15398127977E+04  0.50400001928E-02 0.  1.
</event>
<event>
 5   0  0.5931588E-07  0.2991468E+04  0.7818609E-02  0.8246171E-01
       -1   -1    0    0    0  501  0.00000000000E+00  0.00000000000E+00  0.12999765060E+04  0.12999765061E+04  0.50400001928E-02 0.  1.
        1   -1    0    0  501    0  0.00000000000E+00  0.00000000000E+00 -0.17209702670E+04  0.17209702670E+04  0.50400001928E-02 0. -1.
    10030    2    1    2    0    0  0.00000000000E+00  0.00000000000E+00 -0.42099376094E+03  0.30209467730E+04  0.29914684787E+04 0.  0.
        2    1    3    3  502    0 -0.79788173423E+03  0.96546850512E+03 -0.10361575989E+04  0.16255359935E+04  0.25500000920E-02 0. -1.
       -2    1    3    3    0  502  0.79788173423E+03 -0.96546850512E+03  0.61516383798E+03  0.13954107796E+04  0.25500000920E-02 0.  1.
</event>
<event>
 5   0  0.1560174E-06  0.2989808E+04  0.7818609E-02  0.8246647E-01
       -2   -1    0    0    0  501  0.00000000000E+00  0.00000000000E+00  0.75372138177E+03  0.75372138177E+03  0.25500000920E-02 0. -1.
        2   -1    0    0  501    0  0.00000000000E+00  0.00000000000E+00 -0.29649380981E+04  0.29649380981E+04  0.25500000920E-02 0.  1.
    10030    2    1    2    0    0  0.00000000000E+00  0.00000000000E+00 -0.22112167163E+04  0.37186594799E+04  0.29898075123E+04 0.  0.
        5    1    3    3  502    0 -0.91286037407E+03  0.80717073645E+03 -0.28552935388E+02  0.12188831037E+04  0.46999998093E+01 0. -1.
       -5    1    3    3    0  502  0.91286037407E+03 -0.80717073645E+03 -0.21826637810E+04  0.24997763762E+04  0.46999998093E+01 0.  1.
</event>
<event>
 5   0  0.5874741E-07  0.3001588E+04  0.7818609E-02  0.8243278E-01
        1   -1    0    0  501    0  0.00000000000E+00  0.00000000000E+00  0.18971564253E+04  0.18971564253E+04  0.50400001928E-02 0. -1.
       -1   -1    0    0    0  501  0.00000000000E+00  0.00000000000E+00 -0.11872411056E+04  0.11872411056E+04  0.50400001928E-02 0.  1.
    10030    2    1    2    0    0  0.00000000000E+00  0.00000000000E+00  0.70991531972E+03  0.30843975308E+04  0.30015876411E+04 0.  0.
        4    1    3    3  502    0  0.89352323001E+03  0.96389063827E+03  0.10994536866E+04  0.17135544774E+04  0.12699999809E+01 0.  1.
       -4    1    3    3    0  502 -0.89352323001E+03 -0.96389063827E+03 -0.38953836685E+03  0.13708430535E+04  0.12699999809E+01 0. -1.
</event>
<event>
 5   0  0.6291798E-07  0.2992966E+04  0.7818609E-02  0.8245742E-01
        1   -1    0    0  501    0  0.00000000000E+00  0.00000000000E+00  0.11037699991E+04  0.11037699991E+04  0.50400001928E-02 0.  1.
       -1   -1    0    0    0  501  0.00000000000E+00  0.00000000000E+00 -0.20289196869E+04  0.20289196869E+04  0.50400001928E-02 0. -1.
    10030    2    1    2    0    0  0.00000000000E+00  0.00000000000E+00 -0.92514968786E+03  0.31326896860E+04  0.29929655400E+04 0.  0.
        1    1    3    3  502    0  0.10187983420E+04  0.60921018212E+03  0.49121439958E+03  0.12846706558E+04  0.50400001928E-02 0.  1.
       -1    1    3    3    0  502 -0.10187983420E+04 -0.60921018212E+03 -0.14163640874E+04  0.18480190302E+04  0.50400001928E-02 0. -1.
</event>
<event>
 5   0  0.6291798E-07  0.2991462E+04  0.7818609E-02  0.8246173E-01
        1   -1    0    0  501    0  0.00000000000E+00  0.00000000000E+00  0.18929846061E+04  0.18929846062E+04  0.50400001928E-02 0.  1.
       -1   -1    0    0    0  501  0.00000000000E+00  0.00000000000E+00 -0.11818433942E+04  0.11818433943E+04  0.50400001928E-02 0. -1.
    10030    2    1    2    0    0  0.00000000000E+00  0.00000000000E+00  0.71114121190E+03  0.30748280004E+04  0.29914620855E+04 0.  0.
        1    1    3    3  502    0  0.12894125080E+04 -0.25034741272E+03 -0.37987800498E+03  0.13673206433E+04  0.50400001928E-02 0. -1.
       -1    1    3    3    0  502 -0.12894125080E+04  0.25034741272E+03  0.10910192169E+04  0.17075073571E+04  0.50400001928E-02 0.  1.
</event>
<event>
 5   0  0.5931588E-07  0.3001307E+04  0.7818609E-02  0.8243358E-01
       -1   -1    0    0    0  501  0.00000000000E+00  0.00000000000E+00  0.11408279062E+04  0.11408279062E+04  0.50400001928E-02 0. -1.
        1   -1    0    0  501    0  0.00000000000E+00  0.00000000000E+00 -0.19739701217E+04  0.19739701217E+04  0.50400001928E-02 0.  1.
    10030    2    1    2    0    0  0.00000000000E+00  0.00000000000E+00 -0.83314221552E+03  0.31147980279E+04  0.30013065160E+04 0.  0.
        2    1    3    3  502    0 -0.13336737523E+04 -0.68458220651E+02  0.29384879361E+03  0.13673768021E+04  0.25500000920E-02 0. -1.
       -2    1    3    3    0  502  0.13336737523E+04  0.68458220651E+02 -0.11269910091E+04  0.17474212257E+04  0.25500000920E-02 0.  1.
</event>
<event>
 5   0  0.5887179E-07  0.3026627E+04  0.7818609E-02  0.8236168E-01
       -1   -1    0    0    0  501  0.00000000000E+00  0.00000000000E+00  0.12749861614E+04  0.12749861614E+04  0.50400001928E-02 0.  1.
        1   -1    0    0  501    0  0.00000000000E+00  0.00000000000E+00 -0.17961901544E+04  0.17961901544E+04  0.50400001928E-02 0. -1.
    10030    2    1    2    0    0  0.00000000000E+00  0.00000000000E+00 -0.52120399303E+03  0.30711763158E+04  0.30266268948E+04 0.  0.
        3    1    3    3  502    0 -0.18032928013E+03 -0.13978809788E+04  0.29844076467E+03  0.14407139828E+04  0.10100000352E+00 0.  1.
       -3    1    3    3    0  502  0.18032928013E+03  0.13978809788E+04 -0.81964475771E+03  0.16304623329E+04  0.10100000352E+00 0. -1.
</event>
<event>
 5   0  0.1635086E-06  0.2988269E+04  0.7818609E-02  0.8247089E-01
       -2   -1    0    0    0  501  0.00000000000E+00  0.00000000000E+00  0.98647911974E+03  0.98647911974E+03  0.25500000920E-02 0.  1.
        2   -1    0    0  501    0  0.00000000000E+00  0.00000000000E+00 -0.22630358173E+04  0.22630358173E+04  0.25500000920E-02 0. -1.
    10030    2    1    2    0    0  0.00000000000E+00  0.00000000000E+00 -0.12765566976E+04  0.32495149370E+04  0.29882687838E+04 0.  0.
        3    1    3    3  502    0 -0.19395430322E+03  0.43830164869E+03  0.90061320924E+03  0.10202111398E+04  0.10100000352E+00 0.  1.
       -3    1    3    3    0  502  0.19395430322E+03 -0.43830164869E+03 -0.21771699068E+04  0.22293037972E+04  0.10100000352E+00 0. -1.
</event>
<event>
 5   0  0.5887179E-07  0.2997763E+04  0.7818609E-02  0.8244370E-01
        1   -1    0    0  501    0  0.00000000000E+00  0.00000000000E+00  0.14170903897E+04  0.14170903897E+04  0.50400001928E-02 0. -1.
       -1   -1    0    0    0  501  0.00000000000E+00  0.00000000000E+00 -0.15853938299E+04  0.15853938299E+04  0.50400001928E-02 0.  1.
    10030    2    1    2    0    0  0.00000000000E+00  0.00000000000E+00 -0.16830344017E+03  0.30024842197E+04  0.29977634065E+04 0.  0.
        3    1    3    3  502    0  0.10484308574E+03  0.29014519451E+03  0.13849471726E+04  0.14188921691E+04  0.10100000352E+00 0. -1.
       -3    1    3    3    0  502 -0.10484308574E+03 -0.29014519451E+03 -0.15532506127E+04  0.15835920506E+04  0.10100000352E+00 0.  1.
</event>
<event>
 5   0  0.1625212E-06  0.3004766E+04  0.7818609E-02  0.8242371E-01
        2   -1    0    0  501    0  0.00000000000E+00  0.00000000000E+00  0.22206845037E+04  0.22206845037E+04  0.25500000920E-02 0.  1.
       -2   -1    0    0    0  501  0.00000000000E+00  0.00000000000E+00 -0.10164228986E+04  0.10164228986E+04  0.25500000920E-02 0. -1.
    10030    2    1    2    0    0  0.00000000000E+00  0.00000000000E+00  0.12042616051E+04  0.32371074023E+04  0.30047659344E+04 0.  0.
        4    1    3    3  502    0  0.31863751137E+03  0.14394039480E+04  0.29037731016E+03  0.15025758498E+04  0.12699999809E+01 0. -1.
       -4    1    3    3    0  502 -0.31863751137E+03 -0.14394039480E+04  0.91388429493E+03  0.17345315525E+04  0.12699999809E+01 0.  1.
</event>
<event>
 5   0  0.1635086E-06  0.2959630E+04  0.7818609E-02  0.8255354E-01
       -2   -1    0    0    0  501  0.00000000000E+00  0.00000000000E+00  0.96303931614E+03  0.96303931614E+03  0.25500000920E-02 0.  1.
        2   -1    0    0  501    0  0.00000000000E+00  0.00000000000E+00 -0.22738973511E+04  0.22738973511E+04  0.25500000920E-02 0. -1.
    10030    2    1    2    0    0  0.00000000000E+00  0.00000000000E+00 -0.13108580349E+04  0.32369366672E+04  0.29596300782E+04 0.  0.
        3    1    3    3  502    0 -0.84725562936E+03  0.12089605129E+04 -0.76709812991E+03  0.16636908289E+04  0.10100000352E+00 0.  1.
       -3    1    3    3    0  502  0.84725562936E+03 -0.12089605129E+04 -0.54375990501E+03  0.15732458383E+04  0.10100000352E+00 0. -1.
</event>
<event>
 5   0  0.1674806E-06  0.3026899E+04  0.7818609E-02  0.8236091E-01
        2   -1    0    0  501    0  0.00000000000E+00  0.00000000000E+00  0.15967412203E+04  0.15967412203E+04  0.25500000920E-02 0.  1.
       -2   -1    0    0    0  501  0.00000000000E+00  0.00000000000E+00 -0.14345022777E+04  0.14345022777E+04  0.25500000920E-02 0. -1.
    10030    2    1    2    0    0  0.00000000000E+00  0.00000000000E+00  0.16223894262E+03  0.30312434981E+04  0.30268986884E+04 0.  0.
        2    1    3    3  502    0 -0.65079274246E+03  0.13606598415E+04  0.20620881311E+03  0.15223168108E+04  0.25500000920E-02 0.  1.
       -2    1    3    3    0  502  0.65079274246E+03 -0.13606598415E+04 -0.43969870491E+02  0.15089266872E+04  0.25500000920E-02 0. -1.
</event>
<event>
 5   0  0.5916703E-07  0.3024333E+04  0.7818609E-02  0.8236816E-01
       -1   -1    0    0    0  501  0.00000000000E+00  0.00000000000E+00  0.13754212958E+04  0.13754212958E+04  0.50400001928E-02 0. -1.
        1   -1    0    0  501    0  0.00000000000E+00  0.00000000000E+00 -0.16625074569E+04  0.16625074569E+04  0.50400001928E-02 0.  1.
    10030    2    1    2    0    0  0.00000000000E+00  0.00000000000E+00 -0.28708616105E+03  0.30379287527E+04  0.30243334212E+04 0.  0.
        5    1    3    3  502    0 -0.69736944225E+03  0.88035039329E+03 -0.11606585090E+04  0.16150824184E+04  0.46999998093E+01 0.  1.
       -5    1    3    3    0  502  0.69736944225E+03 -0.88035039329E+03  0.87357234791E+03  0.14228463343E+04  0.46999998093E+01 0. -1.
</event>
<event>
 5   0  0.6291798E-07  0.2995809E+04  0.7818609E-02  0.8244929E-01
        1   -1    0    0  501    0  0.00000000000E+00  0.00000000000E+00  0.14452178495E+04  0.14452178495E+04  0.50400001928E-02 0.  1.
       -1   -1    0    0    0  501  0.00000000000E+00  0.00000000000E+00 -0.15525121220E+04  0.15525121220E+04  0.50400001928E-02 0. -1.
    10030    2    1    2    0    0  0.00000000000E+00  0.00000000000E+00 -0.10729427249E+03  0.29977299715E+04  0.29958092265E+04 0.  0.
        1    1    3    3  502    0  0.54372675859E+03 -0.33601732101E+03  0.13019065423E+04  0.14503472250E+04  0.50400001928E-02 0.  1.
       -1    1    3    3    0  502 -0.54372675859E+03  0.33601732101E+03 -0.14092008148E+04  0.15473827466E+04  0.50400001928E-02 0. -1.
</event>
<event>
 5   0  0.1625212E-06  0.3012861E+04  0.7818609E-02  0.8240068E-01
       -2   -1    0    0    0  501  0.00000000000E+00  0.00000000000E+00  0.18244787649E+04  0.18244787649E+04  0.25500000920E-02 0.  1.
        2   -1    0    0  501    0  0.00000000000E+00  0.00000000000E+00 -0.12438251123E+04  0.12438251123E+04  0.25500000920E-02 0. -1.
    10030    2    1    2    0    0  0.00000000000E+00  0.00000000000E+00  0.58065365266E+03  0.30683038772E+04  0.30128607698E+04 0.  0.
        4    1    3    3  502    0 -0.10770448904E+04  0.83028919628E+03  0.95026795577E+03  0.16590408814E+04  0.12699999809E+01 0.  1.
       -4    1    3    3    0  502  0.10770448904E+04 -0.83028919628E+03 -0.36961430312E+03  0.14092629958E+04  0.12699999809E+01 0. -1.
</event>
<event>
 5   0  0.1625212E-06  0.3022812E+04  0.7818609E-02  0.8237247E-01
        2   -1    0    0  501    0  0.00000000000E+00  0.00000000000E+00  0.20630118262E+04  0.20630118262E+04  0.25500000920E-02 0.  1.
       -2   -1    0    0    0  501  0.00000000000E+00  0.00000000000E+00 -0.11072879806E+04  0.11072879806E+04  0.25500000920E-02 0. -1.
    10030    2    1    2    0    0  0.00000000000E+00  0.00000000000E+00  0.95572384563E+03  0.31702998068E+04  0.30228120676E+04 0.  0.
        4    1    3    3  502    0  0.98725675238E+02  0.12708154206E+04  0.13296640613E+04  0.18419355909E+04  0.12699999809E+01 0.  1.
       -4    1    3    3    0  502 -0.98725675238E+02 -0.12708154206E+04 -0.37394021569E+03  0.13283642159E+04  0.12699999809E+01 0. -1.
</event>
<event>
 5   0  0.1560174E-06  0.3003497E+04  0.7818609E-02  0.8242733E-01
        2   -1    0    0  501    0  0.00000000000E+00  0.00000000000E+00  0.12063550258E+04  0.12063550258E+04  0.25500000920E-02 0. -1.
       -2   -1    0    0    0  501  0.00000000000E+00  0.00000000000E+00 -0.18694739290E+04  0.18694739290E+04  0.25500000920E-02 0.  1.
    10030    2    1    2    0    0  0.00000000000E+00  0.00000000000E+00 -0.66311890318E+03  0.30758289549E+04  0.30034974746E+04 0.  0.
        5    1    3    3  502    0 -0.47657921689E+03 -0.13459333701E+04  0.14501069322E+03  0.14351705745E+04  0.46999998093E+01 0. -1.
       -5    1    3    3    0  502  0.47657921689E+03  0.13459333701E+04 -0.80812959640E+03  0.16406583804E+04  0.46999998093E+01 0.  1.
</event>
<event>
 5   0  0.1635086E-06  0.2868946E+04  0.7818609E-02  0.8282177E-01
       -2   -1    0    0    0  501  0.00000000000E+00  0.00000000000E+00  0.99702890064E+03  0.99702890065E+03  0.25500000920E-02 0.  1.
        2   -1    0    0  501    0  0.00000000000E+00  0.00000000000E+00 -0.20638452130E+04  0.20638452130E+04  0.25500000920E-02 0. -1.
    10030    2    1    2    0    0  0.00000000000E+00  0.00000000000E+00 -0.10668163124E+04  0.30608741136E+04  0.28689463737E+04 0.  0.
        3    1    3    3  502    0  0.58426068770E+03 -0.36533694925E+03 -0.18757009658E+04  0.19982706926E+04  0.10100000352E+00 0. -1.
       -3    1    3    3    0  502 -0.58426068770E+03  0.36533694925E+03  0.80888465342E+03  0.10626034210E+04  0.10100000352E+00 0.  1.
</event>
<event>
 5   0  0.1625212E-06  0.2998047E+04  0.7818609E-02  0.8244289E-01
       -2   -1    0    0    0  501  0.00000000000E+00  0.00000000000E+00  0.10310780731E+04  0.10310780731E+04  0.25500000920E-02 0. -1.
        2   -1    0    0  501    0  0.00000000000E+00  0.00000000000E+00 -0.21793414833E+04  0.21793414833E+04  0.25500000920E-02 0.  1.
    10030    2    1    2    0    0  0.00000000000E+00  0.00000000000E+00 -0.11482634102E+04  0.32104195564E+04  0.29980468424E+04 0.  0.
        4    1    3    3  502    0  0.29774114970E+03  0.13223896751E+04  0.11129212683E+03  0.13600558060E+04  0.12699999809E+01 0. -1.
       -4    1    3    3    0  502 -0.29774114970E+03 -0.13223896751E+04 -0.12595555370E+04  0.18503637504E+04  0.12699999809E+01 0.  1.
</event>
<event>
 5   0  0.5916703E-07  0.3018752E+04  0.7818609E-02  0.8238396E-01
        1   -1    0    0  501    0  0.00000000000E+00  0.00000000000E+00  0.13968825997E+04  0.13968825997E+04  0.50400001928E-02 0. -1.
       -1   -1    0    0    0  501  0.00000000000E+00  0.00000000000E+00 -0.16309286515E+04  0.16309286515E+04  0.50400001928E-02 0.  1.
    10030    2    1    2    0    0  0.00000000000E+00  0.00000000000E+00 -0.23404605183E+03  0.30278112512E+04  0.30187519637E+04 0.  0.
        5    1    3    3  502    0 -0.37486560813E+02  0.11016083524E+04  0.91721038908E+03  0.14339606662E+04  0.46999998093E+01 0. -1.
       -5    1    3    3    0  502  0.37486560813E+02 -0.11016083524E+04 -0.11512564409E+04  0.15938505849E+04  0.46999998093E+01 0.  1.
</event>
<event>
 5   0  0.5931588E-07  0.2998870E+04  0.7818609E-02  0.8244054E-01
       -1   -1    0    0    0  501  0.00000000000E+00  0.00000000000E+00  0.11828892679E+04  0.11828892680E+04  0.50400001928E-02 0.  1.
        1   -1    0    0  501    0  0.00000000000E+00  0.00000000000E+00 -0.19006890890E+04  0.19006890890E+04  0.50400001928E-02 0. -1.
    10030    2    1    2    0    0  0.00000000000E+00  0.00000000000E+00 -0.71779982104E+03  0.30835783569E+04  0.29988696038E+04 0.  0.
        2    1    3    3  502    0 -0.10017463575E+04 -0.19289480543E+03 -0.14888494731E+04  0.18048204687E+04  0.25500000920E-02 0. -1.
       -2    1    3    3    0  502  0.10017463575E+04  0.19289480543E+03  0.77104965207E+03  0.12787578882E+04  0.25500000920E-02 0.  1.
</event>
<event>
 5   0  0.1625212E-06  0.3019544E+04  0.7818609E-02  0.8238172E-01
        2   -1    0    0  501    0  0.00000000000E+00  0.00000000000E+00  0.11210488673E+04  0.11210488673E+04  0.25500000920E-02 0. -1.
       -2   -1    0    0    0  501  0.00000000000E+00  0.00000000000E+00 -0.20332841648E+04  0.20332841648E+04  0.25500000920E-02 0.  1.
    10030    2    1    2    0    0  0.00000000000E+00  0.00000000000E+00 -0.91223529748E+03  0.31543330321E+04  0.30195436144E+04 0.  0.
        4    1    3    3  502    0  0.37611791084E+03  0.14552880030E+04 -0.30808289329E+03  0.15343547623E+04  0.12699999809E+01 0. -1.
       -4    1    3    3    0  502 -0.37611791084E+03 -0.14552880030E+04 -0.60415240419E+03  0.16199782699E+04  0.12699999809E+01 0.  1.
</event>
<event>
 5   0  0.1635086E-06  0.3030142E+04  0.7818609E-02  0.8235176E-01
        2   -1    0    0  501    0  0.00000000000E+00  0.00000000000E+00  0.22942320345E+04  0.22942320345E+04  0.25500000920E-02 0.  1.
       -2   -1    0    0    0  501  0.00000000000E+00  0.00000000000E+00 -0.10005264768E+04  0.10005264768E+04  0.25500000920E-02 0. -1.
    10030    2    1    2    0    0  0.00000000000E+00  0.00000000000E+00  0.12937055577E+04  0.32947585113E+04  0.30301418412E+04 0.  0.
        3    1    3    3  502    0  0.61030012645E+03  0.50444727359E+03 -0.75765643672E+03  0.10958907712E+04  0.10100000352E+00 0. -1.
       -3    1    3    3    0  502 -0.61030012645E+03 -0.50444727359E+03  0.20513619944E+04  0.21988677401E+04  0.10100000352E+00 0.  1.
</event>
<event>
 5   0  0.5431625E-07  0.3006522E+04  0.7818609E-02  0.8241871E-01
       -3   -1    0    0    0  501  0.00000000000E+00  0.00000000000E+00  0.11559528852E+04  0.11559528896E+04  0.10100000352E+00 0.  1.
        3   -1    0    0  501    0  0.00000000000E+00  0.00000000000E+00 -0.19549190940E+04  0.19549190966E+04  0.10100000352E+00 0. -1.
    10030    2    1    2    0    0  0.00000000000E+00  0.00000000000E+00 -0.79896620877E+03  0.31108719862E+04  0.30065224948E+04 0.  0.
        1    1    3    3  502    0  0.14008556087E+04 -0.31501306366E+03  0.61124222303E+02  0.14371380718E+04  0.50400001928E-02 0. -1.
       -1    1    3    3    0  502 -0.14008556087E+04  0.31501306366E+03 -0.86009043107E+03  0.16737339145E+04  0.50400001928E-02 0.  1.
</event>
<event>
 5   0  0.1674806E-06  0.3001975E+04  0.7818609E-02  0.8243167E-01
        2   -1    0    0  501    0  0.00000000000E+00  0.00000000000E+00  0.19374925253E+04  0.19374925253E+04  0.25500000920E-02 0.  1.
       -2   -1    0    0    0  501  0.00000000000E+00  0.00000000000E+00 -0.11628241649E+04  0.11628241649E+04  0.25500000920E-02 0. -1.
    10030    2    1    2    0    0  0.00000000000E+00  0.00000000000E+00  0.77466836034E+03  0.31003166902E+04  0.30019747685E+04 0.  0.
        2    1    3    3  502    0  0.84234661701E+03  0.78737688592E+03  0.13797790833E+04  0.17981380654E+04  0.25500000920E-02 0.  1.
       -2    1    3    3    0  502 -0.84234661701E+03 -0.78737688592E+03 -0.60511072296E+03  0.13021786247E+04  0.25500000920E-02 0. -1.
</event>
<event>
 5   0  0.1625212E-06  0.2981082E+04  0.7818609E-02  0.8249154E-01
        2   -1    0    0  501    0  0.00000000000E+00  0.00000000000E+00  0.12821704062E+04  0.12821704062E+04  0.25500000920E-02 0.  1.
       -2   -1    0    0    0  501  0.00000000000E+00  0.00000000000E+00 -0.17327751098E+04  0.17327751098E+04  0.25500000920E-02 0. -1.
    10030    2    1    2    0    0  0.00000000000E+00  0.00000000000E+00 -0.45060470351E+03  0.30149455160E+04  0.29810823312E+04 0.  0.
        4    1    3    3  502    0 -0.10409889668E+03  0.14868273973E+04 -0.21033341810E+03  0.15052355461E+04  0.12699999809E+01 0.  1.
       -4    1    3    3    0  502  0.10409889668E+03 -0.14868273973E+04 -0.24027128541E+03  0.15097099699E+04  0.12699999809E+01 0. -1.
</event>
<event>
 5   0  0.6291798E-07  0.2977962E+04  0.7818609E-02  0.8250052E-01
       -1   -1    0    0    0  501  0.00000000000E+00  0.00000000000E+00  0.13470277109E+04  0.13470277109E+04  0.50400001928E-02 0.  1.
        1   -1    0    0  501    0  0.00000000000E+00  0.00000000000E+00 -0.16458932748E+04  0.16458932748E+04  0.50400001928E-02 0. -1.
    10030    2    1    2    0    0  0.00000000000E+00  0.00000000000E+00 -0.29886556386E+03  0.29929209857E+04  0.29779616185E+04 0.  0.
        1    1    3    3  502    0 -0.56850825988E+02 -0.14386797528E+04  0.23198967393E+03  0.14583726055E+04  0.50400001928E-02 0.  1.
       -1    1    3    3    0  502  0.56850825988E+02  0.14386797528E+04 -0.53085523780E+03  0.15345483802E+04  0.50400001928E-02 0. -1.
</event>
<event>
 5   0  0.1674806E-06  0.3001939E+04  0.7818609E-02  0.8243177E-01
       -2   -1    0    0    0  501  0.00000000000E+00  0.00000000000E+00  0.12134658641E+04  0.12134658641E+04  0.25500000920E-02 0. -1.
        2   -1    0    0  501    0  0.00000000000E+00  0.00000000000E+00 -0.18565904671E+04  0.18565904671E+04  0.25500000920E-02 0.  1.
    10030    2    1    2    0    0  0.00000000000E+00  0.00000000000E+00 -0.64312460296E+03  0.30700563311E+04  0.30019388104E+04 0.  0.
        2    1    3    3  502    0 -0.93938070989E+03  0.11705595454E+04 -0.33815979153E+03  0.15385050575E+04  0.25500000920E-02 0. -1.
       -2    1    3    3    0  502  0.93938070989E+03 -0.11705595454E+04 -0.30496481143E+03  0.15315512736E+04  0.25500000920E-02 0.  1.
</event>
<event>
 5   0  0.5916703E-07  0.2995698E+04  0.7818609E-02  0.8244961E-01
        1   -1    0    0  501    0  0.00000000000E+00  0.00000000000E+00  0.73955781309E+03  0.73955781310E+03  0.50400001928E-02 0.  1.
       -1   -1    0    0    0  501  0.00000000000E+00  0.00000000000E+00 -0.30336385107E+04  0.30336385107E+04  0.50400001928E-02 0. -1.
    10030    2    1    2    0    0  0.00000000000E+00  0.00000000000E+00 -0.22940806976E+04  0.37731963238E+04  0.29956976234E+04 0.  0.
        5    1    3    3  502    0  0.89648805529E+03  0.11258073739E+04 -0.62407262091E+03  0.15686369250E+04  0.46999998093E+01 0.  1.
       -5    1    3    3    0  502 -0.89648805529E+03 -0.11258073739E+04 -0.16700080767E+04  0.22045593987E+04  0.46999998093E+01 0. -1.
</event>
<event>
 5   0  0.5887179E-07  0.3001414E+04  0.7818609E-02  0.8243327E-01
       -1   -1    0    0    0  501  0.00000000000E+00  0.00000000000E+00  0.15979829504E+04  0.15979829504E+04  0.50400001928E-02 0.  1.
        1   -1    0    0  501    0  0.00000000000E+00  0.00000000000E+00 -0.14093522646E+04  0.14093522646E+04  0.50400001928E-02 0. -1.
    10030    2    1    2    0    0  0.00000000000E+00  0.00000000000E+00  0.18863068580E+03  0.30073352150E+04  0.30014135936E+04 0.  0.
        3    1    3    3  502    0  0.98616667779E+03  0.21962636825E+03  0.12061714602E+04  0.15734071499E+04  0.10100000352E+00 0.  1.
       -3    1    3    3    0  502 -0.98616667779E+03 -0.21962636825E+03 -0.10175407744E+04  0.14339280650E+04  0.10100000352E+00 0. -1.
</event>
<event>
 5   0  0.1560174E-06  0.3008278E+04  0.7818609E-02  0.8241371E-01
        2   -1    0    0  501    0  0.00000000000E+00  0.00000000000E+00  0.23718452967E+04  0.23718452967E+04  0.25500000920E-02 0.  1.
       -2   -1    0    0    0  501  0.00000000000E+00  0.00000000000E+00 -0.95387083769E+03  0.95387083769E+03  0.25500000920E-02 0. -1.
    10030    2    1    2    0    0  0.00000000000E+00  0.00000000000E+00  0.14179744590E+04  0.33257161344E+04  0.30082779526E+04 0.  0.
        5    1    3    3  502    0  0.11681737698E+03  0.14995115657E+04  0.69219440122E+03  0.16556981652E+04  0.46999998093E+01 0. -1.
       -5    1    3    3    0  502 -0.11681737698E+03 -0.14995115657E+04  0.72578005781E+03  0.16700179692E+04  0.46999998093E+01 0.  1.
</event>
<event>
 5   0  0.5916703E-07  0.2999896E+04  0.7818609E-02  0.8243760E-01
        1   -1    0    0  501    0  0.00000000000E+00  0.00000000000E+00  0.15745029277E+04  0.15745029277E+04  0.50400001928E-02 0.  1.
       -1   -1    0    0    0  501  0.00000000000E+00  0.00000000000E+00 -0.14289236846E+04  0.14289236846E+04  0.50400001928E-02 0. -1.
    10030    2    1    2    0    0  0.00000000000E+00  0.00000000000E+00  0.14557924310E+03  0.30034266123E+04  0.29998963482E+04 0.  0.
        5    1    3    3  502    0 -0.91453276044E+03 -0.11570051188E+04  0.34659165253E+03  0.15149847783E+04  0.46999998093E+01 0.  1.
       -5    1    3    3    0  502  0.91453276044E+03  0.11570051188E+04 -0.20101240943E+03  0.14884418341E+04  0.46999998093E+01 0. -1.
</event>
<event>
 5   0  0.1635086E-06  0.2998870E+04  0.7818609E-02  0.8244054E-01
       -2   -1    0    0    0  501  0.00000000000E+00  0.00000000000E+00  0.94553858803E+03  0.94553858803E+03  0.25500000920E-02 0. -1.
        2   -1    0    0  501    0  0.00000000000E+00  0.00000000000E+00 -0.23778036314E+04  0.23778036314E+04  0.25500000920E-02 0.  1.
    10030    2    1    2    0    0  0.00000000000E+00  0.00000000000E+00 -0.14322650433E+04  0.33233422194E+04  0.29988698459E+04 0.  0.
        3    1    3    3  502    0 -0.34012811810E+02 -0.79795044389E+03 -0.21224632611E+04  0.22677592657E+04  0.10100000352E+00 0.  1.
       -3    1    3    3    0  502  0.34012811810E+02  0.79795044389E+03  0.69019821772E+03  0.10555829537E+04  0.10100000352E+00 0. -1.
</event>
<event>
 5   0  0.6291798E-07  0.3018497E+04  0.7818609E-02  0.8238469E-01
        1   -1    0    0  501    0  0.00000000000E+00  0.00000000000E+00  0.14009971491E+04  0.14009971492E+04  0.50400001928E-02 0. -1.
       -1   -1    0    0    0  501  0.00000000000E+00  0.00000000000E+00 -0.16258638326E+04  0.16258638326E+04  0.50400001928E-02 0.  1.
    10030    2    1    2    0    0  0.00000000000E+00  0.00000000000E+00 -0.22486668349E+03  0.30268609818E+04  0.30184967083E+04 0.  0.
        1    1    3    3  502    0  0.33333995080E+02 -0.11040115946E+04 -0.11438152949E+04  0.15900522587E+04  0.50400001928E-02 0.  1.
       -1    1    3    3    0  502 -0.33333995080E+02  0.11040115946E+04  0.91894861146E+03  0.14368087231E+04  0.50400001928E-02 0. -1.
</event>
<event>
 5   0  0.5916703E-07  0.2978816E+04  0.7818609E-02  0.8249806E-01
       -1   -1    0    0    0  501  0.00000000000E+00  0.00000000000E+00  0.13926372529E+04  0.13926372530E+04  0.50400001928E-02 0.  1.
        1   -1    0    0  501    0  0.00000000000E+00  0.00000000000E+00 -0.15929034657E+04  0.15929034657E+04  0.50400001928E-02 0. -1.
    10030    2    1    2    0    0  0.00000000000E+00  0.00000000000E+00 -0.20026621272E+03  0.29855407186E+04  0.29788163466E+04 0.  0.
        5    1    3    3  502    0 -0.10641725004E+04 -0.12092830036E+03  0.93720468083E+03  0.14231870813E+04  0.46999998093E+01 0.  1.
       -5    1    3    3    0  502  0.10641725004E+04  0.12092830036E+03 -0.11374708936E+04  0.15623536374E+04  0.46999998093E+01 0. -1.
</event>
<event>
 5   0  0.1635086E-06  0.3024295E+04  0.7818609E-02  0.8236827E-01
       -2   -1    0    0    0  501  0.00000000000E+00  0.00000000000E+00  0.11560398305E+04  0.11560398305E+04  0.25500000920E-02 0.  1.
        2   -1    0    0  501    0  0.00000000000E+00  0.00000000000E+00 -0.19779515723E+04  0.19779515723E+04  0.25500000920E-02 0. -1.
    10030    2    1    2    0    0  0.00000000000E+00  0.00000000000E+00 -0.82191174180E+03  0.31339914028E+04  0.30242954884E+04 0.  0.
        3    1    3    3  502    0  0.69324725195E+03 -0.10578756333E+04  0.44789895985E+03  0.13417548570E+04  0.10100000352E+00 0.  1.
       -3    1    3    3    0  502 -0.69324725195E+03  0.10578756333E+04 -0.12698107016E+04  0.17922365458E+04  0.10100000352E+00 0. -1.
</event>
<event>
 5   0  0.1560174E-06  0.2997970E+04  0.7818609E-02  0.8244311E-01
        2   -1    0    0  501    0  0.00000000000E+00  0.00000000000E+00  0.17791620027E+04  0.17791620027E+04  0.25500000920E-02 0.  1.
       -2   -1    0    0    0  501  0.00000000000E+00  0.00000000000E+00 -0.12629297404E+04  0.12629297404E+04  0.25500000920E-02 0. -1.
    10030    2    1    2    0    0  0.00000000000E+00  0.00000000000E+00  0.51623226232E+03  0.30420917431E+04  0.29979703842E+04 0.  0.
        5    1    3    3  502    0 -0.26104158240E+03  0.14606399243E+04  0.47414084114E+03  0.15577045045E+04  0.46999998093E+01 0. -1.
       -5    1    3    3    0  502  0.26104158240E+03 -0.14606399243E+04  0.42091421172E+02  0.14843872385E+04  0.46999998093E+01 0.  1.
</event>
<event>
 5   0  0.1560174E-06  0.3001436E+04  0.7818609E-02  0.8243321E-01
       -2   -1    0    0    0  501  0.00000000000E+00  0.00000000000E+00  0.21087228162E+04  0.21087228162E+04  0.25500000920E-02 0.  1.
        2   -1    0    0  501    0  0.00000000000E+00  0.00000000000E+00 -0.10680179985E+04  0.10680179986E+04  0.25500000920E-02 0. -1.
    10030    2    1    2    0    0  0.00000000000E+00  0.00000000000E+00  0.10407048177E+04  0.31767408148E+04  0.30014356043E+04 0.  0.
        5    1    3    3  502    0  0.58424633801E+03 -0.46434390550E+03 -0.85768097455E+03  0.11369247073E+04  0.46999998093E+01 0. -1.
       -5    1    3    3    0  502 -0.58424633801E+03  0.46434390550E+03  0.18983857922E+04  0.20398161075E+04  0.46999998093E+01 0.  1.
</event>
<event>
 5   0  0.5874741E-07  0.2995995E+04  0.7818609E-02  0.8244875E-01
        1   -1    0    0  501    0  0.00000000000E+00  0.00000000000E+00  0.15285881785E+04  0.15285881785E+04  0.50400001928E-02 0. -1.
       -1   -1    0    0    0  501  0.00000000000E+00  0.00000000000E+00 -0.14680193452E+04  0.14680193452E+04  0.50400001928E-02 0.  1.
    10030    2    1    2    0    0  0.00000000000E+00  0.00000000000E+00  0.60568833292E+02  0.29966075238E+04  0.29959953384E+04 0.  0.
        4    1    3    3  502    0  0.32076595332E+03 -0.14615918077E+04 -0.39400436810E+02  0.14968952590E+04  0.12699999809E+01 0.  1.
       -4    1    3    3    0  502 -0.32076595332E+03  0.14615918077E+04  0.99969270103E+02  0.14997122647E+04  0.12699999809E+01 0. -1.
</event>
<event>
 5   0  0.5431625E-07  0.2992752E+04  0.7818609E-02  0.8245804E-01
        3   -1    0    0  501    0  0.00000000000E+00  0.00000000000E+00  0.72877914613E+03  0.72877915313E+03  0.10100000352E+00 0. -1.
       -3   -1    0    0    0  501  0.00000000000E+00  0.00000000000E+00 -0.30724544774E+04  0.30724544790E+04  0.10100000352E+00 0.  1.
    10030    2    1    2    0    0  0.00000000000E+00  0.00000000000E+00 -0.23436753312E+04  0.38012336321E+04  0.29927517552E+04 0.  0.
        2    1    3    3  502    0  0.12921901913E+04 -0.73316375895E+03 -0.13985372433E+04  0.20403899159E+04  0.25500000920E-02 0.  1.
       -2    1    3    3    0  502 -0.12921901913E+04  0.73316375895E+03 -0.94513808791E+03  0.17608437163E+04  0.25500000920E-02 0. -1.
</event>
<event>
 5   0  0.5874741E-07  0.3000607E+04  0.7818609E-02  0.8243558E-01
        1   -1    0    0  501    0  0.00000000000E+00  0.00000000000E+00  0.10931115506E+04  0.10931115507E+04  0.50400001928E-02 0. -1.
       -1   -1    0    0    0  501  0.00000000000E+00  0.00000000000E+00 -0.20591769748E+04  0.20591769748E+04  0.50400001928E-02 0.  1.
    10030    2    1    2    0    0  0.00000000000E+00  0.00000000000E+00 -0.96606542413E+03  0.31522885254E+04  0.30006066960E+04 0.  0.
        4    1    3    3  502    0  0.11767115641E+04  0.79557833138E+03  0.24409808471E+02  0.14206309999E+04  0.12699999809E+01 0. -1.
       -4    1    3    3    0  502 -0.11767115641E+04 -0.79557833138E+03 -0.99047523260E+03  0.17316575255E+04  0.12699999809E+01 0.  1.
</event>
<event>
 5   0  0.5887179E-07  0.3001036E+04  0.7818609E-02  0.8243435E-01
        1   -1    0    0  501    0  0.00000000000E+00  0.00000000000E+00  0.67615651046E+03  0.67615651048E+03  0.50400001928E-02 0. -1.
       -1   -1    0    0    0  501  0.00000000000E+00  0.00000000000E+00 -0.33299313374E+04  0.33299313374E+04  0.50400001928E-02 0.  1.
    10030    2    1    2    0    0  0.00000000000E+00  0.00000000000E+00 -0.26537748269E+04  0.40060878478E+04  0.30010363231E+04 0.  0.
        3    1    3    3  502    0  0.71270111092E+03  0.10802733938E+04 -0.23405526286E+04  0.26745317527E+04  0.10100000352E+00 0.  1.
       -3    1    3    3    0  502 -0.71270111092E+03 -0.10802733938E+04 -0.31322219829E+03  0.13315560951E+04  0.10100000352E+00 0. -1.
</event>
<event>
 5   0  0.5874741E-07  0.2931807E+04  0.7818609E-02  0.8263476E-01
       -1   -1    0    0    0  501  0.00000000000E+00  0.00000000000E+00  0.21605758992E+04  0.21605758992E+04  0.50400001928E-02 0. -1.
        1   -1    0    0  501    0  0.00000000000E+00  0.00000000000E+00 -0.99458341530E+03  0.99458341531E+03  0.50400001928E-02 0.  1.
    10030    2    1    2    0    0  0.00000000000E+00  0.00000000000E+00  0.11659924839E+04  0.31551593145E+04  0.29318069219E+04 0.  0.
        4    1    3    3  502    0 -0.11226449882E+04 -0.22149775738E+03  0.15690274691E+04  0.19419685471E+04  0.12699999809E+01 0. -1.
       -4    1    3    3    0  502  0.11226449882E+04  0.22149775738E+03 -0.40303498520E+03  0.12131907675E+04  0.12699999809E+01 0.  1.
</event>
<event>
 5   0  0.1635086E-06  0.2995992E+04  0.7818609E-02  0.8244876E-01
       -2   -1    0    0    0  501  0.00000000000E+00  0.00000000000E+00  0.13420475273E+04  0.13420475273E+04  0.25500000920E-02 0. -1.
        2   -1    0    0  501    0  0.00000000000E+00  0.00000000000E+00 -0.16720661257E+04  0.16720661257E+04  0.25500000920E-02 0.  1.
    10030    2    1    2    0    0  0.00000000000E+00  0.00000000000E+00 -0.33001859838E+03  0.30141136530E+04  0.29959921291E+04 0.  0.
        3    1    3    3  502    0  0.13588911736E+04  0.64372785734E+02 -0.79590935740E+03  0.15761347635E+04  0.10100000352E+00 0.  1.
       -3    1    3    3    0  502 -0.13588911736E+04 -0.64372785734E+02  0.46589075902E+03  0.14379788895E+04  0.10100000352E+00 0. -1.
</event>
<event>
 5   0  0.1560174E-06  0.2997411E+04  0.7818609E-02  0.8244471E-01
        2   -1    0    0  501    0  0.00000000000E+00  0.00000000000E+00  0.29478878771E+04  0.29478878771E+04  0.25500000920E-02 0.  1.
       -2   -1    0    0    0  501  0.00000000000E+00  0.00000000000E+00 -0.76194129833E+03  0.76194129834E+03  0.25500000920E-02 0. -1.
    10030    2    1    2    0    0  0.00000000000E+00  0.00000000000E+00  0.21859465788E+04  0.37098291755E+04  0.29974105601E+04 0.  0.
        5    1    3    3  502    0 -0.51225870504E+03  0.54247917339E+03 -0.51572382616E+03  0.90702028054E+03  0.46999998093E+01 0. -1.
       -5    1    3    3    0  502  0.51225870504E+03 -0.54247917339E+03  0.27016704049E+04  0.28028088949E+04  0.46999998093E+01 0.  1.
</event>
<event>
 5   0  0.1560174E-06  0.3010463E+04  0.7818609E-02  0.8240749E-01
        2   -1    0    0  501    0  0.00000000000E+00  0.00000000000E+00  0.11820287836E+04  0.11820287836E+04  0.25500000920E-02 0.  1.
       -2   -1    0    0    0  501  0.00000000000E+00  0.00000000000E+00 -0.19168082013E+04  0.19168082013E+04  0.25500000920E-02 0. -1.
    10030    2    1    2    0    0  0.00000000000E+00  0.00000000000E+00 -0.73477941771E+03  0.30988369849E+04  0.30104633973E+04 0.  0.
        5    1    3    3  502    0  0.24456116704E+03 -0.95189555522E+03 -0.15409385004E+04  0.18276840166E+04  0.46999998093E+01 0. -1.
       -5    1    3    3    0  502 -0.24456116704E+03  0.95189555522E+03  0.80615908266E+03  0.12711529684E+04  0.46999998093E+01 0.  1.
</event>
<event>
 5   0  0.6291798E-07  0.3002192E+04  0.7818609E-02  0.8243105E-01
        1   -1    0    0  501    0  0.00000000000E+00  0.00000000000E+00  0.96156434827E+03  0.96156434829E+03  0.50400001928E-02 0.  1.
       -1   -1    0    0    0  501  0.00000000000E+00  0.00000000000E+00 -0.23433578030E+04  0.23433578030E+04  0.50400001928E-02 0. -1.
    10030    2    1    2    0    0  0.00000000000E+00  0.00000000000E+00 -0.13817934547E+04  0.33049221513E+04  0.30021920782E+04 0.  0.
        1    1    3    3  502    0  0.14642941127E+04 -0.19395346492E+03 -0.98528375579E+03  0.17755447824E+04  0.50400001928E-02 0. -1.
       -1    1    3    3    0  502 -0.14642941127E+04  0.19395346492E+03 -0.39650969891E+03  0.15293773688E+04  0.50400001928E-02 0.  1.
</event>
<event>
 5   0  0.1723916E-06  0.3059744E+04  0.7818609E-02  0.8226873E-01
       -2   -1    0    0    0  501  0.00000000000E+00  0.00000000000E+00  0.13523016390E+04  0.13523016390E+04  0.25500000920E-02 0. -1.
        2   -1    0    0  501    0  0.00000000000E+00  0.00000000000E+00 -0.17307594434E+04  0.17307594434E+04  0.25500000920E-02 0.  1.
    10030    2    1    2    0    0  0.00000000000E+00  0.00000000000E+00 -0.37845780446E+03  0.30830610824E+04  0.30597443239E+04 0.  0.
        1    1    3    3  502    0  0.13792631904E+04  0.18176677588E+03  0.45209816900E+03  0.14628051352E+04  0.50400001928E-02 0. -1.
       -1    1    3    3    0  502 -0.13792631904E+04 -0.18176677588E+03 -0.83055597346E+03  0.16202559472E+04  0.50400001928E-02 0.  1.
</event>
<event>
 5   0  0.1723916E-06  0.3071308E+04  0.7818609E-02  0.8223657E-01
       -2   -1    0    0    0  501  0.00000000000E+00  0.00000000000E+00  0.71067071750E+03  0.71067071750E+03  0.25500000920E-02 0.  1.
        2   -1    0    0  501    0  0.00000000000E+00  0.00000000000E+00 -0.33183204104E+04  0.33183204104E+04  0.25500000920E-02 0. -1.
    10030    2    1    2    0    0  0.00000000000E+00  0.00000000000E+00 -0.26076496929E+04  0.40289911279E+04  0.30713079604E+04 0.  0.
        1    1    3    3  502    0  0.59290088494E+03 -0.30939415287E+03  0.50960462500E+03  0.84080501607E+03  0.50400001928E-02 0.  1.
       -1    1    3    3    0  502 -0.59290088494E+03  0.30939415287E+03 -0.31172543179E+04  0.31881861119E+04  0.50400001928E-02 0. -1.
</event>
<event>
 5   0  0.5887179E-07  0.2993941E+04  0.7818609E-02  0.8245463E-01
       -1   -1    0    0    0  501  0.00000000000E+00  0.00000000000E+00  0.12052384706E+04  0.12052384706E+04  0.50400001928E-02 0. -1.
        1   -1    0    0  501    0  0.00000000000E+00  0.00000000000E+00 -0.18593166503E+04  0.18593166504E+04  0.50400001928E-02 0.  1.
    10030    2    1    2    0    0  0.00000000000E+00  0.00000000000E+00 -0.65407817972E+03  0.30645551210E+04  0.29939405178E+04 0.  0.
        3    1    3    3  502    0 -0.11518217435E+04 -0.65798709005E+03  0.38306661095E+03  0.13807173418E+04  0.10100000352E+00 0.  1.
       -3    1    3    3    0  502  0.11518217435E+04  0.65798709005E+03 -0.10371447907E+04  0.16838377791E+04  0.10100000352E+00 0. -1.
</event>
<event>
 5   0  0.1625212E-06  0.3000066E+04  0.7818609E-02  0.8243712E-01
        2   -1    0    0  501    0  0.00000000000E+00  0.00000000000E+00  0.13882102571E+04  0.13882102571E+04  0.25500000920E-02 0.  1.
       -2   -1    0    0    0  501  0.00000000000E+00  0.00000000000E+00 -0.16208633782E+04  0.16208633782E+04  0.25500000920E-02 0. -1.
    10030    2    1    2    0    0  0.00000000000E+00  0.00000000000E+00 -0.23265312111E+03  0.30090736352E+04  0.30000661105E+04 0.  0.
        4    1    3    3  502    0 -0.61086766091E+03 -0.13359831256E+04  0.18804352153E+03  0.14810037778E+04  0.12699999809E+01 0.  1.
       -4    1    3    3    0  502  0.61086766091E+03  0.13359831256E+04 -0.42069664264E+03  0.15280698574E+04  0.12699999809E+01 0. -1.
</event>
<event>
 5   0  0.5931588E-07  0.3014881E+04  0.7818609E-02  0.8239494E-01
       -1   -1    0    0    0  501  0.00000000000E+00  0.00000000000E+00  0.17609731104E+04  0.17609731104E+04  0.50400001928E-02 0. -1.
        1   -1    0    0  501    0  0.00000000000E+00  0.00000000000E+00 -0.12904096523E+04  0.12904096523E+04  0.50400001928E-02 0.  1.
    10030    2    1    2    0    0  0.00000000000E+00  0.00000000000E+00  0.47056345806E+03  0.30513827627E+04  0.30148808926E+04 0.  0.
        2    1    3    3  502    0 -0.14774971131E+04 -0.25174849977E+03  0.72079091150E+02  0.15005233826E+04  0.25500000920E-02 0. -1.
       -2    1    3    3    0  502  0.14774971131E+04  0.25174849977E+03  0.39848436691E+03  0.15508593801E+04  0.25500000920E-02 0.  1.
</event>
<event>
 5   0  0.1674806E-06  0.2999758E+04  0.7818609E-02  0.8243800E-01
       -2   -1    0    0    0  501  0.00000000000E+00  0.00000000000E+00  0.13776756911E+04  0.13776756911E+04  0.25500000920E-02 0. -1.
        2   -1    0    0  501    0  0.00000000000E+00  0.00000000000E+00 -0.16329222568E+04  0.16329222568E+04  0.25500000920E-02 0.  1.
    10030    2    1    2    0    0  0.00000000000E+00  0.00000000000E+00 -0.25524656569E+03  0.30105979478E+04  0.29997581893E+04 0.  0.
        2    1    3    3  502    0 -0.80035708222E+03 -0.68299709304E+03  0.94515500841E+03  0.14143459542E+04  0.25500000920E-02 0. -1.
       -2    1    3    3    0  502  0.80035708222E+03  0.68299709304E+03 -0.12004015741E+04  0.15962519937E+04  0.25500000920E-02 0.  1.
</event>
<event>
 5   0  0.6291798E-07  0.2997170E+04  0.7818609E-02  0.8244540E-01
        1   -1    0    0  501    0  0.00000000000E+00  0.00000000000E+00  0.11124801152E+04  0.11124801152E+04  0.50400001928E-02 0.  1.
       -1   -1    0    0    0  501  0.00000000000E+00  0.00000000000E+00 -0.20186937349E+04  0.20186937349E+04  0.50400001928E-02 0. -1.
    10030    2    1    2    0    0  0.00000000000E+00  0.00000000000E+00 -0.90621361971E+03  0.31311738501E+04  0.29971697575E+04 0.  0.
        1    1    3    3  502    0  0.56779779847E+03  0.29916195734E+03  0.96164237411E+03  0.11561350580E+04  0.50400001928E-02 0.  1.
       -1    1    3    3    0  502 -0.56779779847E+03 -0.29916195734E+03 -0.18678559938E+04  0.19750387921E+04  0.50400001928E-02 0. -1.
</event>
<event>
 5   0  0.1674806E-06  0.3042155E+04  0.7818609E-02  0.8231795E-01
       -2   -1    0    0    0  501  0.00000000000E+00  0.00000000000E+00  0.17395424404E+04  0.17395424404E+04  0.25500000920E-02 0.  1.
        2   -1    0    0  501    0  0.00000000000E+00  0.00000000000E+00 -0.13300491523E+04  0.13300491523E+04  0.25500000920E-02 0. -1.
    10030    2    1    2    0    0  0.00000000000E+00  0.00000000000E+00  0.40949328814E+03  0.30695915927E+04  0.30421551231E+04 0.  0.
        2    1    3    3  502    0  0.91156743144E+03  0.11963080069E+04  0.43388260545E+03  0.15653632629E+04  0.25500000920E-02 0.  1.
       -2    1    3    3    0  502 -0.91156743144E+03 -0.11963080069E+04 -0.24389317311E+02  0.15042283298E+04  0.25500000920E-02 0. -1.
</event>
<event>
 5   0  0.1560174E-06  0.2980158E+04  0.7818609E-02  0.8249420E-01
        2   -1    0    0  501    0  0.00000000000E+00  0.00000000000E+00  0.20101767086E+04  0.20101767086E+04  0.25500000920E-02 0. -1.
       -2   -1    0    0    0  501  0.00000000000E+00  0.00000000000E+00 -0.11045473361E+04  0.11045473361E+04  0.25500000920E-02 0.  1.
    10030    2    1    2    0    0  0.00000000000E+00  0.00000000000E+00  0.90562937251E+03  0.31147240447E+04  0.29801579345E+04 0.  0.
        5    1    3    3  502    0 -0.13725961113E+04  0.57962105932E+03  0.43375440082E+03  0.15518201015E+04  0.46999998093E+01 0. -1.
       -5    1    3    3    0  502  0.13725961113E+04 -0.57962105932E+03  0.47187497170E+03  0.15629039433E+04  0.46999998093E+01 0.  1.
</event>
<event>
 5   0  0.1560174E-06  0.2993418E+04  0.7818609E-02  0.8245613E-01
        2   -1    0    0  501    0  0.00000000000E+00  0.00000000000E+00  0.20900214582E+04  0.20900214582E+04  0.25500000920E-02 0. -1.
       -2   -1    0    0    0  501  0.00000000000E+00  0.00000000000E+00 -0.10718249247E+04  0.10718249247E+04  0.25500000920E-02 0.  1.
    10030    2    1    2    0    0  0.00000000000E+00  0.00000000000E+00  0.10181965335E+04  0.31618463829E+04  0.29934175065E+04 0.  0.
        5    1    3    3  502    0  0.76575591712E+03  0.72507515291E+03 -0.61273369693E+03  0.12196642060E+04  0.46999998093E+01 0.  1.
       -5    1    3    3    0  502 -0.76575591712E+03 -0.72507515291E+03  0.16309302304E+04  0.19421821770E+04  0.46999998093E+01 0. -1.
</event>
<event>
 5   0  0.1560174E-06  0.3018776E+04  0.7818609E-02  0.8238389E-01
       -2   -1    0    0    0  501  0.00000000000E+00  0.00000000000E+00  0.10962359711E+04  0.10962359711E+04  0.25500000920E-02 0. -1.
        2   -1    0    0  501    0  0.00000000000E+00  0.00000000000E+00 -0.20782500861E+04  0.20782500861E+04  0.25500000920E-02 0.  1.
    10030    2    1    2    0    0  0.00000000000E+00  0.00000000000E+00 -0.98201411499E+03  0.31744860572E+04  0.30187762430E+04 0.  0.
        5    1    3    3  502    0 -0.30035172405E+03  0.40328955887E+02  0.10639077432E+04  0.11062365745E+04  0.46999998093E+01 0. -1.
       -5    1    3    3    0  502  0.30035172405E+03 -0.40328955887E+02 -0.20459218582E+04  0.20682494827E+04  0.46999998093E+01 0.  1.
</event>
<event>
 5   0  0.6291798E-07  0.2988986E+04  0.7818609E-02  0.8246883E-01
        1   -1    0    0  501    0  0.00000000000E+00  0.00000000000E+00  0.17358622068E+04  0.17358622069E+04  0.50400001928E-02 0.  1.
       -1   -1    0    0    0  501  0.00000000000E+00  0.00000000000E+00 -0.12866860922E+04  0.12866860922E+04  0.50400001928E-02 0. -1.
    10030    2    1    2    0    0  0.00000000000E+00  0.00000000000E+00  0.44917611465E+03  0.30225482991E+04  0.29889862894E+04 0.  0.
        1    1    3    3  502    0  0.31077615613E+03  0.14030525386E+04 -0.19035034979E+03  0.14496108102E+04  0.50400001928E-02 0. -1.
       -1    1    3    3    0  502 -0.31077615613E+03 -0.14030525386E+04  0.63952646445E+03  0.15729374889E+04  0.50400001928E-02 0.  1.
</event>
<event>
 5   0  0.5887179E-07  0.2991640E+04  0.7818609E-02  0.8246122E-01
       -1   -1    0    0    0  501  0.00000000000E+00  0.00000000000E+00  0.98905280846E+03  0.98905280847E+03  0.50400001928E-02 0. -1.
        1   -1    0    0  501    0  0.00000000000E+00  0.00000000000E+00 -0.22622429902E+04  0.22622429903E+04  0.50400001928E-02 0.  1.
    10030    2    1    2    0    0  0.00000000000E+00  0.00000000000E+00 -0.12731901818E+04  0.32512957987E+04  0.29916402076E+04 0.  0.
        3    1    3    3  502    0  0.12069870415E+04  0.80132985682E+03 -0.10410963200E+04  0.17840484342E+04  0.10100000352E+00 0. -1.
       -3    1    3    3    0  502 -0.12069870415E+04 -0.80132985682E+03 -0.23209386175E+03  0.14672473645E+04  0.10100000352E+00 0.  1.
</event>
<event>
 5   0  0.5887179E-07  0.2984092E+04  0.7818609E-02  0.8248288E-01
       -1   -1    0    0    0  501  0.00000000000E+00  0.00000000000E+00  0.16430937893E+04  0.16430937893E+04  0.50400001928E-02 0.  1.
        1   -1    0    0  501    0  0.00000000000E+00  0.00000000000E+00 -0.13548835951E+04  0.13548835951E+04  0.50400001928E-02 0. -1.
    10030    2    1    2    0    0  0.00000000000E+00  0.00000000000E+00  0.28821019425E+03  0.29979773844E+04  0.29840917012E+04 0.  0.
        3    1    3    3  502    0  0.13720519539E+04  0.21361386300E+03 -0.40436873935E+03  0.14462612261E+04  0.10100000352E+00 0. -1.
       -3    1    3    3    0  502 -0.13720519539E+04 -0.21361386300E+03  0.69257893360E+03  0.15517161583E+04  0.10100000352E+00 0.  1.
</event>
<event>
 5   0  0.1723916E-06  0.2996987E+04  0.7818609E-02  0.8244592E-01
       -2   -1    0    0    0  501  0.00000000000E+00  0.00000000000E+00  0.11922048498E+04  0.11922048498E+04  0.25500000920E-02 0.  1.
        2   -1    0    0  501    0  0.00000000000E+00  0.00000000000E+00 -0.18834707015E+04  0.18834707015E+04  0.25500000920E-02 0. -1.
    10030    2    1    2    0    0  0.00000000000E+00  0.00000000000E+00 -0.69126585169E+03  0.30756755513E+04  0.29969870902E+04 0.  0.
        1    1    3    3  502    0 -0.22469257748E+03  0.71976995139E+03  0.98332972122E+03  0.12391500627E+04  0.50400001928E-02 0.  1.
       -1    1    3    3    0  502  0.22469257748E+03 -0.71976995139E+03 -0.16745955729E+04  0.18365254886E+04  0.50400001928E-02 0. -1.
</event>
<event>
 5   0  0.5916703E-07  0.2999941E+04  0.7818609E-02  0.8243748E-01
        1   -1    0    0  501    0  0.00000000000E+00  0.00000000000E+00  0.13512272101E+04  0.13512272101E+04  0.50400001928E-02 0. -1.
       -1   -1    0    0    0  501  0.00000000000E+00  0.00000000000E+00 -0.16650875253E+04  0.16650875253E+04  0.50400001928E-02 0.  1.
    10030    2    1    2    0    0  0.00000000000E+00  0.00000000000E+00 -0.31386031521E+03  0.30163147354E+04  0.29999410470E+04 0.  0.
        5    1    3    3  502    0  0.13459309793E+04  0.92324919894E+02 -0.81612685081E+03  0.15767495738E+04  0.46999998093E+01 0.  1.
       -5    1    3    3    0  502 -0.13459309793E+04 -0.92324919894E+02  0.50226653560E+03  0.14395651616E+04  0.46999998093E+01 0. -1.
</event>
<event>
 5   0  0.1723916E-06  0.3014445E+04  0.7818609E-02  0.8239618E-01
        2   -1    0    0  501    0  0.00000000000E+00  0.00000000000E+00  0.21740161698E+04  0.21740161698E+04  0.25500000920E-02 0. -1.
       -2   -1    0    0    0  501  0.00000000000E+00  0.00000000000E+00 -0.10449414265E+04  0.10449414265E+04  0.25500000920E-02 0.  1.
    10030    2    1    2    0    0  0.00000000000E+00  0.00000000000E+00  0.11290747433E+04  0.32189575962E+04  0.30144449291E+04 0.  0.
        1    1    3    3  502    0  0.13873095050E+04  0.40211610042E+03  0.10475071084E+03  0.14482050036E+04  0.50400001928E-02 0.  1.
       -1    1    3    3    0  502 -0.13873095050E+04 -0.40211610042E+03  0.10243240324E+04  0.17707525927E+04  0.50400001928E-02 0. -1.
</event>
<event>
 5   0  0.1635086E-06  0.3019490E+04  0.7818609E-02  0.8238187E-01
        2   -1    0    0  501    0  0.00000000000E+00  0.00000000000E+00  0.20352595809E+04  0.20352595809E+04  0.25500000920E-02 0.  1.
       -2   -1    0    0    0  501  0.00000000000E+00  0.00000000000E+00 -0.11199208787E+04  0.11199208787E+04  0.25500000920E-02 0. -1.
    10030    2    1    2    0    0  0.00000000000E+00  0.00000000000E+00  0.91533870225E+03  0.31551804596E+04  0.30194898233E+04 0.  0.
        3    1    3    3  502    0 -0.68228485888E+03  0.41487047419E+03  0.17965364606E+04  0.19660044261E+04  0.10100000352E+00 0.  1.
       -3    1    3    3    0  502  0.68228485888E+03 -0.41487047419E+03 -0.88119775838E+03  0.11891760335E+04  0.10100000352E+00 0. -1.
</event>
<event>
 5   0  0.1674806E-06  0.3021901E+04  0.7818609E-02  0.8237505E-01
        2   -1    0    0  501    0  0.00000000000E+00  0.00000000000E+00  0.18506823619E+04  0.18506823619E+04  0.25500000920E-02 0.  1.
       -2   -1    0    0    0  501  0.00000000000E+00  0.00000000000E+00 -0.12335832582E+04  0.12335832582E+04  0.25500000920E-02 0. -1.
    10030    2    1    2    0    0  0.00000000000E+00  0.00000000000E+00  0.61709910365E+03  0.30842656201E+04  0.30219005794E+04 0.  0.
        2    1    3    3  502    0 -0.28834210536E+03 -0.15998360955E+03 -0.11964099993E+04  0.12410208747E+04  0.25500000920E-02 0. -1.
       -2    1    3    3    0  502  0.28834210536E+03  0.15998360955E+03  0.18135091029E+04  0.18432447454E+04  0.25500000920E-02 0.  1.
</event>
<event>
 5   0  0.5931588E-07  0.2981307E+04  0.7818609E-02  0.8249089E-01
       -1   -1    0    0    0  501  0.00000000000E+00  0.00000000000E+00  0.11608703095E+04  0.11608703095E+04  0.50400001928E-02 0.  1.
        1   -1    0    0  501    0  0.00000000000E+00  0.00000000000E+00 -0.19141225087E+04  0.19141225087E+04  0.50400001928E-02 0. -1.
    10030    2    1    2    0    0  0.00000000000E+00  0.00000000000E+00 -0.75325219915E+03  0.30749928182E+04  0.29813070886E+04 0.  0.
        2    1    3    3  502    0 -0.93773015515E+03 -0.11356404695E+04 -0.13910523443E+03  0.14793131467E+04  0.25500000920E-02 0.  1.
       -2    1    3    3    0  502  0.93773015515E+03  0.11356404695E+04 -0.61414696472E+03  0.15956796715E+04  0.25500000920E-02 0. -1.
</event>
<event>
 5   0  0.1560174E-06  0.2998180E+04  0.7818609E-02  0.8244251E-01
       -2   -1    0    0    0  501  0.00000000000E+00  0.00000000000E+00  0.14293726406E+04  0.14293726406E+04  0.25500000920E-02 0.  1.
        2   -1    0    0  501    0  0.00000000000E+00  0.00000000000E+00 -0.15722076044E+04  0.15722076044E+04  0.25500000920E-02 0. -1.
    10030    2    1    2    0    0  0.00000000000E+00  0.00000000000E+00 -0.14283496378E+03  0.30015802450E+04  0.29981798045E+04 0.  0.
        5    1    3    3  502    0  0.86804137103E+03 -0.77061973695E+03 -0.10211228431E+04  0.15459833607E+04  0.46999998093E+01 0. -1.
       -5    1    3    3    0  502 -0.86804137103E+03  0.77061973695E+03  0.87828787928E+03  0.14555968843E+04  0.46999998093E+01 0.  1.
</event>
<event>
 5   0  0.5431625E-07  0.3003642E+04  0.7818609E-02  0.8242692E-01
       -3   -1    0    0    0  501  0.00000000000E+00  0.00000000000E+00  0.18964184649E+04  0.18964184676E+04  0.10100000352E+00 0.  1.
        3   -1    0    0  501    0  0.00000000000E+00  0.00000000000E+00 -0.11893293053E+04  0.11893293096E+04  0.10100000352E+00 0. -1.
    10030    2    1    2    0    0  0.00000000000E+00  0.00000000000E+00  0.70708915958E+03  0.30857477771E+04  0.30036418336E+04 0.  0.
        5    1    3    3  502    0  0.59386387799E+03  0.94147544845E+03  0.13892667009E+04  0.17802062751E+04  0.46999998093E+01 0.  1.
       -5    1    3    3    0  502 -0.59386387799E+03 -0.94147544845E+03 -0.68217754135E+03  0.13055415020E+04  0.46999998093E+01 0. -1.
</event>
<event>
 5   0  0.1560174E-06  0.2969971E+04  0.7818609E-02  0.8252358E-01
        2   -1    0    0  501    0  0.00000000000E+00  0.00000000000E+00  0.21873292056E+04  0.21873292056E+04  0.25500000920E-02 0. -1.
       -2   -1    0    0    0  501  0.00000000000E+00  0.00000000000E+00 -0.10081616013E+04  0.10081616013E+04  0.25500000920E-02 0.  1.
    10030    2    1    2    0    0  0.00000000000E+00  0.00000000000E+00  0.11791676042E+04  0.31954908069E+04  0.29699705821E+04 0.  0.
        5    1    3    3  502    0 -0.34914596949E+03  0.24315383295E+03 -0.94116841502E+03  0.10328827474E+04  0.46999998093E+01 0.  1.
       -5    1    3    3    0  502  0.34914596949E+03 -0.24315383295E+03  0.21203360193E+04  0.21626080595E+04  0.46999998093E+01 0. -1.
</event>
<event>
 5   0  0.1723916E-06  0.3015201E+04  0.7818609E-02  0.8239403E-01
        2   -1    0    0  501    0  0.00000000000E+00  0.00000000000E+00  0.18340575094E+04  0.18340575094E+04  0.25500000920E-02 0.  1.
       -2   -1    0    0    0  501  0.00000000000E+00  0.00000000000E+00 -0.12392522052E+04  0.12392522052E+04  0.25500000920E-02 0. -1.
    10030    2    1    2    0    0  0.00000000000E+00  0.00000000000E+00  0.59480530421E+03  0.30733097147E+04  0.30152013618E+04 0.  0.
        1    1    3    3  502    0 -0.12403325662E+03 -0.12260163867E+04 -0.58787429815E+03  0.13653192373E+04  0.50400001928E-02 0. -1.
       -1    1    3    3    0  502  0.12403325662E+03  0.12260163867E+04  0.11826796024E+04  0.17079904774E+04  0.50400001928E-02 0.  1.
</event>
<event>
 5   0  0.1625212E-06  0.3005370E+04  0.7818609E-02  0.8242199E-01
        2   -1    0    0  501    0  0.00000000000E+00  0.00000000000E+00  0.18642193970E+04  0.18642193970E+04  0.25500000920E-02 0. -1.
       -2   -1    0    0    0  501  0.00000000000E+00  0.00000000000E+00 -0.12112641660E+04  0.12112641660E+04  0.25500000920E-02 0.  1.
    10030    2    1    2    0    0  0.00000000000E+00  0.00000000000E+00  0.65295523103E+03  0.30754835630E+04  0.30053699627E+04 0.  0.
        4    1    3    3  502    0 -0.14501985277E+04 -0.91326615611E+01 -0.76279378730E+02  0.14522325337E+04  0.12699999809E+01 0. -1.
       -4    1    3    3    0  502  0.14501985277E+04  0.91326615611E+01  0.72923460975E+03  0.16232510294E+04  0.12699999809E+01 0.  1.
</event>
<event>
 5   0  0.5931588E-07  0.2985701E+04  0.7818609E-02  0.8247826E-01
       -1   -1    0    0    0  501  0.00000000000E+00  0.00000000000E+00  0.11930002364E+04  0.11930002364E+04  0.50400001928E-02 0.  1.
        1   -1    0    0  501    0  0.00000000000E+00  0.00000000000E+00 -0.18680649838E+04  0.18680649838E+04  0.50400001928E-02 0. -1.
    10030    2    1    2    0    0  0.00000000000E+00  0.00000000000E+00 -0.67506474741E+03  0.30610652202E+04  0.29857005659E+04 0.  0.
        2    1    3    3  502    0  0.12107080167E+04  0.86926707778E+03 -0.42430208305E+03  0.15496681618E+04  0.25500000920E-02 0.  1.
       -2    1    3    3    0  502 -0.12107080167E+04 -0.86926707778E+03 -0.25076266436E+03  0.15113970584E+04  0.25500000920E-02 0. -1.
</event>
<event>
 5   0  0.5931588E-07  0.2993177E+04  0.7818609E-02  0.8245682E-01
        1   -1    0    0  501    0  0.00000000000E+00  0.00000000000E+00  0.22373859438E+04  0.22373859438E+04  0.50400001928E-02 0. -1.
       -1   -1    0    0    0  501  0.00000000000E+00  0.00000000000E+00 -0.10010690499E+04  0.10010690499E+04  0.50400001928E-02 0.  1.
    10030    2    1    2    0    0  0.00000000000E+00  0.00000000000E+00  0.12363168939E+04  0.32384549937E+04  0.29931774562E+04 0.  0.
        2    1    3    3  502    0  0.82776252733E+03 -0.97492542939E+03  0.14590935618E+04  0.19402640069E+04  0.25500000920E-02 0. -1.
       -2    1    3    3    0  502 -0.82776252733E+03  0.97492542939E+03 -0.22277666781E+03  0.12981909868E+04  0.25500000920E-02 0.  1.
</event>
<event>
 5   0  0.1560174E-06  0.2997540E+04  0.7818609E-02  0.8244434E-01
        2   -1    0    0  501    0  0.00000000000E+00  0.00000000000E+00  0.23955017375E+04  0.23955017375E+04  0.25500000920E-02 0.  1.
       -2   -1    0    0    0  501  0.00000000000E+00  0.00000000000E+00 -0.93772068831E+03  0.93772068832E+03  0.25500000920E-02 0. -1.
    10030    2    1    2    0    0  0.00000000000E+00  0.00000000000E+00  0.14577810492E+04  0.33332224258E+04  0.29975400169E+04 0.  0.
        5    1    3    3  502    0 -0.12470208403E+04  0.83041995436E+03  0.68397989778E+03  0.16469696012E+04  0.46999998093E+01 0.  1.
       -5    1    3    3    0  502  0.12470208403E+04 -0.83041995436E+03  0.77380115143E+03  0.16862528246E+04  0.46999998093E+01 0. -1.
</event>
<event>
 5   0  0.1635086E-06  0.2908243E+04  0.7818609E-02  0.8270429E-01
       -2   -1    0    0    0  501  0.00000000000E+00  0.00000000000E+00  0.14343653040E+04  0.14343653040E+04  0.25500000920E-02 0. -1.
        2   -1    0    0  501    0  0.00000000000E+00  0.00000000000E+00 -0.14741494692E+04  0.14741494692E+04  0.25500000920E-02 0.  1.
    10030    2    1    2    0    0  0.00000000000E+00  0.00000000000E+00 -0.39784165147E+02  0.29085147732E+04  0.29082426664E+04 0.  0.
        3    1    3    3  502    0  0.14510542371E+03  0.12143151244E+04 -0.80663717863E+03  0.14650188918E+04  0.10100000352E+00 0.  1.
       -3    1    3    3    0  502 -0.14510542371E+03 -0.12143151244E+04  0.76685301348E+03  0.14434958814E+04  0.10100000352E+00 0. -1.
</event>
<event>
 5   0  0.5931588E-07  0.3000112E+04  0.7818609E-02  0.8243699E-01
        1   -1    0    0  501    0  0.00000000000E+00  0.00000000000E+00  0.24413622347E+04  0.24413622347E+04  0.50400001928E-02 0.  1.
       -1   -1    0    0    0  501  0.00000000000E+00  0.00000000000E+00 -0.92168552242E+03  0.92168552243E+03  0.50400001928E-02 0. -1.
    10030    2    1    2    0    0  0.00000000000E+00  0.00000000000E+00  0.15196767123E+04  0.33630477571E+04  0.30001121490E+04 0.  0.
        2    1    3    3  502    0  0.47746954644E+03  0.97236501402E+03 -0.40332942665E+03  0.11559176072E+04  0.25500000920E-02 0. -1.
       -2    1    3    3    0  502 -0.47746954644E+03 -0.97236501402E+03  0.19230061389E+04  0.22071301499E+04  0.25500000920E-02 0.  1.
</event>
<event>
 5   0  0.1625212E-06  0.2990903E+04  0.7818609E-02  0.8246333E-01
       -2   -1    0    0    0  501  0.00000000000E+00  0.00000000000E+00  0.74025578337E+03  0.74025578338E+03  0.25500000920E-02 0. -1.
        2   -1    0    0  501    0  0.00000000000E+00  0.00000000000E+00 -0.30210846125E+04  0.30210846125E+04  0.25500000920E-02 0.  1.
    10030    2    1    2    0    0  0.00000000000E+00  0.00000000000E+00 -0.22808288292E+04  0.37613403959E+04  0.29909031121E+04 0.  0.
        4    1    3    3  502    0 -0.12783984008E+04  0.63129771390E+03 -0.17077751510E+04  0.22247105102E+04  0.12699999809E+01 0.  1.
       -4    1    3    3    0  502  0.12783984008E+04 -0.63129771390E+03 -0.57305367819E+03  0.15366298858E+04  0.12699999809E+01 0. -1.
</event>
<event>
 5   0  0.5874741E-07  0.3006855E+04  0.7818609E-02  0.8241776E-01
        1   -1    0    0  501    0  0.00000000000E+00  0.00000000000E+00  0.21530395512E+04  0.21530395512E+04  0.50400001928E-02 0.  1.
       -1   -1    0    0    0  501  0.00000000000E+00  0.00000000000E+00 -0.10498155641E+04  0.10498155641E+04  0.50400001928E-02 0. -1.
    10030    2    1    2    0    0  0.00000000000E+00  0.00000000000E+00  0.11032239872E+04  0.32028551153E+04  0.30068551219E+04 0.  0.
        4    1    3    3  502    0 -0.13470205116E+04 -0.35419690057E+03 -0.51298471270E+02  0.13937549459E+04  0.12699999809E+01 0. -1.
       -4    1    3    3    0  502  0.13470205116E+04  0.35419690057E+03  0.11545224584E+04  0.18091001694E+04  0.12699999809E+01 0.  1.
</event>
<event>
 5   0  0.5887179E-07  0.2974600E+04  0.7818609E-02  0.8251021E-01
       -1   -1    0    0    0  501  0.00000000000E+00  0.00000000000E+00  0.14821400175E+04  0.14821400175E+04  0.50400001928E-02 0. -1.
        1   -1    0    0  501    0  0.00000000000E+00  0.00000000000E+00 -0.14924781004E+04  0.14924781004E+04  0.50400001928E-02 0.  1.
    10030    2    1    2    0    0  0.00000000000E+00  0.00000000000E+00 -0.10338082958E+02  0.29746181179E+04  0.29746001532E+04 0.  0.
        3    1    3    3  502    0 -0.76177966453E+03  0.44077136461E+03 -0.12041232597E+04  0.14914759428E+04  0.10100000352E+00 0.  1.
       -3    1    3    3    0  502  0.76177966453E+03 -0.44077136461E+03  0.11937851767E+04  0.14831421751E+04  0.10100000352E+00 0. -1.
</event>
<event>
 5   0  0.1723916E-06  0.2995623E+04  0.7818609E-02  0.8244982E-01
       -2   -1    0    0    0  501  0.00000000000E+00  0.00000000000E+00  0.13361211936E+04  0.13361211936E+04  0.25500000920E-02 0. -1.
        2   -1    0    0  501    0  0.00000000000E+00  0.00000000000E+00 -0.16790685543E+04  0.16790685543E+04  0.25500000920E-02 0.  1.
    10030    2    1    2    0    0  0.00000000000E+00  0.00000000000E+00 -0.34294736074E+03  0.30151897479E+04  0.29956228607E+04 0.  0.
        1    1    3    3  502    0 -0.88090326520E+03  0.11726939426E+04  0.13421624149E+03  0.14728257348E+04  0.50400001928E-02 0. -1.
       -1    1    3    3    0  502  0.88090326520E+03 -0.11726939426E+04 -0.47716360223E+03  0.15423640131E+04  0.50400001928E-02 0.  1.
</event>
<event>
 5   0  0.5931588E-07  0.3014081E+04  0.7818609E-02  0.8239721E-01
       -1   -1    0    0    0  501  0.00000000000E+00  0.00000000000E+00  0.10160050994E+04  0.10160050994E+04  0.50400001928E-02 0.  1.
        1   -1    0    0  501    0  0.00000000000E+00  0.00000000000E+00 -0.22353930670E+04  0.22353930670E+04  0.50400001928E-02 0. -1.
    10030    2    1    2    0    0  0.00000000000E+00  0.00000000000E+00 -0.12193879675E+04  0.32513981664E+04  0.30140807921E+04 0.  0.
        2    1    3    3  502    0  0.23698509470E+03 -0.14492977998E+04 -0.97478637421E+03  0.17626214917E+04  0.25500000920E-02 0.  1.
       -2    1    3    3    0  502 -0.23698509470E+03  0.14492977998E+04 -0.24460159334E+03  0.14887766747E+04  0.25500000920E-02 0. -1.
</event>
<event>
 5   0  0.1723916E-06  0.3035689E+04  0.7818609E-02  0.8233613E-01
       -2   -1    0    0    0  501  0.00000000000E+00  0.00000000000E+00  0.13689111474E+04  0.13689111474E+04  0.25500000920E-02 0. -1.
        2   -1    0    0  501    0  0.00000000000E+00  0.00000000000E+00 -0.16829807937E+04  0.16829807937E+04  0.25500000920E-02 0.  1.
    10030    2    1    2    0    0  0.00000000000E+00  0.00000000000E+00 -0.31406964630E+03  0.30518919412E+04  0.30356885015E+04 0.  0.
        1    1    3    3  502    0  0.13865898929E+04 -0.56015563816E+03  0.10405370513E+03  0.14990773975E+04  0.50400001928E-02 0.  1.
       -1    1    3    3    0  502 -0.13865898929E+04  0.56015563816E+03 -0.41812335143E+03  0.15528145437E+04  0.50400001928E-02 0. -1.
</event>
<event>
 5   0  0.1635086E-06  0.3049283E+04  0.7818609E-02  0.8229796E-01
       -2   -1    0    0    0  501  0.00000000000E+00  0.00000000000E+00  0.14685731927E+04  0.14685731927E+04  0.25500000920E-02 0. -1.
        2   -1    0    0  501    0  0.00000000000E+00  0.00000000000E+00 -0.15828501294E+04  0.15828501294E+04  0.25500000920E-02 0.  1.
    10030    2    1    2    0    0  0.00000000000E+00  0.00000000000E+00 -0.11427693672E+03  0.30514233221E+04  0.30492827144E+04 0.  0.
        3    1    3    3  502    0 -0.13353323139E+04  0.27447690389E+02 -0.79295424579E+03  0.15532682352E+04  0.10100000352E+00 0.  1.
       -3    1    3    3    0  502  0.13353323139E+04 -0.27447690389E+02  0.67867730907E+03  0.14981550869E+04  0.10100000352E+00 0. -1.
</event>
<event>
 5   0  0.6291798E-07  0.3002931E+04  0.7818609E-02  0.8242894E-01
       -1   -1    0    0    0  501  0.00000000000E+00  0.00000000000E+00  0.12964918190E+04  0.12964918190E+04  0.50400001928E-02 0.  1.
        1   -1    0    0  501    0  0.00000000000E+00  0.00000000000E+00 -0.17388450397E+04  0.17388450397E+04  0.50400001928E-02 0. -1.
    10030    2    1    2    0    0  0.00000000000E+00  0.00000000000E+00 -0.44235322064E+03  0.30353368587E+04  0.30029308140E+04 0.  0.
        1    1    3    3  502    0  0.11451112769E+04  0.65067392080E+03  0.50753462890E+03  0.14114700802E+04  0.50400001928E-02 0.  1.
       -1    1    3    3    0  502 -0.11451112769E+04 -0.65067392080E+03 -0.94988784955E+03  0.16238667785E+04  0.50400001928E-02 0. -1.
</event>
<event>
 5   0  0.6291798E-07  0.2990923E+04  0.7818609E-02  0.8246328E-01
       -1   -1    0    0    0  501  0.00000000000E+00  0.00000000000E+00  0.17657862179E+04  0.17657862180E+04  0.50400001928E-02 0. -1.
        1   -1    0    0  501    0  0.00000000000E+00  0.00000000000E+00 -0.12665205007E+04  0.12665205007E+04  0.50400001928E-02 0.  1.
    10030    2    1    2    0    0  0.00000000000E+00  0.00000000000E+00  0.49926571729E+03  0.30323067186E+04  0.29909225632E+04 0.  0.
        1    1    3    3  502    0 -0.97563894900E+03 -0.80014483139E+03 -0.56415737713E+03  0.13821637588E+04  0.50400001928E-02 0.  1.
       -1    1    3    3    0  502  0.97563894900E+03  0.80014483139E+03  0.10634230944E+04  0.16501429598E+04  0.50400001928E-02 0. -1.
</event>
<event>
 5   0  0.1723916E-06  0.2992933E+04  0.7818609E-02  0.8245752E-01
       -2   -1    0    0    0  501  0.00000000000E+00  0.00000000000E+00  0.10433322289E+04  0.10433322289E+04  0.25500000920E-02 0. -1.
        2   -1    0    0  501    0  0.00000000000E+00  0.00000000000E+00 -0.21464031719E+04  0.21464031719E+04  0.25500000920E-02 0.  1.
    10030    2    1    2    0    0  0.00000000000E+00  0.00000000000E+00 -0.11030709430E+04  0.31897354008E+04  0.29929327459E+04 0.  0.
        1    1    3    3  502    0 -0.51379424787E+03 -0.50546907681E+03  0.84616092344E+03  0.11115178024E+04  0.50400001928E-02 0. -1.
       -1    1    3    3    0  502  0.51379424787E+03  0.50546907681E+03 -0.19492318665E+04  0.20782175983E+04  0.50400001928E-02 0.  1.
</event>
<event>
 5   0  0.5931588E-07  0.3009530E+04  0.7818609E-02  0.8241015E-01
       -1   -1    0    0    0  501  0.00000000000E+00  0.00000000000E+00  0.11733726162E+04  0.11733726162E+04  0.50400001928E-02 0.  1.
        1   -1    0    0  501    0  0.00000000000E+00  0.00000000000E+00 -0.19297517461E+04  0.19297517461E+04  0.50400001928E-02 0. -1.
    10030    2    1    2    0    0  0.00000000000E+00  0.00000000000E+00 -0.75637912988E+03  0.31031243624E+04  0.30095300995E+04 0.  0.
        2    1    3    3  502    0  0.12719465197E+04 -0.75692280372E+03 -0.98577611863E+02  0.14834074374E+04  0.25500000920E-02 0.  1.
       -2    1    3    3    0  502 -0.12719465197E+04  0.75692280372E+03 -0.65780151802E+03  0.16197169249E+04  0.25500000920E-02 0. -1.
</event>
<event>
 5   0  0.6291798E-07  0.2991841E+04  0.7818609E-02  0.8246065E-01
       -1   -1    0    0    0  501  0.00000000000E+00  0.00000000000E+00  0.12873512352E+04  0.12873512352E+04  0.50400001928E-02 0.  1.
        1   -1    0    0  501    0  0.00000000000E+00  0.00000000000E+00 -0.17382805278E+04  0.17382805278E+04  0.50400001928E-02 0. -1.
    10030    2    1    2    0    0  0.00000000000E+00  0.00000000000E+00 -0.45092929255E+03  0.30256317630E+04  0.29918406272E+04 0.  0.
        1    1    3    3  502    0  0.72577266596E+02  0.57915189141E+02  0.12844341616E+04  0.12877859854E+04  0.50400001928E-02 0.  1.
       -1    1    3    3    0  502 -0.72577266596E+02 -0.57915189141E+02 -0.17353634541E+04  0.17378457776E+04  0.50400001928E-02 0. -1.
</event>
<event>
 5   0  0.1635086E-06  0.2984708E+04  0.7818609E-02  0.8248111E-01
       -2   -1    0    0    0  501  0.00000000000E+00  0.00000000000E+00  0.18562809954E+04  0.18562809954E+04  0.25500000920E-02 0.  1.
        2   -1    0    0  501    0  0.00000000000E+00  0.00000000000E+00 -0.11997754624E+04  0.11997754624E+04  0.25500000920E-02 0. -1.
    10030    2    1    2    0    0  0.00000000000E+00  0.00000000000E+00  0.65650553303E+03  0.30560564577E+04  0.29847079519E+04 0.  0.
        3    1    3    3  502    0 -0.54153983403E+03 -0.13618664231E+04  0.40146232076E+02  0.14661368546E+04  0.10100000352E+00 0. -1.
       -3    1    3    3    0  502  0.54153983403E+03  0.13618664231E+04  0.61635930096E+03  0.15899196031E+04  0.10100000352E+00 0.  1.
</event>
<event>
 5   0  0.5874741E-07  0.2999757E+04  0.7818609E-02  0.8243800E-01
        1   -1    0    0  501    0  0.00000000000E+00  0.00000000000E+00  0.16299176785E+04  0.16299176785E+04  0.50400001928E-02 0.  1.
       -1   -1    0    0    0  501  0.00000000000E+00  0.00000000000E+00 -0.13802144057E+04  0.13802144057E+04  0.50400001928E-02 0. -1.
    10030    2    1    2    0    0  0.00000000000E+00  0.00000000000E+00  0.24970327281E+03  0.30101320842E+04  0.29997572301E+04 0.  0.
        4    1    3    3  502    0 -0.77077250176E+03  0.53495106234E+03 -0.10493969987E+04  0.14076571181E+04  0.12699999809E+01 0. -1.
       -4    1    3    3    0  502  0.77077250176E+03 -0.53495106234E+03  0.12991002715E+04  0.16024749660E+04  0.12699999809E+01 0.  1.
</event>
<event>
 5   0  0.6291798E-07  0.2998505E+04  0.7818609E-02  0.8244158E-01
       -1   -1    0    0    0  501  0.00000000000E+00  0.00000000000E+00  0.28153039665E+04  0.28153039665E+04  0.50400001928E-02 0.  1.
        1   -1    0    0  501    0  0.00000000000E+00  0.00000000000E+00 -0.79840678441E+03  0.79840678442E+03  0.50400001928E-02 0. -1.
    10030    2    1    2    0    0  0.00000000000E+00  0.00000000000E+00  0.20168971821E+04  0.36137107509E+04  0.29985048188E+04 0.  0.
        1    1    3    3  502    0 -0.91051897532E+03  0.33531944492E+03 -0.36896940735E+03  0.10380859108E+04  0.50400001928E-02 0. -1.
       -1    1    3    3    0  502  0.91051897532E+03 -0.33531944492E+03  0.23858665894E+04  0.25756248401E+04  0.50400001928E-02 0.  1.
</event>
<event>
 5   0  0.5874741E-07  0.2991505E+04  0.7818609E-02  0.8246161E-01
       -1   -1    0    0    0  501  0.00000000000E+00  0.00000000000E+00  0.11981801226E+04  0.11981801226E+04  0.50400001928E-02 0. -1.
        1   -1    0    0  501    0  0.00000000000E+00  0.00000000000E+00 -0.18672281606E+04  0.18672281606E+04  0.50400001928E-02 0.  1.
    10030    2    1    2    0    0  0.00000000000E+00  0.00000000000E+00 -0.66904803799E+03  0.30654082833E+04  0.29915050837E+04 0.  0.
        4    1    3    3  502    0 -0.14665488877E+03 -0.14671415085E+04 -0.59225741497E+03  0.15889563622E+04  0.12699999809E+01 0.  1.
       -4    1    3    3    0  502  0.14665488877E+03  0.14671415085E+04 -0.76790623017E+02  0.14764519211E+04  0.12699999809E+01 0. -1.
</event>
<event>
 5   0  0.1674806E-06  0.2828104E+04  0.7818609E-02  0.8294596E-01
       -2   -1    0    0    0  501  0.00000000000E+00  0.00000000000E+00  0.12878497759E+04  0.12878497759E+04  0.25500000920E-02 0.  1.
        2   -1    0    0  501    0  0.00000000000E+00  0.00000000000E+00 -0.15526208745E+04  0.15526208745E+04  0.25500000920E-02 0. -1.
    10030    2    1    2    0    0  0.00000000000E+00  0.00000000000E+00 -0.26477109859E+03  0.28404706504E+04  0.28281035662E+04 0.  0.
        2    1    3    3  502    0  0.51207431336E+03 -0.13018923598E+04  0.74424144069E+02  0.14009578052E+04  0.25500000920E-02 0.  1.
       -2    1    3    3    0  502 -0.51207431336E+03  0.13018923598E+04 -0.33919524266E+03  0.14395128452E+04  0.25500000920E-02 0. -1.
</event>
<event>
 5   0  0.1625212E-06  0.2991972E+04  0.7818609E-02  0.8246027E-01
        2   -1    0    0  501    0  0.00000000000E+00  0.00000000000E+00  0.15094418150E+04  0.15094418150E+04  0.25500000920E-02 0. -1.
       -2   -1    0    0    0  501  0.00000000000E+00  0.00000000000E+00 -0.14826502310E+04  0.14826502310E+04  0.25500000920E-02 0.  1.
    10030    2    1    2    0    0  0.00000000000E+00  0.00000000000E+00  0.26791583942E+02  0.29920920460E+04  0.29919720959E+04 0.  0.
        4    1    3    3  502    0 -0.75069430807E+03  0.88845883745E+03 -0.92742436110E+03  0.14876217962E+04  0.12699999809E+01 0.  1.
       -4    1    3    3    0  502  0.75069430807E+03 -0.88845883745E+03  0.95421594504E+03  0.15044702498E+04  0.12699999809E+01 0. -1.
</event>
<event>
 5   0  0.1635086E-06  0.2983262E+04  0.7818609E-02  0.8248527E-01
        2   -1    0    0  501    0  0.00000000000E+00  0.00000000000E+00  0.23049173990E+04  0.23049173990E+04  0.25500000920E-02 0. -1.
       -2   -1    0    0    0  501  0.00000000000E+00  0.00000000000E+00 -0.96531159445E+03  0.96531159445E+03  0.25500000920E-02 0.  1.
    10030    2    1    2    0    0  0.00000000000E+00  0.00000000000E+00  0.13396058045E+04  0.32702289934E+04  0.29832623012E+04 0.  0.
        3    1    3    3  502    0  0.53699046912E+03  0.89416612751E+03  0.18387117359E+04  0.21139424509E+04  0.10100000352E+00 0. -1.
       -3    1    3    3    0  502 -0.53699046912E+03 -0.89416612751E+03 -0.49910593142E+03  0.11562865426E+04  0.10100000352E+00 0.  1.
</event>
<event>
 5   0  0.5887179E-07  0.2997029E+04  0.7818609E-02  0.8244580E-01
        1   -1    0    0  501    0  0.00000000000E+00  0.00000000000E+00  0.29330233424E+04  0.29330233424E+04  0.50400001928E-02 0. -1.
       -1   -1    0    0    0  501  0.00000000000E+00  0.00000000000E+00 -0.76560770912E+03  0.76560770914E+03  0.50400001928E-02 0.  1.
    10030    2    1    2    0    0  0.00000000000E+00  0.00000000000E+00  0.21674156333E+04  0.36986310516E+04  0.29970287166E+04 0.  0.
        3    1    3    3  502    0  0.10339676884E+04  0.48310612686E+03 -0.11474466696E+03  0.11470165907E+04  0.10100000352E+00 0.  1.
       -3    1    3    3    0  502 -0.10339676884E+04 -0.48310612686E+03  0.22821603003E+04  0.25516144609E+04  0.10100000352E+00 0. -1.
</event>
<event>
 5   0  0.1560174E-06  0.2999451E+04  0.7818609E-02  0.8243888E-01
        2   -1    0    0  501    0  0.00000000000E+00  0.00000000000E+00  0.15922018038E+04  0.15922018038E+04  0.25500000920E-02 0. -1.
       -2   -1    0    0    0  501  0.00000000000E+00  0.00000000000E+00 -0.14126199457E+04  0.14126199457E+04  0.25500000920E-02 0.  1.
    10030    2    1    2    0    0  0.00000000000E+00  0.00000000000E+00  0.17958185806E+03  0.30048217495E+04  0.29994506334E+04 0.  0.
        5    1    3    3  502    0 -0.12523995757E+04 -0.75904645975E+03  0.41363084851E+03  0.15217650259E+04  0.46999998093E+01 0. -1.
       -5    1    3    3    0  502  0.12523995757E+04  0.75904645975E+03 -0.23404899045E+03  0.14830567235E+04  0.46999998093E+01 0.  1.
</event>
<event>
 5   0  0.1674806E-06  0.2976153E+04  0.7818609E-02  0.8250573E-01
        2   -1    0    0  501    0  0.00000000000E+00  0.00000000000E+00  0.24014103862E+04  0.24014103862E+04  0.25500000920E-02 0.  1.
       -2   -1    0    0    0  501  0.00000000000E+00  0.00000000000E+00 -0.92211325055E+03  0.92211325055E+03  0.25500000920E-02 0. -1.
    10030    2    1    2    0    0  0.00000000000E+00  0.00000000000E+00  0.14792971357E+04  0.33235236368E+04  0.29761534484E+04 0.  0.
        2    1    3    3  502    0  0.11368884937E+04 -0.89472791435E+03  0.11286109433E+04  0.18348885931E+04  0.25500000920E-02 0. -1.
       -2    1    3    3    0  502 -0.11368884937E+04  0.89472791435E+03  0.35068619235E+03  0.14886350437E+04  0.25500000920E-02 0.  1.
</event>
<event>
 5   0  0.5887179E-07  0.2958684E+04  0.7818609E-02  0.8255628E-01
       -1   -1    0    0    0  501  0.00000000000E+00  0.00000000000E+00  0.13773978467E+04  0.13773978467E+04  0.50400001928E-02 0.  1.
        1   -1    0    0  501    0  0.00000000000E+00  0.00000000000E+00 -0.15888308449E+04  0.15888308449E+04  0.50400001928E-02 0. -1.
    10030    2    1    2    0    0  0.00000000000E+00  0.00000000000E+00 -0.21143299820E+03  0.29662286916E+04  0.29586836157E+04 0.  0.
        3    1    3    3  502    0 -0.69156189557E+03 -0.10403529199E+04 -0.90011342406E+03  0.15397390167E+04  0.10100000352E+00 0. -1.
       -3    1    3    3    0  502  0.69156189557E+03  0.10403529199E+04  0.68868042586E+03  0.14264896748E+04  0.10100000352E+00 0.  1.
</event>
<event>
 5   0  0.1560174E-06  0.2968619E+04  0.7818609E-02  0.8252749E-01
        2   -1    0    0  501    0  0.00000000000E+00  0.00000000000E+00  0.10776136425E+04  0.10776136425E+04  0.25500000920E-02 0.  1.
       -2   -1    0    0    0  501  0.00000000000E+00  0.00000000000E+00 -0.20444943758E+04  0.20444943758E+04  0.25500000920E-02 0. -1.
    10030    2    1    2    0    0  0.00000000000E+00  0.00000000000E+00 -0.96688073331E+03  0.31221080184E+04  0.29686192289E+04 0.  0.
        5    1    3    3  502    0  0.72108932695E+03  0.56550339932E+03  0.74457365592E+03  0.11807522734E+04  0.46999998093E+01 0.  1.
       -5    1    3    3    0  502 -0.72108932695E+03 -0.56550339932E+03 -0.17114543892E+04  0.19413557450E+04  0.46999998093E+01 0. -1.
</event>
<event>
 5   0  0.5431625E-07  0.2985890E+04  0.7818609E-02  0.8247772E-01
       -3   -1    0    0    0  501  0.00000000000E+00  0.00000000000E+00  0.10333171588E+04  0.10333171637E+04  0.10100000352E+00 0. -1.
        3   -1    0    0  501    0  0.00000000000E+00  0.00000000000E+00 -0.21570184398E+04  0.21570184421E+04  0.10100000352E+00 0.  1.
    10030    2    1    2    0    0  0.00000000000E+00  0.00000000000E+00 -0.11237012810E+04  0.31903356058E+04  0.29858896009E+04 0.  0.
        2    1    3    3  502    0  0.13068082388E+04  0.69555455437E+03 -0.76831796431E+03  0.16678898061E+04  0.25500000920E-02 0. -1.
       -2    1    3    3    0  502 -0.13068082388E+04 -0.69555455437E+03 -0.35538331670E+03  0.15224457997E+04  0.25500000920E-02 0.  1.
</event>
<event>
 5   0  0.1560174E-06  0.2997931E+04  0.7818609E-02  0.8244322E-01
       -2   -1    0    0    0  501  0.00000000000E+00  0.00000000000E+00  0.13410723618E+04  0.13410723618E+04  0.25500000920E-02 0.  1.
        2   -1    0    0  501    0  0.00000000000E+00  0.00000000000E+00 -0.16754488934E+04  0.16754488934E+04  0.25500000920E-02 0. -1.
    10030    2    1    2    0    0  0.00000000000E+00  0.00000000000E+00 -0.33437653161E+03  0.30165212552E+04  0.29979314232E+04 0.  0.
        5    1    3    3  502    0 -0.18289564963E+03  0.44333185984E+03  0.12617878093E+04  0.13498609270E+04  0.46999998093E+01 0.  1.
       -5    1    3    3    0  502  0.18289564963E+03 -0.44333185984E+03 -0.15961643409E+04  0.16666603282E+04  0.46999998093E+01 0. -1.
</event>
<event>
 5   0  0.1723916E-06  0.3005747E+04  0.7818609E-02  0.8242092E-01
        2   -1    0    0  501    0  0.00000000000E+00  0.00000000000E+00  0.21194847079E+04  0.21194847079E+04  0.25500000920E-02 0. -1.
       -2   -1    0    0    0  501  0.00000000000E+00  0.00000000000E+00 -0.10656499880E+04  0.10656499880E+04  0.25500000920E-02 0.  1.
    10030    2    1    2    0    0  0.00000000000E+00  0.00000000000E+00  0.10538347199E+04  0.31851346959E+04  0.30057470642E+04 0.  0.
        1    1    3    3  502    0 -0.10978735072E+04 -0.54521593636E+03 -0.39448302520E+03  0.12877125115E+04  0.50400001928E-02 0.  1.
       -1    1    3    3    0  502  0.10978735072E+04  0.54521593636E+03  0.14483177451E+04  0.18974221844E+04  0.50400001928E-02 0. -1.
</event>
<event>
 5   0  0.1625212E-06  0.3003086E+04  0.7818609E-02  0.8242850E-01
        2   -1    0    0  501    0  0.00000000000E+00  0.00000000000E+00  0.17439784413E+04  0.17439784413E+04  0.25500000920E-02 0. -1.
       -2   -1    0    0    0  501  0.00000000000E+00  0.00000000000E+00 -0.12928093890E+04  0.12928093890E+04  0.25500000920E-02 0.  1.
    10030    2    1    2    0    0  0.00000000000E+00  0.00000000000E+00  0.45116905231E+03  0.30367878303E+04  0.30030862146E+04 0.  0.
        4    1    3    3  502    0  0.13440000353E+04  0.63322363353E+03  0.56074657897E+01  0.14857123953E+04  0.12699999809E+01 0.  1.
       -4    1    3    3    0  502 -0.13440000353E+04 -0.63322363353E+03  0.44556158652E+03  0.15510754350E+04  0.12699999809E+01 0. -1.
</event>
<event>
 5   0  0.5887179E-07  0.2998966E+04  0.7818609E-02  0.8244026E-01
       -1   -1    0    0    0  501  0.00000000000E+00  0.00000000000E+00  0.73132137113E+03  0.73132137115E+03  0.50400001928E-02 0.  1.
        1   -1    0    0  501    0  0.00000000000E+00  0.00000000000E+00 -0.30745019530E+04  0.30745019530E+04  0.50400001928E-02 0. -1.
    10030    2    1    2    0    0  0.00000000000E+00  0.00000000000E+00 -0.23431805819E+04  0.38058233242E+04  0.29989658110E+04 0.  0.
        3    1    3    3  502    0 -0.38179998017E+03 -0.54365514836E+03 -0.28775557110E+04  0.29532455072E+04  0.10100000352E+00 0. -1.
       -3    1    3    3    0  502  0.38179998017E+03  0.54365514836E+03  0.53437512915E+03  0.85257781701E+03  0.10100000352E+00 0.  1.
</event>
<event>
 5   0  0.5874741E-07  0.2999324E+04  0.7818609E-02  0.8243924E-01
        1   -1    0    0  501    0  0.00000000000E+00  0.00000000000E+00  0.18812479553E+04  0.18812479554E+04  0.50400001928E-02 0. -1.
       -1   -1    0    0    0  501  0.00000000000E+00  0.00000000000E+00 -0.11954756939E+04  0.11954756939E+04  0.50400001928E-02 0.  1.
    10030    2    1    2    0    0  0.00000000000E+00  0.00000000000E+00  0.68577226144E+03  0.30767236493E+04  0.29993240604E+04 0.  0.
        4    1    3    3  502    0 -0.21443056550E+03  0.43716133036E+03  0.17979017533E+04  0.18626708844E+04  0.12699999809E+01 0. -1.
       -4    1    3    3    0  502  0.21443056550E+03 -0.43716133036E+03 -0.11121294919E+04  0.12140527648E+04  0.12699999809E+01 0.  1.
</event>
<event>
 5   0  0.1723916E-06  0.3006921E+04  0.7818609E-02  0.8241757E-01
        2   -1    0    0  501    0  0.00000000000E+00  0.00000000000E+00  0.10605757341E+04  0.10605757341E+04  0.25500000920E-02 0. -1.
       -2   -1    0    0    0  501  0.00000000000E+00  0.00000000000E+00 -0.21312895864E+04  0.21312895864E+04  0.25500000920E-02 0.  1.
    10030    2    1    2    0    0  0.00000000000E+00  0.00000000000E+00 -0.10707138523E+04  0.31918653206E+04  0.30069213610E+04 0.  0.
        1    1    3    3  502    0  0.14317216514E+04 -0.43888889517E+03 -0.67754988982E+03  0.16436314071E+04  0.50400001928E-02 0. -1.
       -1    1    3    3    0  502 -0.14317216514E+04  0.43888889517E+03 -0.39316396249E+03  0.15482339135E+04  0.50400001928E-02 0.  1.
</event>
<event>
 5   0  0.6291798E-07  0.3002036E+04  0.7818609E-02  0.8243150E-01
        1   -1    0    0  501    0  0.00000000000E+00  0.00000000000E+00  0.17819742850E+04  0.17819742850E+04  0.50400001928E-02 0.  1.
       -1   -1    0    0    0  501  0.00000000000E+00  0.00000000000E+00 -0.12643589271E+04  0.12643589271E+04  0.50400001928E-02 0. -1.
    10030    2    1    2    0    0  0.00000000000E+00  0.00000000000E+00  0.51761535783E+03  0.30463332121E+04  0.30020360392E+04 0.  0.
        1    1    3    3  502    0 -0.14156112984E+04 -0.47351491644E+03  0.41887995146E+03  0.15503651628E+04  0.50400001928E-02 0.  1.
       -1    1    3    3    0  502  0.14156112984E+04  0.47351491644E+03  0.98735406369E+02  0.14959680493E+04  0.50400001928E-02 0. -1.
</event>
<event>
 5   0  0.1625212E-06  0.3196744E+04  0.7818609E-02  0.8189678E-01
       -2   -1    0    0    0  501  0.00000000000E+00  0.00000000000E+00  0.87827794842E+03  0.87827794842E+03  0.25500000920E-02 0. -1.
        2   -1    0    0  501    0  0.00000000000E+00  0.00000000000E+00 -0.29088662990E+04  0.29088662990E+04  0.25500000920E-02 0.  1.
    10030    2    1    2    0    0  0.00000000000E+00  0.00000000000E+00 -0.20305883506E+04  0.37871442475E+04  0.31967440469E+04 0.  0.
        4    1    3    3  502    0 -0.53472995304E+03 -0.11856837800E+04  0.85260786126E+02  0.13034773352E+04  0.12699999809E+01 0. -1.
       -4    1    3    3    0  502  0.53472995304E+03  0.11856837800E+04 -0.21158491368E+04  0.24836669123E+04  0.12699999809E+01 0.  1.
</event>
<event>
 5   0  0.1560174E-06  0.2980753E+04  0.7818609E-02  0.8249248E-01
       -2   -1    0    0    0  501  0.00000000000E+00  0.00000000000E+00  0.24413252649E+04  0.24413252649E+04  0.25500000920E-02 0. -1.
        2   -1    0    0  501    0  0.00000000000E+00  0.00000000000E+00 -0.90984302625E+03  0.90984302625E+03  0.25500000920E-02 0.  1.
    10030    2    1    2    0    0  0.00000000000E+00  0.00000000000E+00  0.15314822387E+04  0.33511682912E+04  0.29807534397E+04 0.  0.
        5    1    3    3  502    0 -0.65935669799E+03  0.11753214783E+04  0.14812822533E+04  0.20025860871E+04  0.46999998093E+01 0. -1.
       -5    1    3    3    0  502  0.65935669799E+03 -0.11753214783E+04  0.50199985330E+02  0.13485822040E+04  0.46999998093E+01 0.  1.
</event>
<event>
 5   0  0.1560174E-06  0.3010319E+04  0.7818609E-02  0.8240790E-01
        2   -1    0    0  501    0  0.00000000000E+00  0.00000000000E+00  0.16606521032E+04  0.16606521032E+04  0.25500000920E-02 0.  1.
       -2   -1    0    0    0  501  0.00000000000E+00  0.00000000000E+00 -0.13642262384E+04  0.13642262384E+04  0.25500000920E-02 0. -1.
    10030    2    1    2    0    0  0.00000000000E+00  0.00000000000E+00  0.29642586476E+03  0.30248783416E+04  0.30103190343E+04 0.  0.
        5    1    3    3  502    0 -0.71673527801E+03  0.10078179656E+03  0.14742988772E+04  0.16423902394E+04  0.46999998093E+01 0.  1.
       -5    1    3    3    0  502  0.71673527801E+03 -0.10078179656E+03 -0.11778730124E+04  0.13824881022E+04  0.46999998093E+01 0. -1.
</event>
<event>
 5   0  0.5874741E-07  0.2982804E+04  0.7818609E-02  0.8248658E-01
       -1   -1    0    0    0  501  0.00000000000E+00  0.00000000000E+00  0.13852015048E+04  0.13852015048E+04  0.50400001928E-02 0.  1.
        1   -1    0    0  501    0  0.00000000000E+00  0.00000000000E+00 -0.16057443771E+04  0.16057443771E+04  0.50400001928E-02 0. -1.
    10030    2    1    2    0    0  0.00000000000E+00  0.00000000000E+00 -0.22054287234E+03  0.29909458819E+04  0.29828037330E+04 0.  0.
        4    1    3    3  502    0  0.86658708764E+03  0.88408562216E+03  0.72368224862E+03  0.14339798386E+04  0.12699999809E+01 0.  1.
       -4    1    3    3    0  502 -0.86658708764E+03 -0.88408562216E+03 -0.94422512096E+03  0.15569660432E+04  0.12699999809E+01 0. -1.
</event>
<event>
 5   0  0.5874741E-07  0.3002094E+04  0.7818609E-02  0.8243133E-01
        1   -1    0    0  501    0  0.00000000000E+00  0.00000000000E+00  0.27896106056E+04  0.27896106056E+04  0.50400001928E-02 0. -1.
       -1   -1    0    0    0  501  0.00000000000E+00  0.00000000000E+00 -0.80769077010E+03  0.80769077011E+03  0.50400001928E-02 0.  1.
    10030    2    1    2    0    0  0.00000000000E+00  0.00000000000E+00  0.19819198355E+04  0.35973013757E+04  0.30020944278E+04 0.  0.
        4    1    3    3  502    0 -0.62151531864E+03  0.66766336125E+03 -0.43748196312E+03  0.10116559377E+04  0.12699999809E+01 0.  1.
       -4    1    3    3    0  502  0.62151531864E+03 -0.66766336125E+03  0.24194017986E+04  0.25856454381E+04  0.12699999809E+01 0. -1.
</event>
<event>
 5   0  0.6291798E-07  0.3004053E+04  0.7818609E-02  0.8242574E-01
        1   -1    0    0  501    0  0.00000000000E+00  0.00000000000E+00  0.22293406407E+04  0.22293406407E+04  0.50400001928E-02 0. -1.
       -1   -1    0    0    0  501  0.00000000000E+00  0.00000000000E+00 -0.10119961880E+04  0.10119961880E+04  0.50400001928E-02 0.  1.
    10030    2    1    2    0    0  0.00000000000E+00  0.00000000000E+00  0.12173444527E+04  0.32413368287E+04  0.30040534151E+04 0.  0.
        1    1    3    3  502    0  0.13110689936E+04  0.17785549738E+03  0.13758543269E+04  0.19087979497E+04  0.50400001928E-02 0.  1.
       -1    1    3    3    0  502 -0.13110689936E+04 -0.17785549738E+03 -0.15850987414E+03  0.13325388790E+04  0.50400001928E-02 0. -1.
</event>
<event>
 5   0  0.1560174E-06  0.2980594E+04  0.7818609E-02  0.8249294E-01
        2   -1    0    0  501    0  0.00000000000E+00  0.00000000000E+00  0.26164438656E+04  0.26164438656E+04  0.25500000920E-02 0. -1.
       -2   -1    0    0    0  501  0.00000000000E+00  0.00000000000E+00 -0.84885665406E+03  0.84885665407E+03  0.25500000920E-02 0.  1.
    10030    2    1    2    0    0  0.00000000000E+00  0.00000000000E+00  0.17675872116E+04  0.34653005197E+04  0.29805944275E+04 0.  0.
        5    1    3    3  502    0 -0.49421195820E+03  0.13439234632E+04  0.13639826062E+04  0.19775859967E+04  0.46999998093E+01 0. -1.
       -5    1    3    3    0  502  0.49421195820E+03 -0.13439234632E+04  0.40360460540E+03  0.14877145230E+04  0.46999998093E+01 0.  1.
</event>
<event>
 5   0  0.1625212E-06  0.3002652E+04  0.7818609E-02  0.8242974E-01
        2   -1    0    0  501    0  0.00000000000E+00  0.00000000000E+00  0.29713853662E+04  0.29713853662E+04  0.25500000920E-02 0. -1.
       -2   -1    0    0    0  501  0.00000000000E+00  0.00000000000E+00 -0.75856207535E+03  0.75856207536E+03  0.25500000920E-02 0.  1.
    10030    2    1    2    0    0  0.00000000000E+00  0.00000000000E+00  0.22128232909E+04  0.37299474416E+04  0.30026523276E+04 0.  0.
        4    1    3    3  502    0  0.11186209347E+04 -0.99496063309E+03  0.96631516481E+03  0.17818602828E+04  0.12699999809E+01 0. -1.
       -4    1    3    3    0  502 -0.11186209347E+04  0.99496063309E+03  0.12465081261E+04  0.19480871587E+04  0.12699999809E+01 0.  1.
</event>
<event>
 5   0  0.1723916E-06  0.3002276E+04  0.7818609E-02  0.8243081E-01
        2   -1    0    0  501    0  0.00000000000E+00  0.00000000000E+00  0.17007533046E+04  0.17007533046E+04  0.25500000920E-02 0.  1.
       -2   -1    0    0    0  501  0.00000000000E+00  0.00000000000E+00 -0.13249508906E+04  0.13249508906E+04  0.25500000920E-02 0. -1.
    10030    2    1    2    0    0  0.00000000000E+00  0.00000000000E+00  0.37580241396E+03  0.30257041952E+04  0.30022755407E+04 0.  0.
        1    1    3    3  502    0  0.14036339740E+04  0.40655580638E+03  0.53400311489E+03  0.15558390930E+04  0.50400001928E-02 0.  1.
       -1    1    3    3    0  502 -0.14036339740E+04 -0.40655580638E+03 -0.15820070093E+03  0.14698651021E+04  0.50400001928E-02 0. -1.
</event>
<event>
 5   0  0.1723916E-06  0.2998220E+04  0.7818609E-02  0.8244239E-01
        2   -1    0    0  501    0  0.00000000000E+00  0.00000000000E+00  0.14951210746E+04  0.14951210746E+04  0.25500000920E-02 0.  1.
       -2   -1    0    0    0  501  0.00000000000E+00  0.00000000000E+00 -0.15031097702E+04  0.15031097702E+04  0.25500000920E-02 0. -1.
    10030    2    1    2    0    0  0.00000000000E+00  0.00000000000E+00 -0.79886955682E+01  0.29982308448E+04  0.29982202020E+04 0.  0.
        1    1    3    3  502    0  0.34367538289E+01  0.12402445371E+04 -0.84608567653E+03  0.15013591493E+04  0.50400001928E-02 0. -1.
       -1    1    3    3    0  502 -0.34367538289E+01 -0.12402445371E+04  0.83809698096E+03  0.14968716955E+04  0.50400001928E-02 0.  1.
</event>
<event>
 5   0  0.5931588E-07  0.3006120E+04  0.7818609E-02  0.8241986E-01
       -1   -1    0    0    0  501  0.00000000000E+00  0.00000000000E+00  0.65916792743E+03  0.65916792745E+03  0.50400001928E-02 0.  1.
        1   -1    0    0  501    0  0.00000000000E+00  0.00000000000E+00 -0.34273345361E+04  0.34273345361E+04  0.50400001928E-02 0. -1.
    10030    2    1    2    0    0  0.00000000000E+00  0.00000000000E+00 -0.27681666086E+04  0.40865024635E+04  0.30061197600E+04 0.  0.
        2    1    3    3  502    0  0.30113615117E+03 -0.88938980313E+03 -0.29795582833E+04  0.31240142072E+04  0.25500000920E-02 0. -1.
       -2    1    3    3    0  502 -0.30113615117E+03  0.88938980313E+03  0.21139167462E+03  0.96248825632E+03  0.25500000920E-02 0.  1.
</event>
<event>
 5   0  0.5916703E-07  0.3001830E+04  0.7818609E-02  0.8243208E-01
       -1   -1    0    0    0  501  0.00000000000E+00  0.00000000000E+00  0.97062466217E+03  0.97062466219E+03  0.50400001928E-02 0.  1.
        1   -1    0    0  501    0  0.00000000000E+00  0.00000000000E+00 -0.23209240156E+04  0.23209240156E+04  0.50400001928E-02 0. -1.
    10030    2    1    2    0    0  0.00000000000E+00  0.00000000000E+00 -0.13502993535E+04  0.32915486778E+04  0.30018301675E+04 0.  0.
        5    1    3    3  502    0 -0.13437558490E+04 -0.55382347427E+03 -0.26439757348E+03  0.14772705877E+04  0.46999998093E+01 0.  1.
       -5    1    3    3    0  502  0.13437558490E+04  0.55382347427E+03 -0.10859017800E+04  0.18142780901E+04  0.46999998093E+01 0. -1.
</event>
<event>
 5   0  0.1560174E-06  0.3006337E+04  0.7818609E-02  0.8241924E-01
        2   -1    0    0  501    0  0.00000000000E+00  0.00000000000E+00  0.23670514164E+04  0.23670514164E+04  0.25500000920E-02 0. -1.
       -2   -1    0    0    0  501  0.00000000000E+00  0.00000000000E+00 -0.95456959057E+03  0.95456959057E+03  0.25500000920E-02 0.  1.
    10030    2    1    2    0    0  0.00000000000E+00  0.00000000000E+00  0.14124818258E+04  0.33216210069E+04  0.30063368416E+04 0.  0.
        5    1    3    3  502    0  0.13088834897E+04  0.34963175919E+03 -0.13263895054E+02  0.13548492085E+04  0.46999998093E+01 0.  1.
       -5    1    3    3    0  502 -0.13088834897E+04 -0.34963175919E+03  0.14257457208E+04  0.19667717985E+04  0.46999998093E+01 0. -1.
</event>
<event>
 5   0  0.5874741E-07  0.3030092E+04  0.7818609E-02  0.8235190E-01
        1   -1    0    0  501    0  0.00000000000E+00  0.00000000000E+00  0.17865058785E+04  0.17865058785E+04  0.50400001928E-02 0.  1.
       -1   -1    0    0    0  501  0.00000000000E+00  0.00000000000E+00 -0.12848345878E+04  0.12848345878E+04  0.50400001928E-02 0. -1.
    10030    2    1    2    0    0  0.00000000000E+00  0.00000000000E+00  0.50167129070E+03  0.30713404663E+04  0.30300921068E+04 0.  0.
        4    1    3    3  502    0  0.96009865511E+03 -0.78425924439E+03 -0.63194551562E+03  0.13914771782E+04  0.12699999809E+01 0. -1.
       -4    1    3    3    0  502 -0.96009865511E+03  0.78425924439E+03  0.11336168063E+04  0.16798632880E+04  0.12699999809E+01 0.  1.
</event>
<event>
 5   0  0.1674806E-06  0.3004074E+04  0.7818609E-02  0.8242568E-01
        2   -1    0    0  501    0  0.00000000000E+00  0.00000000000E+00  0.24385306779E+04  0.24385306779E+04  0.25500000920E-02 0. -1.
       -2   -1    0    0    0  501  0.00000000000E+00  0.00000000000E+00 -0.92519459537E+03  0.92519459537E+03  0.25500000920E-02 0.  1.
    10030    2    1    2    0    0  0.00000000000E+00  0.00000000000E+00  0.15133360825E+04  0.33637252733E+04  0.30040741694E+04 0.  0.
        2    1    3    3  502    0 -0.79616050683E+03 -0.66508801166E+03 -0.45960980630E+03  0.11346606497E+04  0.25500000920E-02 0.  1.
       -2    1    3    3    0  502  0.79616050683E+03  0.66508801166E+03  0.19729458888E+04  0.22290646236E+04  0.25500000920E-02 0. -1.
</event>
<event>
 5   0  0.6291798E-07  0.3000097E+04  0.7818609E-02  0.8243703E-01
        1   -1    0    0  501    0  0.00000000000E+00  0.00000000000E+00  0.19375905998E+04  0.19375905998E+04  0.50400001928E-02 0. -1.
       -1   -1    0    0    0  501  0.00000000000E+00  0.00000000000E+00 -0.11613112861E+04  0.11613112861E+04  0.50400001928E-02 0.  1.
    10030    2    1    2    0    0  0.00000000000E+00  0.00000000000E+00  0.77627931365E+03  0.30989018859E+04  0.30000972194E+04 0.  0.
        1    1    3    3  502    0 -0.13436656131E+04  0.66680170708E+03  0.37867068887E+03  0.15470789531E+04  0.50400001928E-02 0.  1.
       -1    1    3    3    0  502  0.13436656131E+04 -0.66680170708E+03  0.39760862478E+03  0.15518229328E+04  0.50400001928E-02 0. -1.
</event>
<event>
 5   0  0.1635086E-06  0.2992423E+04  0.7818609E-02  0.8245898E-01
       -2   -1    0    0    0  501  0.00000000000E+00  0.00000000000E+00  0.12015451149E+04  0.12015451149E+04  0.25500000920E-02 0.  1.
        2   -1    0    0  501    0  0.00000000000E+00  0.00000000000E+00 -0.18631421815E+04  0.18631421815E+04  0.25500000920E-02 0. -1.
    10030    2    1    2    0    0  0.00000000000E+00  0.00000000000E+00 -0.66159706663E+03  0.30646872964E+04  0.29924233568E+04 0.  0.
        3    1    3    3  502    0 -0.46847317888E+03 -0.11305690286E+04 -0.12123974404E+04  0.17226610263E+04  0.10100000352E+00 0. -1.
       -3    1    3    3    0  502  0.46847317888E+03  0.11305690286E+04  0.55080037380E+03  0.13420262701E+04  0.10100000352E+00 0.  1.
</event>
<event>
 5   0  0.1560174E-06  0.2998396E+04  0.7818609E-02  0.8244189E-01
        2   -1    0    0  501    0  0.00000000000E+00  0.00000000000E+00  0.18496976051E+04  0.18496976051E+04  0.25500000920E-02 0.  1.
       -2   -1    0    0    0  501  0.00000000000E+00  0.00000000000E+00 -0.12151143613E+04  0.12151143613E+04  0.25500000920E-02 0. -1.
    10030    2    1    2    0    0  0.00000000000E+00  0.00000000000E+00  0.63458324385E+03  0.30648119664E+04  0.29983956537E+04 0.  0.
        5    1    3    3  502    0  0.59348587656E+03  0.10932979734E+04 -0.53792909365E+03  0.13553286480E+04  0.46999998093E+01 0. -1.
       -5    1    3    3    0  502 -0.59348587656E+03 -0.10932979734E+04  0.11725123375E+04  0.17094833184E+04  0.46999998093E+01 0.  1.
</event>
<event>
 5   0  0.6291798E-07  0.2968166E+04  0.7818609E-02  0.8252880E-01
       -1   -1    0    0    0  501  0.00000000000E+00  0.00000000000E+00  0.18221373977E+04  0.18221373977E+04  0.50400001928E-02 0.  1.
        1   -1    0    0  501    0  0.00000000000E+00  0.00000000000E+00 -0.12087464463E+04  0.12087464463E+04  0.50400001928E-02 0. -1.
    10030    2    1    2    0    0  0.00000000000E+00  0.00000000000E+00  0.61339095141E+03  0.30308838440E+04  0.29681658337E+04 0.  0.
        1    1    3    3  502    0  0.12801485341E+04  0.70619481106E+03  0.56705509685E+03  0.15681335604E+04  0.50400001928E-02 0. -1.
       -1    1    3    3    0  502 -0.12801485341E+04 -0.70619481106E+03  0.46335854560E+02  0.14627502835E+04  0.50400001928E-02 0.  1.
</event>
<event>
 5   0  0.5874741E-07  0.2996500E+04  0.7818609E-02  0.8244731E-01
        1   -1    0    0  501    0  0.00000000000E+00  0.00000000000E+00  0.19016825017E+04  0.19016825018E+04  0.50400001928E-02 0. -1.
       -1   -1    0    0    0  501  0.00000000000E+00  0.00000000000E+00 -0.11804040121E+04  0.11804040121E+04  0.50400001928E-02 0.  1.
    10030    2    1    2    0    0  0.00000000000E+00  0.00000000000E+00  0.72127848962E+03  0.30820865139E+04  0.29965003954E+04 0.  0.
        4    1    3    3  502    0 -0.37651382278E+03  0.86563157814E+03  0.15573442436E+04  0.18210995014E+04  0.12699999809E+01 0. -1.
       -4    1    3    3    0  502  0.37651382278E+03 -0.86563157814E+03 -0.83606575402E+03  0.12609870125E+04  0.12699999809E+01 0.  1.
</event>
<event>
 5   0  0.5431625E-07  0.2991017E+04  0.7818609E-02  0.8246301E-01
       -3   -1    0    0    0  501  0.00000000000E+00  0.00000000000E+00  0.87167711849E+03  0.87167712434E+03  0.10100000352E+00 0.  1.
        3   -1    0    0  501    0  0.00000000000E+00  0.00000000000E+00 -0.25657966399E+04  0.25657966419E+04  0.10100000352E+00 0. -1.
    10030    2    1    2    0    0  0.00000000000E+00  0.00000000000E+00 -0.16941195214E+04  0.34374737663E+04  0.29910173755E+04 0.  0.
        2    1    3    3  502    0 -0.92847178358E+03  0.70437289782E+03  0.23003291680E+03  0.11879041101E+04  0.25500000920E-02 0.  1.
       -2    1    3    3    0  502  0.92847178358E+03 -0.70437289782E+03 -0.19241524382E+04  0.22495696561E+04  0.25500000920E-02 0. -1.
</event>
<event>
 5   0  0.5916703E-07  0.3002630E+04  0.7818609E-02  0.8242980E-01
        1   -1    0    0  501    0  0.00000000000E+00  0.00000000000E+00  0.95562101898E+03  0.95562101899E+03  0.50400001928E-02 0.  1.
       -1   -1    0    0    0  501  0.00000000000E+00  0.00000000000E+00 -0.23586198664E+04  0.23586198664E+04  0.50400001928E-02 0. -1.
    10030    2    1    2    0    0  0.00000000000E+00  0.00000000000E+00 -0.14029988474E+04  0.33142408854E+04  0.30026299939E+04 0.  0.
        5    1    3    3  502    0 -0.95575318261E+03 -0.97288427669E+03 -0.13942971919E+04  0.19503986032E+04  0.46999998093E+01 0. -1.
       -5    1    3    3    0  502  0.95575318261E+03  0.97288427669E+03 -0.87016554737E+01  0.13638422822E+04  0.46999998093E+01 0.  1.
</event>
<event>
 5   0  0.1560174E-06  0.3004562E+04  0.7818609E-02  0.8242429E-01
       -2   -1    0    0    0  501  0.00000000000E+00  0.00000000000E+00  0.11407780588E+04  0.11407780588E+04  0.25500000920E-02 0. -1.
        2   -1    0    0  501    0  0.00000000000E+00  0.00000000000E+00 -0.19783416751E+04  0.19783416751E+04  0.25500000920E-02 0.  1.
    10030    2    1    2    0    0  0.00000000000E+00  0.00000000000E+00 -0.83756361629E+03  0.31191197339E+04  0.30045623813E+04 0.  0.
        5    1    3    3  502    0  0.78255900345E+03  0.28327505170E+03  0.87957676085E+03  0.12109173040E+04  0.46999998093E+01 0. -1.
       -5    1    3    3    0  502 -0.78255900345E+03 -0.28327505170E+03 -0.17171403771E+04  0.19082024299E+04  0.46999998093E+01 0.  1.
</event>
<event>
 5   0  0.1560174E-06  0.3004808E+04  0.7818609E-02  0.8242359E-01
       -2   -1    0    0    0  501  0.00000000000E+00  0.00000000000E+00  0.11938645213E+04  0.11938645213E+04  0.25500000920E-02 0. -1.
        2   -1    0    0  501    0  0.00000000000E+00  0.00000000000E+00 -0.18906811680E+04  0.18906811680E+04  0.25500000920E-02 0.  1.
    10030    2    1    2    0    0  0.00000000000E+00  0.00000000000E+00 -0.69681664667E+03  0.30845456892E+04  0.30048075928E+04 0.  0.
        5    1    3    3  502    0  0.11309106847E+04  0.97345736929E+03 -0.52802836787E+03  0.15828500478E+04  0.46999998093E+01 0.  1.
       -5    1    3    3    0  502 -0.11309106847E+04 -0.97345736929E+03 -0.16878827880E+03  0.15016956415E+04  0.46999998093E+01 0. -1.
</event>
<event>
 5   0  0.1635086E-06  0.3001091E+04  0.7818609E-02  0.8243419E-01
       -2   -1    0    0    0  501  0.00000000000E+00  0.00000000000E+00  0.17251830571E+04  0.17251830571E+04  0.25500000920E-02 0. -1.
        2   -1    0    0  501    0  0.00000000000E+00  0.00000000000E+00 -0.13051584632E+04  0.13051584632E+04  0.25500000920E-02 0.  1.
    10030    2    1    2    0    0  0.00000000000E+00  0.00000000000E+00  0.42002459398E+03  0.30303415203E+04  0.30010913132E+04 0.  0.
        3    1    3    3  502    0  0.11403522346E+04  0.91040880821E+03  0.56326463969E+03  0.15641337799E+04  0.10100000352E+00 0.  1.
       -3    1    3    3    0  502 -0.11403522346E+04 -0.91040880821E+03 -0.14324004572E+03  0.14662077404E+04  0.10100000352E+00 0. -1.
</event>
<event>
 5   0  0.1560174E-06  0.3003670E+04  0.7818609E-02  0.8242684E-01
       -2   -1    0    0    0  501  0.00000000000E+00  0.00000000000E+00  0.15028811087E+04  0.15028811087E+04  0.25500000920E-02 0. -1.
        2   -1    0    0  501    0  0.00000000000E+00  0.00000000000E+00 -0.15007894810E+04  0.15007894810E+04  0.25500000920E-02 0.  1.
    10030    2    1    2    0    0  0.00000000000E+00  0.00000000000E+00  0.20916276937E+01  0.30036705896E+04  0.30036698614E+04 0.  0.
        5    1    3    3  502    0  0.54073307281E+03  0.12100862328E+04  0.70729319550E+03  0.15023270953E+04  0.46999998093E+01 0. -1.
       -5    1    3    3    0  502 -0.54073307281E+03 -0.12100862328E+04 -0.70520156781E+03  0.15013434944E+04  0.46999998093E+01 0.  1.
</event>
<event>
 5   0  0.5931588E-07  0.2988079E+04  0.7818609E-02  0.8247143E-01
       -1   -1    0    0    0  501  0.00000000000E+00  0.00000000000E+00  0.21323831312E+04  0.21323831313E+04  0.50400001928E-02 0.  1.
        1   -1    0    0  501    0  0.00000000000E+00  0.00000000000E+00 -0.10467886372E+04  0.10467886372E+04  0.50400001928E-02 0. -1.
    10030    2    1    2    0    0  0.00000000000E+00  0.00000000000E+00  0.10855944941E+04  0.31791717684E+04  0.29880792706E+04 0.  0.
        2    1    3    3  502    0  0.10444094154E+04 -0.62136698657E+03  0.14674357664E+04  0.19053229877E+04  0.25500000920E-02 0.  1.
       -2    1    3    3    0  502 -0.10444094154E+04  0.62136698657E+03 -0.38184127233E+03  0.12738487807E+04  0.25500000920E-02 0. -1.
</event>
<event>
 5   0  0.1635086E-06  0.3003436E+04  0.7818609E-02  0.8242751E-01
       -2   -1    0    0    0  501  0.00000000000E+00  0.00000000000E+00  0.12317411324E+04  0.12317411324E+04  0.25500000920E-02 0. -1.
        2   -1    0    0  501    0  0.00000000000E+00  0.00000000000E+00 -0.18308686799E+04  0.18308686799E+04  0.25500000920E-02 0.  1.
    10030    2    1    2    0    0  0.00000000000E+00  0.00000000000E+00 -0.59912754750E+03  0.30626098123E+04  0.30034355402E+04 0.  0.
        3    1    3    3  502    0 -0.60079572774E+03 -0.74111278134E+03  0.88300618380E+03  0.12999629195E+04  0.10100000352E+00 0. -1.
       -3    1    3    3    0  502  0.60079572774E+03  0.74111278134E+03 -0.14821337313E+04  0.17626468928E+04  0.10100000352E+00 0.  1.
</event>
<event>
 5   0  0.1625212E-06  0.2983281E+04  0.7818609E-02  0.8248521E-01
        2   -1    0    0  501    0  0.00000000000E+00  0.00000000000E+00  0.26763789206E+04  0.26763789206E+04  0.25500000920E-02 0. -1.
       -2   -1    0    0    0  501  0.00000000000E+00  0.00000000000E+00 -0.83134419471E+03  0.83134419471E+03  0.25500000920E-02 0.  1.
    10030    2    1    2    0    0  0.00000000000E+00  0.00000000000E+00  0.18450347259E+04  0.35077231153E+04  0.29832814674E+04 0.  0.
        4    1    3    3  502    0 -0.55986516914E+02 -0.11939542836E+04  0.19717635017E+04  0.23057567610E+04  0.12699999809E+01 0. -1.
       -4    1    3    3    0  502  0.55986516914E+02  0.11939542836E+04 -0.12672877584E+03  0.12019663543E+04  0.12699999809E+01 0.  1.
</event>
<event>
 5   0  0.1635086E-06  0.3004893E+04  0.7818609E-02  0.8242335E-01
       -2   -1    0    0    0  501  0.00000000000E+00  0.00000000000E+00  0.76328460674E+03  0.76328460674E+03  0.25500000920E-02 0.  1.
        2   -1    0    0  501    0  0.00000000000E+00  0.00000000000E+00 -0.29574108738E+04  0.29574108738E+04  0.25500000920E-02 0. -1.
    10030    2    1    2    0    0  0.00000000000E+00  0.00000000000E+00 -0.21941262671E+04  0.37206954806E+04  0.30048934729E+04 0.  0.
        3    1    3    3  502    0  0.13183546852E+04 -0.71871284118E+03 -0.10322611923E+04  0.18221334757E+04  0.10100000352E+00 0. -1.
       -3    1    3    3    0  502 -0.13183546852E+04  0.71871284118E+03 -0.11618650748E+04  0.18985620049E+04  0.10100000352E+00 0.  1.
</event>
<event>
 5   0  0.5931588E-07  0.2982229E+04  0.7818609E-02  0.8248824E-01
       -1   -1    0    0    0  501  0.00000000000E+00  0.00000000000E+00  0.12124876433E+04  0.12124876433E+04  0.50400001928E-02 0. -1.
        1   -1    0    0  501    0  0.00000000000E+00  0.00000000000E+00 -0.18337691326E+04  0.18337691326E+04  0.50400001928E-02 0.  1.
    10030    2    1    2    0    0  0.00000000000E+00  0.00000000000E+00 -0.62128148926E+03  0.30462567759E+04  0.29822289744E+04 0.  0.
        2    1    3    3  502    0 -0.88606493762E+03  0.75303798949E+03  0.64280438310E+03  0.13286740617E+04  0.25500000920E-02 0. -1.
       -2    1    3    3    0  502  0.88606493762E+03 -0.75303798949E+03 -0.12640858724E+04  0.17175827142E+04  0.25500000920E-02 0.  1.
</event>
<event>
 5   0  0.1674806E-06  0.3030689E+04  0.7818609E-02  0.8235021E-01
       -2   -1    0    0    0  501  0.00000000000E+00  0.00000000000E+00  0.16391632625E+04  0.16391632625E+04  0.25500000920E-02 0.  1.
        2   -1    0    0  501    0  0.00000000000E+00  0.00000000000E+00 -0.14008785332E+04  0.14008785332E+04  0.25500000920E-02 0. -1.
    10030    2    1    2    0    0  0.00000000000E+00  0.00000000000E+00  0.23828472932E+03  0.30400417957E+04  0.30306887843E+04 0.  0.
        2    1    3    3  502    0  0.66588293526E+03  0.10201692780E+04  0.10231022700E+04  0.15908751347E+04  0.25500000920E-02 0.  1.
       -2    1    3    3    0  502 -0.66588293526E+03 -0.10201692780E+04 -0.78481754070E+03  0.14491666610E+04  0.25500000920E-02 0. -1.
</event>
<event>
 5   0  0.5874741E-07  0.2995628E+04  0.7818609E-02  0.8244980E-01
       -1   -1    0    0    0  501  0.00000000000E+00  0.00000000000E+00  0.21831139481E+04  0.21831139481E+04  0.50400001928E-02 0. -1.
        1   -1    0    0  501    0  0.00000000000E+00  0.00000000000E+00 -0.10276364072E+04  0.10276364072E+04  0.50400001928E-02 0.  1.
    10030    2    1    2    0    0  0.00000000000E+00  0.00000000000E+00  0.11554775409E+04  0.32107503552E+04  0.29956283975E+04 0.  0.
        4    1    3    3  502    0  0.86875239918E+03 -0.71917060032E+03  0.16341717305E+04  0.19855618704E+04  0.12699999809E+01 0. -1.
       -4    1    3    3    0  502 -0.86875239918E+03  0.71917060032E+03 -0.47869418957E+03  0.12251884849E+04  0.12699999809E+01 0.  1.
</event>
<event>
 5   0  0.5874741E-07  0.3000810E+04  0.7818609E-02  0.8243500E-01
        1   -1    0    0  501    0  0.00000000000E+00  0.00000000000E+00  0.24494478780E+04  0.24494478780E+04  0.50400001928E-02 0.  1.
       -1   -1    0    0    0  501  0.00000000000E+00  0.00000000000E+00 -0.91907066799E+03  0.91907066801E+03  0.50400001928E-02 0. -1.
    10030    2    1    2    0    0  0.00000000000E+00  0.00000000000E+00  0.15303772100E+04  0.33685185460E+04  0.30008103555E+04 0.  0.
        4    1    3    3  502    0  0.10977146318E+04 -0.65026727367E+03 -0.12110988753E+03  0.12815982825E+04  0.12699999809E+01 0. -1.
       -4    1    3    3    0  502 -0.10977146318E+04  0.65026727367E+03  0.16514870975E+04  0.20869202635E+04  0.12699999809E+01 0.  1.
</event>
<event>
 5   0  0.1625212E-06  0.2994614E+04  0.7818609E-02  0.8245271E-01
        2   -1    0    0  501    0  0.00000000000E+00  0.00000000000E+00  0.18420078192E+04  0.18420078192E+04  0.25500000920E-02 0. -1.
       -2   -1    0    0    0  501  0.00000000000E+00  0.00000000000E+00 -0.12171107873E+04  0.12171107873E+04  0.25500000920E-02 0.  1.
    10030    2    1    2    0    0  0.00000000000E+00  0.00000000000E+00  0.62489703195E+03  0.30591186065E+04  0.29946135557E+04 0.  0.
        4    1    3    3  502    0  0.87678525814E+03 -0.98912222127E+03  0.10310285098E+04  0.16763461929E+04  0.12699999809E+01 0.  1.
       -4    1    3    3    0  502 -0.87678525814E+03  0.98912222127E+03 -0.40613147790E+03  0.13827724136E+04  0.12699999809E+01 0. -1.
</event>
<event>
 5   0  0.5887179E-07  0.3009734E+04  0.7818609E-02  0.8240957E-01
        1   -1    0    0  501    0  0.00000000000E+00  0.00000000000E+00  0.65171459647E+03  0.65171459649E+03  0.50400001928E-02 0.  1.
       -1   -1    0    0    0  501  0.00000000000E+00  0.00000000000E+00 -0.34748719799E+04  0.34748719799E+04  0.50400001928E-02 0. -1.
    10030    2    1    2    0    0  0.00000000000E+00  0.00000000000E+00 -0.28231573834E+04  0.41265865764E+04  0.30097340681E+04 0.  0.
        3    1    3    3  502    0  0.76950092788E+03  0.86657185142E+03 -0.27277772884E+04  0.29637556237E+04  0.10100000352E+00 0. -1.
       -3    1    3    3    0  502 -0.76950092788E+03 -0.86657185142E+03 -0.95380094970E+02  0.11628309526E+04  0.10100000352E+00 0.  1.
</event>
<event>
 5   0  0.5931588E-07  0.3015962E+04  0.7818609E-02  0.8239187E-01
        1   -1    0    0  501    0  0.00000000000E+00  0.00000000000E+00  0.19822611276E+04  0.19822611276E+04  0.50400001928E-02 0.  1.
       -1   -1    0    0    0  501  0.00000000000E+00  0.00000000000E+00 -0.11471782090E+04  0.11471782090E+04  0.50400001928E-02 0. -1.
    10030    2    1    2    0    0  0.00000000000E+00  0.00000000000E+00  0.83508291863E+03  0.31294393366E+04  0.30159620489E+04 0.  0.
        2    1    3    3  502    0 -0.17495689639E+03 -0.14758305874E+04  0.68273738702E+03  0.16354865263E+04  0.25500000920E-02 0.  1.
       -2    1    3    3    0  502  0.17495689639E+03  0.14758305874E+04  0.15234553161E+03  0.14939528102E+04  0.25500000920E-02 0. -1.
</event>
<event>
 5   0  0.1635086E-06  0.2978640E+04  0.7818609E-02  0.8249857E-01
        2   -1    0    0  501    0  0.00000000000E+00  0.00000000000E+00  0.22596348421E+04  0.22596348421E+04  0.25500000920E-02 0. -1.
       -2   -1    0    0    0  501  0.00000000000E+00  0.00000000000E+00 -0.98160701328E+03  0.98160701329E+03  0.25500000920E-02 0.  1.
    10030    2    1    2    0    0  0.00000000000E+00  0.00000000000E+00  0.12780278289E+04  0.32412418554E+04  0.29786395610E+04 0.  0.
        3    1    3    3  502    0  0.96875468269E+03 -0.11196094089E+04  0.81468561631E+03  0.16898886139E+04  0.10100000352E+00 0. -1.
       -3    1    3    3    0  502 -0.96875468269E+03  0.11196094089E+04  0.46334221255E+03  0.15513532415E+04  0.10100000352E+00 0.  1.
</event>
<event>
 5   0  0.1635086E-06  0.2993734E+04  0.7818609E-02  0.8245522E-01
        2   -1    0    0  501    0  0.00000000000E+00  0.00000000000E+00  0.16909446867E+04  0.16909446867E+04  0.25500000920E-02 0.  1.
       -2   -1    0    0    0  501  0.00000000000E+00  0.00000000000E+00 -0.13250643825E+04  0.13250643825E+04  0.25500000920E-02 0. -1.
    10030    2    1    2    0    0  0.00000000000E+00  0.00000000000E+00  0.36588030423E+03  0.30160090692E+04  0.29937338406E+04 0.  0.
        3    1    3    3  502    0 -0.68895599025E+03 -0.96049153960E+03 -0.74226459939E+03  0.13957654172E+04  0.10100000352E+00 0.  1.
       -3    1    3    3    0  502  0.68895599025E+03  0.96049153960E+03  0.11081449036E+04  0.16202436520E+04  0.10100000352E+00 0. -1.
</event>
<event>
 5   0  0.1625212E-06  0.3001070E+04  0.7818609E-02  0.8243425E-01
        2   -1    0    0  501    0  0.00000000000E+00  0.00000000000E+00  0.17199561772E+04  0.17199561772E+04  0.25500000920E-02 0.  1.
       -2   -1    0    0    0  501  0.00000000000E+00  0.00000000000E+00 -0.13091062705E+04  0.13091062705E+04  0.25500000920E-02 0. -1.
    10030    2    1    2    0    0  0.00000000000E+00  0.00000000000E+00  0.41084990672E+03  0.30290624477E+04  0.30010700868E+04 0.  0.
        4    1    3    3  502    0  0.26684509115E+03  0.11830053558E+04 -0.68650066981E+03  0.13935540022E+04  0.12699999809E+01 0. -1.
       -4    1    3    3    0  502 -0.26684509115E+03 -0.11830053558E+04  0.10973505765E+04  0.16355084455E+04  0.12699999809E+01 0.  1.
</event>
<event>
 5   0  0.6291798E-07  0.2989729E+04  0.7818609E-02  0.8246670E-01
       -1   -1    0    0    0  501  0.00000000000E+00  0.00000000000E+00  0.14853263543E+04  0.14853263543E+04  0.50400001928E-02 0. -1.
        1   -1    0    0  501    0  0.00000000000E+00  0.00000000000E+00 -0.15044636374E+04  0.15044636374E+04  0.50400001928E-02 0.  1.
    10030    2    1    2    0    0  0.00000000000E+00  0.00000000000E+00 -0.19137283072E+02  0.29897899917E+04  0.29897287434E+04 0.  0.
        1    1    3    3  502    0  0.10519766020E+03 -0.63778226183E+03  0.13383412841E+04  0.14862671879E+04  0.50400001928E-02 0. -1.
       -1    1    3    3    0  502 -0.10519766020E+03  0.63778226183E+03 -0.13574785672E+04  0.15035228038E+04  0.50400001928E-02 0.  1.
</event>
<event>
 5   0  0.1625212E-06  0.3007339E+04  0.7818609E-02  0.8241638E-01
       -2   -1    0    0    0  501  0.00000000000E+00  0.00000000000E+00  0.13587068917E+04  0.13587068917E+04  0.25500000920E-02 0.  1.
        2   -1    0    0  501    0  0.00000000000E+00  0.00000000000E+00 -0.16640978651E+04  0.16640978651E+04  0.25500000920E-02 0. -1.
    10030    2    1    2    0    0  0.00000000000E+00  0.00000000000E+00 -0.30539097342E+03  0.30228047568E+04  0.30073385163E+04 0.  0.
        4    1    3    3  502    0 -0.99966741542E+03 -0.10994716756E+04  0.78370909727E+02  0.14880579690E+04  0.12699999809E+01 0.  1.
       -4    1    3    3    0  502  0.99966741542E+03  0.10994716756E+04 -0.38376188315E+03  0.15347467878E+04  0.12699999809E+01 0. -1.
</event>
<event>
 5   0  0.5887179E-07  0.2991271E+04  0.7818609E-02  0.8246228E-01
        1   -1    0    0  501    0  0.00000000000E+00  0.00000000000E+00  0.12930210516E+04  0.12930210516E+04  0.50400001928E-02 0.  1.
       -1   -1    0    0    0  501  0.00000000000E+00  0.00000000000E+00 -0.17299993379E+04  0.17299993379E+04  0.50400001928E-02 0. -1.
    10030    2    1    2    0    0  0.00000000000E+00  0.00000000000E+00 -0.43697828629E+03  0.30230203896E+04  0.29912710096E+04 0.  0.
        3    1    3    3  502    0  0.11667424513E+04 -0.10633573462E+03 -0.11580505892E+04  0.16473240160E+04  0.10100000352E+00 0. -1.
       -3    1    3    3    0  502 -0.11667424513E+04  0.10633573462E+03  0.72107230293E+03  0.13756963736E+04  0.10100000352E+00 0.  1.
</event>
<event>
 5   0  0.1635086E-06  0.3011441E+04  0.7818609E-02  0.8240471E-01
       -2   -1    0    0    0  501  0.00000000000E+00  0.00000000000E+00  0.14028957048E+04  0.14028957048E+04  0.25500000920E-02 0.  1.
        2   -1    0    0  501    0  0.00000000000E+00  0.00000000000E+00 -0.16160818274E+04  0.16160818274E+04  0.25500000920E-02 0. -1.
    10030    2    1    2    0    0  0.00000000000E+00  0.00000000000E+00 -0.21318612258E+03  0.30189775322E+04  0.30114410200E+04 0.  0.
        3    1    3    3  502    0  0.13484680541E+04  0.42702728492E+03 -0.62409793759E+03  0.15460325485E+04  0.10100000352E+00 0.  1.
       -3    1    3    3    0  502 -0.13484680541E+04 -0.42702728492E+03  0.41091181501E+03  0.14729449837E+04  0.10100000352E+00 0. -1.
</event>
<event>
 5   0  0.1635086E-06  0.2993168E+04  0.7818609E-02  0.8245684E-01
        2   -1    0    0  501    0  0.00000000000E+00  0.00000000000E+00  0.11471149246E+04  0.11471149246E+04  0.25500000920E-02 0.  1.
       -2   -1    0    0    0  501  0.00000000000E+00  0.00000000000E+00 -0.19525193599E+04  0.19525193599E+04  0.25500000920E-02 0. -1.
    10030    2    1    2    0    0  0.00000000000E+00  0.00000000000E+00 -0.80540443525E+03  0.30996342845E+04  0.29931682868E+04 0.  0.
        3    1    3    3  502    0 -0.57160779587E+03  0.12769528865E+04  0.14763261305E+03  0.14068189454E+04  0.10100000352E+00 0. -1.
       -3    1    3    3    0  502  0.57160779587E+03 -0.12769528865E+04 -0.95303704830E+03  0.16928153391E+04  0.10100000352E+00 0.  1.
</event>
<event>
 5   0  0.5874741E-07  0.2990016E+04  0.7818609E-02  0.8246588E-01
       -1   -1    0    0    0  501  0.00000000000E+00  0.00000000000E+00  0.16695739166E+04  0.16695739166E+04  0.50400001928E-02 0.  1.
        1   -1    0    0  501    0  0.00000000000E+00  0.00000000000E+00 -0.13386943230E+04  0.13386943230E+04  0.50400001928E-02 0. -1.
    10030    2    1    2    0    0  0.00000000000E+00  0.00000000000E+00  0.33087959362E+03  0.30082682396E+04  0.29900161364E+04 0.  0.
        4    1    3    3  502    0  0.66187440686E+03 -0.49708154360E+03 -0.10871014151E+04  0.13663670411E+04  0.12699999809E+01 0. -1.
       -4    1    3    3    0  502 -0.66187440686E+03  0.49708154360E+03  0.14179810087E+04  0.16419011985E+04  0.12699999809E+01 0.  1.
</event>
<event>
 5   0  0.6291798E-07  0.3006766E+04  0.7818609E-02  0.8241802E-01
        1   -1    0    0  501    0  0.00000000000E+00  0.00000000000E+00  0.26442679062E+04  0.26442679062E+04  0.50400001928E-02 0. -1.
       -1   -1    0    0    0  501  0.00000000000E+00  0.00000000000E+00 -0.85473946348E+03  0.85473946350E+03  0.50400001928E-02 0.  1.
    10030    2    1    2    0    0  0.00000000000E+00  0.00000000000E+00  0.17895284427E+04  0.34990073697E+04  0.30067657917E+04 0.  0.
        1    1    3    3  502    0  0.14546054731E+04  0.10383759730E+02  0.45289822903E+03  0.15235162325E+04  0.50400001928E-02 0.  1.
       -1    1    3    3    0  502 -0.14546054731E+04 -0.10383759730E+02  0.13366302137E+04  0.19754911372E+04  0.50400001928E-02 0. -1.
</event>
<event>
 5   0  0.1723916E-06  0.2992060E+04  0.7818609E-02  0.8246002E-01
       -2   -1    0    0    0  501  0.00000000000E+00  0.00000000000E+00  0.14548228144E+04  0.14548228144E+04  0.25500000920E-02 0. -1.
        2   -1    0    0  501    0  0.00000000000E+00  0.00000000000E+00 -0.15384039158E+04  0.15384039158E+04  0.25500000920E-02 0.  1.
    10030    2    1    2    0    0  0.00000000000E+00  0.00000000000E+00 -0.83581101434E+02  0.29932267302E+04  0.29920595679E+04 0.  0.
        1    1    3    3  502    0  0.24715997396E+02 -0.29407075584E+03 -0.15089971201E+04  0.15375827778E+04  0.50400001928E-02 0.  1.
       -1    1    3    3    0  502 -0.24715997396E+02  0.29407075584E+03  0.14254160187E+04  0.14556439524E+04  0.50400001928E-02 0. -1.
</event>
<event>
 5   0  0.5874741E-07  0.2993305E+04  0.7818609E-02  0.8245645E-01
        1   -1    0    0  501    0  0.00000000000E+00  0.00000000000E+00  0.22046228072E+04  0.22046228072E+04  0.50400001928E-02 0. -1.
       -1   -1    0    0    0  501  0.00000000000E+00  0.00000000000E+00 -0.10160326806E+04  0.10160326806E+04  0.50400001928E-02 0.  1.
    10030    2    1    2    0    0  0.00000000000E+00  0.00000000000E+00  0.11885901266E+04  0.32206554879E+04  0.29933050767E+04 0.  0.
        4    1    3    3  502    0  0.28238547208E+03  0.33975803435E+03  0.21328664765E+04  0.21781409726E+04  0.12699999809E+01 0. -1.
       -4    1    3    3    0  502 -0.28238547208E+03 -0.33975803435E+03 -0.94427634988E+03  0.10425145153E+04  0.12699999809E+01 0.  1.
</event>
<event>
 5   0  0.1560174E-06  0.3008726E+04  0.7818609E-02  0.8241243E-01
        2   -1    0    0  501    0  0.00000000000E+00  0.00000000000E+00  0.18196698405E+04  0.18196698405E+04  0.25500000920E-02 0. -1.
       -2   -1    0    0    0  501  0.00000000000E+00  0.00000000000E+00 -0.12436918860E+04  0.12436918860E+04  0.25500000920E-02 0.  1.
    10030    2    1    2    0    0  0.00000000000E+00  0.00000000000E+00  0.57597795452E+03  0.30633617264E+04  0.30087263855E+04 0.  0.
        5    1    3    3  502    0  0.14249124818E+04 -0.42138135746E+03  0.52709097984E+03  0.15766371872E+04  0.46999998093E+01 0. -1.
       -5    1    3    3    0  502 -0.14249124818E+04  0.42138135746E+03  0.48886974680E+02  0.14867245392E+04  0.46999998093E+01 0.  1.
</event>
<event>
 5   0  0.5931588E-07  0.2993018E+04  0.7818609E-02  0.8245728E-01
       -1   -1    0    0    0  501  0.00000000000E+00  0.00000000000E+00  0.16667746135E+04  0.16667746135E+04  0.50400001928E-02 0.  1.
        1   -1    0    0  501    0  0.00000000000E+00  0.00000000000E+00 -0.13436362088E+04  0.13436362088E+04  0.50400001928E-02 0. -1.
    10030    2    1    2    0    0  0.00000000000E+00  0.00000000000E+00  0.32313840470E+03  0.30104108223E+04  0.29930176897E+04 0.  0.
        2    1    3    3  502    0 -0.29895145192E+03  0.14605981795E+04  0.29201369150E+03  0.15192073619E+04  0.25500000920E-02 0. -1.
       -2    1    3    3    0  502  0.29895145192E+03 -0.14605981795E+04  0.31124713199E+02  0.14912034604E+04  0.25500000920E-02 0.  1.
</event>
<event>
 5   0  0.5916703E-07  0.2991080E+04  0.7818609E-02  0.8246283E-01
       -1   -1    0    0    0  501  0.00000000000E+00  0.00000000000E+00  0.14672327678E+04  0.14672327678E+04  0.50400001928E-02 0.  1.
        1   -1    0    0  501    0  0.00000000000E+00  0.00000000000E+00 -0.15243932574E+04  0.15243932574E+04  0.50400001928E-02 0. -1.
    10030    2    1    2    0    0  0.00000000000E+00  0.00000000000E+00 -0.57160489618E+02  0.29916260252E+04  0.29910798975E+04 0.  0.
        5    1    3    3  502    0  0.25629809151E+03  0.40888102909E+03 -0.14443757869E+04  0.15228643772E+04  0.46999998093E+01 0. -1.
       -5    1    3    3    0  502 -0.25629809151E+03 -0.40888102909E+03  0.13872152973E+04  0.14687616480E+04  0.46999998093E+01 0.  1.
</event>
<event>
 5   0  0.6291798E-07  0.2999630E+04  0.7818609E-02  0.8243837E-01
       -1   -1    0    0    0  501  0.00000000000E+00  0.00000000000E+00  0.79318988905E+03  0.79318988907E+03  0.50400001928E-02 0.  1.
        1   -1    0    0  501    0  0.00000000000E+00  0.00000000000E+00 -0.28359475394E+04  0.28359475394E+04  0.50400001928E-02 0. -1.
    10030    2    1    2    0    0  0.00000000000E+00  0.00000000000E+00 -0.20427576503E+04  0.36291374284E+04  0.29996299199E+04 0.  0.
        1    1    3    3  502    0 -0.76825108288E+02  0.27642463373E+03  0.75968073952E+03  0.81205141551E+03  0.50400001928E-02 0.  1.
       -1    1    3    3    0  502  0.76825108288E+02 -0.27642463373E+03 -0.28024383898E+04  0.28170860129E+04  0.50400001928E-02 0. -1.
</event>
<event>
 5   0  0.1560174E-06  0.2982209E+04  0.7818609E-02  0.8248830E-01
        2   -1    0    0  501    0  0.00000000000E+00  0.00000000000E+00  0.23246979515E+04  0.23246979515E+04  0.25500000920E-02 0.  1.
       -2   -1    0    0    0  501  0.00000000000E+00  0.00000000000E+00 -0.95642206385E+03  0.95642206385E+03  0.25500000920E-02 0. -1.
    10030    2    1    2    0    0  0.00000000000E+00  0.00000000000E+00  0.13682758877E+04  0.32811200154E+04  0.29822088543E+04 0.  0.
        5    1    3    3  502    0  0.44397938657E+02  0.51436296893E+02 -0.95470971083E+03  0.95713614055E+03  0.46999998093E+01 0. -1.
       -5    1    3    3    0  502 -0.44397938657E+02 -0.51436296893E+02  0.23229855985E+04  0.23239838748E+04  0.46999998093E+01 0.  1.
</event>
<event>
 5   0  0.5931588E-07  0.3004249E+04  0.7818609E-02  0.8242519E-01
        1   -1    0    0  501    0  0.00000000000E+00  0.00000000000E+00  0.13775306797E+04  0.13775306797E+04  0.50400001928E-02 0.  1.
       -1   -1    0    0    0  501  0.00000000000E+00  0.00000000000E+00 -0.16379874550E+04  0.16379874550E+04  0.50400001928E-02 0. -1.
    10030    2    1    2    0    0  0.00000000000E+00  0.00000000000E+00 -0.26045677531E+03  0.30155181346E+04  0.30042489725E+04 0.  0.
        2    1    3    3  502    0 -0.76203952414E+03 -0.64957313432E+03  0.99367186497E+03  0.14106853896E+04  0.25500000920E-02 0.  1.
       -2    1    3    3    0  502  0.76203952414E+03  0.64957313432E+03 -0.12541286403E+04  0.16048327450E+04  0.25500000920E-02 0. -1.
</event>
<event>
 5   0  0.5887179E-07  0.2964364E+04  0.7818609E-02  0.8253981E-01
       -1   -1    0    0    0  501  0.00000000000E+00  0.00000000000E+00  0.17320939186E+04  0.17320939186E+04  0.50400001928E-02 0.  1.
        1   -1    0    0  501    0  0.00000000000E+00  0.00000000000E+00 -0.12683281321E+04  0.12683281322E+04  0.50400001928E-02 0. -1.
    10030    2    1    2    0    0  0.00000000000E+00  0.00000000000E+00  0.46376578649E+03  0.30004220508E+04  0.29643639753E+04 0.  0.
        3    1    3    3  502    0 -0.11180138741E+03 -0.13650141100E+03 -0.12576603066E+04  0.12699770244E+04  0.10100000352E+00 0. -1.
       -3    1    3    3    0  502  0.11180138741E+03  0.13650141100E+03  0.17214260931E+04  0.17304450264E+04  0.10100000352E+00 0.  1.
</event>
<event>
 5   0  0.1635086E-06  0.3002894E+04  0.7818609E-02  0.8242905E-01
       -2   -1    0    0    0  501  0.00000000000E+00  0.00000000000E+00  0.25030602876E+04  0.25030602876E+04  0.25500000920E-02 0. -1.
        2   -1    0    0  501    0  0.00000000000E+00  0.00000000000E+00 -0.90063461086E+03  0.90063461086E+03  0.25500000920E-02 0.  1.
    10030    2    1    2    0    0  0.00000000000E+00  0.00000000000E+00  0.16024256767E+04  0.34036948985E+04  0.30028937564E+04 0.  0.
        3    1    3    3  502    0 -0.92514529784E+03 -0.65945646045E+03  0.19138444807E+04  0.22256633509E+04  0.10100000352E+00 0. -1.
       -3    1    3    3    0  502  0.92514529784E+03  0.65945646045E+03 -0.31141880392E+03  0.11780315475E+04  0.10100000352E+00 0.  1.
</event>
<event>
 5   0  0.1560174E-06  0.3024774E+04  0.7818609E-02  0.8236692E-01
        2   -1    0    0  501    0  0.00000000000E+00  0.00000000000E+00  0.11463956808E+04  0.11463956808E+04  0.25500000920E-02 0. -1.
       -2   -1    0    0    0  501  0.00000000000E+00  0.00000000000E+00 -0.19952225129E+04  0.19952225129E+04  0.25500000920E-02 0.  1.
    10030    2    1    2    0    0  0.00000000000E+00  0.00000000000E+00 -0.84882683206E+03  0.31416181937E+04  0.30247740220E+04 0.  0.
        5    1    3    3  502    0  0.13399909946E+04 -0.62196100559E+03 -0.76077696506E+03  0.16616904160E+04  0.46999998093E+01 0.  1.
       -5    1    3    3    0  502 -0.13399909946E+04  0.62196100559E+03 -0.88049867006E+02  0.14799277777E+04  0.46999998093E+01 0. -1.
</event>
<event>
 5   0  0.1723916E-06  0.3001862E+04  0.7818609E-02  0.8243199E-01
       -2   -1    0    0    0  501  0.00000000000E+00  0.00000000000E+00  0.90581782494E+03  0.90581782495E+03  0.25500000920E-02 0.  1.
        2   -1    0    0  501    0  0.00000000000E+00  0.00000000000E+00 -0.24870273774E+04  0.24870273774E+04  0.25500000920E-02 0. -1.
    10030    2    1    2    0    0  0.00000000000E+00  0.00000000000E+00 -0.15812095525E+04  0.33928452024E+04  0.30018619086E+04 0.  0.
        1    1    3    3  502    0 -0.35952436727E+03  0.44061118404E+03  0.77933943085E+03  0.96476211300E+03  0.50400001928E-02 0.  1.
       -1    1    3    3    0  502  0.35952436727E+03 -0.44061118404E+03 -0.23605489833E+04  0.24280830894E+04  0.50400001928E-02 0. -1.
</event>
<event>
 5   0  0.5874741E-07  0.2996275E+04  0.7818609E-02  0.8244795E-01
        1   -1    0    0  501    0  0.00000000000E+00  0.00000000000E+00  0.13769230238E+04  0.13769230239E+04  0.50400001928E-02 0. -1.
       -1   -1    0    0    0  501  0.00000000000E+00  0.00000000000E+00 -0.16300225408E+04  0.16300225408E+04  0.50400001928E-02 0.  1.
    10030    2    1    2    0    0  0.00000000000E+00  0.00000000000E+00 -0.25309951692E+03  0.30069455646E+04  0.29962747309E+04 0.  0.
        4    1    3    3  502    0 -0.90416938257E+03  0.73013665612E+03  0.82222298763E+03  0.14236130314E+04  0.12699999809E+01 0. -1.
       -4    1    3    3    0  502  0.90416938257E+03 -0.73013665612E+03 -0.10753225046E+04  0.15833325332E+04  0.12699999809E+01 0.  1.
</event>
<event>
 5   0  0.5887179E-07  0.3000145E+04  0.7818609E-02  0.8243690E-01
        1   -1    0    0  501    0  0.00000000000E+00  0.00000000000E+00  0.27744773704E+04  0.27744773704E+04  0.50400001928E-02 0. -1.
       -1   -1    0    0    0  501  0.00000000000E+00  0.00000000000E+00 -0.81104177843E+03  0.81104177844E+03  0.50400001928E-02 0.  1.
    10030    2    1    2    0    0  0.00000000000E+00  0.00000000000E+00  0.19634355919E+04  0.35855191488E+04  0.30001447036E+04 0.  0.
        3    1    3    3  502    0  0.39813837146E+03  0.92697770316E+03 -0.34502998993E+03  0.10662305235E+04  0.10100000352E+00 0.  1.
       -3    1    3    3    0  502 -0.39813837146E+03 -0.92697770316E+03  0.23084655819E+04  0.25192886254E+04  0.10100000352E+00 0. -1.
</event>
<event>
 5   0  0.6291798E-07  0.3044399E+04  0.7818609E-02  0.8231165E-01
        1   -1    0    0  501    0  0.00000000000E+00  0.00000000000E+00  0.20413858133E+04  0.20413858134E+04  0.50400001928E-02 0. -1.
       -1   -1    0    0    0  501  0.00000000000E+00  0.00000000000E+00 -0.11350581381E+04  0.11350581381E+04  0.50400001928E-02 0.  1.
    10030    2    1    2    0    0  0.00000000000E+00  0.00000000000E+00  0.90632767521E+03  0.31764439515E+04  0.30443991726E+04 0.  0.
        1    1    3    3  502    0 -0.39941604378E+03  0.39742791970E+02 -0.10788470650E+04  0.11510967184E+04  0.50400001928E-02 0.  1.
       -1    1    3    3    0  502  0.39941604378E+03 -0.39742791970E+02  0.19851747402E+04  0.20253472331E+04  0.50400001928E-02 0. -1.
</event>
<event>
 5   0  0.1674806E-06  0.2989440E+04  0.7818609E-02  0.8246753E-01
       -2   -1    0    0    0  501  0.00000000000E+00  0.00000000000E+00  0.12646641469E+04  0.12646641469E+04  0.25500000920E-02 0. -1.
        2   -1    0    0  501    0  0.00000000000E+00  0.00000000000E+00 -0.17666253522E+04  0.17666253522E+04  0.25500000920E-02 0.  1.
    10030    2    1    2    0    0  0.00000000000E+00  0.00000000000E+00 -0.50196120530E+03  0.30312894990E+04  0.29894399100E+04 0.  0.
        2    1    3    3  502    0  0.40599259192E+03  0.13869010217E+04 -0.63824772366E+03  0.15797735867E+04  0.25500000920E-02 0.  1.
       -2    1    3    3    0  502 -0.40599259192E+03 -0.13869010217E+04  0.13628651836E+03  0.14515159123E+04  0.25500000920E-02 0. -1.
</event>
<event>
 5   0  0.5887179E-07  0.2997489E+04  0.7818609E-02  0.8244448E-01
        1   -1    0    0  501    0  0.00000000000E+00  0.00000000000E+00  0.19141999737E+04  0.19141999737E+04  0.50400001928E-02 0.  1.
       -1   -1    0    0    0  501  0.00000000000E+00  0.00000000000E+00 -0.11734587270E+04  0.11734587270E+04  0.50400001928E-02 0. -1.
    10030    2    1    2    0    0  0.00000000000E+00  0.00000000000E+00  0.74074124663E+03  0.30876587007E+04  0.29974887252E+04 0.  0.
        3    1    3    3  502    0 -0.12121778575E+04 -0.11559872765E+03  0.12704384461E+04  0.17597590970E+04  0.10100000352E+00 0.  1.
       -3    1    3    3    0  502  0.12121778575E+04  0.11559872765E+03 -0.52969719945E+03  0.13278996037E+04  0.10100000352E+00 0. -1.
</event>
<event>
 5   0  0.5931588E-07  0.3002334E+04  0.7818609E-02  0.8243065E-01
       -1   -1    0    0    0  501  0.00000000000E+00  0.00000000000E+00  0.23497871425E+04  0.23497871426E+04  0.50400001928E-02 0. -1.
        1   -1    0    0  501    0  0.00000000000E+00  0.00000000000E+00 -0.95902434339E+03  0.95902434340E+03  0.50400001928E-02 0.  1.
    10030    2    1    2    0    0  0.00000000000E+00  0.00000000000E+00  0.13907627992E+04  0.33088114860E+04  0.30023344727E+04 0.  0.
        2    1    3    3  502    0 -0.12640308013E+04 -0.13238562048E+03 -0.18504378768E+03  0.12843445887E+04  0.25500000920E-02 0.  1.
       -2    1    3    3    0  502  0.12640308013E+04  0.13238562048E+03  0.15758065868E+04  0.20244668973E+04  0.25500000920E-02 0. -1.
</event>
<event>
 5   0  0.5874741E-07  0.2946860E+04  0.7818609E-02  0.8259070E-01
       -1   -1    0    0    0  501  0.00000000000E+00  0.00000000000E+00  0.11787189265E+04  0.11787189265E+04  0.50400001928E-02 0.  1.
        1   -1    0    0  501    0  0.00000000000E+00  0.00000000000E+00 -0.18418270399E+04  0.18418270399E+04  0.50400001928E-02 0. -1.
    10030    2    1    2    0    0  0.00000000000E+00  0.00000000000E+00 -0.66310811339E+03  0.30205459664E+04  0.29468602893E+04 0.  0.
        4    1    3    3  502    0 -0.92008210197E+03 -0.10745847574E+04 -0.75381536278E+03  0.16029730782E+04  0.12699999809E+01 0. -1.
       -4    1    3    3    0  502  0.92008210197E+03  0.10745847574E+04  0.90707249387E+02  0.14175728882E+04  0.12699999809E+01 0.  1.
</event>
<event>
 5   0  0.1635086E-06  0.2950206E+04  0.7818609E-02  0.8258095E-01
        2   -1    0    0  501    0  0.00000000000E+00  0.00000000000E+00  0.11195148302E+04  0.11195148302E+04  0.25500000920E-02 0.  1.
       -2   -1    0    0    0  501  0.00000000000E+00  0.00000000000E+00 -0.19436354438E+04  0.19436354438E+04  0.25500000920E-02 0. -1.
    10030    2    1    2    0    0  0.00000000000E+00  0.00000000000E+00 -0.82412061360E+03  0.30631502739E+04  0.29502058936E+04 0.  0.
        3    1    3    3  502    0 -0.10594301687E+04 -0.62097755144E+02 -0.14758223652E+04  0.18177733845E+04  0.10100000352E+00 0. -1.
       -3    1    3    3    0  502  0.10594301687E+04  0.62097755144E+02  0.65170175158E+03  0.12453768894E+04  0.10100000352E+00 0.  1.
</event>
<event>
 5   0  0.1635086E-06  0.2985546E+04  0.7818609E-02  0.8247870E-01
        2   -1    0    0  501    0  0.00000000000E+00  0.00000000000E+00  0.24654806897E+04  0.24654806897E+04  0.25500000920E-02 0.  1.
       -2   -1    0    0    0  501  0.00000000000E+00  0.00000000000E+00 -0.90382828533E+03  0.90382828534E+03  0.25500000920E-02 0. -1.
    10030    2    1    2    0    0  0.00000000000E+00  0.00000000000E+00  0.15616524043E+04  0.33693089750E+04  0.29855459697E+04 0.  0.
        3    1    3    3  502    0  0.94899680745E+02 -0.62283037101E+03 -0.74643851733E+03  0.97677740085E+03  0.10100000352E+00 0. -1.
       -3    1    3    3    0  502 -0.94899680745E+02  0.62283037101E+03  0.23080909217E+04  0.23925315741E+04  0.10100000352E+00 0.  1.
</event>
<event>
 5   0  0.5931588E-07  0.3003055E+04  0.7818609E-02  0.8242859E-01
        1   -1    0    0  501    0  0.00000000000E+00  0.00000000000E+00  0.19655167979E+04  0.19655167979E+04  0.50400001928E-02 0. -1.
       -1   -1    0    0    0  501  0.00000000000E+00  0.00000000000E+00 -0.11470697859E+04  0.11470697859E+04  0.50400001928E-02 0.  1.
    10030    2    1    2    0    0  0.00000000000E+00  0.00000000000E+00  0.81844701200E+03  0.31125865839E+04  0.30030550662E+04 0.  0.
        2    1    3    3  502    0  0.72091848675E+03 -0.11871991697E+04  0.10004855476E+04  0.17117641963E+04  0.25500000920E-02 0.  1.
       -2    1    3    3    0  502 -0.72091848675E+03  0.11871991697E+04 -0.18203853557E+03  0.14008223875E+04  0.25500000920E-02 0. -1.
</event>
<event>
 5   0  0.5916703E-07  0.2989732E+04  0.7818609E-02  0.8246669E-01
       -1   -1    0    0    0  501  0.00000000000E+00  0.00000000000E+00  0.12003308614E+04  0.12003308615E+04  0.50400001928E-02 0. -1.
        1   -1    0    0  501    0  0.00000000000E+00  0.00000000000E+00 -0.18616741701E+04  0.18616741701E+04  0.50400001928E-02 0.  1.
    10030    2    1    2    0    0  0.00000000000E+00  0.00000000000E+00 -0.66134330870E+03  0.30620050316E+04  0.29897324030E+04 0.  0.
        5    1    3    3  502    0 -0.63750203714E+03 -0.64109535279E+03 -0.15499075476E+04  0.17943376480E+04  0.46999998093E+01 0.  1.
       -5    1    3    3    0  502  0.63750203714E+03  0.64109535279E+03  0.88856423895E+03  0.12676673836E+04  0.46999998093E+01 0. -1.
</event>
<event>
 5   0  0.1560174E-06  0.3001347E+04  0.7818609E-02  0.8243346E-01
       -2   -1    0    0    0  501  0.00000000000E+00  0.00000000000E+00  0.93110789924E+03  0.93110789925E+03  0.25500000920E-02 0. -1.
        2   -1    0    0  501    0  0.00000000000E+00  0.00000000000E+00 -0.24186463149E+04  0.24186463149E+04  0.25500000920E-02 0.  1.
    10030    2    1    2    0    0  0.00000000000E+00  0.00000000000E+00 -0.14875384157E+04  0.33497542141E+04  0.30013468239E+04 0.  0.
        5    1    3    3  502    0  0.86029905260E+03 -0.47009204583E+03 -0.20118375387E+04  0.22379931554E+04  0.46999998093E+01 0.  1.
       -5    1    3    3    0  502 -0.86029905260E+03  0.47009204583E+03  0.52429912301E+03  0.11117610588E+04  0.46999998093E+01 0. -1.
</event>
<event>
 5   0  0.1723916E-06  0.3000743E+04  0.7818609E-02  0.8243519E-01
        2   -1    0    0  501    0  0.00000000000E+00  0.00000000000E+00  0.24437242956E+04  0.24437242956E+04  0.25500000920E-02 0. -1.
       -2   -1    0    0    0  501  0.00000000000E+00  0.00000000000E+00 -0.92118222400E+03  0.92118222400E+03  0.25500000920E-02 0.  1.
    10030    2    1    2    0    0  0.00000000000E+00  0.00000000000E+00  0.15225420716E+04  0.33649065196E+04  0.30007434955E+04 0.  0.
        1    1    3    3  502    0  0.28152526131E+03  0.16391005618E+03 -0.88104604334E+03  0.93934291384E+03  0.50400001928E-02 0.  1.
       -1    1    3    3    0  502 -0.28152526131E+03 -0.16391005618E+03  0.24035881149E+04  0.24255636057E+04  0.50400001928E-02 0. -1.
</event>
<event>
 5   0  0.5431625E-07  0.3006021E+04  0.7818609E-02  0.8242014E-01
        3   -1    0    0  501    0  0.00000000000E+00  0.00000000000E+00  0.13159824682E+04  0.13159824721E+04  0.10100000352E+00 0.  1.
       -3   -1    0    0    0  501  0.00000000000E+00  0.00000000000E+00 -0.17166190704E+04  0.17166190734E+04  0.10100000352E+00 0. -1.
    10030    2    1    2    0    0  0.00000000000E+00  0.00000000000E+00 -0.40063660219E+03  0.30326015455E+04  0.30060210323E+04 0.  0.
        2    1    3    3  502    0  0.37719089131E+03  0.31344451314E+03 -0.16336274892E+04  0.17056550662E+04  0.25500000920E-02 0. -1.
       -2    1    3    3    0  502 -0.37719089131E+03 -0.31344451314E+03  0.12329908871E+04  0.13269464793E+04  0.25500000920E-02 0.  1.
</event>
<event>
 5   0  0.5874741E-07  0.3020698E+04  0.7818609E-02  0.8237845E-01
        1   -1    0    0  501    0  0.00000000000E+00  0.00000000000E+00  0.15293146647E+04  0.15293146647E+04  0.50400001928E-02 0. -1.
       -1   -1    0    0    0  501  0.00000000000E+00  0.00000000000E+00 -0.14916187360E+04  0.14916187360E+04  0.50400001928E-02 0.  1.
    10030    2    1    2    0    0  0.00000000000E+00  0.00000000000E+00  0.37695928625E+02  0.30209334007E+04  0.30206982022E+04 0.  0.
        4    1    3    3  502    0 -0.66407436331E+02  0.15023252621E+04  0.15943505845E+03  0.15122209797E+04  0.12699999809E+01 0. -1.
       -4    1    3    3    0  502  0.66407436331E+02 -0.15023252621E+04 -0.12173912983E+03  0.15087124210E+04  0.12699999809E+01 0.  1.
</event>
<event>
 5   0  0.1625212E-06  0.3003586E+04  0.7818609E-02  0.8242708E-01
        2   -1    0    0  501    0  0.00000000000E+00  0.00000000000E+00  0.24825960273E+04  0.24825960273E+04  0.25500000920E-02 0. -1.
       -2   -1    0    0    0  501  0.00000000000E+00  0.00000000000E+00 -0.90847705930E+03  0.90847705931E+03  0.25500000920E-02 0.  1.
    10030    2    1    2    0    0  0.00000000000E+00  0.00000000000E+00  0.15741189680E+04  0.33910730866E+04  0.30035855495E+04 0.  0.
        4    1    3    3  502    0  0.51849440312E+03  0.15266297357E+03 -0.79485704488E+03  0.96121889509E+03  0.12699999809E+01 0.  1.
       -4    1    3    3    0  502 -0.51849440312E+03 -0.15266297357E+03  0.23689760129E+04  0.24298541915E+04  0.12699999809E+01 0. -1.
</event>
<event>
 5   0  0.1635086E-06  0.3002344E+04  0.7818609E-02  0.8243062E-01
        2   -1    0    0  501    0  0.00000000000E+00  0.00000000000E+00  0.25396623966E+04  0.25396623966E+04  0.25500000920E-02 0. -1.
       -2   -1    0    0    0  501  0.00000000000E+00  0.00000000000E+00 -0.88732961182E+03  0.88732961183E+03  0.25500000920E-02 0.  1.
    10030    2    1    2    0    0  0.00000000000E+00  0.00000000000E+00  0.16523327848E+04  0.34269920084E+04  0.30023441831E+04 0.  0.
        3    1    3    3  502    0 -0.11041730887E+04 -0.38489221341E+03  0.19006825547E+04  0.22315766646E+04  0.10100000352E+00 0. -1.
       -3    1    3    3    0  502  0.11041730887E+04  0.38489221341E+03 -0.24834976999E+03  0.11954153438E+04  0.10100000352E+00 0.  1.
</event>
<event>
 5   0  0.1560174E-06  0.3011376E+04  0.7818609E-02  0.8240490E-01
        2   -1    0    0  501    0  0.00000000000E+00  0.00000000000E+00  0.16386544868E+04  0.16386544868E+04  0.25500000920E-02 0. -1.
       -2   -1    0    0    0  501  0.00000000000E+00  0.00000000000E+00 -0.13835109715E+04  0.13835109715E+04  0.25500000920E-02 0.  1.
    10030    2    1    2    0    0  0.00000000000E+00  0.00000000000E+00  0.25514351530E+03  0.30221654584E+04  0.30113760716E+04 0.  0.
        5    1    3    3  502    0 -0.11900192179E+04  0.85706878633E+03 -0.21476877535E+03  0.14821809473E+04  0.46999998093E+01 0.  1.
       -5    1    3    3    0  502  0.11900192179E+04 -0.85706878633E+03  0.46991229065E+03  0.15399845111E+04  0.46999998093E+01 0. -1.
</event>
<event>
 5   0  0.1560174E-06  0.3001523E+04  0.7818609E-02  0.8243296E-01
       -2   -1    0    0    0  501  0.00000000000E+00  0.00000000000E+00  0.18048923726E+04  0.18048923726E+04  0.25500000920E-02 0.  1.
        2   -1    0    0  501    0  0.00000000000E+00  0.00000000000E+00 -0.12478777163E+04  0.12478777163E+04  0.25500000920E-02 0. -1.
    10030    2    1    2    0    0  0.00000000000E+00  0.00000000000E+00  0.55701465632E+03  0.30527700889E+04  0.30015229282E+04 0.  0.
        5    1    3    3  502    0 -0.33484564163E+03  0.13245685816E+04  0.91012513545E+03  0.16416313177E+04  0.46999998093E+01 0.  1.
       -5    1    3    3    0  502  0.33484564163E+03 -0.13245685816E+04 -0.35311047913E+03  0.14111387712E+04  0.46999998093E+01 0. -1.
</event>
<event>
 5   0  0.1560174E-06  0.2983708E+04  0.7818609E-02  0.8248399E-01
        2   -1    0    0  501    0  0.00000000000E+00  0.00000000000E+00  0.21946164829E+04  0.21946164829E+04  0.25500000920E-02 0. -1.
       -2   -1    0    0    0  501  0.00000000000E+00  0.00000000000E+00 -0.10141305884E+04  0.10141305884E+04  0.25500000920E-02 0.  1.
    10030    2    1    2    0    0  0.00000000000E+00  0.00000000000E+00  0.11804858946E+04  0.32087470713E+04  0.29837075628E+04 0.  0.
        5    1    3    3  502    0 -0.12960493796E+04  0.63694691491E+03  0.18762636376E+03  0.14562524195E+04  0.46999998093E+01 0.  1.
       -5    1    3    3    0  502  0.12960493796E+04 -0.63694691491E+03  0.99285953080E+03  0.17524946518E+04  0.46999998093E+01 0. -1.
</event>
<event>
 5   0  0.5916703E-07  0.3014836E+04  0.7818609E-02  0.8239507E-01
       -1   -1    0    0    0  501  0.00000000000E+00  0.00000000000E+00  0.12142849322E+04  0.12142849322E+04  0.50400001928E-02 0.  1.
        1   -1    0    0  501    0  0.00000000000E+00  0.00000000000E+00 -0.18713139645E+04  0.18713139645E+04  0.50400001928E-02 0. -1.
    10030    2    1    2    0    0  0.00000000000E+00  0.00000000000E+00 -0.65702903236E+03  0.30855988967E+04  0.30148355514E+04 0.  0.
        5    1    3    3  502    0 -0.96480440441E+03 -0.10911927452E+04 -0.72587615821E+03  0.16274112673E+04  0.46999998093E+01 0. -1.
       -5    1    3    3    0  502  0.96480440441E+03  0.10911927452E+04  0.68847125856E+02  0.14581876294E+04  0.46999998093E+01 0.  1.
</event>
<event>
 5   0  0.1723916E-06  0.3003172E+04  0.7818609E-02  0.8242826E-01
        2   -1    0    0  501    0  0.00000000000E+00  0.00000000000E+00  0.15643200088E+04  0.15643200088E+04  0.25500000920E-02 0.  1.
       -2   -1    0    0    0  501  0.00000000000E+00  0.00000000000E+00 -0.14413678324E+04  0.14413678324E+04  0.25500000920E-02 0. -1.
    10030    2    1    2    0    0  0.00000000000E+00  0.00000000000E+00  0.12295217634E+03  0.30056878412E+04  0.30031720166E+04 0.  0.
        1    1    3    3  502    0 -0.13745461890E+04 -0.53057713203E+03  0.35132398278E+03  0.15147005841E+04  0.50400001928E-02 0.  1.
       -1    1    3    3    0  502  0.13745461890E+04  0.53057713203E+03 -0.22837180644E+03  0.14909872571E+04  0.50400001928E-02 0. -1.
</event>
<event>
 5   0  0.5931588E-07  0.2994562E+04  0.7818609E-02  0.8245285E-01
       -1   -1    0    0    0  501  0.00000000000E+00  0.00000000000E+00  0.15444634620E+04  0.15444634620E+04  0.50400001928E-02 0. -1.
        1   -1    0    0  501    0  0.00000000000E+00  0.00000000000E+00 -0.14515397674E+04  0.14515397674E+04  0.50400001928E-02 0.  1.
    10030    2    1    2    0    0  0.00000000000E+00  0.00000000000E+00  0.92923694597E+02  0.29960032294E+04  0.29945618273E+04 0.  0.
        2    1    3    3  502    0  0.83779100770E+03 -0.11666471567E+04  0.46962024497E+03  0.15111262473E+04  0.25500000920E-02 0. -1.
       -2    1    3    3    0  502 -0.83779100770E+03  0.11666471567E+04 -0.37669655038E+03  0.14848769821E+04  0.25500000920E-02 0.  1.
</event>
<event>
 5   0  0.5931588E-07  0.2995434E+04  0.7818609E-02  0.8245036E-01
        1   -1    0    0  501    0  0.00000000000E+00  0.00000000000E+00  0.22532298375E+04  0.22532298375E+04  0.50400001928E-02 0.  1.
       -1   -1    0    0    0  501  0.00000000000E+00  0.00000000000E+00 -0.99552944926E+03  0.99552944927E+03  0.50400001928E-02 0. -1.
    10030    2    1    2    0    0  0.00000000000E+00  0.00000000000E+00  0.12577003882E+04  0.32487592867E+04  0.29954342985E+04 0.  0.
        2    1    3    3  502    0 -0.70719177971E+03  0.50234296836E+03 -0.69534226893E+03  0.11117416706E+04  0.25500000920E-02 0. -1.
       -2    1    3    3    0  502  0.70719177971E+03 -0.50234296836E+03  0.19530426571E+04  0.21370176162E+04  0.25500000920E-02 0.  1.
</event>
<event>
 5   0  0.5887179E-07  0.2969664E+04  0.7818609E-02  0.8252447E-01
       -1   -1    0    0    0  501  0.00000000000E+00  0.00000000000E+00  0.13969150987E+04  0.13969150987E+04  0.50400001928E-02 0.  1.
        1   -1    0    0  501    0  0.00000000000E+00  0.00000000000E+00 -0.15782816539E+04  0.15782816539E+04  0.50400001928E-02 0. -1.
    10030    2    1    2    0    0  0.00000000000E+00  0.00000000000E+00 -0.18136655528E+03  0.29751967526E+04  0.29696635987E+04 0.  0.
        3    1    3    3  502    0 -0.21844326829E+03 -0.13718199741E+04 -0.61617745279E+03  0.15196322471E+04  0.10100000352E+00 0. -1.
       -3    1    3    3    0  502  0.21844326829E+03  0.13718199741E+04  0.43481089751E+03  0.14555645055E+04  0.10100000352E+00 0.  1.
</event>
<event>
 5   0  0.1723916E-06  0.3039466E+04  0.7818609E-02  0.8232550E-01
       -2   -1    0    0    0  501  0.00000000000E+00  0.00000000000E+00  0.14866979844E+04  0.14866979844E+04  0.25500000920E-02 0.  1.
        2   -1    0    0  501    0  0.00000000000E+00  0.00000000000E+00 -0.15535021576E+04  0.15535021576E+04  0.25500000920E-02 0. -1.
    10030    2    1    2    0    0  0.00000000000E+00  0.00000000000E+00 -0.66804173216E+02  0.30402001420E+04  0.30394660889E+04 0.  0.
        1    1    3    3  502    0  0.68226412897E+02 -0.14751352646E+04 -0.39252867569E+03  0.15279913787E+04  0.50400001928E-02 0. -1.
       -1    1    3    3    0  502 -0.68226412897E+02  0.14751352646E+04  0.32572450247E+03  0.15122087633E+04  0.50400001928E-02 0.  1.
</event>
<event>
 5   0  0.5874741E-07  0.2994906E+04  0.7818609E-02  0.8245187E-01
       -1   -1    0    0    0  501  0.00000000000E+00  0.00000000000E+00  0.17940635336E+04  0.17940635336E+04  0.50400001928E-02 0.  1.
        1   -1    0    0  501    0  0.00000000000E+00  0.00000000000E+00 -0.12498804099E+04  0.12498804099E+04  0.50400001928E-02 0. -1.
    10030    2    1    2    0    0  0.00000000000E+00  0.00000000000E+00  0.54418312369E+03  0.30439439435E+04  0.29949055843E+04 0.  0.
        4    1    3    3  502    0  0.23873996033E+03  0.72029481905E+03 -0.10399924020E+04  0.12874032795E+04  0.12699999809E+01 0. -1.
       -4    1    3    3    0  502 -0.23873996033E+03 -0.72029481905E+03  0.15841755257E+04  0.17565406640E+04  0.12699999809E+01 0.  1.
</event>
<event>
 5   0  0.5874741E-07  0.2988423E+04  0.7818609E-02  0.8247044E-01
       -1   -1    0    0    0  501  0.00000000000E+00  0.00000000000E+00  0.94152903477E+03  0.94152903478E+03  0.50400001928E-02 0.  1.
        1   -1    0    0  501    0  0.00000000000E+00  0.00000000000E+00 -0.23713219548E+04  0.23713219548E+04  0.50400001928E-02 0. -1.
    10030    2    1    2    0    0  0.00000000000E+00  0.00000000000E+00 -0.14297929200E+04  0.33128509896E+04  0.29884233109E+04 0.  0.
        4    1    3    3  502    0  0.12475614928E+04  0.43583610683E+03  0.58164492973E+02  0.13227802204E+04  0.12699999809E+01 0.  1.
       -4    1    3    3    0  502 -0.12475614928E+04 -0.43583610683E+03 -0.14879574130E+04  0.19900707691E+04  0.12699999809E+01 0. -1.
</event>
<event>
 5   0  0.5916703E-07  0.2961074E+04  0.7818609E-02  0.8254935E-01
        1   -1    0    0  501    0  0.00000000000E+00  0.00000000000E+00  0.15437602789E+04  0.15437602789E+04  0.50400001928E-02 0.  1.
       -1   -1    0    0    0  501  0.00000000000E+00  0.00000000000E+00 -0.14199027259E+04  0.14199027260E+04  0.50400001928E-02 0. -1.
    10030    2    1    2    0    0  0.00000000000E+00  0.00000000000E+00  0.12385755295E+03  0.29636630049E+04  0.29610737432E+04 0.  0.
        5    1    3    3  502    0 -0.56891519214E+02 -0.12907508040E+04 -0.66167855858E+03  0.14515904684E+04  0.46999998093E+01 0. -1.
       -5    1    3    3    0  502  0.56891519214E+02  0.12907508040E+04  0.78553611152E+03  0.15120725365E+04  0.46999998093E+01 0.  1.
</event>
<event>
 5   0  0.1674806E-06  0.2947905E+04  0.7818609E-02  0.8258765E-01
        2   -1    0    0  501    0  0.00000000000E+00  0.00000000000E+00  0.13407948784E+04  0.13407948784E+04  0.25500000920E-02 0.  1.
       -2   -1    0    0    0  501  0.00000000000E+00  0.00000000000E+00 -0.16203343675E+04  0.16203343675E+04  0.25500000920E-02 0. -1.
    10030    2    1    2    0    0  0.00000000000E+00  0.00000000000E+00 -0.27953948910E+03  0.29611292459E+04  0.29479050332E+04 0.  0.
        2    1    3    3  502    0  0.12333370317E+04  0.72028394958E+03 -0.50555551304E+03  0.15150958975E+04  0.25500000920E-02 0. -1.
       -2    1    3    3    0  502 -0.12333370317E+04 -0.72028394958E+03  0.22601602394E+03  0.14460333484E+04  0.25500000920E-02 0.  1.
</event>
<event>
 5   0  0.1625212E-06  0.2996294E+04  0.7818609E-02  0.8244790E-01
        2   -1    0    0  501    0  0.00000000000E+00  0.00000000000E+00  0.19803846465E+04  0.19803846465E+04  0.25500000920E-02 0.  1.
       -2   -1    0    0    0  501  0.00000000000E+00  0.00000000000E+00 -0.11333378799E+04  0.11333378799E+04  0.25500000920E-02 0. -1.
    10030    2    1    2    0    0  0.00000000000E+00  0.00000000000E+00  0.84704676660E+03  0.31137225264E+04  0.29962943357E+04 0.  0.
        4    1    3    3  502    0 -0.71459602796E+03 -0.88225667510E+02 -0.94174285221E+03  0.11854587568E+04  0.12699999809E+01 0. -1.
       -4    1    3    3    0  502  0.71459602796E+03  0.88225667510E+02  0.17887896188E+04  0.19282637695E+04  0.12699999809E+01 0.  1.
</event>
<event>
 5   0  0.1560174E-06  0.2994593E+04  0.7818609E-02  0.8245276E-01
       -2   -1    0    0    0  501  0.00000000000E+00  0.00000000000E+00  0.99056379744E+03  0.99056379744E+03  0.25500000920E-02 0.  1.
        2   -1    0    0  501    0  0.00000000000E+00  0.00000000000E+00 -0.22632536956E+04  0.22632536956E+04  0.25500000920E-02 0. -1.
    10030    2    1    2    0    0  0.00000000000E+00  0.00000000000E+00 -0.12726898982E+04  0.32538174931E+04  0.29945932447E+04 0.  0.
        5    1    3    3  502    0  0.14606817789E+04  0.29604781978E+03 -0.48024416428E+03  0.15658518826E+04  0.46999998093E+01 0.  1.
       -5    1    3    3    0  502 -0.14606817789E+04 -0.29604781978E+03 -0.79244573389E+03  0.16879656105E+04  0.46999998093E+01 0. -1.
</event>
<event>
 5   0  0.1635086E-06  0.2991898E+04  0.7818609E-02  0.8246048E-01
        2   -1    0    0  501    0  0.00000000000E+00  0.00000000000E+00  0.17103795797E+04  0.17103795797E+04  0.25500000920E-02 0. -1.
       -2   -1    0    0    0  501  0.00000000000E+00  0.00000000000E+00 -0.13084020000E+04  0.13084020000E+04  0.25500000920E-02 0.  1.
    10030    2    1    2    0    0  0.00000000000E+00  0.00000000000E+00  0.40197757970E+03  0.30187815798E+04  0.29918984361E+04 0.  0.
        3    1    3    3  502    0 -0.12443030323E+04 -0.82632660048E+03  0.11804083288E+03  0.14983455327E+04  0.10100000352E+00 0.  1.
       -3    1    3    3    0  502  0.12443030323E+04  0.82632660048E+03  0.28393674683E+03  0.15204360471E+04  0.10100000352E+00 0. -1.
</event>
<event>
 5   0  0.1560174E-06  0.2994894E+04  0.7818609E-02  0.8245191E-01
        2   -1    0    0  501    0  0.00000000000E+00  0.00000000000E+00  0.14456597010E+04  0.14456597010E+04  0.25500000920E-02 0.  1.
       -2   -1    0    0    0  501  0.00000000000E+00  0.00000000000E+00 -0.15510890970E+04  0.15510890970E+04  0.25500000920E-02 0. -1.
    10030    2    1    2    0    0  0.00000000000E+00  0.00000000000E+00 -0.10542939597E+03  0.29967487981E+04  0.29948936544E+04 0.  0.
        5    1    3    3  502    0 -0.12978181480E+04 -0.68047165672E+03 -0.36104724281E+03  0.15092219262E+04  0.46999998093E+01 0. -1.
       -5    1    3    3    0  502  0.12978181480E+04  0.68047165672E+03  0.25561784685E+03  0.14875268719E+04  0.46999998093E+01 0.  1.
</event>
<event>
 5   0  0.1674806E-06  0.2992521E+04  0.7818609E-02  0.8245870E-01
        2   -1    0    0  501    0  0.00000000000E+00  0.00000000000E+00  0.15009886360E+04  0.15009886360E+04  0.25500000920E-02 0. -1.
       -2   -1    0    0    0  501  0.00000000000E+00  0.00000000000E+00 -0.14915475181E+04  0.14915475181E+04  0.25500000920E-02 0.  1.
    10030    2    1    2    0    0  0.00000000000E+00  0.00000000000E+00  0.94411179147E+01  0.29925361541E+04  0.29925212612E+04 0.  0.
        2    1    3    3  502    0 -0.36413623622E+03 -0.43384622347E+03  0.13896383258E+04  0.15006373382E+04  0.25500000920E-02 0. -1.
       -2    1    3    3    0  502  0.36413623622E+03  0.43384622347E+03 -0.13801972079E+04  0.14918988159E+04  0.25500000920E-02 0.  1.
</event>
<event>
 5   0  0.6291798E-07  0.2874458E+04  0.7818609E-02  0.8280518E-01
       -1   -1    0    0    0  501  0.00000000000E+00  0.00000000000E+00  0.13181124858E+04  0.13181124858E+04  0.50400001928E-02 0. -1.
        1   -1    0    0  501    0  0.00000000000E+00  0.00000000000E+00 -0.15671096438E+04  0.15671096438E+04  0.50400001928E-02 0.  1.
    10030    2    1    2    0    0  0.00000000000E+00  0.00000000000E+00 -0.24899715794E+03  0.28852221296E+04  0.28744577145E+04 0.  0.
        1    1    3    3  502    0  0.51476804001E+03  0.11927239189E+04  0.49266192865E+03  0.13893495808E+04  0.50400001928E-02 0. -1.
       -1    1    3    3    0  502 -0.51476804001E+03 -0.11927239189E+04 -0.74165908660E+03  0.14958725488E+04  0.50400001928E-02 0.  1.
</event>
<event>
 5   0  0.5874741E-07  0.3009159E+04  0.7818609E-02  0.8241120E-01
        1   -1    0    0  501    0  0.00000000000E+00  0.00000000000E+00  0.26151785922E+04  0.26151785922E+04  0.50400001928E-02 0. -1.
       -1   -1    0    0    0  501  0.00000000000E+00  0.00000000000E+00 -0.86562345679E+03  0.86562345681E+03  0.50400001928E-02 0.  1.
    10030    2    1    2    0    0  0.00000000000E+00  0.00000000000E+00  0.17495551354E+04  0.34808020490E+04  0.30091593066E+04 0.  0.
        4    1    3    3  502    0  0.11905434019E+04 -0.14664590119E+03 -0.17579048712E+03  0.12123541234E+04  0.12699999809E+01 0.  1.
       -4    1    3    3    0  502 -0.11905434019E+04  0.14664590119E+03  0.19253456225E+04  0.22684479256E+04  0.12699999809E+01 0. -1.
</event>
<event>
 5   0  0.1625212E-06  0.2993798E+04  0.7818609E-02  0.8245504E-01
       -2   -1    0    0    0  501  0.00000000000E+00  0.00000000000E+00  0.16428063079E+04  0.16428063079E+04  0.25500000920E-02 0. -1.
        2   -1    0    0  501    0  0.00000000000E+00  0.00000000000E+00 -0.13639505737E+04  0.13639505737E+04  0.25500000920E-02 0.  1.
    10030    2    1    2    0    0  0.00000000000E+00  0.00000000000E+00  0.27885573415E+03  0.30067568816E+04  0.29937979933E+04 0.  0.
        4    1    3    3  502    0  0.93751949476E+03  0.11562884416E+04  0.29745963112E+03  0.15180347849E+04  0.12699999809E+01 0. -1.
       -4    1    3    3    0  502 -0.93751949476E+03 -0.11562884416E+04 -0.18603896974E+02  0.14887220967E+04  0.12699999809E+01 0.  1.
</event>
<event>
 5   0  0.1625212E-06  0.3120268E+04  0.7818609E-02  0.8210197E-01
        2   -1    0    0  501    0  0.00000000000E+00  0.00000000000E+00  0.18537637025E+04  0.18537637025E+04  0.25500000920E-02 0.  1.
       -2   -1    0    0    0  501  0.00000000000E+00  0.00000000000E+00 -0.13130144197E+04  0.13130144198E+04  0.25500000920E-02 0. -1.
    10030    2    1    2    0    0  0.00000000000E+00  0.00000000000E+00  0.54074928279E+03  0.31667781223E+04  0.31202682399E+04 0.  0.
        4    1    3    3  502    0  0.12285394551E+04 -0.36429058801E+03 -0.63283446059E+03  0.14291598555E+04  0.12699999809E+01 0. -1.
       -4    1    3    3    0  502 -0.12285394551E+04  0.36429058801E+03  0.11735837434E+04  0.17376182667E+04  0.12699999809E+01 0.  1.
</event>
<event>
 5   0  0.5931588E-07  0.3002361E+04  0.7818609E-02  0.8243057E-01
       -1   -1    0    0    0  501  0.00000000000E+00  0.00000000000E+00  0.11344675189E+04  0.11344675189E+04  0.50400001928E-02 0. -1.
        1   -1    0    0  501    0  0.00000000000E+00  0.00000000000E+00 -0.19864322096E+04  0.19864322096E+04  0.50400001928E-02 0.  1.
    10030    2    1    2    0    0  0.00000000000E+00  0.00000000000E+00 -0.85196469066E+03  0.31208997285E+04  0.30023609512E+04 0.  0.
        2    1    3    3  502    0 -0.51946140259E+03 -0.88828430037E+03  0.71017354350E+03  0.12502942090E+04  0.25500000920E-02 0. -1.
       -2    1    3    3    0  502  0.51946140259E+03  0.88828430037E+03 -0.15621382342E+04  0.18706055195E+04  0.25500000920E-02 0.  1.
</event>
<event>
 5   0  0.5931588E-07  0.2958492E+04  0.7818609E-02  0.8255684E-01
       -1   -1    0    0    0  501  0.00000000000E+00  0.00000000000E+00  0.15001009787E+04  0.15001009788E+04  0.50400001928E-02 0. -1.
        1   -1    0    0  501    0  0.00000000000E+00  0.00000000000E+00 -0.14586808324E+04  0.14586808324E+04  0.50400001928E-02 0.  1.
    10030    2    1    2    0    0  0.00000000000E+00  0.00000000000E+00  0.41420146350E+02  0.29587818112E+04  0.29584918755E+04 0.  0.
        2    1    3    3  502    0 -0.11371122257E+04 -0.41719427956E+03 -0.82854525148E+03  0.14675021344E+04  0.25500000920E-02 0.  1.
       -2    1    3    3    0  502  0.11371122257E+04  0.41719427956E+03  0.86996539783E+03  0.14912796767E+04  0.25500000920E-02 0. -1.
</event>
<event>
 5   0  0.1674806E-06  0.3010075E+04  0.7818609E-02  0.8240860E-01
       -2   -1    0    0    0  501  0.00000000000E+00  0.00000000000E+00  0.10270767451E+04  0.10270767451E+04  0.25500000920E-02 0. -1.
        2   -1    0    0  501    0  0.00000000000E+00  0.00000000000E+00 -0.22054218333E+04  0.22054218333E+04  0.25500000920E-02 0.  1.
    10030    2    1    2    0    0  0.00000000000E+00  0.00000000000E+00 -0.11783450883E+04  0.32324985784E+04  0.30100747353E+04 0.  0.
        2    1    3    3  502    0  0.10943720964E+04  0.10178613133E+04 -0.39874025442E+03  0.15468308663E+04  0.25500000920E-02 0.  1.
       -2    1    3    3    0  502 -0.10943720964E+04 -0.10178613133E+04 -0.77960483383E+03  0.16856677120E+04  0.25500000920E-02 0. -1.
</event>
<event>
 5   0  0.1635086E-06  0.3029530E+04  0.7818609E-02  0.8235348E-01
        2   -1    0    0  501    0  0.00000000000E+00  0.00000000000E+00  0.28286768495E+04  0.28286768495E+04  0.25500000920E-02 0. -1.
       -2   -1    0    0    0  501  0.00000000000E+00  0.00000000000E+00 -0.81116143937E+03  0.81116143938E+03  0.25500000920E-02 0.  1.
    10030    2    1    2    0    0  0.00000000000E+00  0.00000000000E+00  0.20175154101E+04  0.36398382889E+04  0.30295303826E+04 0.  0.
        3    1    3    3  502    0 -0.11942611040E+04 -0.80714365775E+02  0.21240653953E+04  0.24381198098E+04  0.10100000352E+00 0. -1.
       -3    1    3    3    0  502  0.11942611040E+04  0.80714365775E+02 -0.10654998519E+03  0.12017184790E+04  0.10100000352E+00 0.  1.
</event>
<event>
 5   0  0.1674806E-06  0.2998627E+04  0.7818609E-02  0.8244123E-01
        2   -1    0    0  501    0  0.00000000000E+00  0.00000000000E+00  0.18614313021E+04  0.18614313021E+04  0.25500000920E-02 0.  1.
       -2   -1    0    0    0  501  0.00000000000E+00  0.00000000000E+00 -0.12076408723E+04  0.12076408723E+04  0.25500000920E-02 0. -1.
    10030    2    1    2    0    0  0.00000000000E+00  0.00000000000E+00  0.65379042973E+03  0.30690721744E+04  0.29986266999E+04 0.  0.
        2    1    3    3  502    0  0.13330820950E+04  0.12584150011E+03 -0.36348566912E+03  0.13874674002E+04  0.25500000920E-02 0. -1.
       -2    1    3    3    0  502 -0.13330820950E+04 -0.12584150011E+03  0.10172760989E+04  0.16816047741E+04  0.25500000920E-02 0.  1.
</event>
<event>
 5   0  0.1723916E-06  0.3003347E+04  0.7818609E-02  0.8242776E-01
        2   -1    0    0  501    0  0.00000000000E+00  0.00000000000E+00  0.17184469414E+04  0.17184469414E+04  0.25500000920E-02 0.  1.
       -2   -1    0    0    0  501  0.00000000000E+00  0.00000000000E+00 -0.13122448917E+04  0.13122448917E+04  0.25500000920E-02 0. -1.
    10030    2    1    2    0    0  0.00000000000E+00  0.00000000000E+00  0.40620204965E+03  0.30306918331E+04  0.30033469467E+04 0.  0.
        1    1    3    3  502    0 -0.59866895819E+03  0.12979517337E+04 -0.26145996129E+03  0.14530810493E+04  0.50400001928E-02 0. -1.
       -1    1    3    3    0  502  0.59866895819E+03 -0.12979517337E+04  0.66766201095E+03  0.15776107838E+04  0.50400001928E-02 0.  1.
</event>
<event>
 5   0  0.5916703E-07  0.3033248E+04  0.7818609E-02  0.8234300E-01
       -1   -1    0    0    0  501  0.00000000000E+00  0.00000000000E+00  0.22451627945E+04  0.22451627945E+04  0.50400001928E-02 0.  1.
        1   -1    0    0  501    0  0.00000000000E+00  0.00000000000E+00 -0.10244907337E+04  0.10244907337E+04  0.50400001928E-02 0. -1.
    10030    2    1    2    0    0  0.00000000000E+00  0.00000000000E+00  0.12206720607E+04  0.32696535282E+04  0.30332480800E+04 0.  0.
        5    1    3    3  502    0 -0.86728176206E+03 -0.98848949974E+03  0.14247588863E+04  0.19388783149E+04  0.46999998093E+01 0.  1.
       -5    1    3    3    0  502  0.86728176206E+03  0.98848949974E+03 -0.20408682559E+03  0.13307752133E+04  0.46999998093E+01 0. -1.
</event>
<event>
 5   0  0.1560174E-06  0.2999861E+04  0.7818609E-02  0.8243770E-01
        2   -1    0    0  501    0  0.00000000000E+00  0.00000000000E+00  0.23683644099E+04  0.23683644099E+04  0.25500000920E-02 0.  1.
       -2   -1    0    0    0  501  0.00000000000E+00  0.00000000000E+00 -0.94993498154E+03  0.94993498154E+03  0.25500000920E-02 0. -1.
    10030    2    1    2    0    0  0.00000000000E+00  0.00000000000E+00  0.14184294283E+04  0.33182993914E+04  0.29998614648E+04 0.  0.
        5    1    3    3  502    0 -0.90504229032E+03 -0.95189785844E+03  0.15103605002E+04  0.20016048588E+04  0.46999998093E+01 0.  1.
       -5    1    3    3    0  502  0.90504229032E+03  0.95189785844E+03 -0.91931071912E+02  0.13166945326E+04  0.46999998093E+01 0. -1.
</event>
<event>
 5   0  0.1625212E-06  0.2869276E+04  0.7818609E-02  0.8282078E-01
        2   -1    0    0  501    0  0.00000000000E+00  0.00000000000E+00  0.10411500550E+04  0.10411500550E+04  0.25500000920E-02 0.  1.
       -2   -1    0    0    0  501  0.00000000000E+00  0.00000000000E+00 -0.19768387063E+04  0.19768387063E+04  0.25500000920E-02 0. -1.
    10030    2    1    2    0    0  0.00000000000E+00  0.00000000000E+00 -0.93568865127E+03  0.30179887612E+04  0.28692756770E+04 0.  0.
        4    1    3    3  502    0  0.80956369211E+03 -0.52559232348E+03  0.64855435685E+03  0.11628693085E+04  0.12699999809E+01 0.  1.
       -4    1    3    3    0  502 -0.80956369211E+03  0.52559232348E+03 -0.15842430081E+04  0.18551194527E+04  0.12699999809E+01 0. -1.
</event>
<event>
 5   0  0.1674806E-06  0.3006185E+04  0.7818609E-02  0.8241967E-01
        2   -1    0    0  501    0  0.00000000000E+00  0.00000000000E+00  0.17437213927E+04  0.17437213927E+04  0.25500000920E-02 0. -1.
       -2   -1    0    0    0  501  0.00000000000E+00  0.00000000000E+00 -0.12956699132E+04  0.12956699132E+04  0.25500000920E-02 0.  1.
    10030    2    1    2    0    0  0.00000000000E+00  0.00000000000E+00  0.44805147955E+03  0.30393913059E+04  0.30061851876E+04 0.  0.
        2    1    3    3  502    0  0.13952817879E+04  0.20410737828E+03  0.75017413613E+03  0.15972577513E+04  0.25500000920E-02 0. -1.
       -2    1    3    3    0  502 -0.13952817879E+04 -0.20410737828E+03 -0.30212265658E+03  0.14421335546E+04  0.25500000920E-02 0.  1.
</event>
<event>
 5   0  0.5887179E-07  0.3008915E+04  0.7818609E-02  0.8241190E-01
       -1   -1    0    0    0  501  0.00000000000E+00  0.00000000000E+00  0.21861677748E+04  0.21861677748E+04  0.50400001928E-02 0.  1.
        1   -1    0    0  501    0  0.00000000000E+00  0.00000000000E+00 -0.10353243495E+04  0.10353243495E+04  0.50400001928E-02 0. -1.
    10030    2    1    2    0    0  0.00000000000E+00  0.00000000000E+00  0.11508434253E+04  0.32214921243E+04  0.30089152394E+04 0.  0.
        3    1    3    3  502    0  0.45309685422E+03  0.50316368675E+03  0.20138107721E+04  0.21245950887E+04  0.10100000352E+00 0.  1.
       -3    1    3    3    0  502 -0.45309685422E+03 -0.50316368675E+03 -0.86296734680E+03  0.10968970356E+04  0.10100000352E+00 0. -1.
</event>
<event>
 5   0  0.5916703E-07  0.2999284E+04  0.7818609E-02  0.8243935E-01
       -1   -1    0    0    0  501  0.00000000000E+00  0.00000000000E+00  0.14032147285E+04  0.14032147286E+04  0.50400001928E-02 0.  1.
        1   -1    0    0  501    0  0.00000000000E+00  0.00000000000E+00 -0.16026956026E+04  0.16026956026E+04  0.50400001928E-02 0. -1.
    10030    2    1    2    0    0  0.00000000000E+00  0.00000000000E+00 -0.19948087401E+03  0.30059103311E+04  0.29992839645E+04 0.  0.
        5    1    3    3  502    0  0.58518186080E+03  0.13309045728E+04 -0.46819270160E+03  0.15274067199E+04  0.46999998093E+01 0. -1.
       -5    1    3    3    0  502 -0.58518186080E+03 -0.13309045728E+04  0.26871182759E+03  0.14785036112E+04  0.46999998093E+01 0.  1.
</event>
<event>
 5   0  0.1723916E-06  0.2996035E+04  0.7818609E-02  0.8244864E-01
       -2   -1    0    0    0  501  0.00000000000E+00  0.00000000000E+00  0.16477777072E+04  0.16477777072E+04  0.25500000920E-02 0.  1.
        2   -1    0    0  501    0  0.00000000000E+00  0.00000000000E+00 -0.13618684345E+04  0.13618684345E+04  0.25500000920E-02 0. -1.
    10030    2    1    2    0    0  0.00000000000E+00  0.00000000000E+00  0.28590927271E+03  0.30096461418E+04  0.29960350109E+04 0.  0.
        1    1    3    3  502    0 -0.11767637759E+04  0.51761063827E+02  0.10726885353E+04  0.15931455946E+04  0.50400001928E-02 0.  1.
       -1    1    3    3    0  502  0.11767637759E+04 -0.51761063827E+02 -0.78677926257E+03  0.14165005471E+04  0.50400001928E-02 0. -1.
</event>
<event>
 5   0  0.1560174E-06  0.3089238E+04  0.7818609E-02  0.8218698E-01
       -2   -1    0    0    0  501  0.00000000000E+00  0.00000000000E+00  0.87500261810E+03  0.87500261811E+03  0.25500000920E-02 0.  1.
        2   -1    0    0  501    0  0.00000000000E+00  0.00000000000E+00 -0.27266756052E+04  0.27266756052E+04  0.25500000920E-02 0. -1.
    10030    2    1    2    0    0  0.00000000000E+00  0.00000000000E+00 -0.18516729871E+04  0.36016782233E+04  0.30892382836E+04 0.  0.
        5    1    3    3  502    0  0.14473180991E+04 -0.53529263043E+03 -0.10045512326E+04  0.18413074564E+04  0.46999998093E+01 0.  1.
       -5    1    3    3    0  502 -0.14473180991E+04  0.53529263043E+03 -0.84712175447E+03  0.17603707669E+04  0.46999998093E+01 0. -1.
</event>
<event>
 5   0  0.1560174E-06  0.3004090E+04  0.7818609E-02  0.8242564E-01
        2   -1    0    0  501    0  0.00000000000E+00  0.00000000000E+00  0.27293357805E+04  0.27293357805E+04  0.25500000920E-02 0.  1.
       -2   -1    0    0    0  501  0.00000000000E+00  0.00000000000E+00 -0.82662570073E+03  0.82662570074E+03  0.25500000920E-02 0. -1.
    10030    2    1    2    0    0  0.00000000000E+00  0.00000000000E+00  0.19027100798E+04  0.35559614812E+04  0.30040899468E+04 0.  0.
        5    1    3    3  502    0  0.17858782011E+02 -0.98051230665E+03 -0.39536496075E+03  0.10573830251E+04  0.46999998093E+01 0. -1.
       -5    1    3    3    0  502 -0.17858782011E+02  0.98051230665E+03  0.22980750405E+04  0.24985784561E+04  0.46999998093E+01 0.  1.
</event>
<event>
 5   0  0.5874741E-07  0.2982265E+04  0.7818609E-02  0.8248813E-01
       -1   -1    0    0    0  501  0.00000000000E+00  0.00000000000E+00  0.10472819939E+04  0.10472819939E+04  0.50400001928E-02 0.  1.
        1   -1    0    0  501    0  0.00000000000E+00  0.00000000000E+00 -0.21230918070E+04  0.21230918070E+04  0.50400001928E-02 0. -1.
    10030    2    1    2    0    0  0.00000000000E+00  0.00000000000E+00 -0.10758098131E+04  0.31703738009E+04  0.29822647910E+04 0.  0.
        4    1    3    3  502    0  0.29202124320E+03  0.14601025377E+04 -0.62227309605E+03  0.16138157410E+04  0.12699999809E+01 0.  1.
       -4    1    3    3    0  502 -0.29202124320E+03 -0.14601025377E+04 -0.45353671702E+03  0.15565580598E+04  0.12699999809E+01 0. -1.
</event>
<event>
 5   0  0.5874741E-07  0.2971194E+04  0.7818609E-02  0.8252005E-01
        1   -1    0    0  501    0  0.00000000000E+00  0.00000000000E+00  0.14153018003E+04  0.14153018003E+04  0.50400001928E-02 0.  1.
       -1   -1    0    0    0  501  0.00000000000E+00  0.00000000000E+00 -0.15593840125E+04  0.15593840125E+04  0.50400001928E-02 0. -1.
    10030    2    1    2    0    0  0.00000000000E+00  0.00000000000E+00 -0.14408221220E+03  0.29746858128E+04  0.29711943728E+04 0.  0.
        4    1    3    3  502    0  0.22823196414E+03  0.12784906737E+04 -0.79425495377E+03  0.15223241365E+04  0.12699999809E+01 0. -1.
       -4    1    3    3    0  502 -0.22823196414E+03 -0.12784906737E+04  0.65017274156E+03  0.14523616763E+04  0.12699999809E+01 0.  1.
</event>
<event>
 5   0  0.5931588E-07  0.2861177E+04  0.7818609E-02  0.8284523E-01
        1   -1    0    0  501    0  0.00000000000E+00  0.00000000000E+00  0.18115058861E+04  0.18115058861E+04  0.50400001928E-02 0. -1.
       -1   -1    0    0    0  501  0.00000000000E+00  0.00000000000E+00 -0.11297692113E+04  0.11297692113E+04  0.50400001928E-02 0.  1.
    10030    2    1    2    0    0  0.00000000000E+00  0.00000000000E+00  0.68173667475E+03  0.29412750974E+04  0.28611770838E+04 0.  0.
        2    1    3    3  502    0  0.10715741650E+04  0.10740572101E+03 -0.62718206624E+03  0.12462602153E+04  0.25500000920E-02 0.  1.
       -2    1    3    3    0  502 -0.10715741650E+04 -0.10740572101E+03  0.13089187410E+04  0.16950148821E+04  0.25500000920E-02 0. -1.
</event>
<event>
 5   0  0.1723916E-06  0.3001766E+04  0.7818609E-02  0.8243227E-01
        2   -1    0    0  501    0  0.00000000000E+00  0.00000000000E+00  0.14025610841E+04  0.14025610841E+04  0.25500000920E-02 0. -1.
       -2   -1    0    0    0  501  0.00000000000E+00  0.00000000000E+00 -0.16060977924E+04  0.16060977924E+04  0.25500000920E-02 0.  1.
    10030    2    1    2    0    0  0.00000000000E+00  0.00000000000E+00 -0.20353670824E+03  0.30086588765E+04  0.30017663206E+04 0.  0.
        1    1    3    3  502    0  0.47254222119E+03 -0.14244951800E+04 -0.11474381925E+03  0.15052072325E+04  0.50400001928E-02 0.  1.
       -1    1    3    3    0  502 -0.47254222119E+03  0.14244951800E+04 -0.88792888989E+02  0.15034516440E+04  0.50400001928E-02 0. -1.
</event>
<event>
 5   0  0.1560174E-06  0.3001692E+04  0.7818609E-02  0.8243248E-01
        2   -1    0    0  501    0  0.00000000000E+00  0.00000000000E+00  0.17983218846E+04  0.17983218846E+04  0.25500000920E-02 0. -1.
       -2   -1    0    0    0  501  0.00000000000E+00  0.00000000000E+00 -0.12525784117E+04  0.12525784117E+04  0.25500000920E-02 0.  1.
    10030    2    1    2    0    0  0.00000000000E+00  0.00000000000E+00  0.54574347282E+03  0.30509002963E+04  0.30016923027E+04 0.  0.
        5    1    3    3  502    0  0.70719958566E+03 -0.11009245361E+04  0.10200080066E+04  0.16590974991E+04  0.46999998093E+01 0. -1.
       -5    1    3    3    0  502 -0.70719958566E+03  0.11009245361E+04 -0.47426453373E+03  0.13918027972E+04  0.46999998093E+01 0.  1.
</event>
<event>
 5   0  0.1635086E-06  0.2998186E+04  0.7818609E-02  0.8244249E-01
        2   -1    0    0  501    0  0.00000000000E+00  0.00000000000E+00  0.16029263019E+04  0.16029263019E+04  0.25500000920E-02 0.  1.
       -2   -1    0    0    0  501  0.00000000000E+00  0.00000000000E+00 -0.14019855212E+04  0.14019855212E+04  0.25500000920E-02 0. -1.
    10030    2    1    2    0    0  0.00000000000E+00  0.00000000000E+00  0.20094078076E+03  0.30049118231E+04  0.29981857627E+04 0.  0.
        3    1    3    3  502    0 -0.39348467915E+03 -0.14445326547E+04  0.24308640979E+02  0.14973629164E+04  0.10100000352E+00 0.  1.
       -3    1    3    3    0  502  0.39348467915E+03  0.14445326547E+04  0.17663213978E+03  0.15075489067E+04  0.10100000352E+00 0. -1.
</event>
<event>
 5   0  0.5874741E-07  0.3003773E+04  0.7818609E-02  0.8242654E-01
        1   -1    0    0  501    0  0.00000000000E+00  0.00000000000E+00  0.23397462333E+04  0.23397462333E+04  0.50400001928E-02 0. -1.
       -1   -1    0    0    0  501  0.00000000000E+00  0.00000000000E+00 -0.96406286891E+03  0.96406286893E+03  0.50400001928E-02 0.  1.
    10030    2    1    2    0    0  0.00000000000E+00  0.00000000000E+00  0.13756833644E+04  0.33038091022E+04  0.30037726054E+04 0.  0.
        4    1    3    3  502    0  0.23309175744E+03 -0.29213383034E+03 -0.91210084261E+03  0.98569949894E+03  0.12699999809E+01 0.  1.
       -4    1    3    3    0  502 -0.23309175744E+03  0.29213383034E+03  0.22877842070E+04  0.23181096033E+04  0.12699999809E+01 0. -1.
</event>
<event>
 5   0  0.1723916E-06  0.3007699E+04  0.7818609E-02  0.8241536E-01
       -2   -1    0    0    0  501  0.00000000000E+00  0.00000000000E+00  0.25519181166E+04  0.25519181166E+04  0.25500000920E-02 0. -1.
        2   -1    0    0  501    0  0.00000000000E+00  0.00000000000E+00 -0.88622113818E+03  0.88622113819E+03  0.25500000920E-02 0.  1.
    10030    2    1    2    0    0  0.00000000000E+00  0.00000000000E+00  0.16656969784E+04  0.34381392548E+04  0.30076993053E+04 0.  0.
        1    1    3    3  502    0 -0.43820332908E+03 -0.14179362408E+04  0.11105059206E+04  0.18535880719E+04  0.50400001928E-02 0. -1.
       -1    1    3    3    0  502  0.43820332908E+03  0.14179362408E+04  0.55519105783E+03  0.15845511829E+04  0.50400001928E-02 0.  1.
</event>
<event>
 5   0  0.5874741E-07  0.3004062E+04  0.7818609E-02  0.8242572E-01
       -1   -1    0    0    0  501  0.00000000000E+00  0.00000000000E+00  0.13614301405E+04  0.13614301405E+04  0.50400001928E-02 0. -1.
        1   -1    0    0  501    0  0.00000000000E+00  0.00000000000E+00 -0.16571527911E+04  0.16571527911E+04  0.50400001928E-02 0.  1.
    10030    2    1    2    0    0  0.00000000000E+00  0.00000000000E+00 -0.29572265057E+03  0.30185829317E+04  0.30040624210E+04 0.  0.
        4    1    3    3  502    0 -0.12780353793E+04 -0.57117300697E+03 -0.69499587265E+03  0.15628928020E+04  0.12699999809E+01 0.  1.
       -4    1    3    3    0  502  0.12780353793E+04  0.57117300697E+03  0.39927322208E+03  0.14556901296E+04  0.12699999809E+01 0. -1.
</event>
<event>
 5   0  0.1635086E-06  0.2980685E+04  0.7818609E-02  0.8249268E-01
       -2   -1    0    0    0  501  0.00000000000E+00  0.00000000000E+00  0.21462860036E+04  0.21462860036E+04  0.25500000920E-02 0.  1.
        2   -1    0    0  501    0  0.00000000000E+00  0.00000000000E+00 -0.10348669373E+04  0.10348669373E+04  0.25500000920E-02 0. -1.
    10030    2    1    2    0    0  0.00000000000E+00  0.00000000000E+00  0.11114190663E+04  0.31811529409E+04  0.29806847691E+04 0.  0.
        3    1    3    3  502    0 -0.12068906755E+03 -0.71552820466E+03 -0.83359919416E+03  0.11051850928E+04  0.10100000352E+00 0. -1.
       -3    1    3    3    0  502  0.12068906755E+03  0.71552820466E+03  0.19450182604E+04  0.20759678481E+04  0.10100000352E+00 0.  1.
</event>
<event>
 5   0  0.1625212E-06  0.2998014E+04  0.7818609E-02  0.8244298E-01
       -2   -1    0    0    0  501  0.00000000000E+00  0.00000000000E+00  0.15784212701E+04  0.15784212701E+04  0.25500000920E-02 0.  1.
        2   -1    0    0  501    0  0.00000000000E+00  0.00000000000E+00 -0.14235880487E+04  0.14235880487E+04  0.25500000920E-02 0. -1.
    10030    2    1    2    0    0  0.00000000000E+00  0.00000000000E+00  0.15483322141E+03  0.30020093188E+04  0.29980137798E+04 0.  0.
        4    1    3    3  502    0  0.28893236349E+03  0.77809253858E+03 -0.11724897768E+04  0.14365388261E+04  0.12699999809E+01 0. -1.
       -4    1    3    3    0  502 -0.28893236349E+03 -0.77809253858E+03  0.13273229982E+04  0.15654704927E+04  0.12699999809E+01 0.  1.
</event>
<event>
 5   0  0.6291798E-07  0.3008285E+04  0.7818609E-02  0.8241369E-01
       -1   -1    0    0    0  501  0.00000000000E+00  0.00000000000E+00  0.14103267665E+04  0.14103267665E+04  0.50400001928E-02 0.  1.
        1   -1    0    0  501    0  0.00000000000E+00  0.00000000000E+00 -0.16041990066E+04  0.16041990066E+04  0.50400001928E-02 0. -1.
    10030    2    1    2    0    0  0.00000000000E+00  0.00000000000E+00 -0.19387224012E+03  0.30145257730E+04  0.30082850914E+04 0.  0.
        1    1    3    3  502    0  0.48653182373E+03  0.14483861949E+03  0.13218942779E+04  0.14160140971E+04  0.50400001928E-02 0.  1.
       -1    1    3    3    0  502 -0.48653182373E+03 -0.14483861949E+03 -0.15157665180E+04  0.15985116760E+04  0.50400001928E-02 0. -1.
</event>
<event>
 5   0  0.1723916E-06  0.2994222E+04  0.7818609E-02  0.8245383E-01
       -2   -1    0    0    0  501  0.00000000000E+00  0.00000000000E+00  0.10536742530E+04  0.10536742530E+04  0.25500000920E-02 0.  1.
        2   -1    0    0  501    0  0.00000000000E+00  0.00000000000E+00 -0.21271670928E+04  0.21271670928E+04  0.25500000920E-02 0. -1.
    10030    2    1    2    0    0  0.00000000000E+00  0.00000000000E+00 -0.10734928399E+04  0.31808413458E+04  0.29942219006E+04 0.  0.
        1    1    3    3  502    0  0.12279924070E+04 -0.45805509759E+03  0.23192693025E+03  0.13310033528E+04  0.50400001928E-02 0.  1.
       -1    1    3    3    0  502 -0.12279924070E+04  0.45805509759E+03 -0.13054197701E+04  0.18498379930E+04  0.50400001928E-02 0. -1.
</event>
<event>
 5   0  0.5916703E-07  0.3008615E+04  0.7818609E-02  0.8241275E-01
       -1   -1    0    0    0  501  0.00000000000E+00  0.00000000000E+00  0.13827450373E+04  0.13827450373E+04  0.50400001928E-02 0. -1.
        1   -1    0    0  501    0  0.00000000000E+00  0.00000000000E+00 -0.16365565154E+04  0.16365565154E+04  0.50400001928E-02 0.  1.
    10030    2    1    2    0    0  0.00000000000E+00  0.00000000000E+00 -0.25381147817E+03  0.30193015527E+04  0.30086145648E+04 0.  0.
        5    1    3    3  502    0 -0.33248983789E+03  0.11861435638E+04 -0.99335678379E+03  0.15824872309E+04  0.46999998093E+01 0.  1.
       -5    1    3    3    0  502  0.33248983789E+03 -0.11861435638E+04  0.73954530562E+03  0.14368143218E+04  0.46999998093E+01 0. -1.
</event>
<event>
 5   0  0.5916703E-07  0.2996898E+04  0.7818609E-02  0.8244617E-01
        1   -1    0    0  501    0  0.00000000000E+00  0.00000000000E+00  0.23733559282E+04  0.23733559282E+04  0.50400001928E-02 0.  1.
       -1   -1    0    0    0  501  0.00000000000E+00  0.00000000000E+00 -0.94606544402E+03  0.94606544403E+03  0.50400001928E-02 0. -1.
    10030    2    1    2    0    0  0.00000000000E+00  0.00000000000E+00  0.14272904841E+04  0.33194213722E+04  0.29968984167E+04 0.  0.
        5    1    3    3  502    0 -0.24454404517E+03 -0.87610448943E+03 -0.60528989046E+03  0.10925926999E+04  0.46999998093E+01 0. -1.
       -5    1    3    3    0  502  0.24454404517E+03  0.87610448943E+03  0.20325803746E+04  0.22268286723E+04  0.46999998093E+01 0.  1.
</event>
<event>
 5   0  0.5874741E-07  0.3027782E+04  0.7818609E-02  0.8235842E-01
       -1   -1    0    0    0  501  0.00000000000E+00  0.00000000000E+00  0.14784897035E+04  0.14784897035E+04  0.50400001928E-02 0.  1.
        1   -1    0    0  501    0  0.00000000000E+00  0.00000000000E+00 -0.15501400810E+04  0.15501400810E+04  0.50400001928E-02 0. -1.
    10030    2    1    2    0    0  0.00000000000E+00  0.00000000000E+00 -0.71650377563E+02  0.30286297845E+04  0.30277821247E+04 0.  0.
        4    1    3    3  502    0 -0.12632597518E+04 -0.57333389856E+03 -0.64207041911E+03  0.15286572526E+04  0.12699999809E+01 0. -1.
       -4    1    3    3    0  502  0.12632597518E+04  0.57333389856E+03  0.57042004154E+03  0.14999725319E+04  0.12699999809E+01 0.  1.
</event>
<event>
 5   0  0.5887179E-07  0.3002166E+04  0.7818609E-02  0.8243113E-01
       -1   -1    0    0    0  501  0.00000000000E+00  0.00000000000E+00  0.96597029804E+03  0.96597029806E+03  0.50400001928E-02 0. -1.
        1   -1    0    0  501    0  0.00000000000E+00  0.00000000000E+00 -0.23326282170E+04  0.23326282170E+04  0.50400001928E-02 0.  1.
    10030    2    1    2    0    0  0.00000000000E+00  0.00000000000E+00 -0.13666579189E+04  0.32985985150E+04  0.30021656010E+04 0.  0.
        3    1    3    3  502    0  0.58306498976E+02 -0.13455485984E+04 -0.14116109644E+04  0.19510372122E+04  0.10100000352E+00 0.  1.
       -3    1    3    3    0  502 -0.58306498976E+02  0.13455485984E+04  0.44953045442E+02  0.13475613028E+04  0.10100000352E+00 0. -1.
</event>
<event>
 5   0  0.5887179E-07  0.3006882E+04  0.7818609E-02  0.8241769E-01
       -1   -1    0    0    0  501  0.00000000000E+00  0.00000000000E+00  0.17090615993E+04  0.17090615993E+04  0.50400001928E-02 0. -1.
        1   -1    0    0  501    0  0.00000000000E+00  0.00000000000E+00 -0.13225587653E+04  0.13225587653E+04  0.50400001928E-02 0.  1.
    10030    2    1    2    0    0  0.00000000000E+00  0.00000000000E+00  0.38650283401E+03  0.30316203645E+04  0.30068817060E+04 0.  0.
        3    1    3    3  502    0  0.49657866981E+03  0.14153126329E+04  0.89280912911E+02  0.15025549294E+04  0.10100000352E+00 0.  1.
       -3    1    3    3    0  502 -0.49657866981E+03 -0.14153126329E+04  0.29722192110E+03  0.15290654351E+04  0.10100000352E+00 0. -1.
</event>
<event>
 5   0  0.5874741E-07  0.2939526E+04  0.7818609E-02  0.8261214E-01
       -1   -1    0    0    0  501  0.00000000000E+00  0.00000000000E+00  0.77004781169E+03  0.77004781171E+03  0.50400001928E-02 0.  1.
        1   -1    0    0  501    0  0.00000000000E+00  0.00000000000E+00 -0.28052845424E+04  0.28052845424E+04  0.50400001928E-02 0. -1.
    10030    2    1    2    0    0  0.00000000000E+00  0.00000000000E+00 -0.20352367307E+04  0.35753323541E+04  0.29395259639E+04 0.  0.
        4    1    3    3  502    0 -0.11283744913E+04 -0.66095979165E+03 -0.18336292031E+04  0.22521755052E+04  0.12699999809E+01 0. -1.
       -4    1    3    3    0  502  0.11283744913E+04  0.66095979165E+03 -0.20160752763E+03  0.13231568489E+04  0.12699999809E+01 0.  1.
</event>
<event>
 5   0  0.5887179E-07  0.3001974E+04  0.7818609E-02  0.8243167E-01
       -1   -1    0    0    0  501  0.00000000000E+00  0.00000000000E+00  0.98043681320E+03  0.98043681321E+03  0.50400001928E-02 0. -1.
        1   -1    0    0  501    0  0.00000000000E+00  0.00000000000E+00 -0.22979168011E+04  0.22979168011E+04  0.50400001928E-02 0.  1.
    10030    2    1    2    0    0  0.00000000000E+00  0.00000000000E+00 -0.13174799879E+04  0.32783536143E+04  0.30019741674E+04 0.  0.
        3    1    3    3  502    0 -0.11400285628E+04 -0.89702002498E+03 -0.10797907643E+04  0.18083855104E+04  0.10100000352E+00 0.  1.
       -3    1    3    3    0  502  0.11400285628E+04  0.89702002498E+03 -0.23768922356E+03  0.14699681039E+04  0.10100000352E+00 0. -1.
</event>
<event>
 5   0  0.6291798E-07  0.3004079E+04  0.7818609E-02  0.8242567E-01
        1   -1    0    0  501    0  0.00000000000E+00  0.00000000000E+00  0.14381481853E+04  0.14381481854E+04  0.50400001928E-02 0. -1.
       -1   -1    0    0    0  501  0.00000000000E+00  0.00000000000E+00 -0.15687690538E+04  0.15687690538E+04  0.50400001928E-02 0.  1.
    10030    2    1    2    0    0  0.00000000000E+00  0.00000000000E+00 -0.13062086849E+03  0.30069172392E+04  0.30040788059E+04 0.  0.
        1    1    3    3  502    0 -0.10118643121E+04 -0.72189819815E+03 -0.90938413841E+03  0.15401252890E+04  0.50400001928E-02 0.  1.
       -1    1    3    3    0  502  0.10118643121E+04  0.72189819815E+03  0.77876326991E+03  0.14667919502E+04  0.50400001928E-02 0. -1.
</event>
<event>
 5   0  0.5916703E-07  0.2988886E+04  0.7818609E-02  0.8246912E-01
       -1   -1    0    0    0  501  0.00000000000E+00  0.00000000000E+00  0.13567317488E+04  0.13567317488E+04  0.50400001928E-02 0.  1.
        1   -1    0    0  501    0  0.00000000000E+00  0.00000000000E+00 -0.16461321284E+04  0.16461321284E+04  0.50400001928E-02 0. -1.
    10030    2    1    2    0    0  0.00000000000E+00  0.00000000000E+00 -0.28940037958E+03  0.30028638773E+04  0.29888858937E+04 0.  0.
        5    1    3    3  502    0  0.52846159943E+03 -0.13881286022E+04 -0.31028892523E+03  0.15173905185E+04  0.46999998093E+01 0. -1.
       -5    1    3    3    0  502 -0.52846159943E+03  0.13881286022E+04  0.20888545652E+02  0.14854733588E+04  0.46999998093E+01 0.  1.
</event>
<event>
 5   0  0.1635086E-06  0.3078007E+04  0.7818609E-02  0.8221800E-01
       -2   -1    0    0    0  501  0.00000000000E+00  0.00000000000E+00  0.11847960197E+04  0.11847960197E+04  0.25500000920E-02 0.  1.
        2   -1    0    0  501    0  0.00000000000E+00  0.00000000000E+00 -0.19991047098E+04  0.19991047098E+04  0.25500000920E-02 0. -1.
    10030    2    1    2    0    0  0.00000000000E+00  0.00000000000E+00 -0.81430869012E+03  0.31839007295E+04  0.30780066946E+04 0.  0.
        3    1    3    3  502    0 -0.90783742703E+03  0.59038405706E+02 -0.16911807060E+04  0.19203506237E+04  0.10100000352E+00 0. -1.
       -3    1    3    3    0  502  0.90783742703E+03 -0.59038405706E+02  0.87687201592E+03  0.12635501058E+04  0.10100000352E+00 0.  1.
</event>
<event>
 5   0  0.1674806E-06  0.2989636E+04  0.7818609E-02  0.8246697E-01
       -2   -1    0    0    0  501  0.00000000000E+00  0.00000000000E+00  0.11032134846E+04  0.11032134846E+04  0.25500000920E-02 0.  1.
        2   -1    0    0  501    0  0.00000000000E+00  0.00000000000E+00 -0.20254293349E+04  0.20254293349E+04  0.25500000920E-02 0. -1.
    10030    2    1    2    0    0  0.00000000000E+00  0.00000000000E+00 -0.92221585033E+03  0.31286428194E+04  0.29896360677E+04 0.  0.
        2    1    3    3  502    0 -0.62280785196E+03 -0.56949894830E+03  0.83005903380E+03  0.11837299828E+04  0.25500000920E-02 0.  1.
       -2    1    3    3    0  502  0.62280785196E+03  0.56949894830E+03 -0.17522748841E+04  0.19449128366E+04  0.25500000920E-02 0. -1.
</event>
<event>
 5   0  0.5916703E-07  0.3042974E+04  0.7818609E-02  0.8231565E-01
       -1   -1    0    0    0  501  0.00000000000E+00  0.00000000000E+00  0.14354856138E+04  0.14354856139E+04  0.50400001928E-02 0.  1.
        1   -1    0    0  501    0  0.00000000000E+00  0.00000000000E+00 -0.16126404210E+04  0.16126404210E+04  0.50400001928E-02 0. -1.
    10030    2    1    2    0    0  0.00000000000E+00  0.00000000000E+00 -0.17715480717E+03  0.30481260349E+04  0.30429736277E+04 0.  0.
        5    1    3    3  502    0  0.26082204317E+03  0.83912158181E+03  0.11555993095E+04  0.14517523967E+04  0.46999998093E+01 0.  1.
       -5    1    3    3    0  502 -0.26082204317E+03 -0.83912158181E+03 -0.13327541166E+04  0.15963736382E+04  0.46999998093E+01 0. -1.
</event>
<event>
 5   0  0.1635086E-06  0.2979095E+04  0.7818609E-02  0.8249726E-01
        2   -1    0    0  501    0  0.00000000000E+00  0.00000000000E+00  0.20151862459E+04  0.20151862459E+04  0.25500000920E-02 0.  1.
       -2   -1    0    0    0  501  0.00000000000E+00  0.00000000000E+00 -0.11010154193E+04  0.11010154193E+04  0.25500000920E-02 0. -1.
    10030    2    1    2    0    0  0.00000000000E+00  0.00000000000E+00  0.91417082654E+03  0.31162016652E+04  0.29790945802E+04 0.  0.
        3    1    3    3  502    0  0.25892918686E+03 -0.57686348434E+03  0.18678348693E+04  0.19719591559E+04  0.10100000352E+00 0.  1.
       -3    1    3    3    0  502 -0.25892918686E+03  0.57686348434E+03 -0.95366404277E+03  0.11442425093E+04  0.10100000352E+00 0. -1.
</event>
<event>
 5   0  0.1723916E-06  0.2932230E+04  0.7818609E-02  0.8263352E-01
        2   -1    0    0  501    0  0.00000000000E+00  0.00000000000E+00  0.16735788470E+04  0.16735788470E+04  0.25500000920E-02 0.  1.
       -2   -1    0    0    0  501  0.00000000000E+00  0.00000000000E+00 -0.12843689158E+04  0.12843689158E+04  0.25500000920E-02 0. -1.
    10030    2    1    2    0    0  0.00000000000E+00  0.00000000000E+00  0.38920993124E+03  0.29579477628E+04  0.29322296289E+04 0.  0.
        1    1    3    3  502    0 -0.94295146656E+02  0.58624044442E+02 -0.12801215107E+04  0.12849277939E+04  0.50400001928E-02 0. -1.
       -1    1    3    3    0  502  0.94295146656E+02 -0.58624044442E+02  0.16693314419E+04  0.16730199689E+04  0.50400001928E-02 0.  1.
</event>
<event>
 5   0  0.1625212E-06  0.2941753E+04  0.7818609E-02  0.8260562E-01
       -2   -1    0    0    0  501  0.00000000000E+00  0.00000000000E+00  0.18555508259E+04  0.18555508259E+04  0.25500000920E-02 0.  1.
        2   -1    0    0  501    0  0.00000000000E+00  0.00000000000E+00 -0.11659492509E+04  0.11659492509E+04  0.25500000920E-02 0. -1.
    10030    2    1    2    0    0  0.00000000000E+00  0.00000000000E+00  0.68960157499E+03  0.30215000767E+04  0.29417532836E+04 0.  0.
        4    1    3    3  502    0 -0.43829268978E+03 -0.30479050472E+03 -0.10629296661E+04  0.11894615680E+04  0.12699999809E+01 0. -1.
       -4    1    3    3    0  502  0.43829268978E+03  0.30479050472E+03  0.17525312411E+04  0.18320385088E+04  0.12699999809E+01 0.  1.
</event>
<event>
 5   0  0.1674806E-06  0.2983657E+04  0.7818609E-02  0.8248413E-01
       -2   -1    0    0    0  501  0.00000000000E+00  0.00000000000E+00  0.13708500026E+04  0.13708500026E+04  0.25500000920E-02 0. -1.
        2   -1    0    0  501    0  0.00000000000E+00  0.00000000000E+00 -0.16234830382E+04  0.16234830382E+04  0.25500000920E-02 0.  1.
    10030    2    1    2    0    0  0.00000000000E+00  0.00000000000E+00 -0.25263303553E+03  0.29943330408E+04  0.29836566338E+04 0.  0.
        2    1    3    3  502    0 -0.29003307802E+03  0.14004576406E+04 -0.55227720973E+03  0.15331049886E+04  0.25500000920E-02 0.  1.
       -2    1    3    3    0  502  0.29003307802E+03 -0.14004576406E+04  0.29964417419E+03  0.14612280523E+04  0.25500000920E-02 0. -1.
</event>
<event>
 5   0  0.5916703E-07  0.2984914E+04  0.7818609E-02  0.8248052E-01
       -1   -1    0    0    0  501  0.00000000000E+00  0.00000000000E+00  0.87630484620E+03  0.87630484622E+03  0.50400001928E-02 0.  1.
        1   -1    0    0  501    0  0.00000000000E+00  0.00000000000E+00 -0.25418405339E+04  0.25418405339E+04  0.50400001928E-02 0. -1.
    10030    2    1    2    0    0  0.00000000000E+00  0.00000000000E+00 -0.16655356877E+04  0.34181453802E+04  0.29849135185E+04 0.  0.
        5    1    3    3  502    0 -0.11572987241E+04 -0.65583679938E+03 -0.16077013083E+04  0.20866690756E+04  0.46999998093E+01 0. -1.
       -5    1    3    3    0  502  0.11572987241E+04  0.65583679938E+03 -0.57834379423E+02  0.13314763046E+04  0.46999998093E+01 0.  1.
</event>
<event>
 5   0  0.1674806E-06  0.2999481E+04  0.7818609E-02  0.8243879E-01
       -2   -1    0    0    0  501  0.00000000000E+00  0.00000000000E+00  0.21065291943E+04  0.21065291943E+04  0.25500000920E-02 0.  1.
        2   -1    0    0  501    0  0.00000000000E+00  0.00000000000E+00 -0.10677378440E+04  0.10677378440E+04  0.25500000920E-02 0. -1.
    10030    2    1    2    0    0  0.00000000000E+00  0.00000000000E+00  0.10387913503E+04  0.31742670383E+04  0.29994805818E+04 0.  0.
        2    1    3    3  502    0 -0.94201789194E+02  0.15697060262E+03 -0.10558691969E+04  0.10716219054E+04  0.25500000920E-02 0. -1.
       -2    1    3    3    0  502  0.94201789194E+02 -0.15697060262E+03  0.20946605471E+04  0.21026451329E+04  0.25500000920E-02 0.  1.
</event>
<event>
 5   0  0.5916703E-07  0.2993561E+04  0.7818609E-02  0.8245572E-01
       -1   -1    0    0    0  501  0.00000000000E+00  0.00000000000E+00  0.15960421762E+04  0.15960421762E+04  0.50400001928E-02 0. -1.
        1   -1    0    0  501    0  0.00000000000E+00  0.00000000000E+00 -0.14036921534E+04  0.14036921535E+04  0.50400001928E-02 0.  1.
    10030    2    1    2    0    0  0.00000000000E+00  0.00000000000E+00  0.19235002272E+03  0.29997343296E+04  0.29935610094E+04 0.  0.
        5    1    3    3  502    0  0.13378444360E+04  0.31592050000E+03  0.68959239814E+03  0.15379184838E+04  0.46999998093E+01 0. -1.
       -5    1    3    3    0  502 -0.13378444360E+04 -0.31592050000E+03 -0.49724237542E+03  0.14618158458E+04  0.46999998093E+01 0.  1.
</event>
<event>
 5   0  0.5874741E-07  0.2993401E+04  0.7818609E-02  0.8245618E-01
        1   -1    0    0  501    0  0.00000000000E+00  0.00000000000E+00  0.89671620513E+03  0.89671620514E+03  0.50400001928E-02 0.  1.
       -1   -1    0    0    0  501  0.00000000000E+00  0.00000000000E+00 -0.24981285460E+04  0.24981285460E+04  0.50400001928E-02 0. -1.
    10030    2    1    2    0    0  0.00000000000E+00  0.00000000000E+00 -0.16014123408E+04  0.33948447511E+04  0.29934009753E+04 0.  0.
        4    1    3    3  502    0 -0.81198851494E+03 -0.44769445757E+03  0.53174231832E+03  0.10688812758E+04  0.12699999809E+01 0.  1.
       -4    1    3    3    0  502  0.81198851494E+03  0.44769445757E+03 -0.21331546592E+04  0.23259634753E+04  0.12699999809E+01 0. -1.
</event>
<event>
 5   0  0.5931588E-07  0.3017225E+04  0.7818609E-02  0.8238829E-01
        1   -1    0    0  501    0  0.00000000000E+00  0.00000000000E+00  0.10733397331E+04  0.10733397331E+04  0.50400001928E-02 0. -1.
       -1   -1    0    0    0  501  0.00000000000E+00  0.00000000000E+00 -0.21204013917E+04  0.21204013917E+04  0.50400001928E-02 0.  1.
    10030    2    1    2    0    0  0.00000000000E+00  0.00000000000E+00 -0.10470616587E+04  0.31937411248E+04  0.30172245948E+04 0.  0.
        2    1    3    3  502    0  0.93391252717E+03 -0.92916476778E+03  0.25457416833E+03  0.13417703907E+04  0.25500000920E-02 0. -1.
       -2    1    3    3    0  502 -0.93391252717E+03  0.92916476778E+03 -0.13016358270E+04  0.18519707342E+04  0.25500000920E-02 0.  1.
</event>
<event>
 5   0  0.5874741E-07  0.2996993E+04  0.7818609E-02  0.8244590E-01
       -1   -1    0    0    0  501  0.00000000000E+00  0.00000000000E+00  0.14495179895E+04  0.14495179895E+04  0.50400001928E-02 0. -1.
        1   -1    0    0  501    0  0.00000000000E+00  0.00000000000E+00 -0.15491297071E+04  0.15491297071E+04  0.50400001928E-02 0.  1.
    10030    2    1    2    0    0  0.00000000000E+00  0.00000000000E+00 -0.99611717649E+02  0.29986476966E+04  0.29969927451E+04 0.  0.
        4    1    3    3  502    0 -0.74967068432E+00  0.14688149437E+04 -0.34673877874E+03  0.15091876273E+04  0.12699999809E+01 0.  1.
       -4    1    3    3    0  502  0.74967068432E+00 -0.14688149437E+04  0.24712706109E+03  0.14894600693E+04  0.12699999809E+01 0. -1.
</event>
<event>
 5   0  0.1723916E-06  0.3027022E+04  0.7818609E-02  0.8236056E-01
       -2   -1    0    0    0  501  0.00000000000E+00  0.00000000000E+00  0.11114723130E+04  0.11114723131E+04  0.25500000920E-02 0.  1.
        2   -1    0    0  501    0  0.00000000000E+00  0.00000000000E+00 -0.20609737146E+04  0.20609737146E+04  0.25500000920E-02 0. -1.
    10030    2    1    2    0    0  0.00000000000E+00  0.00000000000E+00 -0.94950140156E+03  0.31724460277E+04  0.30270217850E+04 0.  0.
        1    1    3    3  502    0 -0.14354854524E+04 -0.17664999962E+03 -0.94214867323E+03  0.17261135040E+04  0.50400001928E-02 0. -1.
       -1    1    3    3    0  502  0.14354854524E+04  0.17664999962E+03 -0.73527283314E+01  0.14463325236E+04  0.50400001928E-02 0.  1.
</event>
<event>
 5   0  0.1625212E-06  0.3012654E+04  0.7818609E-02  0.8240127E-01
        2   -1    0    0  501    0  0.00000000000E+00  0.00000000000E+00  0.15412275908E+04  0.15412275908E+04  0.25500000920E-02 0.  1.
       -2   -1    0    0    0  501  0.00000000000E+00  0.00000000000E+00 -0.14722170325E+04  0.14722170325E+04  0.25500000920E-02 0. -1.
    10030    2    1    2    0    0  0.00000000000E+00  0.00000000000E+00  0.69010558295E+02  0.30134446234E+04  0.30126543182E+04 0.  0.
        4    1    3    3  502    0 -0.37734359017E+03  0.13967170378E+04 -0.38490559609E+03  0.14971174301E+04  0.12699999809E+01 0. -1.
       -4    1    3    3    0  502  0.37734359017E+03 -0.13967170378E+04  0.45391615438E+03  0.15163271932E+04  0.12699999809E+01 0.  1.
</event>
<event>
 5   0  0.5887179E-07  0.3000381E+04  0.7818609E-02  0.8243622E-01
       -1   -1    0    0    0  501  0.00000000000E+00  0.00000000000E+00  0.16555515119E+04  0.16555515119E+04  0.50400001928E-02 0. -1.
        1   -1    0    0  501    0  0.00000000000E+00  0.00000000000E+00 -0.13594091045E+04  0.13594091046E+04  0.50400001928E-02 0.  1.
    10030    2    1    2    0    0  0.00000000000E+00  0.00000000000E+00  0.29614240733E+03  0.30149606164E+04  0.30003811747E+04 0.  0.
        3    1    3    3  502    0  0.83883222345E+02 -0.11636944316E+04  0.10957075904E+04  0.16005612325E+04  0.10100000352E+00 0. -1.
       -3    1    3    3    0  502 -0.83883222345E+02  0.11636944316E+04 -0.79956518307E+03  0.14143993839E+04  0.10100000352E+00 0.  1.
</event>
<event>
 5   0  0.1635086E-06  0.2998550E+04  0.7818609E-02  0.8244145E-01
       -2   -1    0    0    0  501  0.00000000000E+00  0.00000000000E+00  0.99749461442E+03  0.99749461442E+03  0.25500000920E-02 0.  1.
        2   -1    0    0  501    0  0.00000000000E+00  0.00000000000E+00 -0.22534710217E+04  0.22534710217E+04  0.25500000920E-02 0. -1.
    10030    2    1    2    0    0  0.00000000000E+00  0.00000000000E+00 -0.12559764072E+04  0.32509656361E+04  0.29985497880E+04 0.  0.
        3    1    3    3  502    0 -0.88723955227E+03 -0.47062817472E+03 -0.18348606011E+04  0.20917452851E+04  0.10100000352E+00 0. -1.
       -3    1    3    3    0  502  0.88723955227E+03  0.47062817472E+03  0.57888419390E+03  0.11592203510E+04  0.10100000352E+00 0.  1.
</event>
<event>
 5   0  0.5887179E-07  0.2998515E+04  0.7818609E-02  0.8244155E-01
        1   -1    0    0  501    0  0.00000000000E+00  0.00000000000E+00  0.17722882515E+04  0.17722882515E+04  0.50400001928E-02 0. -1.
       -1   -1    0    0    0  501  0.00000000000E+00  0.00000000000E+00 -0.12682887235E+04  0.12682887235E+04  0.50400001928E-02 0.  1.
    10030    2    1    2    0    0  0.00000000000E+00  0.00000000000E+00  0.50399952798E+03  0.30405769751E+04  0.29985151020E+04 0.  0.
        3    1    3    3  502    0 -0.28933002137E+03 -0.89665317973E+03  0.14345813065E+04  0.17163106715E+04  0.10100000352E+00 0. -1.
       -3    1    3    3    0  502  0.28933002137E+03  0.89665317973E+03 -0.93058177853E+03  0.13242663036E+04  0.10100000352E+00 0.  1.
</event>
<event>
 5   0  0.5931588E-07  0.2997907E+04  0.7818609E-02  0.8244329E-01
        1   -1    0    0  501    0  0.00000000000E+00  0.00000000000E+00  0.28011838718E+04  0.28011838718E+04  0.50400001928E-02 0.  1.
       -1   -1    0    0    0  501  0.00000000000E+00  0.00000000000E+00 -0.80211136103E+03  0.80211136104E+03  0.50400001928E-02 0. -1.
    10030    2    1    2    0    0  0.00000000000E+00  0.00000000000E+00  0.19990725108E+04  0.36032952328E+04  0.29979068751E+04 0.  0.
        2    1    3    3  502    0 -0.53023497528E+02  0.21364489923E+03  0.27816508916E+04  0.27903471678E+04  0.25500000920E-02 0.  1.
       -2    1    3    3    0  502  0.53023497528E+02 -0.21364489923E+03 -0.78257838083E+03  0.81294806501E+03  0.25500000920E-02 0. -1.
</event>
<event>
 5   0  0.1674806E-06  0.3000532E+04  0.7818609E-02  0.8243579E-01
        2   -1    0    0  501    0  0.00000000000E+00  0.00000000000E+00  0.19205678997E+04  0.19205678997E+04  0.25500000920E-02 0.  1.
       -2   -1    0    0    0  501  0.00000000000E+00  0.00000000000E+00 -0.11719442529E+04  0.11719442529E+04  0.25500000920E-02 0. -1.
    10030    2    1    2    0    0  0.00000000000E+00  0.00000000000E+00  0.74862364683E+03  0.30925121525E+04  0.30005322943E+04 0.  0.
        2    1    3    3  502    0  0.74157167886E+03 -0.12843602731E+04  0.60772411787E+03  0.16027596418E+04  0.25500000920E-02 0.  1.
       -2    1    3    3    0  502 -0.74157167886E+03  0.12843602731E+04  0.14089952896E+03  0.14897525107E+04  0.25500000920E-02 0. -1.
</event>
<event>
 5   0  0.5916703E-07  0.3000844E+04  0.7818609E-02  0.8243490E-01
        1   -1    0    0  501    0  0.00000000000E+00  0.00000000000E+00  0.82042967198E+03  0.82042967200E+03  0.50400001928E-02 0.  1.
       -1   -1    0    0    0  501  0.00000000000E+00  0.00000000000E+00 -0.27440080655E+04  0.27440080655E+04  0.50400001928E-02 0. -1.
    10030    2    1    2    0    0  0.00000000000E+00  0.00000000000E+00 -0.19235783935E+04  0.35644377375E+04  0.30008436395E+04 0.  0.
        5    1    3    3  502    0 -0.13621139733E+04  0.57096013789E+03 -0.12758157311E+04  0.19516858930E+04  0.46999998093E+01 0. -1.
       -5    1    3    3    0  502  0.13621139733E+04 -0.57096013789E+03 -0.64776266247E+03  0.16127518445E+04  0.46999998093E+01 0.  1.
</event>
<event>
 5   0  0.6291798E-07  0.3000220E+04  0.7818609E-02  0.8243668E-01
       -1   -1    0    0    0  501  0.00000000000E+00  0.00000000000E+00  0.17466235788E+04  0.17466235788E+04  0.50400001928E-02 0.  1.
        1   -1    0    0  501    0  0.00000000000E+00  0.00000000000E+00 -0.12883887639E+04  0.12883887640E+04  0.50400001928E-02 0. -1.
    10030    2    1    2    0    0  0.00000000000E+00  0.00000000000E+00  0.45823481489E+03  0.30350123428E+04  0.30002201212E+04 0.  0.
        1    1    3    3  502    0 -0.14262894804E+04 -0.30284457773E+03  0.58578758053E+03  0.15713572508E+04  0.50400001928E-02 0. -1.
       -1    1    3    3    0  502  0.14262894804E+04  0.30284457773E+03 -0.12755276563E+03  0.14636550920E+04  0.50400001928E-02 0.  1.
</event>
<event>
 5   0  0.1625212E-06  0.2998191E+04  0.7818609E-02  0.8244248E-01
        2   -1    0    0  501    0  0.00000000000E+00  0.00000000000E+00  0.87354499668E+03  0.87354499669E+03  0.25500000920E-02 0.  1.
       -2   -1    0    0    0  501  0.00000000000E+00  0.00000000000E+00 -0.25726070154E+04  0.25726070154E+04  0.25500000920E-02 0. -1.
    10030    2    1    2    0    0  0.00000000000E+00  0.00000000000E+00 -0.16990620188E+04  0.34461520121E+04  0.29981914460E+04 0.  0.
        4    1    3    3  502    0  0.10970315372E+04  0.98996293797E+03 -0.11398147058E+04  0.18661950564E+04  0.12699999809E+01 0.  1.
       -4    1    3    3    0  502 -0.10970315372E+04 -0.98996293797E+03 -0.55924731300E+03  0.15799569558E+04  0.12699999809E+01 0. -1.
</event>
<event>
 5   0  0.6291798E-07  0.3015155E+04  0.7818609E-02  0.8239417E-01
        1   -1    0    0  501    0  0.00000000000E+00  0.00000000000E+00  0.16485647746E+04  0.16485647746E+04  0.50400001928E-02 0.  1.
       -1   -1    0    0    0  501  0.00000000000E+00  0.00000000000E+00 -0.13786475934E+04  0.13786475934E+04  0.50400001928E-02 0. -1.
    10030    2    1    2    0    0  0.00000000000E+00  0.00000000000E+00  0.26991718119E+03  0.30272123680E+04  0.30151549605E+04 0.  0.
        1    1    3    3  502    0 -0.14410583012E+04  0.93777050108E+02 -0.29960793665E+03  0.14748586639E+04  0.50400001928E-02 0. -1.
       -1    1    3    3    0  502  0.14410583012E+04 -0.93777050108E+02  0.56952511785E+03  0.15523537041E+04  0.50400001928E-02 0.  1.
</event>
<event>
 5   0  0.1625212E-06  0.3007872E+04  0.7818609E-02  0.8241487E-01
       -2   -1    0    0    0  501  0.00000000000E+00  0.00000000000E+00  0.13751305964E+04  0.13751305964E+04  0.25500000920E-02 0.  1.
        2   -1    0    0  501    0  0.00000000000E+00  0.00000000000E+00 -0.16448063251E+04  0.16448063251E+04  0.25500000920E-02 0. -1.
    10030    2    1    2    0    0  0.00000000000E+00  0.00000000000E+00 -0.26967572875E+03  0.30199369215E+04  0.30078720071E+04 0.  0.
        4    1    3    3  502    0 -0.53545457591E+03  0.10561689492E+04 -0.10657123530E+04  0.15930941229E+04  0.12699999809E+01 0. -1.
       -4    1    3    3    0  502  0.53545457591E+03 -0.10561689492E+04  0.79603662421E+03  0.14268427987E+04  0.12699999809E+01 0.  1.
</event>
<event>
 5   0  0.1560174E-06  0.2998561E+04  0.7818609E-02  0.8244142E-01
        2   -1    0    0  501    0  0.00000000000E+00  0.00000000000E+00  0.18937384413E+04  0.18937384413E+04  0.25500000920E-02 0. -1.
       -2   -1    0    0    0  501  0.00000000000E+00  0.00000000000E+00 -0.11869865153E+04  0.11869865153E+04  0.25500000920E-02 0.  1.
    10030    2    1    2    0    0  0.00000000000E+00  0.00000000000E+00  0.70675192602E+03  0.30807249566E+04  0.29985609837E+04 0.  0.
        5    1    3    3  502    0  0.32916224575E+03  0.14306747203E+04  0.66608750956E+03  0.16121019198E+04  0.46999998093E+01 0.  1.
       -5    1    3    3    0  502 -0.32916224575E+03 -0.14306747203E+04  0.40664416460E+02  0.14686230368E+04  0.46999998093E+01 0. -1.
</event>
<event>
 5   0  0.5874741E-07  0.3001569E+04  0.7818609E-02  0.8243283E-01
       -1   -1    0    0    0  501  0.00000000000E+00  0.00000000000E+00  0.17678447693E+04  0.17678447693E+04  0.50400001928E-02 0. -1.
        1   -1    0    0  501    0  0.00000000000E+00  0.00000000000E+00 -0.12740679938E+04  0.12740679938E+04  0.50400001928E-02 0.  1.
    10030    2    1    2    0    0  0.00000000000E+00  0.00000000000E+00  0.49377677552E+03  0.30419127632E+04  0.30015692154E+04 0.  0.
        4    1    3    3  502    0  0.55813153719E+03  0.35301803217E+03 -0.11188976012E+04  0.12992559404E+04  0.12699999809E+01 0.  1.
       -4    1    3    3    0  502 -0.55813153719E+03 -0.35301803217E+03  0.16126743767E+04  0.17426568228E+04  0.12699999809E+01 0. -1.
</event>
<event>
 5   0  0.1560174E-06  0.3025370E+04  0.7818609E-02  0.8236523E-01
        2   -1    0    0  501    0  0.00000000000E+00  0.00000000000E+00  0.20178423789E+04  0.20178423789E+04  0.25500000920E-02 0.  1.
       -2   -1    0    0    0  501  0.00000000000E+00  0.00000000000E+00 -0.11339916336E+04  0.11339916336E+04  0.25500000920E-02 0. -1.
    10030    2    1    2    0    0  0.00000000000E+00  0.00000000000E+00  0.88385074527E+03  0.31518340125E+04  0.30253703083E+04 0.  0.
        5    1    3    3  502    0 -0.13775971471E+04 -0.57493952954E+03  0.18702468173E+03  0.15044366666E+04  0.46999998093E+01 0. -1.
       -5    1    3    3    0  502  0.13775971471E+04  0.57493952954E+03  0.69682606353E+03  0.16473973459E+04  0.46999998093E+01 0.  1.
</event>
<event>
 5   0  0.5931588E-07  0.2985858E+04  0.7818609E-02  0.8247781E-01
        1   -1    0    0  501    0  0.00000000000E+00  0.00000000000E+00  0.20581923868E+04  0.20581923868E+04  0.50400001928E-02 0. -1.
       -1   -1    0    0    0  501  0.00000000000E+00  0.00000000000E+00 -0.10829098778E+04  0.10829098778E+04  0.50400001928E-02 0.  1.
    10030    2    1    2    0    0  0.00000000000E+00  0.00000000000E+00  0.97528250897E+03  0.31411022646E+04  0.29858579109E+04 0.  0.
        2    1    3    3  502    0  0.93089516954E+03 -0.85042418352E+02 -0.73694339255E+03  0.11903291954E+04  0.25500000920E-02 0.  1.
       -2    1    3    3    0  502 -0.93089516954E+03  0.85042418352E+02  0.17122259015E+04  0.19507730692E+04  0.25500000920E-02 0. -1.
</event>
<event>
 5   0  0.1674806E-06  0.3004113E+04  0.7818609E-02  0.8242557E-01
       -2   -1    0    0    0  501  0.00000000000E+00  0.00000000000E+00  0.13512996211E+04  0.13512996211E+04  0.25500000920E-02 0.  1.
        2   -1    0    0  501    0  0.00000000000E+00  0.00000000000E+00 -0.16696325012E+04  0.16696325012E+04  0.25500000920E-02 0. -1.
    10030    2    1    2    0    0  0.00000000000E+00  0.00000000000E+00 -0.31833288010E+03  0.30209321222E+04  0.30041130246E+04 0.  0.
        2    1    3    3  502    0  0.15005156860E+04 -0.31133825226E+02 -0.98353678659E+02  0.15040578729E+04  0.25500000920E-02 0. -1.
       -2    1    3    3    0  502 -0.15005156860E+04  0.31133825226E+02 -0.21997920144E+03  0.15168742493E+04  0.25500000920E-02 0.  1.
</event>
<event>
 5   0  0.5916703E-07  0.2989052E+04  0.7818609E-02  0.8246864E-01
       -1   -1    0    0    0  501  0.00000000000E+00  0.00000000000E+00  0.10310879164E+04  0.10310879164E+04  0.50400001928E-02 0. -1.
        1   -1    0    0  501    0  0.00000000000E+00  0.00000000000E+00 -0.21662634367E+04  0.21662634367E+04  0.50400001928E-02 0.  1.
    10030    2    1    2    0    0  0.00000000000E+00  0.00000000000E+00 -0.11351755203E+04  0.31973513531E+04  0.29890520593E+04 0.  0.
        5    1    3    3  502    0 -0.11545259022E+04 -0.31223494904E+02  0.44702695781E+03  0.12384507081E+04  0.46999998093E+01 0. -1.
       -5    1    3    3    0  502  0.11545259022E+04  0.31223494904E+02 -0.15822024781E+04  0.19589006450E+04  0.46999998093E+01 0.  1.
</event>
</LesHouchesEvents>
